Membrane in water
40155
    1TCq1    O1    1   2.674   3.870  11.376  0.6372  0.1706  0.3338
    1TCq1    C1    2   2.557   3.824  11.343 -0.6620 -0.1909 -0.1413
    1TCq1    O2    3   2.459   3.848  11.411 -0.4481 -0.6097 -0.3376
    1TCq1    C2    4   2.579   3.703  11.282 -0.2225 -1.0195 -0.3717
    1TCq1    C3    5   2.698   3.699  11.216 -0.1852  0.2808  0.6308
    1TCq1    C4    6   2.781   3.589  11.232 -0.6797  0.1341 -0.0165
    1TCq1    C5    7   2.730   3.478  11.296  1.4286  0.1506  0.6951
    1TCq1    C6    8   2.604   3.483  11.352  0.1273  0.1995  0.2203
    1TCq1    C7    9   2.530   3.601  11.355 -0.2355  0.3423  0.6028
    1TCq1    C8   10   2.553   3.361  11.417  0.1809  0.0386  0.6611
    1TCq1    O4   11   2.469   3.383  11.499  0.2078 -0.3282  0.5234
    1TCq1    C9   12   2.906   3.588  11.164  0.2066  0.3388  0.0912
    1TCq1    O5   13   2.943   3.699  11.124  0.2054 -0.3243 -0.3008
    1TCq1    O6   14   2.964   3.477  11.143  0.0631 -0.1732  0.7713
    1TCq1    H1   15   2.740   3.804  11.346  1.0396  0.7281 -0.0094
    1TCq1    H2   16   2.737   3.784  11.162  0.9686  0.3956  1.6577
    1TCq1    H3   17   2.788   3.388  11.310  0.0247 -0.4230  2.8985
    1TCq1    H4   18   2.440   3.608  11.415  2.0360  1.2835  3.8746
    2MPD2     C   19   2.454   2.854  11.425  0.0440 -0.1150 -0.6500
    2MPD2    C1   20   2.385   2.962  11.479 -0.3664  0.0645  0.5141
    2MPD2    C2   21   2.432   3.090  11.471  0.1171 -0.2387  0.3911
    2MPD2    C3   22   2.544   3.112  11.393  0.4703 -0.2998  0.0326
    2MPD2    C4   23   2.611   3.002  11.340  0.0174 -0.3861 -0.5644
    2MPD2    C5   24   2.570   2.874  11.363 -0.2091  0.6255 -0.0359
    2MPD2     H   25   2.374   3.162  11.527 -1.0690 -0.3488 -0.6955
    2MPD2    H1   26   2.694   3.005  11.270  0.6323 -0.3912  0.1624
    2MPD2    H2   27   2.419   2.752  11.427  1.0379 -0.4131  1.3571
    2MPD2    H3   28   2.624   2.789  11.321  0.0260  0.9724 -0.4381
    2MPD2     N   29   2.605   3.242  11.368 -0.6166 -0.0341 -0.6770
    2MPD2    H5   30   2.692   3.256  11.317 -0.6460 -2.7459 -1.4403
    2MPD2    N1   31   2.264   2.958  11.545 -0.0410 -0.0163 -0.0822
    2MPD2    H7   32   2.212   3.044  11.555  2.6102  1.3621  1.9179
    3TCq1    O1   33   1.404   4.396  10.130 -0.1700 -0.2987  0.2196
    3TCq1    C1   34   1.339   4.442  10.233  0.3072  0.1902 -0.2479
    3TCq1    O2   35   1.221   4.414  10.262 -0.2063 -0.2117 -0.4386
    3TCq1    C2   36   1.433   4.489  10.334 -0.3035 -0.3179 -0.0234
    3TCq1    C3   37   1.558   4.536  10.300 -0.0304 -0.1548 -0.4625
    3TCq1    C4   38   1.639   4.569  10.406 -0.2920  0.4293  0.0502
    3TCq1    C5   39   1.598   4.546  10.534 -0.3540 -1.1046  0.3293
    3TCq1    C6   40   1.472   4.502  10.556 -0.0476  0.3611  0.2418
    3TCq1    C7   41   1.391   4.467  10.458  0.8066 -0.6038 -0.4429
    3TCq1    C8   42   1.419   4.513  10.693  0.6822 -0.5302  0.1591
    3TCq1    O4   43   1.316   4.449  10.723  0.2952 -0.3528  0.4324
    3TCq1    C9   44   1.762   4.632  10.384  0.5409 -0.2711  0.2305
    3TCq1    O5   45   1.813   4.691  10.480 -0.4018 -0.1660  0.3737
    3TCq1    O6   46   1.820   4.613  10.271  0.3053  0.5873 -0.3199
    3TCq1    H1   47   1.502   4.409  10.131  0.2924 -3.8728 -0.1789
    3TCq1    H2   48   1.588   4.560  10.198  0.0307 -2.1568 -0.9151
    3TCq1    H3   49   1.667   4.552  10.618  1.4744 -0.8330 -1.1868
    3TCq1    H4   50   1.288   4.440  10.478  0.4059 -1.0665 -3.0813
    4MPD2     C   51   1.428   0.032  11.137  0.3068 -1.0135  0.6219
    4MPD2    C1   52   1.504   0.105  11.050  0.2572 -0.2675 -0.0293
    4MPD2    C2   53   1.527   0.050  10.924 -0.2736 -0.1022 -0.2335
    4MPD2    C3   54   1.453   4.661  10.889  0.0054 -0.3053 -0.2234
    4MPD2    C4   55   1.387   4.582  10.979  0.3647  0.1302 -0.6818
    4MPD2    C5   56   1.388   4.629  11.107  0.1479 -0.3586  0.1839
    4MPD2     H   57   1.591   0.106  10.857  1.2845 -1.9422 -0.2764
    4MPD2    H1   58   1.359   4.481  10.951  1.5742 -0.1847 -0.7389
    4MPD2    H2   59   1.414   0.058  11.241  0.7980  0.2443  0.3720
    4MPD2    H3   60   1.344   4.568  11.185 -1.6239 -2.3905 -2.3958
    4MPD2     N   61   1.477   4.620  10.756  0.2439 -0.2646 -0.4823
    4MPD2    H5   62   1.546   4.676  10.707 -0.4404  0.9171 -0.0916
    4MPD2    N1   63   1.556   0.232  11.081 -0.2157  0.2744  0.0458
    4MPD2    H7   64   1.605   0.278  11.005 -0.9050  0.3028 -0.3829
    5TCq1    O1   65   2.122   2.033  10.400  0.3556  0.6188  0.3736
    5TCq1    C1   66   2.133   1.905  10.366  0.9655  0.3334  0.6968
    5TCq1    O2   67   2.108   1.806  10.436 -0.4284 -0.9214 -0.0699
    5TCq1    C2   68   2.218   1.905  10.249  0.4956 -0.7953 -1.1089
    5TCq1    C3   69   2.219   2.015  10.161 -0.5545  0.7644  0.2285
    5TCq1    C4   70   2.293   2.008  10.045 -0.3733 -0.0131 -0.3218
    5TCq1    C5   71   2.365   1.886  10.022  0.3979  0.0906  0.1351
    5TCq1    C6   72   2.358   1.784  10.113 -0.0827  0.4945  0.1901
    5TCq1    C7   73   2.283   1.792  10.225  0.2336  0.4191  0.3306
    5TCq1    C8   74   2.446   1.664  10.102 -0.2191 -0.7235 -0.2990
    5TCq1    O4   75   2.426   1.568  10.177 -0.1675 -0.0464 -0.5184
    5TCq1    C9   76   2.306   2.117   9.949 -0.4326  0.0405 -0.2853
    5TCq1    O5   77   2.209   2.197   9.948 -0.2397 -0.0411  0.1794
    5TCq1    O6   78   2.388   2.108   9.854  0.3271  0.1114  0.5628
    5TCq1    H1   79   2.170   2.090  10.337 -1.2172 -1.2727 -2.5195
    5TCq1    H2   80   2.154   2.101  10.172 -1.6953 -0.1765  0.8620
    5TCq1    H3   81   2.424   1.873   9.932 -0.6668  0.6136 -0.6447
    5TCq1    H4   82   2.291   1.729  10.312  0.2100  1.2034  0.9010
    6MPD2     C   83   2.782   1.670   9.936  0.2608 -0.1085  0.6185
    6MPD2    C1   84   2.678   1.622  10.017  0.2298 -0.6842  0.2115
    6MPD2    C2   85   2.700   1.503  10.078  0.0869  0.2081 -0.7925
    6MPD2    C3   86   2.819   1.430  10.067  0.3102 -0.9257  0.5726
    6MPD2    C4   87   2.917   1.478   9.987  0.3527  0.0857  0.6285
    6MPD2    C5   88   2.899   1.593   9.921 -0.0064 -0.2434 -0.3004
    6MPD2     H   89   2.630   1.474  10.156  2.8877  1.5628  2.2282
    6MPD2    H1   90   3.014   1.433   9.973  1.5962  2.8870  0.3593
    6MPD2    H2   91   2.778   1.766   9.886  1.7134 -0.6459 -0.5288
    6MPD2    H3   92   2.975   1.635   9.856  0.6542  0.0293  0.6502
    6MPD2     N   93   2.824   1.309  10.139  0.3623 -0.0759 -0.1969
    6MPD2    H5   94   2.744   1.287  10.197 -0.1768  1.1101 -0.4866
    6MPD2    N1   95   2.566   1.698  10.041  0.0230 -0.5903 -0.2565
    6MPD2    H7   96   2.556   1.793  10.006  1.9195 -0.3313 -0.0555
    7TCq1    O1   97   3.439   1.257  13.183 -0.0980 -0.6628  0.0007
    7TCq1    C1   98   3.503   1.276  13.302  0.5368  0.4106 -0.7427
    7TCq1    O2   99   3.474   1.353  13.393  0.0191 -0.0340 -0.6604
    7TCq1    C2  100   3.646   1.277  13.269  0.0654 -0.0699  0.7014
    7TCq1    C3  101   3.692   1.330  13.150 -0.4219 -0.0569 -0.0762
    7TCq1    C4  102   3.829   1.339  13.134  0.3941  1.0764 -0.3751
    7TCq1    C5  103   3.916   1.287  13.221  0.2665 -0.6602 -0.5847
    7TCq1    C6  104   3.869   1.231  13.337  0.0995  0.3408 -0.6794
    7TCq1    C7  105   3.734   1.235  13.364  0.2393 -0.2016 -0.0765
    7TCq1    C8  106   3.961   1.151  13.414 -0.9672 -1.3373 -0.0960
    7TCq1    O4  107   4.067   1.128  13.357  0.2232  0.2336 -0.2594
    7TCq1    C9  108   3.878   1.396  13.009  0.0410 -0.1055 -0.0417
    7TCq1    O5  109   3.997   1.379  12.972  0.4091 -0.1350  0.0390
    7TCq1    O6  110   3.797   1.470  12.946 -0.2194  0.0217  0.3120
    7TCq1    H1  111   3.486   1.183  13.139  1.5258  1.5388 -2.0278
    7TCq1    H2  112   3.631   1.353  13.063 -1.8651 -3.3693  0.0462
    7TCq1    H3  113   4.021   1.292  13.197  0.0545  1.3044 -1.0892
    7TCq1    H4  114   3.705   1.190  13.458  0.0860 -1.7522 -0.8741
    8MPD2     C  115   4.077   0.823  13.788 -0.7489  0.3470 -0.8047
    8MPD2    C1  116   4.116   0.818  13.656  0.3316 -0.2475 -0.0243
    8MPD2    C2  117   4.065   0.917  13.565  0.5586  0.0895 -1.0222
    8MPD2    C3  118   3.981   1.016  13.619  0.5179  0.0082 -0.3428
    8MPD2    C4  119   3.942   1.011  13.755 -0.3044  0.0128 -0.0601
    8MPD2    C5  120   3.990   0.920  13.842  0.8532  0.4873 -0.2773
    8MPD2     H  121   4.083   0.916  13.458 -0.6259 -4.4456 -1.2170
    8MPD2    H1  122   3.881   1.090  13.796  0.5644 -0.1845  1.6175
    8MPD2    H2  123   4.131   0.766  13.863  0.3118  1.6866 -0.5361
    8MPD2    H3  124   3.977   0.936  13.948  1.8673  1.3652 -0.2785
    8MPD2     N  125   3.919   1.115  13.540  0.4341  0.6962  0.2620
    8MPD2    H5  126   3.846   1.165  13.590 -0.0292  1.3672 -1.0855
    8MPD2    N1  127   4.199   0.709  13.616  0.0206  0.0544  0.4650
    8MPD2    H7  128   4.222   0.640  13.687 -1.9898  1.4521  2.4822
    9TCq1    O1  129   1.787   4.700  10.746 -0.6100 -0.3115 -0.3484
    9TCq1    C1  130   1.862   4.639  10.840 -0.0640 -0.0617  0.1803
    9TCq1    O2  131   1.819   4.596  10.949 -0.2888  0.4104  0.4765
    9TCq1    C2  132   2.008   4.620  10.810  0.2329 -0.4024  0.0719
    9TCq1    C3  133   2.065   4.670  10.696  0.1253  0.2272 -0.3007
    9TCq1    C4  134   2.195   4.645  10.670 -0.0984  0.2786 -0.2785
    9TCq1    C5  135   2.271   4.568  10.754  0.0249  0.2372  1.1837
    9TCq1    C6  136   2.207   4.505  10.859 -0.1693 -0.2685 -0.4373
    9TCq1    C7  137   2.072   4.530  10.893 -0.5608 -0.3425  1.2504
    9TCq1    C8  138   2.292   4.436  10.948  1.0805 -0.2778  0.4854
    9TCq1    O4  139   2.413   4.453  10.946  0.4327 -0.5301  0.0151
    9TCq1    C9  140   2.256   4.676  10.539 -0.2561  0.5743 -0.0757
    9TCq1    O5  141   2.184   0.025  10.459 -0.4538 -0.0667 -0.6338
    9TCq1    O6  142   2.374   4.635  10.509  0.1489 -0.4341  0.3092
    9TCq1    H1  143   1.836   4.712  10.661 -0.7241 -0.4505 -0.4350
    9TCq1    H2  144   2.014   0.018  10.632 -1.0452  0.0797  0.4731
    9TCq1    H3  145   2.375   4.546  10.732 -0.2157  1.5359 -1.2177
    9TCq1    H4  146   2.023   4.479  10.975 -1.4396 -3.3517 -1.1750
   10MPD2     C  147   2.410   4.235  11.145 -0.0520 -0.1485 -0.2486
   10MPD2    C1  148   2.279   4.266  11.122  0.6614 -0.1250  0.5343
   10MPD2    C2  149   2.188   4.222  11.219 -0.5029  0.9560 -0.1461
   10MPD2    C3  150   2.225   4.156  11.336  0.0886 -0.1154 -0.3663
   10MPD2    C4  151   2.360   4.128  11.357  0.3916  0.5415  1.2517
   10MPD2    C5  152   2.452   4.162  11.257 -0.4431  0.7083  0.1869
   10MPD2     H  153   2.086   4.257  11.207 -0.9083 -0.4344 -0.7869
   10MPD2    H1  154   2.397   4.086  11.450 -0.1809 -3.1829 -0.1995
   10MPD2    H2  155   2.490   4.261  11.076 -0.1298 -1.3994 -0.8036
   10MPD2    H3  156   2.557   4.140  11.277 -0.0624  2.5280  0.2428
   10MPD2     N  157   2.133   4.122  11.436 -0.1852 -0.0332 -0.2026
   10MPD2    H5  158   2.165   4.116  11.532 -0.1919 -0.3673 -0.2225
   10MPD2    N1  159   2.223   4.360  11.031  0.6849  0.7702  0.4868
   10MPD2    H7  160   2.122   4.353  11.027  0.7389  0.8380 -0.7829
   11TCq1    O1  161   3.265   3.894  13.962 -0.6926  0.3420  0.1875
   11TCq1    C1  162   3.129   3.902  13.978  0.4062 -0.1638 -0.2413
   11TCq1    O2  163   3.044   3.840  13.914  0.2820 -0.0218 -0.1095
   11TCq1    C2  164   3.103   3.941  14.117 -0.1708 -0.2473 -0.0931
   11TCq1    C3  165   3.202   3.933  14.213 -0.5332 -0.3031  0.1050
   11TCq1    C4  166   3.163   3.940  14.342  0.8305  0.8459  0.1866
   11TCq1    C5  167   3.036   3.947  14.384 -0.0756 -0.1590  0.9291
   11TCq1    C6  168   2.940   3.935  14.286 -0.0004  0.3921  0.5599
   11TCq1    C7  169   2.973   3.935  14.150  1.0409  0.1994  0.1068
   11TCq1    C8  170   2.797   3.922  14.329  0.2483  1.3790  0.4667
   11TCq1    O4  171   2.757   3.983  14.431  0.4602 -0.0567  0.1169
   11TCq1    C9  172   3.275   3.912  14.442 -0.8320 -0.7271  0.2983
   11TCq1    O5  173   3.386   3.967  14.424  0.3983  0.3923 -0.8211
   11TCq1    O6  174   3.234   3.895  14.557  0.2802 -0.1373  0.0363
   11TCq1    H1  175   3.303   3.961  14.023  0.2994 -0.0680  0.0112
   11TCq1    H2  176   3.308   3.915  14.199 -0.2795  1.3541 -0.1089
   11TCq1    H3  177   3.011   3.943  14.489  0.1106  0.0475  0.9802
   11TCq1    H4  178   2.900   3.938  14.070  1.9262  0.6685 -0.6795
   12MPD2     C  179   2.504   3.861  14.323 -0.7707  0.3452  0.1402
   12MPD2    C1  180   2.600   3.796  14.252  0.4104 -0.0273  0.1275
   12MPD2    C2  181   2.567   3.698  14.159  0.3159 -0.2001 -0.2407
   12MPD2    C3  182   2.436   3.656  14.153 -0.5112 -0.5151  0.4202
   12MPD2    C4  183   2.335   3.717  14.226  0.0770  0.0274  0.1661
   12MPD2    C5  184   2.374   3.818  14.311 -0.0082 -0.1432 -0.1754
   12MPD2     H  185   2.641   3.655  14.092  0.1906 -0.6176 -0.1118
   12MPD2    H1  186   2.243   3.659  14.235  1.9701 -2.5827  2.6249
   12MPD2    H2  187   2.529   3.942  14.390 -4.0949 -0.3612  2.2587
   12MPD2    H3  188   2.297   3.866  14.370 -1.6723 -0.6345 -1.9724
   12MPD2     N  189   2.398   3.553  14.063 -0.0893  0.1093  0.0182
   12MPD2    H5  190   2.300   3.530  14.046 -0.4612 -0.1222  2.3632
   12MPD2    N1  191   2.734   3.837  14.242 -0.1433 -0.3041 -0.0671
   12MPD2    H7  192   2.782   3.795  14.164  2.8922  1.0315  1.0849
   13TCq1    O1  193   2.539   4.162  10.341  0.4513  0.7346 -0.4033
   13TCq1    C1  194   2.458   4.186  10.450 -1.1428  0.0198 -0.0070
   13TCq1    O2  195   2.481   4.129  10.555  0.0394  0.3487 -0.5355
   13TCq1    C2  196   2.331   4.227  10.409  0.4549  0.0130  0.2746
   13TCq1    C3  197   2.316   4.325  10.310 -0.2714  0.3335  0.1328
   13TCq1    C4  198   2.192   4.370  10.288 -0.9565  0.3076 -0.1887
   13TCq1    C5  199   2.081   4.345  10.365 -0.1212 -0.3752  0.0665
   13TCq1    C6  200   2.107   4.264  10.471 -0.0855  0.0273 -0.5043
   13TCq1    C7  201   2.234   4.208  10.499 -0.8422 -0.3816  0.2510
   13TCq1    C8  202   2.014   4.253  10.584 -0.0651  0.1282  0.3362
   13TCq1    O4  203   2.049   4.240  10.700  0.3959  0.2172 -0.1245
   13TCq1    C9  204   2.163   4.458  10.173  0.2304 -0.2837 -0.4529
   13TCq1    O5  205   2.063   4.532  10.162 -0.5462  0.2171  0.0557
   13TCq1    O6  206   2.243   4.441  10.080 -0.2770  0.8225  0.2963
   13TCq1    H1  207   2.490   4.189  10.260 -1.0895  2.7043  1.1807
   13TCq1    H2  208   2.397   4.367  10.251 -1.9540  1.6941 -1.2219
   13TCq1    H3  209   1.981   4.388  10.363  1.3418  3.0141  0.3232
   13TCq1    H4  210   2.249   4.139  10.581 -0.7241  0.6067  1.0463
   14MPD2     C  211   1.662   4.194  10.544  0.2042  0.7329  0.3121
   14MPD2    C1  212   1.778   4.243  10.610 -0.1771  0.5912  0.2939
   14MPD2    C2  213   1.773   4.288  10.745 -0.2447  0.1957  0.1395
   14MPD2    C3  214   1.656   4.272  10.819  0.7927  0.3989  0.2987
   14MPD2    C4  215   1.547   4.224  10.753 -0.0015 -0.5663 -0.0830
   14MPD2    C5  216   1.549   4.192  10.623 -0.5174 -0.3925 -0.4735
   14MPD2     H  217   1.863   4.325  10.793 -0.4468 -0.0484  0.7026
   14MPD2    H1  218   1.452   4.228  10.806  1.0868 -0.3154  1.8368
   14MPD2    H2  219   1.669   4.166  10.440  0.6605  1.0738  0.2504
   14MPD2    H3  220   1.457   4.167  10.569  0.7763  0.4646 -3.0580
   14MPD2     N  221   1.660   4.295  10.958 -0.5018  0.1413 -0.0022
   14MPD2    H5  222   1.754   4.309  10.994 -0.7105  0.9042  0.2535
   14MPD2    N1  223   1.890   4.259  10.534 -0.3685 -0.3470 -0.1322
   14MPD2    H7  224   1.886   4.234  10.435 -0.6626 -0.4961 -0.0807
   15TCq1    O1  225   2.885   2.957   1.824  0.2188 -0.2246 -0.5631
   15TCq1    C1  226   2.996   2.912   1.761  0.0744 -0.6370  0.0994
   15TCq1    O2  227   3.036   2.792   1.757 -0.1650  0.0564 -0.1478
   15TCq1    C2  228   3.062   3.022   1.687  0.3957 -0.0742  0.4946
   15TCq1    C3  229   2.989   3.085   1.586  0.1201  0.5530 -0.3325
   15TCq1    C4  230   3.054   3.135   1.481  0.9886  0.3520  0.0253
   15TCq1    C5  231   3.191   3.125   1.463  0.1251 -0.1709 -0.1477
   15TCq1    C6  232   3.255   3.060   1.560 -0.5022  0.7750 -0.1199
   15TCq1    C7  233   3.194   3.015   1.674 -0.2712  0.2262 -1.0530
   15TCq1    C8  234   3.399   3.024   1.553  0.1374 -0.5972 -0.1587
   15TCq1    O4  235   3.445   2.964   1.649 -0.0185 -0.0270  0.4548
   15TCq1    C9  236   2.984   3.219   1.392 -0.7933  0.3197  0.3418
   15TCq1    O5  237   3.038   3.289   1.299 -0.6854  0.1049 -0.6686
   15TCq1    O6  238   2.857   3.204   1.402  0.4231 -0.4778  0.1271
   15TCq1    H1  239   2.869   3.053   1.810 -1.1360 -0.3693  0.0429
   15TCq1    H2  240   2.882   3.106   1.589  0.4608  2.2258  0.1463
   15TCq1    H3  241   3.239   3.173   1.378  1.2265 -0.3427  0.3706
   15TCq1    H4  242   3.246   2.950   1.743 -0.8664 -1.8649 -2.5746
   16MPD2     C  243   3.634   3.056   1.266 -0.1799 -0.0258 -0.2805
   16MPD2    C1  244   3.592   3.010   1.390  0.1934 -0.5329  0.3028
   16MPD2    C2  245   3.662   2.912   1.456 -0.2138 -0.1729 -0.2031
   16MPD2    C3  246   3.780   2.865   1.401 -0.1309  0.0842 -0.5198
   16MPD2    C4  247   3.826   2.920   1.285 -0.8070 -0.3411 -0.2216
   16MPD2    C5  248   3.753   3.007   1.211 -0.3476 -0.5318 -0.1175
   16MPD2     H  249   3.635   2.879   1.556 -0.1239  0.4028  0.0084
   16MPD2    H1  250   3.919   2.889   1.238  0.0620  0.2087  1.1183
   16MPD2    H2  251   3.569   3.124   1.210 -1.0413  0.7831  1.6971
   16MPD2    H3  252   3.786   3.035   1.112 -0.4580 -0.7699 -0.2199
   16MPD2     N  253   3.850   2.765   1.474  0.3522  0.4939  0.8905
   16MPD2    H5  254   3.821   2.753   1.571 -1.0729 -0.5275  0.3408
   16MPD2    N1  255   3.464   3.063   1.436  0.5538  0.1768  0.5484
   16MPD2    H7  256   3.417   3.118   1.365  1.3252  0.3485  0.1689
   17TCq1    O1  257   2.065   3.392  11.368  0.8434 -0.0221 -0.1562
   17TCq1    C1  258   2.173   3.363  11.286  0.5795 -0.0566 -0.1451
   17TCq1    O2  259   2.267   3.445  11.270  0.2486  0.7985  0.7835
   17TCq1    C2  260   2.165   3.225  11.237  0.2102 -0.3708 -0.6838
   17TCq1    C3  261   2.045   3.162  11.221  0.7923 -0.4980  0.1165
   17TCq1    C4  262   2.037   3.042  11.164 -0.9909  0.7995  0.2666
   17TCq1    C5  263   2.147   2.977  11.118  0.0709  0.2477 -0.4476
   17TCq1    C6  264   2.263   3.053  11.111  0.9462  0.2819  0.2446
   17TCq1    C7  265   2.276   3.178  11.175  0.0387  0.1716  0.1227
   17TCq1    C8  266   2.384   2.991  11.049  0.6320  0.5863 -0.0364
   17TCq1    O4  267   2.380   2.870  11.029  0.2508  0.0062  0.1228
   17TCq1    C9  268   1.904   2.991  11.135 -0.1785 -0.0727 -0.3282
   17TCq1    O5  269   1.823   3.080  11.114 -0.3544  0.4946 -0.4436
   17TCq1    O6  270   1.893   2.870  11.101  0.0630 -0.1635 -0.0300
   17TCq1    H1  271   2.006   3.316  11.386  0.0651  0.5958 -0.0703
   17TCq1    H2  272   1.945   3.195  11.249  0.0759 -0.4206 -2.5509
   17TCq1    H3  273   2.135   2.887  11.058 -2.0104 -0.2244  0.6591
   17TCq1    H4  274   2.373   3.227  11.177 -0.1168  0.4861 -0.0797
   18MPD2     C  275   2.664   2.924  10.974 -0.7169  0.2000 -0.1242
   18MPD2    C1  276   2.611   3.056  10.967  0.4785 -0.3005  0.2548
   18MPD2    C2  277   2.693   3.153  10.911 -0.0440  0.0048 -0.1723
   18MPD2    C3  278   2.816   3.124  10.858 -0.3700 -0.3887  0.1630
   18MPD2    C4  279   2.856   2.992  10.851  0.0551 -0.0596 -0.8035
   18MPD2    C5  280   2.779   2.892  10.908  0.1298 -0.5074 -0.1864
   18MPD2     H  281   2.648   3.252  10.911 -0.3820 -0.1462 -1.3420
   18MPD2    H1  282   2.954   2.958  10.820 -0.0866 -0.8270 -0.4263
   18MPD2    H2  283   2.610   2.847  11.027  0.8476  0.1552  1.3896
   18MPD2    H3  284   2.819   2.792  10.896 -1.4312 -0.9689 -1.5000
   18MPD2     N  285   2.903   3.223  10.801 -0.0361  0.3928 -0.1513
   18MPD2    H5  286   2.987   3.181  10.764 -0.2183 -0.9840  0.9805
   18MPD2    N1  287   2.483   3.087  11.011 -0.2417 -0.1545  0.2768
   18MPD2    H7  288   2.443   3.179  10.995 -0.2983 -0.5883 -2.1736
   19TMC2    C1  289   3.917   3.852  13.565  0.1865  0.2113  0.4339
   19TMC2    C2  290   3.866   3.935  13.469 -0.3746  0.5346 -0.0131
   19TMC2    C3  291   3.730   3.923  13.445  0.2402  0.2269 -0.1636
   19TMC2    C4  292   3.841   3.763  13.637  0.5346  0.1477 -0.5588
   19TMC2    C5  293   3.705   3.769  13.615  0.4475  0.7090 -0.4012
   19TMC2    C6  294   3.648   3.857  13.524  0.2397 -0.3000  0.3142
   19TMC2     C  295   4.055   3.872  13.582 -0.5175 -0.5712  0.4918
   19TMC2     O  296   4.119   3.939  13.503 -0.5440 -0.8674  0.1146
   19TMC2     H  297   3.933   4.006  13.422 -1.0372  0.5537 -0.9391
   19TMC2    H1  298   3.893   3.680  13.681  1.6046  1.1200  0.0120
   19TMC2    H2  299   3.546   3.848  13.488 -0.1594 -2.7526  2.0600
   19TMC2    C7  300   3.621   3.651  13.648 -0.4303  0.4164 -0.0002
   19TMC2    C8  301   3.670   3.993  13.328 -0.5884  0.2524 -0.0433
   19TMC2    O1  302   3.678   3.564  13.709  0.6766  0.0181 -0.7296
   19TMC2    O2  303   3.554   4.023  13.312 -0.6889  0.0954  0.4993
   19TMC2    O5  304   3.769   4.035  13.251 -0.5728  0.0422  0.3267
   19TMC2    H5  305   3.857   3.994  13.267 -0.3355  0.7727  0.8859
   20MPD2     C  306   4.320   3.925  13.719 -0.0605 -0.6107  0.3760
   20MPD2    C1  307   4.218   3.843  13.768  0.5081  0.4479 -0.0908
   20MPD2    C2  308   4.238   3.780  13.888  0.8485  0.7128 -0.1341
   20MPD2    C3  309   4.364   3.776  13.951  0.7353  0.1831  0.1038
   20MPD2    C4  310   4.467   3.856  13.896 -0.8342  0.1995  0.7852
   20MPD2    C5  311   4.439   3.933  13.786  0.4887 -0.3365 -0.2883
   20MPD2     H  312   4.162   3.710  13.920  0.5973  0.6927 -0.7780
   20MPD2    H1  313   4.565   3.863  13.941  0.2126  3.2988 -2.0006
   20MPD2    H2  314   4.321   3.960  13.617  1.0786  1.2703  1.0338
   20MPD2    H3  315   4.518   3.997  13.749 -0.6332  0.6804 -0.8915
   20MPD2     N  316   4.399   3.702  14.072 -0.8380  0.8988 -0.0904
   20MPD2    H5  317   4.500   3.695  14.084 -0.6534 -0.2229 -2.1547
   20MPD2    N1  318   4.093   3.826  13.705  0.2316  0.8422  0.1591
   20MPD2    H7  319   4.020   3.783  13.761 -0.2782  0.9371 -0.4324
   21MPD2     C  320   1.289   4.339  14.017  0.2139  0.1318 -0.7935
   21MPD2    C1  321   1.310   4.211  14.053 -0.3823  0.5560  0.3066
   21MPD2    C2  322   1.225   4.153  14.149  0.2529  0.2452 -0.1018
   21MPD2    C3  323   1.120   4.226  14.203 -0.4101 -0.4829  0.0294
   21MPD2    C4  324   1.087   4.347  14.150  1.0000 -0.7611 -0.0635
   21MPD2    C5  325   1.184   4.407  14.067 -0.0805 -0.2091 -0.0341
   21MPD2     H  326   1.248   4.058  14.196 -1.0690 -0.0505 -0.0678
   21MPD2    H1  327   1.002   4.410  14.174  0.6866 -0.5886 -1.6018
   21MPD2    H2  328   1.349   4.389  13.943  1.1692 -1.3113 -0.9887
   21MPD2    H3  329   1.174   4.507  14.026  2.1650 -0.3556 -0.9586
   21MPD2     N  330   1.041   4.179  14.308  0.1546 -0.3422  0.3926
   21MPD2    H5  331   0.977   4.244  14.351 -1.0455 -1.1946 -0.1004
   21MPD2    N1  332   1.408   4.124  13.992  0.3187  0.4184  0.3696
   21MPD2    H7  333   1.400   4.027  14.021 -0.8476  0.4776  0.2487
   22TCq2    C1  334   1.069   4.062  14.385 -0.1147 -0.1640  0.9822
   22TCq2    O2  335   1.175   4.001  14.393 -0.0782 -0.3146  0.0700
   22TCq2    C2  336   0.969   4.027  14.480 -0.1556  0.6872  0.5602
   22TCq2    C3  337   0.996   3.936  14.581 -0.3120 -0.3694  0.8254
   22TCq2    C4  338   0.893   3.888  14.651  0.1878 -0.0508 -0.4547
   22TCq2    C5  339   0.767   3.921  14.626  0.6268  0.6924 -0.5122
   22TCq2    C6  340   0.740   4.007  14.524  0.2516 -0.1324  0.4133
   22TCq2    C7  341   0.838   4.062  14.450  0.2604  0.9162  0.0315
   22TCq2    C8  342   0.598   4.054  14.508  0.3335  0.4674 -0.2905
   22TCq2    O4  343   0.519   3.980  14.566  0.0413 -0.6890  0.0298
   22TCq2    C9  344   0.933   3.802  14.763  0.0859  0.0636 -0.5267
   22TCq2    O5  345   0.834   3.739  14.816  0.3019 -0.4414 -0.0668
   22TCq2    O6  346   1.054   3.804  14.812 -0.2644 -0.2061  0.3049
   22TCq2    H2  347   1.097   3.908  14.608  0.2802  0.3970 -0.6101
   22TCq2    H3  348   0.685   3.884  14.687  0.6997 -0.3688 -1.0563
   22TCq2    H4  349   0.813   4.125  14.366  0.3947  0.7408 -0.1376
   23MPD2     C  350   2.714   0.043  14.595  0.8278  0.0579  0.3407
   23MPD2    C1  351   2.588   0.011  14.638 -0.2137 -0.6874 -0.7967
   23MPD2    C2  352   2.478   0.041  14.556 -0.2692 -0.0431  0.0650
   23MPD2    C3  353   2.497   0.099  14.436  0.2000 -0.0168 -0.6239
   23MPD2    C4  354   2.626   0.118  14.392 -0.0788 -0.5165 -0.0328
   23MPD2    C5  355   2.733   0.095  14.472 -0.2146  0.6785  0.4023
   23MPD2     H  356   2.381   0.019  14.601 -1.4258  1.7186 -1.5656
   23MPD2    H1  357   2.643   0.158  14.293  2.7683  2.5222  1.6811
   23MPD2    H2  358   2.806   0.023  14.648  0.5088  0.3348  0.9998
   23MPD2    H3  359   2.835   0.103  14.437  0.1135  1.7584  1.6045
   23MPD2     N  360   2.395   0.136  14.354 -0.5439 -0.1830  0.1058
   23MPD2    H5  361   2.418   0.192  14.273  1.0033 -1.2304 -0.1916
   23MPD2    N1  362   2.556   4.702  14.775  0.0165 -0.1012 -0.2145
   23MPD2    H7  363   2.460   4.709  14.807  0.0093 -1.7988  0.0963
   24TCq2    C1  364   2.263   0.095  14.368  0.3454  0.2329  0.4531
   24TCq2    O2  365   2.221   0.006  14.442 -0.3976  0.4287  0.3002
   24TCq2    C2  366   2.172   0.166  14.278  0.5271 -0.4767 -0.4200
   24TCq2    C3  367   2.182   0.300  14.275 -0.1130 -0.0139 -0.3581
   24TCq2    C4  368   2.074   0.367  14.219 -0.6150 -0.9375  0.3928
   24TCq2    C5  369   1.960   0.301  14.177 -0.0208 -0.1543  0.1261
   24TCq2    C6  370   1.950   0.160  14.197 -0.1111 -0.1527 -0.4598
   24TCq2    C7  371   2.060   0.092  14.251  0.3213 -0.8201 -0.2634
   24TCq2    C8  372   1.817   0.095  14.221 -0.7062  1.1387 -0.1538
   24TCq2    O4  373   1.803   4.709  14.270  0.2958 -0.1030 -0.1221
   24TCq2    C9  374   2.070   0.511  14.217  0.1966  0.2927 -0.8432
   24TCq2    O5  375   1.968   0.568  14.170  0.0709  0.1894 -0.2864
   24TCq2    O6  376   2.160   0.564  14.289  0.2491 -0.3685 -0.0228
   24TCq2    H2  377   2.267   0.342  14.328 -0.0563  0.7702 -1.0849
   24TCq2    H3  378   1.872   0.358  14.149  1.0716  2.3305  1.7426
   24TCq2    H4  379   2.053   4.707  14.257 -2.6136 -0.6442 -0.4807
   25TMC2    C1  380   2.106   2.549  11.131  0.4892 -0.0029  0.0652
   25TMC2    C2  381   2.218   2.523  11.214 -0.0281 -0.1191 -0.0264
   25TMC2    C3  382   2.205   2.528  11.348  0.5380  0.6105 -0.3055
   25TMC2    C4  383   1.983   2.594  11.184  0.6460 -0.1109  0.4055
   25TMC2    C5  384   1.974   2.587  11.320 -0.1549  1.0660 -0.6450
   25TMC2    C6  385   2.082   2.544  11.397 -0.7230  0.5226 -0.1210
   25TMC2     C  386   2.114   2.482  11.004 -0.0513  0.8515  0.0705
   25TMC2     O  387   2.215   2.494  10.942 -0.2876  0.2259 -0.4441
   25TMC2     H  388   2.306   2.486  11.162  0.4395 -1.6441  1.8323
   25TMC2    H1  389   1.905   2.631  11.119  0.2319 -0.5965  0.6237
   25TMC2    H2  390   2.069   2.535  11.505  2.8030 -2.0501  0.0797
   25TMC2    C7  391   1.861   2.645  11.389 -0.2907 -0.0996 -0.1442
   25TMC2    C8  392   2.302   2.437  11.416  0.4307  0.5390  1.3205
   25TMC2    O1  393   1.851   2.596  11.498  0.0758 -0.0960 -0.2414
   25TMC2    O2  394   2.343   2.339  11.356  0.4894  0.8271  0.0467
   25TMC2    O5  395   2.283   2.435  11.551  0.2358 -0.3584 -0.3865
   25TMC2    H5  396   2.251   2.524  11.578  0.4885 -0.3663 -0.0653
   26MPD2     C  397   1.928   2.143  10.671 -0.3603  0.4335 -1.0592
   26MPD2    C1  398   1.833   2.154  10.769  0.6480  0.2013  0.2956
   26MPD2    C2  399   1.866   2.232  10.878 -0.0615  0.0057  1.4988
   26MPD2    C3  400   1.981   2.311  10.878  0.1226 -0.3532 -0.1068
   26MPD2    C4  401   2.075   2.298  10.778  0.2413  0.4322  0.1376
   26MPD2    C5  402   2.046   2.207  10.677 -0.1568  0.0416 -0.2099
   26MPD2     H  403   1.787   2.253  10.949 -0.1971  0.4976  1.1965
   26MPD2    H1  404   2.165   2.359  10.783  1.3276 -1.0169 -1.9404
   26MPD2    H2  405   1.897   2.078  10.590  1.8857 -2.3359  0.2899
   26MPD2    H3  406   2.117   2.199  10.595  0.3869  1.7146  0.0891
   26MPD2     N  407   2.001   2.404  10.984 -0.4890  0.3258  0.0538
   26MPD2    H5  408   1.927   2.405  11.054 -1.0102 -2.7563 -0.4625
   26MPD2    N1  409   1.709   2.087  10.752  0.2298  0.2664  0.2702
   26MPD2    H7  410   1.698   2.022  10.674  2.0185 -0.5365  0.6811
   27TMC2    C1  411   0.825   4.386  12.067 -0.6648  0.5191 -0.3132
   27TMC2    C2  412   0.890   4.309  11.979 -0.3211  0.2196 -0.3507
   27TMC2    C3  413   0.931   4.369  11.865  0.4468 -0.0494 -0.1339
   27TMC2    C4  414   0.797   4.517  12.031 -0.0788  0.7482  0.1856
   27TMC2    C5  415   0.849   4.574  11.920 -0.4661 -0.1422  0.1212
   27TMC2    C6  416   0.920   4.502  11.839  0.4209  0.0639  0.3113
   27TMC2     C  417   0.735   4.319  12.162 -0.1087 -0.4583  0.1209
   27TMC2     O  418   0.763   4.205  12.187 -0.1737  0.4155  0.3630
   27TMC2     H  419   0.918   4.207  12.002  1.2311  0.2937 -1.9566
   27TMC2    H1  420   0.741   4.581  12.098  1.6946  2.3073  0.1566
   27TMC2    H2  421   0.951   4.537  11.742 -1.8323  0.2680 -0.3364
   27TMC2    C7  422   0.802   4.700  11.881 -1.0034 -0.1448 -0.4484
   27TMC2    C8  423   1.018   4.303  11.770 -0.0075  0.4721 -0.1835
   27TMC2    O1  424   0.750   0.043  11.968  0.2001 -0.8012 -0.3352
   27TMC2    O2  425   1.095   4.373  11.705  0.0900 -0.1839  0.0338
   27TMC2    O5  426   0.956   4.190  11.730 -0.3714  0.3825  0.0042
   27TMC2    H5  427   0.881   4.168  11.789 -0.1659 -1.3291 -0.3801
   28MPD2     C  428   0.371   4.305  12.521 -0.6591  0.2377 -0.5458
   28MPD2    C1  429   0.350   4.414  12.437  0.0772 -0.2321  0.1073
   28MPD2    C2  430   0.444   4.452  12.342 -0.0197  0.0394 -0.2177
   28MPD2    C3  431   0.554   4.367  12.318 -0.1331 -0.7820 -0.4954
   28MPD2    C4  432   0.574   4.267  12.404  0.5377 -0.3208 -0.2604
   28MPD2    C5  433   0.484   4.233  12.501  0.5544  0.1675  0.2949
   28MPD2     H  434   0.430   4.539  12.279 -2.7412  0.8901  1.5893
   28MPD2    H1  435   0.666   4.210  12.400  0.4464 -0.4742 -0.2010
   28MPD2    H2  436   0.292   4.279  12.591  0.5787  1.1292  1.1554
   28MPD2    H3  437   0.502   4.146  12.564 -2.1613 -0.5337  0.0619
   28MPD2     N  438   0.635   4.400  12.203  1.1502 -0.6186  0.2024
   28MPD2    H5  439   0.607   4.484  12.155  1.2024 -0.6879  0.0519
   28MPD2    N1  440   0.227   4.474  12.443 -0.4608  0.0694 -0.8081
   28MPD2    H7  441   0.164   4.431  12.509  1.5429 -1.8453 -0.1378
   29MPD2     C  442   4.214   2.078  13.992 -0.3877  0.3551 -0.3163
   29MPD2    C1  443   4.266   2.090  14.118 -0.4146 -0.2156  0.0563
   29MPD2    C2  444   4.295   2.220  14.161 -0.2855 -0.8440 -0.2040
   29MPD2    C3  445   4.302   2.323  14.069  0.8646 -0.1131 -0.1617
   29MPD2    C4  446   4.263   2.305  13.943 -0.4526  0.3250  0.1362
   29MPD2    C5  447   4.206   2.188  13.911  0.6660  0.4671  0.0396
   29MPD2     H  448   4.324   2.246  14.263 -4.0257 -0.1560  0.6669
   29MPD2    H1  449   4.267   2.386  13.871 -1.0252 -0.6130 -0.9531
   29MPD2    H2  450   4.174   1.983  13.959 -0.8080  0.6591 -0.6968
   29MPD2    H3  451   4.164   2.184  13.811  1.1068  0.5808 -0.1510
   29MPD2     N  452   4.361   2.452  14.104  0.2463 -0.2463  0.0152
   29MPD2    H5  453   4.364   2.520  14.029 -0.6743  1.6494  1.6901
   29MPD2    N1  454   4.287   1.979  14.206 -0.1419 -0.0484  0.0946
   29MPD2    H7  455   4.346   1.991  14.289 -0.8038  1.6215  0.3215
   30TCq2    C1  456   4.406   2.498  14.234 -0.3893 -0.5310  0.2957
   30TCq2    O2  457   4.372   2.458  14.348  0.7070  0.1456 -0.5807
   30TCq2    C2  458   4.483   2.624  14.223 -1.0261 -0.5700 -0.4960
   30TCq2    C3  459   4.468   2.703  14.329  0.1294 -0.7227 -0.1730
   30TCq2    C4  460   4.505   2.838  14.319 -0.2208  0.4405 -0.1297
   30TCq2    C5  461   4.547   2.884  14.197  0.1812 -0.0337 -0.0299
   30TCq2    C6  462   4.575   2.795  14.096 -0.2776  0.3053  0.5029
   30TCq2    C7  463   4.537   2.664  14.100 -0.2165 -0.2357  0.2956
   30TCq2    C8  464   4.685   2.832  14.006 -0.2377  0.4638 -0.1915
   30TCq2    O4  465   4.711   2.741  13.930 -0.1560  0.0504 -0.1653
   30TCq2    C9  466   4.474   2.926  14.425  0.2571  0.1138 -0.0655
   30TCq2    O5  467   4.426   2.879  14.527 -0.4569  0.6054  0.5384
   30TCq2    O6  468   4.545   3.030  14.440 -0.1679 -0.0030 -0.2475
   30TCq2    H2  469   4.411   2.673  14.416 -1.7672  0.7853 -0.9085
   30TCq2    H3  470   4.566   2.990  14.194  0.1934 -0.0952 -1.9774
   30TCq2    H4  471   4.538   2.598  14.013  1.6387  2.3378 -1.6322
   31MPD2     C  472   2.348   1.270  14.311  0.0975 -0.2489  0.0323
   31MPD2    C1  473   2.233   1.336  14.314 -0.7845  0.0321  0.3268
   31MPD2    C2  474   2.139   1.292  14.410 -0.4240 -0.4051 -0.4916
   31MPD2    C3  475   2.169   1.187  14.498 -0.8834  0.0573  0.2705
   31MPD2    C4  476   2.293   1.129  14.491 -0.9600  0.5308 -0.0309
   31MPD2    C5  477   2.382   1.170  14.398  0.0570 -0.2135  0.3259
   31MPD2     H  478   2.038   1.333  14.405 -0.2455  0.1222  0.1762
   31MPD2    H1  479   2.329   1.050  14.556  0.1590  2.3414  1.5357
   31MPD2    H2  480   2.421   1.288  14.232 -1.7912  0.5565 -1.5303
   31MPD2    H3  481   2.485   1.135  14.399 -1.0080 -3.3773  0.0300
   31MPD2     N  482   2.084   1.154  14.609  0.2840 -0.0526 -0.3942
   31MPD2    H5  483   2.123   1.083  14.671 -0.3235  0.3316  0.4303
   31MPD2    N1  484   2.209   1.439  14.217 -0.3012  0.3125 -0.2371
   31MPD2    H7  485   2.287   1.459  14.155 -1.3800  2.2644 -0.9711
   32TCq2    C1  486   1.951   1.190  14.625  0.7526  0.0169  0.7132
   32TCq2    O2  487   1.875   1.256  14.555 -0.0521  0.1948 -0.1631
   32TCq2    C2  488   1.889   1.148  14.752  0.1819  0.3876 -0.0043
   32TCq2    C3  489   1.757   1.154  14.753 -0.0614 -0.3826  0.1409
   32TCq2    C4  490   1.691   1.109  14.865  0.1275 -0.4220  0.2536
   32TCq2    C5  491   1.760   1.058  14.976  0.4958 -0.3920  0.3330
   32TCq2    C6  492   1.895   1.038  14.964  0.1436  0.4126 -0.0505
   32TCq2    C7  493   1.955   1.088  14.854 -0.0055 -0.1771  0.7461
   32TCq2    C8  494   1.983   1.005  15.079  0.2151 -0.1898  0.4141
   32TCq2    O4  495   2.100   0.974  15.063  0.2693  0.0997  0.0230
   32TCq2    C9  496   1.549   1.132  14.874  0.1324 -0.6411 -0.7175
   32TCq2    O5  497   1.511   1.153  14.994 -0.2122  0.7859 -0.2440
   32TCq2    O6  498   1.494   1.167  14.763 -0.4649 -0.1418 -0.0280
   32TCq2    H2  499   1.701   1.192  14.668 -0.7239 -0.9652  0.3195
   32TCq2    H3  500   1.700   1.024  15.060 -0.3687  0.6104  0.1151
   32TCq2    H4  501   2.063   1.078  14.856  0.2017  1.5302 -1.5785
   33MPD2     C  502   2.972   4.037  10.695 -0.5648 -0.0799  0.2465
   33MPD2    C1  503   3.020   3.963  10.593 -0.6785  0.5539  0.5151
   33MPD2    C2  504   3.004   4.008  10.465  0.2642 -0.3796 -0.6980
   33MPD2    C3  505   2.927   4.126  10.446 -0.6507  0.2236 -0.4525
   33MPD2    C4  506   2.847   4.171  10.552 -0.1179  0.3668 -0.2558
   33MPD2    C5  507   2.876   4.131  10.679  0.3247  0.5480  0.0141
   33MPD2     H  508   3.045   3.950  10.383 -0.6771 -1.1691 -0.6157
   33MPD2    H1  509   2.773   4.246  10.528  1.2454  1.9396  0.4672
   33MPD2    H2  510   3.002   4.013  10.796 -0.8961 -2.0421 -0.1274
   33MPD2    H3  511   2.837   4.192  10.760 -2.5309  1.2957 -1.8802
   33MPD2     N  512   2.894   4.190  10.321  0.2672  0.0442 -0.3870
   33MPD2    H5  513   2.817   4.255  10.327 -1.3594 -1.9345 -0.0352
   33MPD2    N1  514   3.088   3.846  10.606  0.1234  0.5829 -0.8395
   33MPD2    H7  515   3.127   3.806  10.522  0.3870 -0.5942 -0.1533
   34TCq2    C1  516   2.947   4.164  10.195  0.2054 -0.4958 -0.2781
   34TCq2    O2  517   3.064   4.131  10.168  0.3255  0.8326 -0.3891
   34TCq2    C2  518   2.878   4.225  10.085  0.0915 -0.2290 -0.1491
   34TCq2    C3  519   2.738   4.222  10.090 -0.5655  0.0201 -0.3994
   34TCq2    C4  520   2.673   4.303  10.002  0.1909  0.3677 -0.1632
   34TCq2    C5  521   2.743   4.370   9.898 -1.1335 -0.2363  0.4383
   34TCq2    C6  522   2.882   4.358   9.900  0.1896  0.3173 -0.1990
   34TCq2    C7  523   2.955   4.294  10.000 -0.1061  0.1014 -0.2080
   34TCq2    C8  524   2.960   4.407   9.790  0.1184  0.3828  0.4430
   34TCq2    O4  525   3.075   4.425   9.814 -0.0731  0.0614  0.1137
   34TCq2    C9  526   2.529   4.284  10.002  0.5285 -0.5255 -0.2402
   34TCq2    O5  527   2.478   4.217  10.097  0.2081 -0.1586 -0.1444
   34TCq2    O6  528   2.466   4.320   9.898 -0.0684 -0.0669  0.1307
   34TCq2    H2  529   2.688   4.149  10.153  2.1937  0.0735  1.8578
   34TCq2    H3  530   2.695   4.432   9.823  0.0281  1.4460  1.0913
   34TCq2    H4  531   3.064   4.288  10.004 -0.2525 -0.3938  2.9342
   35MPD2     C  532   4.493   0.400  11.410 -0.0618 -0.1049  0.2546
   35MPD2    C1  533   4.481   0.301  11.506 -0.6031 -0.1438 -0.3008
   35MPD2    C2  534   4.369   0.223  11.504  0.0664  0.1230  0.0879
   35MPD2    C3  535   4.268   0.252  11.417  0.1211  0.7476  0.0429
   35MPD2    C4  536   4.284   0.340  11.316  0.2056  0.1371  0.6098
   35MPD2    C5  537   4.398   0.407  11.310 -0.5367  0.0539 -0.4526
   35MPD2     H  538   4.351   0.153  11.584 -0.9285  0.8973  0.5404
   35MPD2    H1  539   4.216   0.336  11.232  0.2857  1.4695  0.4811
   35MPD2    H2  540   4.580   0.465  11.408  1.3621 -2.0023  1.4231
   35MPD2    H3  541   4.419   0.478  11.231 -0.7644 -0.0518 -0.6073
   35MPD2     N  542   4.141   0.182  11.429 -0.0094 -0.3859  0.5576
   35MPD2    H5  543   4.134   0.119  11.508  0.3667 -0.1685  0.7643
   35MPD2    N1  544   4.576   0.275  11.604 -0.1170  0.0563 -0.3804
   35MPD2    H7  545   4.642   0.349  11.625  1.3629 -1.5594  0.6223
   36TCq2    C1  546   4.028   0.201  11.356  0.1551 -1.5952 -0.2777
   36TCq2    O2  547   4.018   0.259  11.245 -0.0779  0.2387  0.0991
   36TCq2    C2  548   3.908   0.140  11.414  0.1302  0.0974  0.3540
   36TCq2    C3  549   3.795   0.146  11.343 -0.3658 -0.3639  0.3562
   36TCq2    C4  550   3.677   0.105  11.403 -1.2379  0.3602 -0.4011
   36TCq2    C5  551   3.666   0.051  11.530  0.2945 -0.5963  0.5173
   36TCq2    C6  552   3.788   0.041  11.595 -0.4814 -0.3773 -0.7878
   36TCq2    C7  553   3.906   0.083  11.541 -0.2134  0.3488 -0.3910
   36TCq2    C8  554   3.777   4.675  11.709 -0.0458  0.2485 -0.5821
   36TCq2    O4  555   3.673   4.614  11.725  0.0121  0.0788 -0.1135
   36TCq2    C9  556   3.557   0.125  11.328 -0.0890 -0.2835 -0.1276
   36TCq2    O5  557   3.570   0.187  11.218  0.1337  0.0878 -0.1981
   36TCq2    O6  558   3.448   0.083  11.378 -0.3897 -0.0878  0.3951
   36TCq2    H2  559   3.794   0.189  11.243  2.2200  1.8535  1.2928
   36TCq2    H3  560   3.568   0.024  11.566 -1.6630  3.0303 -2.1028
   36TCq2    H4  561   3.997   0.074  11.598 -0.1291 -1.2373 -0.7784
   37TMC2    C1  562   1.826   0.321  11.621  0.1038 -0.5409 -0.0934
   37TMC2    C2  563   1.832   0.314  11.482 -0.3941 -0.0912 -0.0312
   37TMC2    C3  564   1.940   0.258  11.422 -0.0927 -0.4558  0.1173
   37TMC2    C4  565   1.924   0.272  11.699  0.1605 -0.2657 -0.6374
   37TMC2    C5  566   2.026   0.209  11.633  0.0217 -0.2065  0.8725
   37TMC2    C6  567   2.041   0.201  11.497  0.5612  0.2697  0.2169
   37TMC2     C  568   1.690   0.353  11.673  0.0402 -0.3088  0.7980
   37TMC2     O  569   1.609   0.378  11.586 -0.2170  0.6068 -0.4235
   37TMC2     H  570   1.761   0.355  11.410  2.0646 -0.9344 -2.8956
   37TMC2    H1  571   1.931   0.289  11.806 -0.9882 -2.4270 -0.2044
   37TMC2    H2  572   2.127   0.160  11.446  0.4433  0.6176 -0.2631
   37TMC2    C7  573   2.131   0.177  11.720 -0.4060  0.1446  0.1764
   37TMC2    C8  574   1.953   0.276  11.272  0.2489  0.5116  0.9437
   37TMC2    O1  575   2.105   0.159  11.842 -0.0162 -0.6361 -0.4331
   37TMC2    O2  576   1.864   0.311  11.193  0.7288 -0.6112 -0.2152
   37TMC2    O5  577   2.081   0.297  11.243 -0.5669  0.0577  0.1353
   37TMC2    H5  578   2.148   0.277  11.312 -3.2707 -0.3724  2.6477
   38MPD2     C  579   1.354   0.370  12.036  0.3204 -0.4463  0.1765
   38MPD2    C1  580   1.474   0.322  12.095 -0.5846  0.6036 -0.5732
   38MPD2    C2  581   1.582   0.298  12.017  0.2511  0.0245 -0.2006
   38MPD2    C3  582   1.575   0.344  11.889 -0.4630  0.8416  0.2586
   38MPD2    C4  583   1.467   0.407  11.829  0.4199  0.4928 -0.4448
   38MPD2    C5  584   1.352   0.415  11.906 -0.2600  0.2347 -0.1941
   38MPD2     H  585   1.659   0.233  12.056  0.8573 -0.0705 -1.5379
   38MPD2    H1  586   1.463   0.452  11.731 -1.3712 -0.8898 -1.0149
   38MPD2    H2  587   1.263   0.372  12.095  0.5988  1.5020  0.5435
   38MPD2    H3  588   1.269   0.474  11.869  0.5843  1.2929 -0.3962
   38MPD2     N  589   1.681   0.321  11.803  0.1770 -0.5088  0.2771
   38MPD2    H5  590   1.759   0.284  11.857 -1.2917 -1.7524  1.5991
   38MPD2    N1  591   1.488   0.292  12.234 -0.1167  0.1375  0.4673
   38MPD2    H7  592   1.581   0.266  12.266 -0.3557 -1.4085 -0.0455
   39MPD2     C  593   0.083   2.156   1.798  0.3965  0.3503  0.5964
   39MPD2    C1  594   4.706   2.253   1.785 -0.2868  0.4922  0.5116
   39MPD2    C2  595   4.589   2.221   1.716 -0.4973 -0.3296  0.3125
   39MPD2    C3  596   4.568   2.102   1.656  1.2717 -0.6386 -0.2988
   39MPD2    C4  597   4.664   2.008   1.671  0.2170 -0.0010 -0.4485
   39MPD2    C5  598   0.059   2.030   1.743 -0.9590 -0.4540 -0.4141
   39MPD2     H  599   4.516   2.299   1.697  0.5310  0.5466 -0.0768
   39MPD2    H1  600   4.665   1.914   1.618  1.6656 -1.9070  2.9445
   39MPD2    H2  601   0.178   2.186   1.840 -0.2919  2.8045  0.3967
   39MPD2    H3  602   0.142   1.960   1.741 -0.0582  0.6127  0.3382
   39MPD2     N  603   4.457   2.064   1.575 -0.0063 -0.2157  0.3303
   39MPD2    H5  604   4.467   1.982   1.516 -0.2625 -0.6673  0.9122
   39MPD2    N1  605   0.011   2.390   1.820  0.5874  0.2678 -0.5952
   39MPD2    H7  606   0.108   2.408   1.845  0.9719 -0.7643 -1.3230
   40TCq2    C1  607   4.636   2.490   1.840 -0.0052  0.0628  0.0975
   40TCq2    O2  608   4.515   2.484   1.834 -0.3248 -0.4161 -0.4150
   40TCq2    C2  609   4.684   2.619   1.884  0.2351  0.1824  0.9118
   40TCq2    C3  610   4.617   2.696   1.976  1.0560  0.0332  0.0619
   40TCq2    C4  611   4.674   2.821   2.015  0.2673 -0.0003 -0.0883
   40TCq2    C5  612   0.072   2.862   1.965  0.3408 -0.4996  0.0238
   40TCq2    C6  613   0.133   2.780   1.872 -0.4502 -0.0696  0.2169
   40TCq2    C7  614   0.085   2.654   1.839 -0.0817 -0.2680  0.0558
   40TCq2    C8  615   0.257   2.823   1.804 -0.5230 -0.4449 -0.3025
   40TCq2    O4  616   0.323   2.732   1.751 -0.3188 -0.0482  0.2872
   40TCq2    C9  617   4.605   2.898   2.114 -0.8704 -0.5741  0.1627
   40TCq2    O5  618   4.492   2.855   2.148 -0.4454 -0.0564 -0.4380
   40TCq2    O6  619   4.661   3.000   2.164  0.3444  0.0162 -0.3148
   40TCq2    H2  620   4.523   2.668   2.021  0.8045  0.1888 -0.3604
   40TCq2    H3  621   0.119   2.949   2.009 -0.0802 -0.0164 -0.4912
   40TCq2    H4  622   0.126   2.605   1.752  0.2279  0.9624 -0.4900
   41TMC2    C1  623   3.718   0.117  13.601 -0.3273 -0.2343 -0.0409
   41TMC2    C2  624   3.687   0.248  13.572 -0.2887  0.5646 -0.2486
   41TMC2    C3  625   3.674   0.283  13.442  0.4153 -0.0401  0.1895
   41TMC2    C4  626   3.731   0.017  13.503 -0.0484  0.2254  0.2038
   41TMC2    C5  627   3.708   0.060  13.373 -0.1494 -0.7326  0.4214
   41TMC2    C6  628   3.685   0.196  13.335 -0.8116  0.2985  0.1134
   41TMC2     C  629   3.746   0.078  13.734  0.5471 -0.5890 -0.7075
   41TMC2     O  630   3.810   4.695  13.742 -0.3089  0.3066  0.2929
   41TMC2     H  631   3.699   0.323  13.650  2.0748  0.6683 -0.7246
   41TMC2    H1  632   3.747   4.635  13.525  0.9409 -0.5218 -4.1175
   41TMC2    H2  633   3.661   0.219  13.231  2.0249 -0.6323 -0.7487
   41TMC2    C7  634   3.653   4.686  13.283 -0.2019  0.2619  0.3725
   41TMC2    C8  635   3.606   0.409  13.406 -0.3723  0.4252 -0.1996
   41TMC2    O1  636   3.593   4.598  13.339  0.6329 -0.1474 -0.4035
   41TMC2    O2  637   3.613   0.449  13.289 -0.5623 -0.2888  0.2789
   41TMC2    O5  638   3.541   0.458  13.516  0.2473  0.5152  0.3696
   41TMC2    H5  639   3.539   0.396  13.592  2.0103 -0.3803 -0.2955
   42MPD2     C  640   3.763   0.043  14.029 -0.2500  0.1317 -0.2064
   42MPD2    C1  641   3.662   0.111  13.966 -0.3225 -0.1690  0.5504
   42MPD2    C2  642   3.543   0.136  14.041  0.6089 -0.4398  1.1400
   42MPD2    C3  643   3.537   0.099  14.178 -0.5365 -0.1960  0.0788
   42MPD2    C4  644   3.641   0.027  14.232 -0.4884 -1.0336  0.6555
   42MPD2    C5  645   3.755   0.015  14.163  0.3457  0.3164  0.0009
   42MPD2     H  646   3.470   0.192  13.984 -0.2456 -1.6649  1.0379
   42MPD2    H1  647   3.636   4.721  14.336  0.3028 -0.0985  0.9468
   42MPD2    H2  648   3.857   0.021  13.980  1.0783  0.5163  2.2242
   42MPD2    H3  649   3.832   4.682  14.216  2.3738  2.8536 -0.2363
   42MPD2     N  650   3.434   0.132  14.259  0.2983 -0.0042  0.2321
   42MPD2    H5  651   3.427   0.088  14.351  0.1284  0.0806  0.2586
   42MPD2    N1  652   3.671   0.146  13.830  0.0794 -0.1816 -0.2113
   42MPD2    H7  653   3.609   0.222  13.804 -0.1929 -0.2872  0.1389
   43MPD2     C  654   1.268   3.827   0.528  0.1776 -0.3048 -0.6943
   43MPD2    C1  655   1.166   3.778   0.611 -0.3649  0.1786  0.7815
   43MPD2    C2  656   1.076   3.862   0.685 -0.6082 -0.3475 -0.1066
   43MPD2    C3  657   1.085   3.999   0.673  0.1143  0.1671 -0.3069
   43MPD2    C4  658   1.194   4.044   0.600 -0.3371 -0.2622 -0.4428
   43MPD2    C5  659   1.279   3.960   0.525  0.3744 -0.0253 -0.3070
   43MPD2     H  660   1.009   3.825   0.762  2.3435  0.0303  2.6280
   43MPD2    H1  661   1.197   4.153   0.597  1.3707 -0.3116 -0.6300
   43MPD2    H2  662   1.331   3.771   0.460  0.9041 -1.0572  0.5935
   43MPD2    H3  663   1.358   4.014   0.474  0.6731 -0.7618 -0.6264
   43MPD2     N  664   1.010   4.089   0.742  0.1335  0.0623  0.3270
   43MPD2    H5  665   1.027   4.188   0.728  0.4649  0.0366  0.5584
   43MPD2    N1  666   1.139   3.644   0.629  0.1852 -0.2672  0.0749
   43MPD2    H7  667   1.062   3.624   0.692  0.8604 -0.6097  0.7971
   44TCq2    C1  668   0.516   4.189   1.040  0.1951 -0.2152  0.3186
   44TCq2    O2  669   0.456   4.148   0.941  0.1841 -0.1181  0.0811
   44TCq2    C2  670   0.657   4.211   1.030 -0.5219  0.0423 -0.1285
   44TCq2    C3  671   0.724   4.302   1.098 -0.1235 -0.9913 -0.4540
   44TCq2    C4  672   0.857   4.327   1.070 -0.3470  0.7585 -0.0578
   44TCq2    C5  673   0.919   4.252   0.978  0.0851  0.5791  0.1395
   44TCq2    C6  674   0.847   4.167   0.903 -1.0327 -0.0116 -0.6746
   44TCq2    C7  675   0.717   4.136   0.933 -0.2307 -0.5595 -0.0066
   44TCq2    C8  676   0.919   4.060   0.838 -0.2419 -0.4266 -0.0807
   44TCq2    O4  677   0.874   3.952   0.872 -0.0733  0.0957  0.9003
   44TCq2    C9  678   0.929   4.425   1.140  0.9574  0.3123  0.2854
   44TCq2    O5  679   1.041   4.458   1.089 -0.0597 -0.2921  0.2838
   44TCq2    O6  680   0.854   4.497   1.212 -1.4383  0.0219  0.4884
   44TCq2    H2  681   0.680   4.362   1.176  0.3902 -2.0666  0.6530
   44TCq2    H3  682   1.025   4.258   0.956 -0.6300  3.6065 -2.3864
   44TCq2    H4  683   0.673   4.056   0.875 -0.3721  1.3437 -2.5186
   45TMC2    C1  684   0.855   0.170   9.408 -0.4756 -0.3369  0.4813
   45TMC2    C2  685   0.991   0.148   9.393  0.0918  0.1161 -0.4194
   45TMC2    C3  686   1.067   0.239   9.460  0.2356  0.1502 -0.2926
   45TMC2    C4  687   0.800   0.285   9.461 -0.0619 -0.0050  0.3474
   45TMC2    C5  688   0.886   0.380   9.503 -0.4143  0.3973  0.0567
   45TMC2    C6  689   1.020   0.361   9.511  0.3596 -0.3641  0.0376
   45TMC2     C  690   0.767   0.068   9.349 -0.0462  0.5267 -0.9023
   45TMC2     O  691   0.809   4.676   9.335  0.1877 -0.1223  0.2084
   45TMC2     H  692   1.024   0.051   9.358 -0.3936  0.8888 -3.0345
   45TMC2    H1  693   0.694   0.290   9.485  0.3120  1.8184  1.6454
   45TMC2    H2  694   1.095   0.437   9.529 -0.9887  0.4755  2.0070
   45TMC2    C7  695   0.844   0.518   9.488 -0.1444 -0.4187 -0.0469
   45TMC2    C8  696   1.194   0.260   9.391 -0.5429  0.5027  0.9973
   45TMC2    O1  697   0.744   0.529   9.423 -0.3738 -0.3763  0.8799
   45TMC2    O2  698   1.190   0.267   9.273  0.4247 -0.2557 -0.2520
   45TMC2    O5  699   1.295   0.278   9.479 -0.6528  0.1683 -0.1020
   45TMC2    H5  700   1.260   0.254   9.567 -0.8113 -1.2896 -0.5539
   46MPD2     C  701   0.533   4.637   9.229 -0.3835 -0.9343 -0.2427
   46MPD2    C1  702   0.543   0.053   9.251 -0.0350 -0.1310 -0.0688
   46MPD2    C2  703   0.434   0.133   9.222 -0.1887  0.5536  0.4513
   46MPD2    C3  704   0.312   0.084   9.189  0.3488 -0.1227 -0.9253
   46MPD2    C4  705   0.300   4.670   9.170 -0.0929 -0.0444  0.2464
   46MPD2    C5  706   0.410   4.587   9.184 -0.2544 -0.4122  0.3386
   46MPD2     H  707   0.442   0.240   9.236 -1.1721  0.6327  0.4026
   46MPD2    H1  708   0.203   4.632   9.140  0.0372 -0.7585  0.7478
   46MPD2    H2  709   0.611   4.564   9.251  0.7404 -0.4347 -2.6004
   46MPD2    H3  710   0.404   4.480   9.171 -0.3045 -0.0986 -2.1915
   46MPD2     N  711   0.206   0.178   9.177  0.0588  0.2908 -0.0801
   46MPD2    H5  712   0.230   0.276   9.192 -0.4574  0.3853  0.1426
   46MPD2    N1  713   0.653   0.120   9.306  0.6212 -0.3738 -0.1049
   46MPD2    H7  714   0.644   0.221   9.317  0.5448 -0.5274  1.2055
   47TMC2    C1  715   2.827   1.594   9.221  1.0679 -0.6691 -1.3287
   47TMC2    C2  716   2.729   1.688   9.219  0.1078  0.3657 -0.5038
   47TMC2    C3  717   2.599   1.648   9.198 -0.0202  0.2319  0.3645
   47TMC2    C4  718   2.797   1.456   9.204  0.6684  0.7066  0.3440
   47TMC2    C5  719   2.664   1.429   9.194 -0.4631 -1.0937  0.4321
   47TMC2    C6  720   2.564   1.518   9.181  0.0771  1.3119 -0.0622
   47TMC2     C  721   2.961   1.648   9.222 -0.5559 -0.3945  0.5156
   47TMC2     O  722   2.978   1.769   9.233  0.3159  0.4086  0.1478
   47TMC2     H  723   2.749   1.795   9.218  2.4705 -0.0733 -1.6457
   47TMC2    H1  724   2.872   1.378   9.206  0.1235  0.1360 -1.7067
   47TMC2    H2  725   2.462   1.492   9.208  0.7829  1.5146  2.8063
   47TMC2    C7  726   2.612   1.297   9.200 -0.4512 -0.3335  0.5969
   47TMC2    C8  727   2.500   1.744   9.238  0.5127 -0.6887 -1.0925
   47TMC2    O1  728   2.512   1.281   9.134  0.1442 -0.1560 -0.1673
   47TMC2    O2  729   2.503   1.857   9.197 -0.5044  0.0548  0.0721
   47TMC2    O5  730   2.462   1.712   9.367  0.2762 -0.1021  0.1062
   47TMC2    H5  731   2.496   1.627   9.400 -1.1918 -0.0704  1.7473
   48MPD2     C  732   3.249   1.692   9.237 -0.4806  0.0341  0.2553
   48MPD2    C1  733   3.193   1.563   9.236 -0.7201  0.1241 -0.2441
   48MPD2    C2  734   3.271   1.456   9.218 -0.4728 -0.9406 -0.5247
   48MPD2    C3  735   3.407   1.466   9.229 -0.0843  0.3775 -0.0221
   48MPD2    C4  736   3.466   1.588   9.230  0.4890  0.0799 -0.3164
   48MPD2    C5  737   3.384   1.697   9.206  0.2073 -0.6445 -0.1557
   48MPD2     H  738   3.233   1.358   9.189  0.7886 -1.2948 -1.0144
   48MPD2    H1  739   3.574   1.598   9.226  0.7194 -2.2217  0.2571
   48MPD2    H2  740   3.196   1.786   9.230 -0.9899 -0.3216 -0.6479
   48MPD2    H3  741   3.432   1.790   9.178 -1.6422  0.6121  0.8424
   48MPD2     N  742   3.477   1.347   9.234 -0.2030 -0.1205 -0.4542
   48MPD2    H5  743   3.424   1.261   9.235 -0.8785  0.3086  0.9078
   48MPD2    N1  744   3.054   1.550   9.210 -0.6886 -1.0868  0.1292
   48MPD2    H7  745   3.022   1.458   9.182 -2.7782 -0.4841  0.4710
   49MPD2     C  746   1.218   3.246   9.643  1.1512  0.6027 -0.2153
   49MPD2    C1  747   1.234   3.184   9.766 -0.6715 -0.6344 -0.3380
   49MPD2    C2  748   1.341   3.211   9.852 -0.7334 -0.1042  0.0143
   49MPD2    C3  749   1.439   3.292   9.812 -0.7367 -0.0820 -0.0346
   49MPD2    C4  750   1.434   3.347   9.689  0.9212  0.6094 -0.1322
   49MPD2    C5  751   1.320   3.329   9.605  0.3631 -0.5990 -0.7319
   49MPD2     H  752   1.332   3.170   9.952  0.9113 -1.3275 -0.3302
   49MPD2    H1  753   1.514   3.413   9.657 -0.8925  1.4380 -2.8981
   49MPD2    H2  754   1.140   3.222   9.573  0.0024 -1.1429  1.6751
   49MPD2    H3  755   1.314   3.379   9.509 -1.6288  1.0958  0.2939
   49MPD2     N  756   1.549   3.331   9.891 -0.1158 -0.0496 -0.3443
   49MPD2    H5  757   1.617   3.395   9.852  0.4687 -0.1101  0.5630
   49MPD2    N1  758   1.125   3.102   9.815 -0.2296  0.1453 -0.4288
   49MPD2    H7  759   1.148   3.058   9.904 -0.4454  1.4345  0.2781
   50TCq2    C1  760   1.007   3.068   9.747 -0.5022  0.1866 -0.2600
   50TCq2    O2  761   0.965   3.098   9.633  0.4206  0.7474  0.3946
   50TCq2    C2  762   0.929   2.965   9.816 -0.3678  0.3766 -0.5995
   50TCq2    C3  763   0.822   2.935   9.749 -0.2489  0.3323  0.4012
   50TCq2    C4  764   0.723   2.862   9.813  0.2794 -0.0213 -0.4596
   50TCq2    C5  765   0.736   2.841   9.950 -0.4941  0.4706  0.4206
   50TCq2    C6  766   0.845   2.883  10.025 -0.1480 -0.5999  0.0650
   50TCq2    C7  767   0.950   2.934   9.952  0.6244  0.3714  0.1476
   50TCq2    C8  768   0.868   2.835  10.160  0.4540 -0.1945  0.0165
   50TCq2    O4  769   0.971   2.868  10.209 -0.1595  0.2278  0.1434
   50TCq2    C9  770   0.610   2.809   9.746  0.0383 -0.3828 -0.2614
   50TCq2    O5  771   0.601   2.846   9.625 -0.0469  0.4286  0.1777
   50TCq2    O6  772   0.529   2.741   9.811 -0.1003  0.3524 -0.7651
   50TCq2    H2  773   0.819   2.950   9.642 -1.1853 -1.7009  0.1404
   50TCq2    H3  774   0.646   2.820  10.006  0.0755  1.0437  1.5518
   50TCq2    H4  775   1.036   2.981  10.000  0.8425  0.8429 -0.6937
   51MPD2     C  776   1.465   0.872   1.074 -0.0406 -0.2237 -0.1977
   51MPD2    C1  777   1.558   0.964   1.016  0.0536  0.4641  0.0394
   51MPD2    C2  778   1.655   1.016   1.100  0.3216  0.2486  0.6468
   51MPD2    C3  779   1.654   0.991   1.237  0.2358 -0.6606  0.7328
   51MPD2    C4  780   1.559   0.908   1.291  0.2205  0.9167 -0.2524
   51MPD2    C5  781   1.476   0.840   1.209  0.3522  0.3864 -0.4628
   51MPD2     H  782   1.732   1.083   1.063  0.3108 -0.3499 -0.4640
   51MPD2    H1  783   1.558   0.879   1.396  0.5135 -0.0068 -0.5131
   51MPD2    H2  784   1.398   0.819   1.008 -2.9155  2.8840  0.2034
   51MPD2    H3  785   1.411   0.769   1.259 -1.3922  1.8455 -0.6291
   51MPD2     N  786   1.759   1.036   1.328 -0.2439 -0.5287 -0.1728
   51MPD2    H5  787   1.759   1.001   1.424  1.0554 -0.3152 -0.0848
   51MPD2    N1  788   1.557   0.991   0.875  0.5641 -0.2856  0.2271
   51MPD2    H7  789   1.635   1.041   0.834 -0.9767  1.7734 -0.1740
   52TCq2    C1  790   1.841   1.141   1.298 -0.6460  0.0309  0.0880
   52TCq2    O2  791   1.829   1.224   1.212 -0.0339 -0.1102  0.1534
   52TCq2    C2  792   1.954   1.161   1.383  0.3399 -0.9059 -0.3165
   52TCq2    C3  793   2.008   1.042   1.434  0.1320 -0.2098  0.3962
   52TCq2    C4  794   2.138   1.042   1.469 -0.8211  0.9604 -0.0194
   52TCq2    C5  795   2.225   1.141   1.436 -0.3006 -0.4768 -0.4495
   52TCq2    C6  796   2.173   1.252   1.378 -0.5929  0.3928  0.6614
   52TCq2    C7  797   2.039   1.265   1.350 -0.1182  0.2934 -0.5817
   52TCq2    C8  798   2.261   1.364   1.377 -0.1629 -0.1544  0.1241
   52TCq2    O4  799   2.372   1.352   1.429 -0.8997  1.4425 -0.1360
   52TCq2    C9  800   2.178   0.936   1.552 -0.5463 -0.3603 -0.6187
   52TCq2    O5  801   2.091   0.873   1.617 -0.1145 -0.0583 -0.3273
   52TCq2    O6  802   2.302   0.912   1.558  0.0825  0.1185  0.7252
   52TCq2    H2  803   1.945   0.959   1.463 -0.0270  0.6883  2.6713
   52TCq2    H3  804   2.331   1.135   1.461  0.0475 -0.9415 -2.0191
   52TCq2    H4  805   2.002   1.360   1.313  0.1524  0.2484 -0.9686
   53TMC2    C1  806   2.599   0.154  12.286 -0.6615 -0.7359 -0.2928
   53TMC2    C2  807   2.714   0.172  12.364  0.5490  0.5351 -0.6095
   53TMC2    C3  808   2.694   0.242  12.480 -0.6565  0.1080 -0.4666
   53TMC2    C4  809   2.476   0.199  12.318  0.0278 -0.5020 -0.2168
   53TMC2    C5  810   2.458   0.273  12.430 -0.0278 -0.1706 -0.3445
   53TMC2    C6  811   2.566   0.300  12.514 -0.4039  0.4054 -0.8507
   53TMC2     C  812   2.628   0.103  12.143 -0.3796  0.3981  0.7183
   53TMC2     O  813   2.729   0.043  12.114  0.1374  0.0049  0.3668
   53TMC2     H  814   2.814   0.140  12.337  0.5122 -0.1064  0.0241
   53TMC2    H1  815   2.393   0.177  12.251 -0.7389  2.3937 -0.2261
   53TMC2    H2  816   2.563   0.359  12.605 -1.1234  0.8412 -1.1576
   53TMC2    C7  817   2.337   0.355  12.432 -0.6277  0.8617  0.2764
   53TMC2    C8  818   2.817   0.279  12.552 -0.2080 -1.0593  0.3849
   53TMC2    O1  819   2.299   0.400  12.323  0.3572  0.4321 -0.1056
   53TMC2    O2  820   2.923   0.213  12.538  0.0792  0.0695  0.1978
   53TMC2    O5  821   2.790   0.386  12.633 -0.4683 -0.1325 -0.1686
   53TMC2    H5  822   2.718   0.449  12.612  0.3629  0.8203 -0.1710
   54MPD2     C  823   2.615   0.103  11.834  0.1194  0.5276 -0.1023
   54MPD2    C1  824   2.511   0.140  11.914 -0.3424 -0.0511 -0.1513
   54MPD2    C2  825   2.388   0.169  11.856 -0.4861  0.4037  0.7556
   54MPD2    C3  826   2.375   0.150  11.722  0.3246 -0.7931  0.1528
   54MPD2    C4  827   2.482   0.123  11.643 -0.2312 -0.0566 -1.0346
   54MPD2    C5  828   2.602   0.093  11.701 -0.1243  0.2919  0.0884
   54MPD2     H  829   2.313   0.199  11.930 -1.6919 -1.6280  0.3594
   54MPD2    H1  830   2.477   0.098  11.538 -0.9888  2.4704 -1.6004
   54MPD2    H2  831   2.713   0.087  11.877 -0.0690 -3.4485 -1.1501
   54MPD2    H3  832   2.683   0.075  11.631 -0.2308  0.2047 -0.0135
   54MPD2     N  833   2.252   0.175  11.659 -0.6162  0.1955  0.5010
   54MPD2    H5  834   2.265   0.205  11.563  1.7186  1.6571  1.2884
   54MPD2    N1  835   2.533   0.153  12.059  0.6469  0.4958 -0.6875
   54MPD2    H7  836   2.452   0.192  12.107  1.0822  0.0589  0.4066
   55MPD2     C  837   3.066   2.811  17.685  0.5746 -0.0606  0.2347
   55MPD2    C1  838   3.039   2.834   0.127  0.1599  0.3027  0.4308
   55MPD2    C2  839   2.913   2.892   0.163  0.3330 -0.0894  0.1121
   55MPD2    C3  840   2.824   2.924   0.062 -0.5634  0.0349  0.2547
   55MPD2    C4  841   2.862   2.916  17.623  0.0468  0.0258 -0.5087
   55MPD2    C5  842   2.980   2.860  17.594 -0.7087 -0.1533 -0.0041
   55MPD2     H  843   2.887   2.909   0.267 -3.0077  1.5429 -1.0004
   55MPD2    H1  844   2.799   2.948  17.541  0.1410 -0.2050 -0.6692
   55MPD2    H2  845   3.165   2.771  17.668  0.7496  0.6355 -0.3701
   55MPD2    H3  846   3.002   2.862  17.489  1.8410  0.5808  0.5652
   55MPD2     N  847   2.694   2.959   0.103  0.5563 -0.6772 -0.6456
   55MPD2    H5  848   2.670   2.950   0.201 -0.5248  0.6014 -0.7942
   55MPD2    N1  849   3.133   2.806   0.222 -0.8746  0.2665  0.7337
   55MPD2    H7  850   3.215   2.762   0.181 -1.9741  0.1228 -1.2983
   56TCq2    C1  851   3.130   2.831   0.352 -1.0033 -0.1082 -0.9020
   56TCq2    O2  852   3.032   2.858   0.418 -0.0233  0.1077 -0.8475
   56TCq2    C2  853   3.243   2.799   0.426  0.0709 -0.7633 -0.7477
   56TCq2    C3  854   3.361   2.773   0.362 -0.3190  0.3182 -0.4077
   56TCq2    C4  855   3.460   2.713   0.438  0.9759 -0.6040 -0.9273
   56TCq2    C5  856   3.458   2.725   0.573 -0.0108  0.3827  0.4824
   56TCq2    C6  857   3.339   2.758   0.635  0.3789 -1.1149  0.1402
   56TCq2    C7  858   3.226   2.797   0.562 -0.3660 -0.2654 -0.0015
   56TCq2    C8  859   3.312   2.672   0.752 -0.3527  0.2867  0.3428
   56TCq2    O4  860   3.397   2.604   0.805 -0.3056 -0.6879 -0.0350
   56TCq2    C9  861   3.568   2.647   0.368 -0.3073  0.2275 -0.1542
   56TCq2    O5  862   3.547   2.601   0.257  0.2580  0.4526 -0.6563
   56TCq2    O6  863   3.661   2.606   0.442 -0.6604  0.0286 -0.2069
   56TCq2    H2  864   3.376   2.775   0.255  2.9781 -1.3494  0.0219
   56TCq2    H3  865   3.537   2.677   0.629 -0.4066 -1.1989 -0.3233
   56TCq2    H4  866   3.137   2.830   0.613 -0.7359 -0.8170 -0.2893
   57TMC2    C1  867   1.978   4.054  13.554 -0.6300 -0.3924  0.5531
   57TMC2    C2  868   1.963   3.926  13.609 -0.7360  0.3720  0.6539
   57TMC2    C3  869   2.074   3.863  13.662  0.2362 -0.3017 -0.4813
   57TMC2    C4  870   2.097   4.107  13.537 -0.2081 -0.3173 -0.7049
   57TMC2    C5  871   2.205   4.037  13.580  0.2176 -0.1779 -0.1497
   57TMC2    C6  872   2.200   3.914  13.642  0.4170  0.1906 -0.0708
   57TMC2     C  873   1.861   4.127  13.506 -0.8467 -0.2961  0.3691
   57TMC2     O  874   1.870   4.235  13.448 -0.4370 -0.0967  0.3410
   57TMC2     H  875   1.869   3.874  13.621 -1.1327  0.4365 -1.9741
   57TMC2    H1  876   2.109   4.203  13.487  2.2763 -0.6600 -0.7752
   57TMC2    H2  877   2.292   3.862  13.668  1.2340  0.5960 -2.1605
   57TMC2    C7  878   2.327   4.062  13.503 -0.1910 -0.5142 -0.1627
   57TMC2    C8  879   2.068   3.725  13.686 -0.0833 -0.3217 -0.3749
   57TMC2    O1  880   2.356   4.176  13.469 -0.2172 -0.3526  0.2894
   57TMC2    O2  881   2.039   3.691  13.799  0.2470  0.0331  0.3197
   57TMC2    O5  882   2.003   3.684  13.570 -0.8718  0.0545  0.3535
   57TMC2    H5  883   2.035   3.743  13.499  0.2621 -1.6402 -0.5270
   58MPD2     C  884   1.359   4.189  13.558 -0.1439  0.0542  0.3993
   58MPD2    C1  885   1.459   4.271  13.590  0.0835  0.4203  0.0316
   58MPD2    C2  886   1.590   4.230  13.574  0.0861  0.5138 -0.8575
   58MPD2    C3  887   1.619   4.103  13.525  0.3155 -0.0057  0.7818
   58MPD2    C4  888   1.513   4.018  13.502 -0.5288 -0.3311 -0.4695
   58MPD2    C5  889   1.388   4.066  13.506  0.2639  0.2936  0.4662
   58MPD2     H  890   1.671   4.299  13.593  0.4529 -0.5268  1.4005
   58MPD2    H1  891   1.522   3.916  13.467  2.8628 -0.6874  1.4932
   58MPD2    H2  892   1.254   4.214  13.567 -0.2161  1.3100 -3.7840
   58MPD2    H3  893   1.317   3.990  13.473  0.7418 -0.4957  1.2552
   58MPD2     N  894   1.751   4.052  13.503  0.1727  0.7335 -0.3561
   58MPD2    H5  895   1.761   3.953  13.484  0.1546  0.9221 -1.3975
   58MPD2    N1  896   1.443   4.409  13.623 -0.5621  0.5891  0.3603
   58MPD2    H7  897   1.527   4.467  13.625 -0.6809  0.7500  0.7676
   59MPD2     C  898   4.274   4.254  12.918  0.6221 -0.1805 -0.4406
   59MPD2    C1  899   4.403   4.258  12.868 -0.5873 -0.0616  0.2262
   59MPD2    C2  900   4.483   4.357  12.922 -0.6741  0.5636  0.1488
   59MPD2    C3  901   4.440   4.435  13.030  0.0786  0.3736 -0.0946
   59MPD2    C4  902   4.322   4.411  13.089  0.3049 -0.3529  0.0608
   59MPD2    C5  903   4.238   4.323  13.032 -0.1036 -0.4670 -0.0399
   59MPD2     H  904   4.584   4.371  12.885 -1.5567  1.3133 -1.9376
   59MPD2    H1  905   4.293   4.468  13.176  1.6462  1.6895 -0.8181
   59MPD2    H2  906   4.192   4.195  12.877 -0.0660  0.6450 -0.2488
   59MPD2    H3  907   4.137   4.316  13.072 -0.2953 -0.1344 -0.4659
   59MPD2     N  908   4.515   4.540  13.085 -0.2606  0.1215  0.7859
   59MPD2    H5  909   4.492   4.577  13.177 -1.6361 -0.4927  0.6981
   59MPD2    N1  910   4.451   4.183  12.756  0.1437 -0.0378 -0.4584
   59MPD2    H7  911   4.536   4.217  12.711 -0.0777 -1.9625 -2.3505
   60TCq2    C1  912   4.383   4.080  12.696  0.0385 -0.0360 -0.2064
   60TCq2    O2  913   4.281   4.028  12.740  0.3077 -0.1730  0.6297
   60TCq2    C2  914   4.454   4.009  12.583 -0.4411 -0.0751 -0.5436
   60TCq2    C3  915   4.410   3.882  12.561 -0.3132 -0.3384 -0.7237
   60TCq2    C4  916   4.474   3.807  12.463 -0.0563  0.1089 -0.3977
   60TCq2    C5  917   4.581   3.856  12.398 -0.1932 -0.8262  0.8097
   60TCq2    C6  918   4.614   3.990  12.411  0.6842 -0.4667 -0.1303
   60TCq2    C7  919   4.548   4.073  12.502 -0.2197 -0.4647 -0.3955
   60TCq2    C8  920   0.001   4.033  12.321 -0.2917 -0.2120 -0.3934
   60TCq2    O4  921   0.104   3.968  12.322  0.4449  0.5276  0.2830
   60TCq2    C9  922   4.436   3.670  12.444  0.2065  0.1013  0.4853
   60TCq2    O5  923   4.336   3.625  12.502 -0.0088  0.7333 -0.3324
   60TCq2    O6  924   4.506   3.590  12.379  0.1430 -0.3021  0.1606
   60TCq2    H2  925   4.330   3.834  12.616 -0.0605  1.2918  1.0394
   60TCq2    H3  926   4.631   3.779  12.340  1.3811  1.3545 -0.7272
   60TCq2    H4  927   4.586   4.172  12.525  2.9401 -2.6716  3.7786
   61MPD2     C  928   3.713   0.976  14.159  0.2250 -0.1898 -0.3250
   61MPD2    C1  929   3.604   0.925  14.235  0.0422 -0.3976 -0.3180
   61MPD2    C2  930   3.476   0.958  14.200  0.0881  0.9969  0.3188
   61MPD2    C3  931   3.459   1.053  14.105  0.1091  0.1644  0.4257
   61MPD2    C4  932   3.561   1.103  14.031  0.3810  0.4369  0.3200
   61MPD2    C5  933   3.687   1.060  14.052  0.0286  0.1272 -0.2829
   61MPD2     H  934   3.389   0.932  14.259 -0.7956  2.3015 -0.4261
   61MPD2    H1  935   3.546   1.175  13.952 -2.3072 -1.8549 -1.2666
   61MPD2    H2  936   3.818   0.950  14.171 -0.4829 -2.5436  0.6911
   61MPD2    H3  937   3.768   1.098  13.991  0.2307  1.4367  0.8004
   61MPD2     N  938   3.332   1.116  14.081  0.0858  0.0808 -0.5394
   61MPD2    H5  939   3.333   1.182  14.004 -2.5365  1.3412  0.5137
   61MPD2    N1  940   3.626   0.865  14.357 -0.4939  0.3557  0.1007
   61MPD2    H7  941   3.540   0.854  14.409 -0.7579  0.8789 -0.2297
   62TCq2    C1  942   3.752   0.851  14.423 -0.4413 -0.0599 -0.4125
   62TCq2    O2  943   3.867   0.881  14.391  0.1526 -0.6402  0.1362
   62TCq2    C2  944   3.735   0.856  14.570  0.3572 -0.3502 -0.3486
   62TCq2    C3  945   3.856   0.840  14.632 -0.2926  0.2002  0.9809
   62TCq2    C4  946   3.876   0.885  14.759  0.2507 -0.1930  0.2144
   62TCq2    C5  947   3.792   0.970  14.816  0.0920  0.5914  0.2598
   62TCq2    C6  948   3.678   0.997  14.750 -0.6964 -0.1924 -0.5811
   62TCq2    C7  949   3.646   0.942  14.626  0.2150  0.8571  0.0131
   62TCq2    C8  950   3.597   1.106  14.810  0.1092  0.4338  0.6428
   62TCq2    O4  951   3.651   1.177  14.891  0.2522 -1.1016  0.1367
   62TCq2    C9  952   3.992   0.838  14.831  0.8478 -0.3132 -0.3700
   62TCq2    O5  953   4.039   0.913  14.921 -0.3746  0.3870 -0.0925
   62TCq2    O6  954   4.043   0.729  14.785  0.7885  0.1214 -0.1169
   62TCq2    H2  955   3.942   0.786  14.594 -0.6436 -0.5388  1.2267
   62TCq2    H3  956   3.812   1.021  14.909 -0.8361 -4.2048  3.0593
   62TCq2    H4  957   3.567   0.986  14.566  1.4605  0.1237 -2.1641
   63TMC2    C1  958   3.849   0.872   9.956 -0.1594 -0.6685  1.0827
   63TMC2    C2  959   3.977   0.884  10.009  0.6330 -0.3624  0.4483
   63TMC2    C3  960   4.049   0.985   9.955 -0.5833 -0.1979  0.4802
   63TMC2    C4  961   3.792   0.957   9.860  0.2430 -0.6155  0.1685
   63TMC2    C5  962   3.872   1.060   9.815 -0.1625 -0.1260 -0.7856
   63TMC2    C6  963   4.002   1.070   9.856  0.8593 -0.0900 -0.1705
   63TMC2     C  964   3.770   0.763  10.010  0.2970 -0.1750 -0.0025
   63TMC2     O  965   3.795   0.724  10.121  0.2048 -0.0245  0.6010
   63TMC2     H  966   4.020   0.813  10.078  2.7171  0.0466 -0.4081
   63TMC2    H1  967   3.686   0.945   9.840  0.6698 -1.7880 -1.4208
   63TMC2    H2  968   4.068   1.149   9.821  1.7108 -0.9588 -0.5195
   63TMC2    C7  969   3.811   1.155   9.730  0.6739  0.7179  0.2040
   63TMC2    C8  970   4.181   1.017  10.005  0.6178 -0.3759 -0.0752
   63TMC2    O1  971   3.707   1.121   9.673 -0.4968  0.8908 -0.3585
   63TMC2    O2  972   4.263   1.063   9.925  0.1031  0.2452 -0.1180
   63TMC2    O5  973   4.199   0.956  10.124 -0.5835 -0.2867  0.2089
   63TMC2    H5  974   4.113   0.956  10.171 -1.7316  0.5309 -1.8661
   64MPD2     C  975   3.415   0.390   9.999 -0.4058 -0.5145 -0.7553
   64MPD2    C1  976   3.530   0.400  10.075  0.2558 -0.4466 -0.5247
   64MPD2    C2  977   3.617   0.502  10.056  0.6693  0.6964  0.4223
   64MPD2    C3  978   3.592   0.595   9.958  0.7976 -0.2927  0.3962
   64MPD2    C4  979   3.485   0.579   9.877  0.6911 -0.4609 -0.1437
   64MPD2    C5  980   3.395   0.479   9.900  0.0043  0.3249 -0.2946
   64MPD2     H  981   3.706   0.502  10.118 -1.1249 -0.5480  2.9923
   64MPD2    H1  982   3.471   0.644   9.791 -1.8583 -1.4507 -0.4640
   64MPD2    H2  983   3.351   0.303  10.007 -1.0925 -0.1327 -2.1327
   64MPD2    H3  984   3.314   0.459   9.831 -1.2358 -0.7308  1.4830
   64MPD2     N  985   3.674   0.708   9.927  0.1837  0.1547 -0.2099
   64MPD2    H5  986   3.659   0.752   9.837  1.5069 -3.4656 -2.2110
   64MPD2    N1  987   3.551   0.323  10.193 -0.0938  0.1551  0.2955
   64MPD2    H7  988   3.638   0.337  10.243  0.2718 -1.4966  0.1307
   65MPD2     C  989   3.953   0.098  15.638  0.4896 -0.3359  0.0937
   65MPD2    C1  990   4.005   0.092  15.508  0.1582  0.8180  0.6483
   65MPD2    C2  991   4.069   4.703  15.472 -0.5703  0.2104  0.6052
   65MPD2    C3  992   4.094   4.597  15.562  1.0308  0.8996  0.5494
   65MPD2    C4  993   4.047   4.614  15.693  0.1031  0.2663  0.8728
   65MPD2    C5  994   3.966   4.721  15.726 -0.0088  0.6147  0.7081
   65MPD2     H  995   4.115   4.701  15.374 -0.0639  0.1049  0.8455
   65MPD2    H1  996   4.061   4.539  15.769  2.0529  0.9235  1.1607
   65MPD2    H2  997   3.901   0.187  15.674  0.7045 -0.6774  1.2722
   65MPD2    H3  998   3.930   0.013  15.828  1.4183 -0.0340  1.3034
   65MPD2     N  999   4.171   4.486  15.530 -0.3157  0.4823  0.7913
   65MPD2    H5 1000   4.165   4.414  15.601  1.0760 -3.2261 -2.8897
   65MPD2    N1 1001   3.995   0.191  15.409 -0.3334  0.0476 -0.2754
   65MPD2    H7 1002   4.027   0.167  15.316  1.3494  0.8115  0.1127
   66TCq2    C1 1003   3.948   0.317  15.434 -1.2800 -0.3598  0.1037
   66TCq2    O2 1004   3.911   0.369  15.537  0.0431  0.0219  0.5173
   66TCq2    C2 1005   3.948   0.393  15.307  0.5326 -0.1936  0.1664
   66TCq2    C3 1006   4.034   0.365  15.210  0.1325 -0.3928  0.5876
   66TCq2    C4 1007   4.029   0.441  15.093  0.3229  0.7845 -0.7592
   66TCq2    C5 1008   3.940   0.544  15.071 -0.1293 -0.0089  0.1093
   66TCq2    C6 1009   3.868   0.581  15.185  0.8644 -0.0146  0.1642
   66TCq2    C7 1010   3.863   0.501  15.299 -0.0941 -1.0861  0.0297
   66TCq2    C8 1011   3.792   0.706  15.183 -0.6912 -0.8454 -0.1594
   66TCq2    O4 1012   3.747   0.744  15.075 -0.4233 -0.0474  0.0858
   66TCq2    C9 1013   4.119   0.407  14.988 -0.7364 -0.8497  0.6645
   66TCq2    O5 1014   4.118   0.466  14.879  0.1292  0.0406  0.5227
   66TCq2    O6 1015   4.211   0.324  15.010  0.1293  0.3884  0.1692
   66TCq2    H2 1016   4.119   0.298  15.212  1.7610  1.7556  3.4184
   66TCq2    H3 1017   3.927   0.601  14.980 -0.6567 -2.7770 -1.5402
   66TCq2    H4 1018   3.815   0.546  15.385 -0.0303  0.0058 -0.5080
   67MPD2     C 1019   4.644   4.539  14.032  0.0938 -0.6565  0.0718
   67MPD2    C1 1020   4.578   4.474  14.135 -0.1056  0.5026  0.4356
   67MPD2    C2 1021   4.471   4.384  14.113  0.7111 -0.1155 -0.1538
   67MPD2    C3 1022   4.434   4.362  13.985 -0.0151 -0.5420 -0.2029
   67MPD2    C4 1023   4.500   4.429  13.881 -0.1331 -0.2235 -0.2264
   67MPD2    C5 1024   4.613   4.507  13.905  0.1365 -0.3016 -0.2394
   67MPD2     H 1025   4.413   4.334  14.189  1.1380  0.8301  0.7911
   67MPD2    H1 1026   4.464   4.416  13.779 -2.2187  1.8596  0.2459
   67MPD2    H2 1027   4.721   4.613  14.049  1.3156 -2.6824  3.1486
   67MPD2    H3 1028   4.664   4.548  13.819  0.4552 -0.0105  0.0885
   67MPD2     N 1029   4.332   4.277  13.945  0.2337 -0.2986  0.0450
   67MPD2    H5 1030   4.308   4.275  13.847  0.6855 -1.0096 -0.0549
   67MPD2    N1 1031   4.600   4.507  14.270  0.0026 -0.7162  0.0404
   67MPD2    H7 1032   4.539   4.463  14.338  0.3130 -1.5058 -0.1959
   68TCq2    C1 1033   4.698   4.589  14.316 -0.4941 -0.3364 -0.9713
   68TCq2    O2 1034   0.078   4.626  14.260  0.9180 -0.2018 -0.1117
   68TCq2    C2 1035   4.667   4.623  14.453 -0.5375 -0.4208 -0.1028
   68TCq2    C3 1036   4.554   4.697  14.477  0.1707  0.2455 -0.5475
   68TCq2    C4 1037   4.549   0.058  14.587 -0.1188  0.0457  0.0179
   68TCq2    C5 1038   4.651   0.056  14.675 -0.2973  0.6280 -0.2153
   68TCq2    C6 1039   0.046   4.709  14.648 -0.0549  0.5016  0.1623
   68TCq2    C7 1040   0.047   4.617  14.543 -0.2421  0.2294  0.4277
   68TCq2    C8 1041   0.165   0.001  14.735 -0.4547 -0.6696  0.2700
   68TCq2    O4 1042   0.280   4.715  14.687 -0.2718 -0.0139 -0.5151
   68TCq2    C9 1043   4.434   0.153  14.607 -0.1855 -0.5642 -0.2669
   68TCq2    O5 1044   4.449   0.234  14.701 -0.1428 -0.0262 -0.3190
   68TCq2    O6 1045   4.328   0.123  14.543  0.2436  0.5245 -0.4506
   68TCq2    H2 1046   4.468   4.692  14.410 -0.3925  2.2398  0.0060
   68TCq2    H3 1047   4.635   0.130  14.753  1.1431  0.8676 -0.1559
   68TCq2    H4 1048   0.148   4.588  14.514 -0.1833  1.7493 -0.9106
   69TMC2    C1 1049   2.005   1.010  11.680  0.2374 -0.4820 -0.4464
   69TMC2    C2 1050   1.888   1.043  11.618 -0.1974  0.3545  0.4426
   69TMC2    C3 1051   1.891   1.066  11.485 -0.1689 -0.3967  0.2574
   69TMC2    C4 1052   2.114   0.982  11.614  0.2744  0.2988  0.2865
   69TMC2    C5 1053   2.115   1.012  11.482 -0.1747  0.7685  0.2394
   69TMC2    C6 1054   2.001   1.036  11.409  0.0524 -0.3414 -0.1113
   69TMC2     C 1055   1.999   0.994  11.825  0.4096 -0.1018 -0.0671
   69TMC2     O 1056   1.904   1.060  11.875  0.3334  0.2181  0.0922
   69TMC2     H 1057   1.797   1.060  11.674 -0.2627  0.1765  0.3921
   69TMC2    H1 1058   2.200   0.944  11.668  0.4467 -1.5149 -1.2368
   69TMC2    H2 1059   1.993   1.052  11.302 -0.0192 -0.1510 -0.0780
   69TMC2    C7 1060   2.230   0.971  11.409  0.2031  0.6095  0.1765
   69TMC2    C8 1061   1.770   1.095  11.409  0.4219  0.1772  0.3688
   69TMC2    O1 1062   2.297   0.886  11.467 -0.0808  0.0493 -0.0396
   69TMC2    O2 1063   1.772   1.146  11.295  0.5149  0.1907  1.2260
   69TMC2    O5 1064   1.675   1.012  11.450  0.2006  0.4624  0.1456
   69TMC2    H5 1065   1.696   0.964  11.533 -1.0956 -0.4928 -0.0726
   70MPD2     C 1066   2.191   0.781  12.059  0.3149 -0.4417  0.4928
   70MPD2    C1 1067   2.093   0.868  12.018 -0.4480 -0.0573  0.3044
   70MPD2    C2 1068   2.000   0.917  12.109 -0.2958  0.7396  0.2674
   70MPD2    C3 1069   2.019   0.885  12.240 -0.0811  0.5930  0.2184
   70MPD2    C4 1070   2.132   0.810  12.279  0.2432  0.0370 -0.3693
   70MPD2    C5 1071   2.212   0.755  12.187  0.2392 -0.3892  0.0649
   70MPD2     H 1072   1.914   0.976  12.081 -2.1324 -2.2213 -0.3882
   70MPD2    H1 1073   2.148   0.789  12.384  1.6127  0.9062 -0.3981
   70MPD2    H2 1074   2.256   0.734  11.985  0.0831  0.4095 -0.2387
   70MPD2    H3 1075   2.293   0.692  12.222  1.1058  0.4114 -0.5217
   70MPD2     N 1076   1.925   0.930  12.342  0.1702 -0.0874 -0.3514
   70MPD2    H5 1077   1.948   0.914  12.439  0.3485  1.0083 -0.2117
   70MPD2    N1 1078   2.086   0.908  11.880  0.8003 -0.4501  0.3760
   70MPD2    H7 1079   2.149   0.862  11.813 -0.0873 -0.8345 -0.1945
   71TMC2    C1 1080   0.170   1.201   1.973 -0.0935 -0.2180  1.0176
   71TMC2    C2 1081   0.248   1.197   2.090  0.1959  0.1570 -0.6686
   71TMC2    C3 1082   0.197   1.119   2.195 -0.5232 -0.0382 -0.6630
   71TMC2    C4 1083   0.046   1.137   1.966 -1.1228 -0.0660 -0.3857
   71TMC2    C5 1084   0.001   1.072   2.078  0.0063 -0.4617 -0.0431
   71TMC2    C6 1085   0.073   1.063   2.193  0.1602 -0.6741  0.2832
   71TMC2     C 1086   0.200   1.307   1.876 -0.4940 -0.5203  0.4547
   71TMC2     O 1087   0.108   1.324   1.799  0.6455 -0.0495 -0.3055
   71TMC2     H 1088   0.340   1.251   2.104 -0.2650  0.6821  0.3399
   71TMC2    H1 1089   4.722   1.124   1.868  0.1988  0.0432 -1.0229
   71TMC2    H2 1090   0.033   1.011   2.279 -0.4675  0.5207  0.7107
   71TMC2    C7 1091   4.594   0.996   2.075  0.0427 -0.4960 -0.8441
   71TMC2    C8 1092   0.256   1.121   2.331  1.1684  0.7181  0.0385
   71TMC2    O1 1093   4.582   0.906   2.159 -0.3268  0.0956 -0.4297
   71TMC2    O2 1094   0.207   1.048   2.416  0.2160  0.6838 -0.0241
   71TMC2    O5 1095   0.307   1.246   2.365 -0.4046  0.2377 -0.2074
   71TMC2    H5 1096   0.325   1.315   2.298  0.2625 -1.0516 -1.3737
   72MPD2     C 1097   0.432   1.721   1.708  0.4204 -0.2064  0.7427
   72MPD2    C1 1098   0.332   1.649   1.648 -0.4626 -0.3673  0.1573
   72MPD2    C2 1099   0.289   1.536   1.711 -0.1117 -0.6979 -0.0934
   72MPD2    C3 1100   0.347   1.493   1.831  0.0491  0.2795 -0.2328
   72MPD2    C4 1101   0.457   1.563   1.875  0.3312  0.8408  0.2775
   72MPD2    C5 1102   0.498   1.676   1.817  0.2385 -0.4516  0.2331
   72MPD2     H 1103   0.212   1.479   1.662  0.2586 -0.9770 -0.3552
   72MPD2    H1 1104   0.507   1.518   1.960 -0.8962  1.8506  1.5381
   72MPD2    H2 1105   0.472   1.811   1.663 -1.4569 -0.2713 -1.0803
   72MPD2    H3 1106   0.572   1.734   1.872  0.8908  0.7706 -1.9232
   72MPD2     N 1107   0.314   1.378   1.901  0.3426 -0.0315 -0.1323
   72MPD2    H5 1108   0.365   1.353   1.985  1.7589 -1.7803 -1.5047
   72MPD2    N1 1109   0.272   1.698   1.525 -0.7959 -0.3800  0.2495
   72MPD2    H7 1110   0.222   1.624   1.478  1.0393  0.0094 -2.3290
   73TMC2    C1 1111   3.833   3.184  13.733  0.1997  0.2303 -0.4110
   73TMC2    C2 1112   3.728   3.225  13.808  0.6907  0.0779  0.2966
   73TMC2    C3 1113   3.740   3.191  13.940  0.2433  0.4720  0.4647
   73TMC2    C4 1114   3.949   3.138  13.792 -0.2634 -0.2456 -0.0354
   73TMC2    C5 1115   3.961   3.128  13.925 -1.1889 -0.3755 -0.3486
   73TMC2    C6 1116   3.849   3.147  14.003  0.2495  0.4410  0.1258
   73TMC2     C 1117   3.854   3.262  13.612  0.3196  0.1771  0.6114
   73TMC2     O 1118   3.968   3.271  13.573 -0.8798  0.1599  0.4310
   73TMC2     H 1119   3.630   3.257  13.774 -0.3237 -3.4696 -0.0828
   73TMC2    H1 1120   4.034   3.107  13.732 -1.2406 -0.0141 -1.5403
   73TMC2    H2 1121   3.876   3.174  14.104  0.2734  2.3322 -0.3816
   73TMC2    C7 1122   4.065   3.219  13.978  0.1723  0.1030 -0.4990
   73TMC2    C8 1123   3.640   3.249  14.026  0.6459  0.5624  0.1255
   73TMC2    O1 1124   4.125   3.188  14.076  0.4099 -0.5026 -0.5178
   73TMC2    O2 1125   3.576   3.348  13.985  0.3342 -0.3373 -0.3784
   73TMC2    O5 1126   3.629   3.170  14.138 -0.0743 -0.2441 -0.5956
   73TMC2    H5 1127   3.670   3.081  14.130 -0.0250 -0.1067 -1.8284
   74MPD2     C 1128   3.743   3.607  13.236  0.4936  1.0122 -0.0842
   74MPD2    C1 1129   3.858   3.561  13.298 -0.0789  0.4849  0.1696
   74MPD2    C2 1130   3.855   3.463  13.394  0.0571 -0.9540 -0.2203
   74MPD2    C3 1131   3.742   3.400  13.435 -0.2473  0.3327  0.3977
   74MPD2    C4 1132   3.622   3.442  13.377 -0.0563 -0.6891  0.1318
   74MPD2    C5 1133   3.628   3.544  13.280  0.1105  0.5790  0.4398
   74MPD2     H 1134   3.950   3.431  13.436  0.7818  0.9654 -0.3767
   74MPD2    H1 1135   3.528   3.389  13.388 -0.7948  0.8226  1.0787
   74MPD2    H2 1136   3.744   3.680  13.156  1.8673 -0.9911 -1.9201
   74MPD2    H3 1137   3.538   3.561  13.223  0.4622  0.9357 -0.0140
   74MPD2     N 1138   3.744   3.309  13.545 -1.0117 -0.1398 -0.2054
   74MPD2    H5 1139   3.660   3.264  13.580 -0.5540 -0.0153  1.0395
   74MPD2    N1 1140   3.978   3.628  13.257  0.4606  0.1504 -0.1610
   74MPD2    H7 1141   3.984   3.665  13.162  1.1264 -0.0016 -0.1758
   75TCq2    C1 1142   4.251   4.192  14.020 -0.6651  0.0679 -0.2894
   75TCq2    O2 1143   4.264   4.163  14.136  0.7012  0.4351 -0.2808
   75TCq2    C2 1144   4.133   4.147  13.941  0.2652  0.3382 -0.2757
   75TCq2    C3 1145   4.063   4.040  13.990 -0.5984  0.9606  0.7535
   75TCq2    C4 1146   3.940   4.018  13.936 -0.5251 -0.6347 -0.5465
   75TCq2    C5 1147   3.884   4.100  13.845 -0.2334 -0.1088 -0.0073
   75TCq2    C6 1148   3.958   4.207  13.806 -0.0597 -0.5494  0.1379
   75TCq2    C7 1149   4.081   4.237  13.857  0.5627  0.5710 -0.0174
   75TCq2    C8 1150   3.913   4.247  13.675  0.1463 -0.5910  0.3549
   75TCq2    O4 1151   3.818   4.194  13.624 -0.0126  0.1673 -0.5291
   75TCq2    C9 1152   3.865   3.906  13.968 -0.0404  0.8207  0.4166
   75TCq2    O5 1153   3.921   3.794  13.940 -0.3146  0.2839 -0.1859
   75TCq2    O6 1154   3.742   3.920  14.004  0.1062 -0.6486 -0.6035
   75TCq2    H2 1155   4.102   3.966  14.059  1.5381  1.0190 -0.4347
   75TCq2    H3 1156   3.800   4.047  13.802  0.1237  0.5114 -1.4616
   75TCq2    H4 1157   4.126   4.333  13.838  0.5218  0.9915  2.0114
   76MPD2     C 1158   2.658   4.605  11.213 -0.0802 -0.0445 -0.4860
   76MPD2    C1 1159   2.779   4.666  11.239 -0.3093  0.1780  0.5576
   76MPD2    C2 1160   2.888   4.596  11.269 -1.1314 -0.5240  0.4669
   76MPD2    C3 1161   2.880   4.459  11.290 -0.4732 -1.6230 -0.4923
   76MPD2    C4 1162   2.756   4.396  11.285  0.1305 -0.3958 -0.4176
   76MPD2    C5 1163   2.646   4.472  11.242  0.2772  0.6884  0.3548
   76MPD2     H 1164   2.985   4.640  11.254 -0.3793 -1.7825  1.6380
   76MPD2    H1 1165   2.741   4.292  11.313  0.0420 -0.0655  0.7355
   76MPD2    H2 1166   2.566   4.659  11.192 -0.0647 -0.1754 -0.8960
   76MPD2    H3 1167   2.543   4.437  11.243 -0.2150  2.0877 -0.5226
   76MPD2     N 1168   2.995   4.376  11.323  0.6342 -0.3140  0.5998
   76MPD2    H5 1169   2.977   4.277  11.333  0.6094 -0.6441 -2.4719
   76MPD2    N1 1170   2.788   0.081  11.214  0.3005  0.1800  0.4529
   76MPD2    H7 1171   2.879   0.126  11.227  1.2751 -0.7188 -3.1268
   77TCq2    C1 1172   3.120   4.423  11.352 -0.2186 -0.0867  0.3885
   77TCq2    O2 1173   3.172   4.533  11.362 -0.0950 -0.2450 -0.4489
   77TCq2    C2 1174   3.209   4.317  11.364 -0.5977  0.2340 -0.3147
   77TCq2    C3 1175   3.190   4.214  11.271  0.0669  0.4319  0.8485
   77TCq2    C4 1176   3.233   4.085  11.301 -0.0034 -0.0552 -0.2666
   77TCq2    C5 1177   3.286   4.061  11.425 -0.0927  0.0559  0.3148
   77TCq2    C6 1178   3.305   4.167  11.505  0.0065  0.0608  0.0687
   77TCq2    C7 1179   3.264   4.299  11.484  0.0855  0.1314 -0.1292
   77TCq2    C8 1180   3.341   4.128  11.635  0.1442 -0.6461 -0.0634
   77TCq2    O4 1181   3.279   4.032  11.674 -0.1041  0.2445  0.3810
   77TCq2    C9 1182   3.190   3.981  11.206  0.5363 -0.1071  0.5678
   77TCq2    O5 1183   3.135   4.017  11.096  0.0244  0.5294 -0.2191
   77TCq2    O6 1184   3.193   3.863  11.244  0.0415 -0.0744  0.0868
   77TCq2    H2 1185   3.138   4.230  11.177 -0.6244  1.4133  1.4023
   77TCq2    H3 1186   3.313   3.959  11.448 -0.0403  0.2796  1.2264
   77TCq2    H4 1187   3.262   4.376  11.561  0.0139 -1.8039  1.8152
   78MPD1     C 1188   2.719   1.136   1.400 -0.1385  0.7995 -0.6274
   78MPD1    C1 1189   2.722   1.006   1.452 -0.2709  0.0505 -0.0431
   78MPD1    C2 1190   2.843   0.953   1.494 -0.3057 -0.7142  0.6320
   78MPD1    C3 1191   2.963   1.030   1.491  0.6597  0.4148 -0.6716
   78MPD1    C4 1192   2.955   1.154   1.436 -0.0268 -0.2720  0.0374
   78MPD1    C5 1193   2.836   1.204   1.389 -0.2387  0.1883 -0.2052
   78MPD1     H 1194   2.842   0.854   1.538 -0.5614 -1.3145 -0.7179
   78MPD1    H1 1195   3.043   1.208   1.403  0.8033 -2.1828 -0.8373
   78MPD1    H2 1196   2.634   1.177   1.348 -0.6808 -2.1053 -2.0543
   78MPD1    H3 1197   2.841   1.302   1.341 -2.3375 -0.7399 -2.3403
   78MPD1     N 1198   3.086   0.981   1.531  0.5145 -0.6126 -0.2963
   78MPD1    H5 1199   3.163   1.044   1.509  0.1046  0.2492  0.7261
   78MPD1    N1 1200   2.616   0.918   1.438 -0.3228  0.4594  0.2293
   78MPD1    H6 1201   2.610   0.858   1.521  1.3600 -2.0752 -1.5040
   78MPD1    H7 1202   2.529   0.971   1.437  0.7719  2.2511  1.1302
   79TCq2    C1 1203   3.109   0.858   1.594 -0.3710 -0.1516 -0.1728
   79TCq2    O2 1204   3.029   0.770   1.622 -0.6487 -0.1911 -0.2347
   79TCq2    C2 1205   3.245   0.833   1.615  0.2111  0.0749 -0.2487
   79TCq2    C3 1206   3.275   0.745   1.714 -0.2100 -0.3830 -0.1234
   79TCq2    C4 1207   3.400   0.716   1.750  0.9332  0.0503  0.3289
   79TCq2    C5 1208   3.507   0.760   1.676  0.2031 -0.1333 -0.1320
   79TCq2    C6 1209   3.472   0.844   1.569  0.5374  0.5126 -0.1339
   79TCq2    C7 1210   3.342   0.866   1.528 -0.4036  0.1037 -0.0655
   79TCq2    C8 1211   3.585   0.889   1.483 -0.5564  0.6338  0.3778
   79TCq2    O4 1212   3.698   0.853   1.515  0.0286 -0.2504 -0.0909
   79TCq2    C9 1213   3.428   0.644   1.870  0.3993  0.2576  0.8037
   79TCq2    O5 1214   3.334   0.612   1.952 -0.1000 -0.1905 -0.2396
   79TCq2    O6 1215   3.550   0.632   1.903 -0.3711 -0.1424  0.0579
   79TCq2    H2 1216   3.196   0.688   1.761 -1.4797  1.7137  0.2816
   79TCq2    H3 1217   3.606   0.719   1.693 -0.2608 -1.0052  0.4470
   79TCq2    H4 1218   3.310   0.918   1.439  0.2535 -0.6539 -0.7378
   80MPD2     C 1219   2.209   0.007  12.543 -0.6628 -0.2960 -0.1884
   80MPD2    C1 1220   2.138   0.031  12.426 -0.4059 -0.0994 -0.6698
   80MPD2    C2 1221   2.028   0.120  12.434  0.9393 -0.0044  0.3288
   80MPD2    C3 1222   1.985   0.159  12.561 -0.0523  0.1178 -0.3446
   80MPD2    C4 1223   2.062   0.131  12.673  0.1180 -0.2566 -0.4261
   80MPD2    C5 1224   2.171   0.054  12.662  0.8348 -0.2129 -0.1296
   80MPD2     H 1225   1.973   0.132  12.341  1.3351  1.8011  0.3173
   80MPD2    H1 1226   2.039   0.155  12.776 -1.3375 -1.4521 -0.4733
   80MPD2    H2 1227   2.283   4.650  12.540 -2.7060 -2.2528  1.1009
   80MPD2    H3 1228   2.231   0.044  12.751  0.1998  1.0449  0.4386
   80MPD2     N 1229   1.856   0.223  12.584 -0.0979 -0.0518 -0.0900
   80MPD2    H5 1230   1.829   0.251  12.678 -1.1731  2.1543 -1.0473
   80MPD2    N1 1231   2.191   4.717  12.295 -0.0949 -0.4862 -0.0103
   80MPD2    H7 1232   2.145   0.042  12.219 -0.3363 -1.2943 -0.3668
   81TCq2    C1 1233   2.292   4.627  12.269 -0.0279  0.4244 -0.3404
   81TCq2    O2 1234   2.363   4.568  12.351 -0.0746 -0.0187  0.2571
   81TCq2    C2 1235   2.317   4.595  12.132 -0.8434  0.6061 -0.1569
   81TCq2    C3 1236   2.443   4.549  12.094  0.2678 -0.4056  0.5394
   81TCq2    C4 1237   2.461   4.501  11.968  0.6219 -0.3533  0.0320
   81TCq2    C5 1238   2.359   4.481  11.882  0.7263 -0.7447 -0.0212
   81TCq2    C6 1239   2.234   4.515  11.929  0.7226  0.2908  0.2601
   81TCq2    C7 1240   2.212   4.572  12.056 -0.3387  0.2832 -0.9954
   81TCq2    C8 1241   2.121   4.458  11.869  0.3276 -0.1746  0.2698
   81TCq2    O4 1242   2.123   4.428  11.750  0.0588  0.0373  0.7338
   81TCq2    C9 1243   2.590   4.464  11.922 -0.0654 -0.1963  0.1001
   81TCq2    O5 1244   2.686   4.470  12.004 -0.2245 -0.1155  0.0767
   81TCq2    O6 1245   2.593   4.413  11.805 -1.0346  0.9987  0.3375
   81TCq2    H2 1246   2.529   4.574  12.156  1.0083  2.6989 -1.7721
   81TCq2    H3 1247   2.379   4.445  11.782  1.7464 -2.2417  0.7248
   81TCq2    H4 1248   2.110   4.601  12.079  0.7127  1.7294  1.8288
   82MPD2     C 1249   0.908   4.680  11.216  0.4021 -0.4158  0.6068
   82MPD2    C1 1250   0.793   4.619  11.255  0.1289 -0.1048 -0.0056
   82MPD2    C2 1251   0.804   4.504  11.335  0.8302 -0.3260 -0.5216
   82MPD2    C3 1252   0.918   4.452  11.374  1.0943 -0.3260 -0.5535
   82MPD2    C4 1253   1.034   4.513  11.339 -0.1031  0.2324 -0.3455
   82MPD2    C5 1254   1.026   4.628  11.265  0.3216 -0.2012  0.2594
   82MPD2     H 1255   0.711   4.451  11.353  0.6821 -0.4683 -1.7481
   82MPD2    H1 1256   1.130   4.474  11.369  0.6426  2.4244  0.0945
   82MPD2    H2 1257   0.915   0.055  11.168  0.3498 -0.3426  0.7472
   82MPD2    H3 1258   1.123   4.672  11.243 -1.1703  2.9918  0.1043
   82MPD2     N 1259   0.923   4.328  11.428 -0.0894  0.1704  0.0390
   82MPD2    H5 1260   1.017   4.293  11.446 -0.6804 -1.3102  0.3072
   82MPD2    N1 1261   0.675   4.675  11.200  0.5164  0.1068  0.2538
   82MPD2    H7 1262   0.683   0.024  11.128 -1.2253  0.6712  0.6383
   83TCq2    C1 1263   0.813   4.244  11.437  0.0193 -0.2332  0.5229
   83TCq2    O2 1264   0.699   4.267  11.465  0.0058  0.2392 -0.2465
   83TCq2    C2 1265   0.853   4.104  11.406 -0.1533  0.6057 -0.5122
   83TCq2    C3 1266   0.949   4.096  11.312 -0.0326  0.3279 -0.3506
   83TCq2    C4 1267   0.928   4.010  11.207  0.4688  0.3166 -0.0605
   83TCq2    C5 1268   0.814   3.937  11.193  0.6434 -0.0490  0.1050
   83TCq2    C6 1269   0.727   3.937  11.299  0.3219 -0.1182  1.2121
   83TCq2    C7 1270   0.742   4.020  11.406  0.4569 -0.5200 -0.0174
   83TCq2    C8 1271   0.599   3.877  11.284 -0.4638  0.5276  0.3628
   83TCq2    O4 1272   0.549   3.832  11.390 -0.1022  0.0235  0.6135
   83TCq2    C9 1273   1.036   3.993  11.110  0.4305  0.1197 -0.1993
   83TCq2    O5 1274   1.140   4.068  11.123  0.1381  0.3325 -0.2293
   83TCq2    O6 1275   1.006   3.922  11.012  0.3332 -0.1140  0.0315
   83TCq2    H2 1276   1.032   4.164  11.305  0.7969 -0.6743 -0.1690
   83TCq2    H3 1277   0.816   3.871  11.107  1.0567 -1.3950  1.1510
   83TCq2    H4 1278   0.659   4.036  11.473 -0.4438  0.5567 -1.3984
   84TCq2    C1 1279   1.578   3.296  10.021 -0.3370 -0.1139  0.3897
   84TCq2    O2 1280   1.516   3.224  10.096 -0.2608 -0.4438  0.1858
   84TCq2    C2 1281   1.702   3.360  10.059  0.0902  0.1339 -0.2871
   84TCq2    C3 1282   1.794   3.394   9.963  0.5690  0.0949 -0.4060
   84TCq2    C4 1283   1.901   3.466  10.004 -0.5711  0.6416 -0.1733
   84TCq2    C5 1284   1.917   3.503  10.138  0.1854 -0.3599  0.2105
   84TCq2    C6 1285   1.822   3.457  10.223  0.0354  0.5575  0.2288
   84TCq2    C7 1286   1.722   3.377  10.192 -0.4223  0.9024  0.4553
   84TCq2    C8 1287   1.855   3.493  10.357  0.0439 -0.3966  0.6253
   84TCq2    O4 1288   1.972   3.516  10.382 -0.0548 -0.4139  0.3769
   84TCq2    C9 1289   2.001   3.496   9.900 -0.1688  0.1378  0.1454
   84TCq2    O5 1290   2.020   3.408   9.813  0.0608 -0.4181 -0.1118
   84TCq2    O6 1291   2.075   3.595   9.924  0.2956 -0.3012  0.3973
   84TCq2    H2 1292   1.784   3.368   9.859  0.2453 -0.6917 -0.1791
   84TCq2    H3 1293   2.002   3.560  10.173  0.9039 -1.3197 -0.0022
   84TCq2    H4 1294   1.652   3.345  10.268 -1.3490  0.2864 -0.6546
   85MPD2     C 1295   1.756   1.230  15.845  0.0487 -0.3213  0.2002
   85MPD2    C1 1296   1.620   1.248  15.820  0.1243  0.0621 -0.3881
   85MPD2    C2 1297   1.570   1.374  15.780 -0.1194  0.0830 -0.3316
   85MPD2    C3 1298   1.657   1.483  15.772 -0.0757 -0.2701 -0.7739
   85MPD2    C4 1299   1.788   1.459  15.798 -0.1643  0.0417 -0.2256
   85MPD2    C5 1300   1.838   1.338  15.828  0.2855  0.2762 -0.1354
   85MPD2     H 1301   1.463   1.382  15.765  0.5136  1.3629 -4.1925
   85MPD2    H1 1302   1.865   1.534  15.797  0.7745 -0.9134  1.3955
   85MPD2    H2 1303   1.790   1.129  15.866 -0.4181 -0.5578 -0.1854
   85MPD2    H3 1304   1.946   1.333  15.840  0.1805 -1.9075 -0.1629
   85MPD2     N 1305   1.612   1.610  15.732 -0.0150  0.0920 -0.4435
   85MPD2    H5 1306   1.516   1.627  15.704  0.3010  0.1101 -1.5310
   85MPD2    N1 1307   1.527   1.149  15.834  0.4731  0.1952 -0.6306
   85MPD2    H7 1308   1.434   1.172  15.801  1.0493  0.6382 -1.9593
   86TCq2    C1 1309   1.693   1.717  15.694  0.0037  0.1112  0.2884
   86TCq2    O2 1310   1.811   1.710  15.667  0.1299 -1.0998 -0.1403
   86TCq2    C2 1311   1.618   1.832  15.644 -0.2519  0.3291 -0.1285
   86TCq2    C3 1312   1.486   1.837  15.670 -0.3463  0.6778  0.1259
   86TCq2    C4 1313   1.408   1.920  15.599  0.4963 -0.1472  0.4315
   86TCq2    C5 1314   1.463   2.002  15.498  0.7565 -0.2240  0.4252
   86TCq2    C6 1315   1.595   1.987  15.473 -0.3267  0.3931  0.4309
   86TCq2    C7 1316   1.678   1.907  15.545 -0.5388  0.1901  0.0498
   86TCq2    C8 1317   1.640   2.022  15.344  0.7771 -0.1232 -0.5304
   86TCq2    O4 1318   1.716   1.947  15.280 -0.4745  0.7524  0.0456
   86TCq2    C9 1319   1.270   1.938  15.634  0.0449 -1.0155  0.7641
   86TCq2    O5 1320   1.216   2.043  15.595 -0.1020 -0.4608 -0.3655
   86TCq2    O6 1321   1.221   1.842  15.701 -0.6344 -0.1636 -0.1269
   86TCq2    H2 1322   1.440   1.777  15.748  0.9613 -1.1601 -0.5256
   86TCq2    H3 1323   1.404   2.062  15.430  1.7467 -0.3809 -0.5859
   86TCq2    H4 1324   1.786   1.908  15.538 -0.6061 -0.2751 -1.1345
   87MPD2     C 1325   3.739   0.462   1.407  0.1901 -0.1477 -0.5784
   87MPD2    C1 1326   3.833   0.508   1.310  0.1984 -0.0741  0.4670
   87MPD2    C2 1327   3.782   0.592   1.211 -0.5394 -0.3501 -0.6309
   87MPD2    C3 1328   3.650   0.636   1.211 -0.0853 -0.3299 -0.2743
   87MPD2    C4 1329   3.562   0.591   1.306 -0.3044 -0.5191 -0.0852
   87MPD2    C5 1330   3.607   0.502   1.401  0.1684 -0.7510  0.1301
   87MPD2     H 1331   3.840   0.627   1.127 -0.6657  2.4254  0.4473
   87MPD2    H1 1332   3.457   0.619   1.304 -0.4706 -1.1238  0.1794
   87MPD2    H2 1333   3.758   0.391   1.487  1.3524  1.8374  0.8810
   87MPD2    H3 1334   3.538   0.477   1.480 -2.4602 -2.2084 -2.6098
   87MPD2     N 1335   3.589   0.724   1.113 -0.1876  0.1929  0.1540
   87MPD2    H5 1336   3.487   0.727   1.118 -0.2458 -0.7252 -0.6870
   87MPD2    N1 1337   3.963   0.452   1.317  0.0394 -0.3291 -0.2694
   87MPD2    H7 1338   3.982   0.401   1.402 -0.5319  0.8828  0.5881
   88TCq2    C1 1339   4.056   0.453   1.217  0.3989  0.3669 -0.2114
   88TCq2    O2 1340   4.044   0.481   1.099  0.1095  0.1354  0.1888
   88TCq2    C2 1341   4.185   0.408   1.261  0.6381 -0.6518  0.1558
   88TCq2    C3 1342   4.208   0.391   1.394 -0.1874 -0.3214 -0.2091
   88TCq2    C4 1343   4.302   0.306   1.435  0.3776  0.6508  1.1583
   88TCq2    C5 1344   4.374   0.222   1.349  0.5590  0.5896  0.1506
   88TCq2    C6 1345   4.341   0.228   1.213 -0.8129  0.4928 -0.6506
   88TCq2    C7 1346   4.248   0.326   1.172  0.1325 -0.0505 -0.9232
   88TCq2    C8 1347   4.391   0.121   1.121 -0.3174 -0.1808  0.1019
   88TCq2    O4 1348   4.401   0.152   1.000 -0.0529 -0.3298 -0.0429
   88TCq2    C9 1349   4.337   0.311   1.578  0.1988  0.1091  0.0350
   88TCq2    O5 1350   4.412   0.217   1.615 -0.2631 -0.3892 -0.2624
   88TCq2    O6 1351   4.275   0.386   1.653 -0.4306 -0.0583  0.3471
   88TCq2    H2 1352   4.169   0.467   1.461  1.1592  1.4156 -1.3860
   88TCq2    H3 1353   4.458   0.164   1.385 -0.8770 -0.6942  1.4218
   88TCq2    H4 1354   4.218   0.323   1.068 -0.9029 -2.2121 -0.5570
   89MPD2     C 1355   0.465   2.983   1.648 -0.3019 -1.0246  0.1898
   89MPD2    C1 1356   0.377   3.038   1.739 -0.3027 -0.1039 -0.5174
   89MPD2    C2 1357   0.390   3.172   1.767 -0.2337  0.3440 -0.3219
   89MPD2    C3 1358   0.487   3.254   1.704 -1.4039 -0.1611  0.6495
   89MPD2    C4 1359   0.552   3.202   1.592 -0.4121 -0.1953 -0.2908
   89MPD2    C5 1360   0.538   3.065   1.568 -0.0283  0.0326 -0.6591
   89MPD2     H 1361   0.350   3.215   1.858 -0.3957 -2.6249  1.0070
   89MPD2    H1 1362   0.620   3.260   1.530  0.1126 -1.9075 -1.2961
   89MPD2    H2 1363   0.455   2.879   1.618 -0.2776 -0.6972 -0.9530
   89MPD2    H3 1364   0.604   3.017   1.497 -0.1191  0.0324 -0.7433
   89MPD2     N 1365   0.501   3.386   1.748 -0.2926 -0.1240  0.3565
   89MPD2    H5 1366   0.444   3.408   1.829  1.6377  0.1987  1.6097
   89MPD2    N1 1367   0.277   2.958   1.811 -0.2310  0.4590 -0.0967
   89MPD2    H7 1368   0.208   3.010   1.864 -1.6319 -2.4863  0.9899
   90TCq2    C1 1369   0.575   3.479   1.688 -1.0539 -0.3449  0.0804
   90TCq2    O2 1370   0.644   3.475   1.585 -0.2706  0.2246  0.5455
   90TCq2    C2 1371   0.567   3.615   1.754 -0.2847  0.0216  0.3239
   90TCq2    C3 1372   0.520   3.620   1.885  0.7515  1.3678  0.5230
   90TCq2    C4 1373   0.556   3.738   1.958  0.1185  0.1346  0.4311
   90TCq2    C5 1374   0.615   3.846   1.904  0.1668 -0.5598  0.8155
   90TCq2    C6 1375   0.670   3.836   1.775 -0.9357  0.3247  0.2759
   90TCq2    C7 1376   0.638   3.726   1.700  1.2119  0.4777 -0.1121
   90TCq2    C8 1377   0.737   3.949   1.725 -0.1090  0.5257 -0.4915
   90TCq2    O4 1378   0.706   4.050   1.781 -0.0512 -0.1357  0.3756
   90TCq2    C9 1379   0.502   3.746   2.090 -0.4196 -0.6134 -0.4053
   90TCq2    O5 1380   0.434   3.652   2.136  0.0028  0.1784 -0.2713
   90TCq2    O6 1381   0.535   3.856   2.144  0.0550  0.7635 -0.7211
   90TCq2    H2 1382   0.455   3.550   1.934  3.0657 -0.6510  0.6840
   90TCq2    H3 1383   0.640   3.929   1.969 -2.3318  1.4553 -0.7848
   90TCq2    H4 1384   0.655   3.719   1.593 -0.6261  0.8211 -0.4306
   91TMC2    C1 1385   2.548   2.704  16.700 -0.3376  0.1580 -0.4360
   91TMC2    C2 1386   2.619   2.667  16.815 -0.0251  0.6991 -1.5131
   91TMC2    C3 1387   2.542   2.633  16.916 -0.4328  0.1898 -0.0959
   91TMC2    C4 1388   2.413   2.729  16.693  0.5830 -0.5206  0.1259
   91TMC2    C5 1389   2.345   2.702  16.808  0.6237 -0.2703 -0.0023
   91TMC2    C6 1390   2.405   2.641  16.913  1.1876 -0.1503 -0.1323
   91TMC2     C 1391   2.619   2.741  16.580 -0.3420 -0.1261  0.0305
   91TMC2     O 1392   2.734   2.767  16.588 -0.0139 -0.1795  0.1090
   91TMC2     H 1393   2.725   2.647  16.810 -0.1963 -0.1214 -1.9642
   91TMC2    H1 1394   2.365   2.770  16.605 -3.1559  1.7008  3.1856
   91TMC2    H2 1395   2.350   2.614  17.003 -0.1007  0.6532 -0.6656
   91TMC2    C7 1396   2.201   2.709  16.815 -0.0697 -0.6093 -0.3724
   91TMC2    C8 1397   2.612   2.592  17.034 -0.2566 -0.3143  0.6989
   91TMC2    O1 1398   2.158   2.723  16.926  0.6781 -1.0621 -0.2163
   91TMC2    O2 1399   2.728   2.624  17.062 -0.0465  0.1211  0.2230
   91TMC2    O5 1400   2.535   2.508  17.102 -0.4711 -0.6315  0.3040
   91TMC2    H5 1401   2.458   2.472  17.053  0.0261 -0.2386 -0.7648
   92MPD2     C 1402   2.529   2.662  16.230  0.2532  0.3281 -0.3020
   92MPD2    C1 1403   2.604   2.716  16.335 -0.0015  0.3637  0.4440
   92MPD2    C2 1404   2.739   2.751  16.300  0.3810  0.5730  0.2584
   92MPD2    C3 1405   2.789   2.748  16.168  0.2980 -0.3116  0.2282
   92MPD2    C4 1406   2.710   2.694  16.072  0.1730 -0.3762 -0.0585
   92MPD2    C5 1407   2.590   2.649  16.105 -0.2213  0.4512  0.2102
   92MPD2     H 1408   2.808   2.781  16.378  0.2852 -0.1580  0.6168
   92MPD2    H1 1409   2.746   2.664  15.974 -1.6953 -0.6107 -0.6737
   92MPD2    H2 1410   2.430   2.624  16.252  0.2286  0.9305  0.6044
   92MPD2    H3 1411   2.541   2.590  16.028  0.5142 -0.5357  0.5039
   92MPD2     N 1412   2.927   2.786  16.151  0.2316 -0.1109 -0.2262
   92MPD2    H5 1413   2.976   2.823  16.232  2.1005 -0.7147 -1.0846
   92MPD2    N1 1414   2.548   2.713  16.464 -0.2991  0.4198 -0.4078
   92MPD2    H7 1415   2.449   2.692  16.472 -0.0056 -1.0607 -0.6684
   93MPD2     C 1416   3.500   2.329  13.526 -0.0322  0.3156  0.0608
   93MPD2    C1 1417   3.441   2.405  13.625 -0.1429 -0.5883 -0.4654
   93MPD2    C2 1418   3.305   2.424  13.638 -0.9913  0.6063  0.8429
   93MPD2    C3 1419   3.224   2.353  13.554 -0.3684  0.3723  0.0555
   93MPD2    C4 1420   3.281   2.247  13.481 -0.2522 -0.0914  0.5360
   93MPD2    C5 1421   3.417   2.243  13.458  0.8312  0.6334 -0.7919
   93MPD2     H 1422   3.265   2.508  13.692 -1.3876  1.0287 -0.1055
   93MPD2    H1 1423   3.225   2.175  13.422  1.1232  0.3597 -1.3319
   93MPD2    H2 1424   3.607   2.313  13.517  0.2454  2.2017  0.1178
   93MPD2    H3 1425   3.464   2.182  13.382  1.0102  0.7430 -0.7711
   93MPD2     N 1426   3.089   2.378  13.536  0.0740  0.2605  0.3949
   93MPD2    H5 1427   3.043   2.324  13.463 -1.1235  0.5670  0.9203
   93MPD2    N1 1428   3.515   2.490  13.703  0.5124 -0.4308 -0.8356
   93MPD2    H7 1429   3.460   2.548  13.765  2.3181 -1.0215  1.3363
   94TCq2    C1 1430   3.649   2.468  13.730  0.5406 -0.5023  0.0207
   94TCq2    O2 1431   3.731   2.395  13.676 -0.5315 -0.2933  0.3164
   94TCq2    C2 1432   3.714   2.565  13.826  0.0168 -0.5927  0.6295
   94TCq2    C3 1433   3.643   2.660  13.886 -0.5840  0.2299  0.5447
   94TCq2    C4 1434   3.707   2.751  13.968 -0.3609 -0.3264 -0.0808
   94TCq2    C5 1435   3.845   2.740  13.992 -0.7437 -0.1137  0.7451
   94TCq2    C6 1436   3.913   2.647  13.920  0.2928 -0.1477 -0.0112
   94TCq2    C7 1437   3.851   2.555  13.836  0.0686 -0.1057 -0.2305
   94TCq2    C8 1438   4.058   2.661  13.899  0.0652  0.1419 -0.5496
   94TCq2    O4 1439   4.111   2.555  13.861 -0.2721  0.2458  0.2748
   94TCq2    C9 1440   3.630   2.838  14.055  0.5351 -0.2065 -0.3783
   94TCq2    O5 1441   3.691   2.921  14.128  0.2066  0.0454 -0.0781
   94TCq2    O6 1442   3.508   2.807  14.061  0.0871 -0.7468 -0.3162
   94TCq2    H2 1443   3.536   2.664  13.869 -0.5292  0.6355  0.3020
   94TCq2    H3 1444   3.894   2.809  14.059  1.0101 -1.0174  0.3758
   94TCq2    H4 1445   3.907   2.478  13.785  0.7646 -0.6884  1.4042
   95TMC2    C1 1446   3.430   4.254  15.763  0.1025  0.4275 -0.1184
   95TMC2    C2 1447   3.394   4.376  15.715  0.5345  0.3937 -0.8231
   95TMC2    C3 1448   3.315   4.450  15.801  0.0972  0.0778  0.2414
   95TMC2    C4 1449   3.386   4.199  15.886 -0.3185  0.6560 -0.2648
   95TMC2    C5 1450   3.323   4.287  15.966  0.1283  0.9932  0.1755
   95TMC2    C6 1451   3.282   4.410  15.925 -0.2856 -0.3926 -0.4000
   95TMC2     C 1452   3.542   4.188  15.698 -0.2807  0.7403  0.1361
   95TMC2     O 1453   3.602   4.257  15.613  0.0522 -0.6334 -0.2725
   95TMC2     H 1454   3.428   4.413  15.618 -0.4881  2.2499 -0.4732
   95TMC2    H1 1455   3.418   4.098  15.909 -0.3099  0.8603  0.6028
   95TMC2    H2 1456   3.227   4.481  15.986  1.1830  1.3970 -1.1360
   95TMC2    C7 1457   3.349   4.283  16.108 -0.3486 -0.1279  0.0342
   95TMC2    C8 1458   3.279   4.587  15.764  0.6255 -0.0880 -0.4385
   95TMC2    O1 1459   3.334   4.388  16.165 -0.1361 -0.8947 -0.0264
   95TMC2    O2 1460   3.247   4.672  15.849  0.8337  0.3785  0.1448
   95TMC2    O5 1461   3.221   4.573  15.644  0.2044 -0.6717 -0.4600
   95TMC2    H5 1462   3.215   4.479  15.616  2.4323 -0.3968 -1.8619
   96MPD2     C 1463   3.853   3.790  15.585 -0.6306  0.1643  0.2235
   96MPD2    C1 1464   3.881   3.920  15.591 -0.4947  0.4764  0.3187
   96MPD2    C2 1465   3.784   4.010  15.632  0.1399  0.4280  0.7776
   96MPD2    C3 1466   3.662   3.960  15.681 -0.6144 -0.1757 -0.0162
   96MPD2    C4 1467   3.638   3.827  15.688  0.2057 -0.5300  0.1420
   96MPD2    C5 1468   3.732   3.748  15.629  0.0662 -0.4133 -0.4273
   96MPD2     H 1469   3.800   4.116  15.647  0.3372  0.4873  0.1562
   96MPD2    H1 1470   3.548   3.787  15.733  0.1254 -1.1576 -0.5738
   96MPD2    H2 1471   3.933   3.723  15.556 -0.0352  0.8716  0.2207
   96MPD2    H3 1472   3.708   3.643  15.620  1.7442 -0.9659  1.5730
   96MPD2     N 1473   3.559   4.048  15.726  0.2750  0.8185 -0.1266
   96MPD2    H5 1474   3.478   4.005  15.770  1.2100 -0.8544 -0.0500
   96MPD2    N1 1475   4.010   3.961  15.552  0.3379 -0.1307  0.3671
   96MPD2    H7 1476   4.082   3.894  15.528 -0.3535 -0.0295 -2.0565
   97MPD2     C 1477   0.317   1.467   0.549 -0.4648  0.1213  0.1230
   97MPD2    C1 1478   0.333   1.600   0.539  0.0433 -0.1737  0.0360
   97MPD2    C2 1479   0.359   1.665   0.417  0.6768 -0.1508 -0.1703
   97MPD2    C3 1480   0.382   1.588   0.300  0.9504 -0.4649  0.5370
   97MPD2    C4 1481   0.354   1.450   0.311 -0.4836 -0.4561  0.1179
   97MPD2    C5 1482   0.323   1.395   0.436 -0.3824  0.5509  0.1928
   97MPD2     H 1483   0.361   1.773   0.423 -1.2625 -0.1160  0.0023
   97MPD2    H1 1484   0.352   1.378   0.230  0.0143 -1.4246  0.9667
   97MPD2    H2 1485   0.280   1.422   0.640 -1.5571  1.4684  0.3463
   97MPD2    H3 1486   0.281   1.295   0.429 -1.8897  1.0267  2.7781
   97MPD2     N 1487   0.411   1.648   0.175  0.2798  0.0754  0.3024
   97MPD2    H5 1488   0.407   1.589   0.092 -1.0921  3.6056 -2.1234
   97MPD2    N1 1489   0.328   1.667   0.668 -0.7227  0.3654  0.1831
   97MPD2    H7 1490   0.321   1.598   0.742  1.4729  0.9816  0.9466
   98TCq2    C1 1491   0.441   1.782   0.155 -0.2509 -0.4181 -0.7371
   98TCq2    O2 1492   0.462   1.867   0.240 -0.3919  0.2331 -0.6597
   98TCq2    C2 1493   0.469   1.815   0.013  0.5809  0.5396 -0.0372
   98TCq2    C3 1494   0.444   1.718  17.608 -0.1825  0.3184 -0.0196
   98TCq2    C4 1495   0.510   1.715  17.491  0.3488  0.1902 -0.4812
   98TCq2    C5 1496   0.626   1.780  17.474  0.1385 -0.7977 -0.3647
   98TCq2    C6 1497   0.663   1.866  17.572 -0.1218 -0.3990  0.7656
   98TCq2    C7 1498   0.581   1.887  17.679 -0.1385 -0.4378 -0.6902
   98TCq2    C8 1499   0.802   1.910  17.569 -0.6251  0.4622  0.1388
   98TCq2    O4 1500   0.828   1.992  17.654 -0.0924 -0.3380 -0.2515
   98TCq2    C9 1501   0.467   1.628  17.388  0.8182 -0.3288 -0.2739
   98TCq2    O5 1502   0.362   1.561  17.400  0.8234 -0.2913 -0.2224
   98TCq2    O6 1503   0.536   1.627  17.286 -0.7908 -0.3451  0.0625
   98TCq2    H2 1504   0.355   1.656  17.619 -0.7691  1.2064  0.2756
   98TCq2    H3 1505   0.677   1.769  17.379  0.3183 -0.3023 -0.3259
   98TCq2    H4 1506   0.606   1.969   0.053  2.0916 -0.6014 -1.3168
   99MPD2     C 1507   0.074   4.188   1.286  0.2436  0.5133 -0.3729
   99MPD2    C1 1508   0.168   4.144   1.376 -0.1343 -0.5319 -0.4283
   99MPD2    C2 1509   0.301   4.136   1.334 -0.3306  0.0074  0.7871
   99MPD2    C3 1510   0.340   4.179   1.207  0.3222 -0.6826  0.5098
   99MPD2    C4 1511   0.246   4.234   1.120  0.5134 -0.6687 -0.1513
   99MPD2    C5 1512   0.116   4.230   1.164 -0.0794 -0.1084 -0.4701
   99MPD2     H 1513   0.378   4.094   1.398  0.6544 -0.5007 -0.7232
   99MPD2    H1 1514   0.274   4.273   1.023 -3.1654  0.5111 -0.7446
   99MPD2    H2 1515   4.696   4.211   1.321 -0.5340 -2.3989 -0.7049
   99MPD2    H3 1516   0.043   4.283   1.104 -0.5886  0.3198  0.5347
   99MPD2     N 1517   0.474   4.187   1.174  0.4786  0.3508  0.2849
   99MPD2    H5 1518   0.544   4.169   1.245 -0.7230  0.1357  1.4263
   99MPD2    N1 1519   0.135   4.115   1.509  1.0712 -0.0377 -0.6387
   99MPD2    H7 1520   0.208   4.061   1.554 -0.2914 -0.5579  0.9549
  100TCq2    C1 1521   0.017   4.121   1.572  0.7723 -0.6080  0.0315
  100TCq2    O2 1522   4.633   4.168   1.533  0.1994  0.2503 -0.4795
  100TCq2    C2 1523   0.027   4.112   1.720 -0.0363 -0.9150 -0.1299
  100TCq2    C3 1524   0.132   4.157   1.790 -0.0054  0.0914  0.5584
  100TCq2    C4 1525   0.118   4.191   1.923 -0.1527  0.5621  0.2702
  100TCq2    C5 1526   0.001   4.177   1.986 -0.3638  0.4545 -0.4219
  100TCq2    C6 1527   4.623   4.117   1.915  0.0299  0.2450  0.1301
  100TCq2    C7 1528   4.634   4.080   1.785  0.0068 -0.2072 -0.5026
  100TCq2    C8 1529   4.488   4.123   1.977 -0.1634 -0.0086  0.4921
  100TCq2    O4 1530   4.471   4.195   2.078  0.0110 -0.1534 -0.4058
  100TCq2    C9 1531   0.224   4.248   1.994 -0.3459 -0.1770 -0.0044
  100TCq2    O5 1532   0.203   4.293   2.109  0.7682 -0.1870  0.2705
  100TCq2    O6 1533   0.333   4.246   1.929 -0.5933  0.4346 -0.2717
  100TCq2    H2 1534   0.219   4.200   1.742 -0.5521 -0.5477 -0.9929
  100TCq2    H3 1535   4.707   4.206   2.089  1.5797  0.4087 -0.1111
  100TCq2    H4 1536   4.559   4.031   1.723 -1.2958 -0.3731  1.2017
  101MPD2     C 1537   0.704   0.261  12.802  0.4585 -0.3380  0.0900
  101MPD2    C1 1538   0.583   0.326  12.763 -0.1810 -1.5681 -0.4308
  101MPD2    C2 1539   0.473   0.301  12.846  0.6396  0.2671  0.2369
  101MPD2    C3 1540   0.484   0.207  12.949 -0.0216 -0.0545  0.1938
  101MPD2    C4 1541   0.606   0.145  12.977  0.3521  0.9524 -0.0779
  101MPD2    C5 1542   0.721   0.178  12.907  0.1491 -0.2555  0.6827
  101MPD2     H 1543   0.379   0.351  12.827 -0.7188 -2.3941 -0.1197
  101MPD2    H1 1544   0.616   0.074  13.058 -1.8115  0.5709 -0.1499
  101MPD2    H2 1545   0.796   0.268  12.745  0.1332  1.1210 -0.2437
  101MPD2    H3 1546   0.815   0.125  12.914 -1.5562 -3.5011 -1.4533
  101MPD2     N 1547   0.367   0.167  13.018 -0.1109  0.3362 -0.2263
  101MPD2    H5 1548   0.388   0.129  13.110  0.4149  0.0590 -0.4566
  101MPD2    N1 1549   0.586   0.406  12.650 -0.0501 -0.0558 -0.3230
  101MPD2    H7 1550   0.680   0.411  12.614 -0.8686  0.8424 -2.3087
  102TCq2    C1 1551   0.801   0.625  12.256  0.6266 -0.5603 -0.3409
  102TCq2    O2 1552   0.882   0.549  12.308 -0.1708  0.5317  0.1415
  102TCq2    C2 1553   0.674   0.639  12.322 -0.5622 -0.0969  0.3553
  102TCq2    C3 1554   0.585   0.731  12.269  0.0227  0.0939 -0.8152
  102TCq2    C4 1555   0.461   0.730  12.323 -0.0810 -0.3161  1.5054
  102TCq2    C5 1556   0.419   0.639  12.417 -0.5718  0.3184 -0.4558
  102TCq2    C6 1557   0.514   0.549  12.464 -0.0929  0.4362 -0.3370
  102TCq2    C7 1558   0.638   0.542  12.412 -0.0181 -0.3340 -0.0943
  102TCq2    C8 1559   0.479   0.475  12.588  0.5435 -0.2105  0.1116
  102TCq2    O4 1560   0.357   0.470  12.619 -0.3376 -0.2485 -0.7943
  102TCq2    C9 1561   0.365   0.819  12.262 -0.0003  0.2357 -0.0946
  102TCq2    O5 1562   0.248   0.773  12.271 -0.5859 -0.5202 -0.0606
  102TCq2    O6 1563   0.402   0.890  12.166 -0.7989 -0.2845  0.0031
  102TCq2    H2 1564   0.611   0.817  12.208 -1.9287  2.2009  1.3361
  102TCq2    H3 1565   0.313   0.637  12.437 -0.5696 -1.2576 -0.6123
  102TCq2    H4 1566   0.709   0.463  12.435 -0.8980 -1.1093 -0.0265
  103TMC2    C1 1567   3.732   4.544  12.274 -0.0481  0.0431 -0.2677
  103TMC2    C2 1568   3.738   4.658  12.204  0.1968 -0.2051 -0.9593
  103TMC2    C3 1569   3.753   0.048  12.268  0.2364 -0.4376  0.3068
  103TMC2    C4 1570   3.742   4.549  12.413  0.3588 -0.1759  0.3031
  103TMC2    C5 1571   3.770   4.667  12.473  0.0993 -0.2021 -0.3108
  103TMC2    C6 1572   3.767   0.059  12.402 -0.8073  0.1615  0.2635
  103TMC2     C 1573   3.678   4.413  12.234  0.1634 -0.4971  0.1009
  103TMC2     O 1574   3.668   4.323  12.316 -0.7046 -0.3230  0.1171
  103TMC2     H 1575   3.727   4.662  12.096 -1.0323 -2.2312 -0.9019
  103TMC2    H1 1576   3.744   4.452  12.462 -1.0322 -0.7764 -0.8184
  103TMC2    H2 1577   3.762   0.154  12.454 -0.2098  0.7412 -0.7380
  103TMC2    C7 1578   3.750   4.681  12.618 -0.0149  0.3733 -0.1462
  103TMC2    C8 1579   3.802   0.157  12.197  0.7104 -0.1697 -1.2117
  103TMC2    O1 1580   3.799   0.052  12.672  0.1929  0.5493  0.1132
  103TMC2    O2 1581   3.752   0.272  12.211 -0.4464 -0.5726  0.3441
  103TMC2    O5 1582   3.890   0.115  12.105 -0.0810  0.1495  0.4207
  103TMC2    H5 1583   3.935   0.034  12.137  1.2028  0.1978 -1.2822
  104MPD2     C 1584   3.514   4.200  12.110 -0.2218  0.0657  0.1049
  104MPD2    C1 1585   3.560   4.308  12.037 -0.1016  0.1716  0.0539
  104MPD2    C2 1586   3.510   4.321  11.907  0.1604 -0.4908 -0.1285
  104MPD2    C3 1587   3.438   4.217  11.849  0.6085  0.2043  0.0770
  104MPD2    C4 1588   3.396   4.112  11.933 -0.6475  0.3566 -0.3292
  104MPD2    C5 1589   3.432   4.103  12.065  0.1080 -0.2066  0.2546
  104MPD2     H 1590   3.546   4.406  11.849 -0.1374 -0.7263 -0.6509
  104MPD2    H1 1591   3.342   4.026  11.894 -0.9719 -0.0187  0.9484
  104MPD2    H2 1592   3.545   4.179  12.212  1.2959  0.5238 -0.2580
  104MPD2    H3 1593   3.405   4.017  12.124  0.1357 -1.5452 -1.6842
  104MPD2     N 1594   3.410   4.221  11.706 -0.1526 -0.2529 -0.0289
  104MPD2    H5 1595   3.444   4.299  11.650  0.0250 -0.6401 -0.4518
  104MPD2    N1 1596   3.638   4.412  12.100  0.0185  0.6075 -0.2691
  104MPD2    H7 1597   3.669   4.491  12.044  2.2824 -0.5839 -0.6817
  105MPD2     C 1598   0.576   4.264   0.028  0.1564 -0.5630 -0.2511
  105MPD2    C1 1599   0.504   4.375   0.005  0.9253 -0.4337 -0.4344
  105MPD2    C2 1600   0.408   4.414   0.094  0.2386 -0.4061 -0.5963
  105MPD2    C3 1601   0.409   4.364   0.224 -0.0007 -0.5601 -0.2038
  105MPD2    C4 1602   0.491   4.258   0.248  0.6839  0.3184  0.6500
  105MPD2    C5 1603   0.578   4.213   0.156 -0.2809 -0.2301  0.3605
  105MPD2     H 1604   0.346   4.496   0.061  2.0322  1.7756  1.3929
  105MPD2    H1 1605   0.494   4.211   0.345  1.8570  0.0750  0.5068
  105MPD2    H2 1606   0.650   4.224  17.652 -0.0363 -0.5519 -0.4633
  105MPD2    H3 1607   0.657   4.146   0.186  1.2036  1.1809 -0.4400
  105MPD2     N 1608   0.308   4.401   0.317  0.0892 -0.2601 -0.7655
  105MPD2    H5 1609   0.247   4.473   0.278  0.8553 -0.7889 -2.9782
  105MPD2    N1 1610   0.509   4.438  17.567 -0.4092  0.1284 -0.1504
  105MPD2    H7 1611   0.446   4.517  17.558  0.0936  0.7587  2.0152
  106TCq2    C1 1612   0.286   4.351   0.442 -0.4699  0.2341  0.4110
  106TCq2    O2 1613   0.339   4.263   0.508 -0.6976 -0.6271  0.0909
  106TCq2    C2 1614   0.158   4.403   0.493  0.1643  0.2021  0.3550
  106TCq2    C3 1615   0.067   4.463   0.409  0.1137  0.7891 -0.4701
  106TCq2    C4 1616   4.674   4.499   0.453 -0.4077  0.1318  0.3233
  106TCq2    C5 1617   4.637   4.462   0.577 -0.3114  0.9359 -0.6598
  106TCq2    C6 1618   4.722   4.402   0.661 -0.0455 -0.4341  0.7740
  106TCq2    C7 1619   0.125   4.363   0.623 -0.7156  0.4903  0.3009
  106TCq2    C8 1620   4.667   4.361   0.793  0.0128  0.0039  0.1952
  106TCq2    O4 1621   4.718   4.266   0.845 -0.3732 -0.0512  0.0713
  106TCq2    C9 1622   4.578   4.578   0.378  0.2798  0.9614 -1.1354
  106TCq2    O5 1623   4.472   4.610   0.436  0.8947  0.5065 -0.5473
  106TCq2    O6 1624   4.618   4.628   0.269 -0.0511  0.8901 -0.1067
  106TCq2    H2 1625   0.088   4.493   0.307  2.5041 -1.8594 -0.7459
  106TCq2    H3 1626   4.534   4.483   0.604 -0.4150 -1.9343  1.1723
  106TCq2    H4 1627   0.177   4.289   0.683  0.3348 -0.4610 -1.7749
  107TMC2    C1 1628   1.182   3.653  11.174 -0.1369 -0.3070  0.2742
  107TMC2    C2 1629   1.085   3.649  11.075 -1.0354  0.0709  0.9192
  107TMC2    C3 1630   1.129   3.626  10.947  0.1840 -0.0763  0.0952
  107TMC2    C4 1631   1.317   3.637  11.144  0.2976 -0.4702  0.1293
  107TMC2    C5 1632   1.348   3.606  11.014 -0.1600 -0.2807 -0.7052
  107TMC2    C6 1633   1.256   3.593  10.913  0.2255 -0.0767  0.1807
  107TMC2     C 1634   1.145   3.688  11.309 -0.1955  0.6924 -0.0088
  107TMC2     O 1635   1.029   3.666  11.349 -0.2739  0.2312 -0.1102
  107TMC2     H 1636   0.980   3.662  11.100 -1.1795  1.6508 -0.4709
  107TMC2    H1 1637   1.392   3.638  11.223  0.6674  0.1762 -0.2296
  107TMC2    H2 1638   1.279   3.576  10.809  1.0377  1.4821  0.1070
  107TMC2    C7 1639   1.489   3.605  10.983  0.0837  0.5244 -0.3962
  107TMC2    C8 1640   1.039   3.640  10.838  0.2438  0.0185  0.7422
  107TMC2    O1 1641   1.558   3.632  11.082 -0.1029 -0.0841 -0.7117
  107TMC2    O2 1642   1.051   3.572  10.735  0.0134  0.5145  0.4405
  107TMC2    O5 1643   0.930   3.708  10.883  0.5281 -0.4370  0.7795
  107TMC2    H5 1644   0.968   3.775  10.944  0.8592 -0.6186  0.7749
  108MPD2     C 1645   1.353   3.787  11.580 -0.2392 -0.0344  0.2628
  108MPD2    C1 1646   1.242   3.722  11.524  0.1773  0.5910 -0.3422
  108MPD2    C2 1647   1.161   3.646  11.605  0.2581  0.8236 -0.3091
  108MPD2    C3 1648   1.188   3.627  11.741  0.2667  0.1602 -0.2826
  108MPD2    C4 1649   1.297   3.690  11.788 -0.0236  0.0551 -0.2756
  108MPD2    C5 1650   1.376   3.774  11.715 -0.4731 -0.6865  0.1750
  108MPD2     H 1651   1.079   3.593  11.558 -0.6831  1.7800  0.2451
  108MPD2    H1 1652   1.322   3.697  11.893 -1.4105  1.4079 -0.0201
  108MPD2    H2 1653   1.417   3.855  11.526 -1.7183  1.3736  0.3028
  108MPD2    H3 1654   1.465   3.809  11.767 -0.8167  2.1402 -1.1058
  108MPD2     N 1655   1.094   3.549  11.816  0.2476  0.6772 -0.7873
  108MPD2    H5 1656   1.027   3.493  11.763 -1.6276 -0.2622  2.5912
  108MPD2    N1 1657   1.235   3.746  11.386  0.3836  0.2407  0.0597
  108MPD2    H7 1658   1.320   3.791  11.353 -0.8538  1.8769 -0.8570
  109MPD2     C 1659   4.563   0.818   1.720 -0.4264  0.3717 -0.1655
  109MPD2    C1 1660   4.593   0.906   1.621 -0.5937  0.0569 -0.1169
  109MPD2    C2 1661   0.001   0.956   1.615 -0.0808  0.7051  0.5276
  109MPD2    C3 1662   0.105   0.915   1.694 -0.3011  0.0377  0.9469
  109MPD2    C4 1663   0.073   0.828   1.799  0.4703 -0.4838  0.3257
  109MPD2    C5 1664   4.663   0.790   1.809 -0.2529  0.1382 -0.1397
  109MPD2     H 1665   0.028   1.023   1.534  0.6070 -0.0027  0.1805
  109MPD2    H1 1666   0.140   0.806   1.881  0.2836  0.3579  0.7018
  109MPD2    H2 1667   4.458   0.793   1.730 -0.1041 -0.9303 -0.0564
  109MPD2    H3 1668   4.639   0.728   1.895 -1.8187  0.0208 -0.6588
  109MPD2     N 1669   0.232   0.991   1.686  0.3016 -0.2286 -0.0926
  109MPD2    H5 1670   0.243   1.036   1.596 -1.3286  0.2018 -0.0711
  109MPD2    N1 1671   4.493   0.933   1.527 -0.2254 -0.2488  0.4576
  109MPD2    H7 1672   4.416   0.867   1.522  1.4919 -2.4909  3.1460
  110TCq2    C1 1673   0.334   0.982   1.779 -0.1278 -0.3803  0.1448
  110TCq2    O2 1674   0.334   0.907   1.876 -0.4576  0.2447  0.3074
  110TCq2    C2 1675   0.443   1.071   1.762 -0.1850  0.5016  0.3334
  110TCq2    C3 1676   0.560   1.046   1.834  0.0811 -0.0493  0.6361
  110TCq2    C4 1677   0.661   1.139   1.831  0.9976  0.4639 -0.2506
  110TCq2    C5 1678   0.653   1.247   1.741  0.4090  0.0627 -0.2683
  110TCq2    C6 1679   0.540   1.260   1.674 -0.6048  0.7362  0.6268
  110TCq2    C7 1680   0.439   1.169   1.671 -0.1601 -1.0339 -0.8581
  110TCq2    C8 1681   0.542   1.367   1.567 -0.2260 -0.5947 -0.4600
  110TCq2    O4 1682   0.473   1.344   1.468  0.1391  0.3825 -0.1715
  110TCq2    C9 1683   0.778   1.119   1.905 -0.2422  0.2299 -0.4715
  110TCq2    O5 1684   0.868   1.205   1.897 -0.3430 -0.6408 -0.1927
  110TCq2    O6 1685   0.758   1.038   1.999 -0.1033  0.1446  0.0643
  110TCq2    H2 1686   0.573   0.959   1.898 -0.0087 -1.1330 -0.8044
  110TCq2    H3 1687   0.744   1.302   1.718 -1.0646  3.2953  1.5986
  110TCq2    H4 1688   0.349   1.196   1.617 -0.9603  0.8194  1.3821
  111TMC2    C1 1689   1.751   0.810  11.092 -1.3561  0.1973  0.0652
  111TMC2    C2 1690   1.847   0.769  11.004 -0.2570  0.1274 -0.0240
  111TMC2    C3 1691   1.955   0.698  11.060  0.3354  1.2131  0.3052
  111TMC2    C4 1692   1.749   0.774  11.223  0.3650 -0.5170  0.5834
  111TMC2    C5 1693   1.858   0.698  11.267 -0.6572  0.3415 -0.0899
  111TMC2    C6 1694   1.957   0.667  11.192 -0.0553 -0.5979  0.4617
  111TMC2     C 1695   1.653   0.908  11.047  0.5301  0.8938 -1.2859
  111TMC2     O 1696   1.647   0.933  10.927 -0.1672  0.2936  0.3052
  111TMC2     H 1697   1.859   0.810  10.904 -0.9003 -0.0600 -0.1764
  111TMC2    H1 1698   1.672   0.794  11.297  1.1233  2.6096  0.5142
  111TMC2    H2 1699   2.035   0.601  11.227 -0.0074 -0.9479 -0.3064
  111TMC2    C7 1700   1.860   0.676  11.407 -0.0694 -0.5770  0.6715
  111TMC2    C8 1701   2.068   0.656  10.980 -0.0035  0.3360  0.8526
  111TMC2    O1 1702   1.770   0.708  11.480 -0.1256  0.2101 -0.2888
  111TMC2    O2 1703   2.184   0.640  11.021 -0.5669  0.2291  0.1164
  111TMC2    O5 1704   2.017   0.585  10.877 -0.5644  0.1274 -0.1766
  111TMC2    H5 1705   1.920   0.578  10.873 -0.6014  0.0120  0.7851
  112MPD2     C 1706   1.220   1.183  11.167 -0.3168  0.3818  0.3758
  112MPD2    C1 1707   1.264   1.152  11.036  0.2577  0.0676  0.1785
  112MPD2    C2 1708   1.382   1.083  11.029  0.0220  0.5047 -0.3190
  112MPD2    C3 1709   1.460   1.048  11.139 -0.6964  0.0475 -0.8007
  112MPD2    C4 1710   1.419   1.091  11.267  0.4032  0.0627  0.6250
  112MPD2    C5 1711   1.302   1.161  11.272  0.1915 -0.3369 -0.2656
  112MPD2     H 1712   1.429   1.053  10.936  1.4315  1.2658  0.1603
  112MPD2    H1 1713   1.470   1.074  11.361 -0.0280  1.6991  1.1646
  112MPD2    H2 1714   1.121   1.224  11.186  0.4749  2.0468  0.8455
  112MPD2    H3 1715   1.254   1.179  11.367 -0.3951  0.9670 -0.8175
  112MPD2     N 1716   1.577   0.970  11.147  0.0097 -0.1366 -0.1586
  112MPD2    H5 1717   1.596   0.946  11.244  0.3161  3.7628  0.7528
  112MPD2    N1 1718   1.189   1.184  10.919 -0.0442 -0.1246 -0.4848
  112MPD2    H7 1719   1.220   1.138  10.834  2.0767  2.9897 -1.4222
  113MPD2     C 1720   4.093   3.779   1.351  0.1343 -0.8257 -0.2121
  113MPD2    C1 1721   4.008   3.889   1.326  0.1269 -0.9218  0.4423
  113MPD2    C2 1722   3.912   3.871   1.223  0.5547  0.3941  0.1610
  113MPD2    C3 1723   3.901   3.748   1.155 -0.2967 -0.0143  0.3146
  113MPD2    C4 1724   3.984   3.647   1.188 -0.4212  0.1477  0.2018
  113MPD2    C5 1725   4.088   3.664   1.280  0.7772 -0.2326 -0.0484
  113MPD2     H 1726   3.864   3.961   1.186  0.1990  0.3021  0.3974
  113MPD2    H1 1727   3.973   3.552   1.138  0.6174 -0.1738  0.5774
  113MPD2    H2 1728   4.172   3.794   1.423  1.6234  2.4100 -2.5701
  113MPD2    H3 1729   4.164   3.589   1.293 -0.5398 -1.8439 -1.6199
  113MPD2     N 1730   3.791   3.706   1.077 -0.3241 -0.1252  0.4556
  113MPD2    H5 1731   3.775   3.606   1.064 -0.5423 -0.4542  3.3417
  113MPD2    N1 1732   4.018   4.010   1.395  0.0445 -0.1790 -0.1762
  113MPD2    H7 1733   3.953   4.080   1.361 -1.1988 -0.5968  1.3374
  114TCq2    C1 1734   3.705   3.790   1.012  0.2718 -0.5880 -0.2033
  114TCq2    O2 1735   3.691   3.913   1.017  0.2416  0.0231 -0.2204
  114TCq2    C2 1736   3.604   3.718   0.954  0.1470  0.1958  0.1231
  114TCq2    C3 1737   3.474   3.758   0.968  0.0226  0.0096 -0.3455
  114TCq2    C4 1738   3.365   3.685   0.928  0.4153  0.5456 -0.9387
  114TCq2    C5 1739   3.397   3.571   0.852  0.0544  0.2637  0.4057
  114TCq2    C6 1740   3.530   3.539   0.835  0.1355  1.0678  0.5613
  114TCq2    C7 1741   3.638   3.614   0.878  0.0615 -0.1087 -0.3804
  114TCq2    C8 1742   3.572   3.411   0.796  0.6485 -0.0527  0.1786
  114TCq2    O4 1743   3.675   3.400   0.730 -0.4584  0.0679 -0.8510
  114TCq2    C9 1744   3.227   3.724   0.956  0.4541  0.1191 -0.4600
  114TCq2    O5 1745   3.204   3.839   0.997  0.6445 -0.1666 -0.2425
  114TCq2    O6 1746   3.138   3.649   0.902 -0.2510 -0.2334  0.2395
  114TCq2    H2 1747   3.448   3.842   1.032  2.9812  1.5174 -1.1361
  114TCq2    H3 1748   3.323   3.513   0.797  1.4678 -1.1629  0.0118
  114TCq2    H4 1749   3.742   3.595   0.851  0.5794  2.0314  0.1954
  115TMC2    C1 1750   4.392   1.566  17.540  0.8896  0.2579  0.4538
  115TMC2    C2 1751   4.502   1.515  17.607  0.7859 -0.6482  0.0437
  115TMC2    C3 1752   4.607   1.601  17.639  0.9460  0.4166 -0.8964
  115TMC2    C4 1753   4.388   1.695  17.500  0.6582  0.1895  0.2786
  115TMC2    C5 1754   4.487   1.776  17.541 -0.0514 -0.2739 -0.6664
  115TMC2    C6 1755   4.596   1.735  17.612  0.0390 -0.0133 -0.3928
  115TMC2     C 1756   4.311   1.465  17.475 -0.7694  0.5154 -0.0622
  115TMC2     O 1757   4.358   1.360  17.436  0.0710  0.6260  0.1873
  115TMC2     H 1758   4.512   1.407  17.618  0.0556 -0.8736 -1.5777
  115TMC2    H1 1759   4.307   1.723  17.433  0.1942 -0.6362  0.4955
  115TMC2    H2 1760   4.671   1.798  17.658  0.2958 -1.5951  1.3856
  115TMC2    C7 1761   4.484   1.924  17.530  0.4072  0.2608 -0.0642
  115TMC2    C8 1762   0.022   1.544  17.638  0.0232  0.2906 -0.4556
  115TMC2    O1 1763   4.553   1.990  17.607 -0.1103  0.6834  0.2965
  115TMC2    O2 1764   0.045   1.431  17.602 -0.0341  0.0136  0.6339
  115TMC2    O5 1765   0.095   1.608   0.031 -0.3901  0.2570  0.3054
  115TMC2    H5 1766   0.047   1.679   0.079  1.5771  1.2997  0.7407
  116MPD2     C 1767   3.866   1.348  17.271 -1.1394 -0.6297 -0.3965
  116MPD2    C1 1768   3.981   1.280  17.262 -0.0169  0.0011  0.0020
  116MPD2    C2 1769   4.094   1.337  17.324  0.0433 -0.3465  0.3332
  116MPD2    C3 1770   4.077   1.450  17.405 -0.2114 -0.5652  0.9198
  116MPD2    C4 1771   3.957   1.514  17.410  0.1762 -0.7535 -0.2395
  116MPD2    C5 1772   3.853   1.463  17.343  0.7564 -0.6647  0.2586
  116MPD2     H 1773   4.187   1.282  17.318 -0.8125 -1.5252 -1.9308
  116MPD2    H1 1774   3.947   1.611  17.458 -1.2902 -0.4792 -1.1098
  116MPD2    H2 1775   3.774   1.318  17.222 -1.3682 -0.7231  0.0939
  116MPD2    H3 1776   3.763   1.523  17.337  0.3515 -1.4611 -1.8100
  116MPD2     N 1777   4.184   1.513  17.474 -0.3960 -0.4390  0.4818
  116MPD2    H5 1778   4.161   1.600  17.522 -0.7036 -0.0611 -0.3490
  116MPD2    N1 1779   3.978   1.163  17.188 -0.0147  0.0041 -0.2027
  116MPD2    H7 1780   3.884   1.141  17.156  0.4995 -0.3158 -1.5048
  117TMC2    C1 1781   3.269   2.826  13.539  0.0927 -0.0976 -0.2124
  117TMC2    C2 1782   3.380   2.749  13.503 -0.6285 -0.7562 -0.4866
  117TMC2    C3 1783   3.501   2.790  13.547  0.3099 -0.2299 -0.0169
  117TMC2    C4 1784   3.280   2.941  13.610 -0.1531  0.3120 -0.2565
  117TMC2    C5 1785   3.402   2.982  13.649 -0.4519 -0.2087  0.0638
  117TMC2    C6 1786   3.510   2.908  13.608 -0.7360 -0.4879  0.1746
  117TMC2     C 1787   3.145   2.797  13.486  0.0472 -0.1863 -0.4660
  117TMC2     O 1788   3.143   2.722  13.392  0.1398  0.1350  0.4170
  117TMC2     H 1789   3.367   2.656  13.450 -1.1086 -0.9282 -0.0744
  117TMC2    H1 1790   3.195   3.006  13.622  0.0797  0.4551  0.6356
  117TMC2    H2 1791   3.610   2.945  13.632 -0.5594 -0.9275  0.1104
  117TMC2    C7 1792   3.429   3.130  13.647 -0.3285 -0.7366  0.3488
  117TMC2    C8 1793   3.625   2.716  13.514 -0.3769 -0.0765  0.2114
  117TMC2    O1 1794   3.521   3.169  13.583  0.0406 -0.4654  0.1616
  117TMC2    O2 1795   3.738   2.739  13.550  0.2115  0.0086 -0.4850
  117TMC2    O5 1796   3.601   2.621  13.418  0.1505  0.3796 -0.2845
  117TMC2    H5 1797   3.516   2.619  13.369 -1.0654  0.5521  1.8362
  118MPD2     C 1798   3.214   3.386  13.808  0.4529 -0.3052  0.2326
  118MPD2    C1 1799   3.328   3.346  13.745 -0.7035  0.0144  0.9084
  118MPD2    C2 1800   3.417   3.444  13.686 -0.4364  0.1790 -0.4166
  118MPD2    C3 1801   3.396   3.581  13.705  0.1869 -0.0922 -0.4472
  118MPD2    C4 1802   3.270   3.616  13.757  0.2968 -0.2106 -0.1903
  118MPD2    C5 1803   3.191   3.524  13.806  0.2576  0.0195 -0.5228
  118MPD2     H 1804   3.505   3.416  13.630 -0.5460  0.4544 -0.7275
  118MPD2    H1 1805   3.245   3.722  13.755 -0.0991 -0.2806  1.5694
  118MPD2    H2 1806   3.160   3.310  13.862  0.2218 -2.1193 -2.5694
  118MPD2    H3 1807   3.095   3.553  13.849  0.4911 -1.3931  0.9527
  118MPD2     N 1808   3.483   3.675  13.653  0.0260 -0.3359 -0.4403
  118MPD2    H5 1809   3.461   3.774  13.644 -0.6785 -0.7109 -3.0944
  118MPD2    N1 1810   3.330   3.201  13.721 -0.1506  0.0097 -0.0604
  118MPD2    H7 1811   3.263   3.144  13.770  0.5794 -2.0771 -1.5031
  119MPD2     C 1812   1.727   0.173  13.249 -1.1783  0.6098 -0.2684
  119MPD2    C1 1813   1.603   0.114  13.248 -0.2532 -0.6673  0.6804
  119MPD2    C2 1814   1.566   0.035  13.137 -1.0274 -0.1627  0.3623
  119MPD2    C3 1815   1.652   0.007  13.032  0.0273  0.2565  0.4484
  119MPD2    C4 1816   1.773   0.071  13.036  0.0148 -0.2635  0.9379
  119MPD2    C5 1817   1.812   0.156  13.139 -0.3485 -0.2200 -1.2375
  119MPD2     H 1818   1.483   4.692  13.157 -1.2918 -0.1859 -0.7855
  119MPD2    H1 1819   1.851   0.045  12.966 -1.7698  0.2366 -1.2311
  119MPD2    H2 1820   1.770   0.219  13.336  1.0127 -2.1477  0.1275
  119MPD2    H3 1821   1.916   0.185  13.141 -0.0060 -1.4320 -1.3881
  119MPD2     N 1822   1.630   4.625  12.937 -0.1607  0.7826  0.0167
  119MPD2    H5 1823   1.704   4.600  12.872 -0.8954 -1.2199 -0.0352
  119MPD2    N1 1824   1.527   0.111  13.371 -0.0127  0.7185 -0.0794
  119MPD2    H7 1825   1.575   0.130  13.458  0.3715 -0.5074 -0.0284
  120TCq2    C1 1826   1.526   4.539  12.939  0.2389  0.3499 -0.8346
  120TCq2    O2 1827   1.416   4.553  12.992  0.4220 -0.5896 -0.7706
  120TCq2    C2 1828   1.557   4.405  12.882  0.3785  0.5822 -0.6856
  120TCq2    C3 1829   1.681   4.375  12.837 -0.2288 -0.0309  0.2449
  120TCq2    C4 1830   1.722   4.251  12.816  0.5902  0.9728 -0.0336
  120TCq2    C5 1831   1.645   4.144  12.851 -0.6423  0.1852  0.3249
  120TCq2    C6 1832   1.522   4.178  12.910  0.2702  0.1212  0.2155
  120TCq2    C7 1833   1.472   4.306  12.924 -0.2662  0.1382  0.0380
  120TCq2    C8 1834   1.425   4.074  12.950 -0.1785  0.1640  0.1662
  120TCq2    O4 1835   1.430   3.962  12.903 -0.5742  0.0095  0.4602
  120TCq2    C9 1836   1.850   4.230  12.761 -0.7443 -0.3478 -0.6541
  120TCq2    O5 1837   1.912   4.335  12.736  0.3295  0.4938 -0.1424
  120TCq2    O6 1838   1.901   4.114  12.759 -0.2063 -0.0516 -0.1926
  120TCq2    H2 1839   1.749   4.449  12.797 -1.2580  0.3359 -0.8485
  120TCq2    H3 1840   1.680   4.041  12.846 -1.3681 -0.1595  2.3276
  120TCq2    H4 1841   1.368   4.332  12.940 -0.1013  2.0244 -1.9646
  121TMC2    C1 1842   2.311   1.463  13.831  0.1738 -0.5802  0.0500
  121TMC2    C2 1843   2.257   1.356  13.906  0.0459  0.7836  0.1915
  121TMC2    C3 1844   2.121   1.339  13.884 -0.3804 -0.3945 -0.1438
  121TMC2    C4 1845   2.241   1.549  13.751  0.1210 -0.1036 -0.4262
  121TMC2    C5 1846   2.113   1.515  13.728  0.1412 -0.0049  0.0741
  121TMC2    C6 1847   2.053   1.409  13.788 -0.0066  0.0101  0.1277
  121TMC2     C 1848   2.443   1.504  13.865  0.6086 -0.2332  0.5864
  121TMC2     O 1849   2.485   1.491  13.982 -0.6920 -0.2330 -0.0227
  121TMC2     H 1850   2.315   1.300  13.978  1.2519  0.6805 -0.8634
  121TMC2    H1 1851   2.279   1.634  13.694  0.8322  0.4170  0.8342
  121TMC2    H2 1852   1.951   1.382  13.762  0.4341  0.2457 -1.8101
  121TMC2    C7 1853   2.047   1.607  13.644 -0.5346 -0.0545  0.2156
  121TMC2    C8 1854   2.059   1.233  13.950 -0.8621 -0.9835  0.0043
  121TMC2    O1 1855   2.094   1.722  13.636 -0.2255 -0.2341 -0.0975
  121TMC2    O2 1856   1.937   1.223  13.949  0.0854 -0.6316 -0.1983
  121TMC2    O5 1857   2.140   1.130  13.922  0.2602 -0.0168  0.1625
  121TMC2    H5 1858   2.231   1.159  13.898 -0.2707  1.6396  0.1561
  122MPD2     C 1859   2.692   1.670  13.881 -0.0915 -0.3786  0.4656
  122MPD2    C1 1860   2.626   1.637  13.766 -0.1330 -0.0097 -0.3659
  122MPD2    C2 1861   2.676   1.674  13.641  0.1794 -0.5008 -0.0489
  122MPD2    C3 1862   2.803   1.738  13.634 -0.7188  0.9194 -0.1372
  122MPD2    C4 1863   2.864   1.784  13.744 -0.9497 -0.3351 -0.2438
  122MPD2    C5 1864   2.812   1.741  13.869 -0.1674 -0.6275 -0.1760
  122MPD2     H 1865   2.616   1.654  13.553 -1.0553 -0.8290  0.8673
  122MPD2    H1 1866   2.959   1.835  13.735 -0.5749 -1.0949 -0.5387
  122MPD2    H2 1867   2.650   1.646  13.978  1.4674 -1.1991  0.9406
  122MPD2    H3 1868   2.863   1.774  13.958 -0.8206 -2.4403  0.8866
  122MPD2     N 1869   2.860   1.781  13.508 -0.0876 -0.0427 -0.3692
  122MPD2    H5 1870   2.944   1.835  13.526 -0.0244 -0.4042  0.4272
  122MPD2    N1 1871   2.502   1.569  13.764 -0.3484  0.0520 -0.3851
  122MPD2    H7 1872   2.469   1.541  13.672 -0.9042 -3.4585  0.8529
  123MPD2     C 1873   0.887   3.885   9.940  0.1200  0.1934 -0.2172
  123MPD2    C1 1874   0.910   3.939   9.818  1.0111 -0.3963 -0.3095
  123MPD2    C2 1875   1.039   3.988   9.791  0.2903  0.2857 -0.8521
  123MPD2    C3 1876   1.142   3.965   9.878  0.1541  0.0663  0.3022
  123MPD2    C4 1877   1.117   3.893   9.992  0.4891 -0.5912  0.2478
  123MPD2    C5 1878   0.992   3.851  10.020  1.4861  0.7839  0.1493
  123MPD2     H 1879   1.048   4.042   9.697  0.3182 -0.0277 -1.0296
  123MPD2    H1 1880   1.191   3.896  10.072  2.5218  2.5919 -1.7755
  123MPD2    H2 1881   0.786   3.869   9.977 -0.6538  4.0019 -0.6823
  123MPD2    H3 1882   0.981   3.801  10.116 -2.3338  1.6144  0.1396
  123MPD2     N 1883   1.266   4.016   9.845 -0.7851  0.1292  0.0877
  123MPD2    H5 1884   1.280   4.053   9.752 -2.7757 -0.2886 -0.3899
  123MPD2    N1 1885   0.798   3.955   9.731 -0.1004  0.1224  0.1852
  123MPD2    H7 1886   0.710   3.926   9.774 -1.0188 -0.9745 -2.4321
  124TCq2    C1 1887   1.374   4.016   9.925 -0.2196 -0.1788  0.5101
  124TCq2    O2 1888   1.392   4.004  10.046  0.1201 -0.1222 -0.3101
  124TCq2    C2 1889   1.480   4.081   9.857  0.4470  0.6002 -0.3129
  124TCq2    C3 1890   1.553   4.171   9.929  0.6915  1.3418 -0.1833
  124TCq2    C4 1891   1.648   4.247   9.866  0.6132  0.0877 -0.3343
  124TCq2    C5 1892   1.687   4.210   9.736  0.0962  0.3281  0.4304
  124TCq2    C6 1893   1.624   4.099   9.679 -0.6368  0.5299 -0.3561
  124TCq2    C7 1894   1.522   4.031   9.741  0.4994 -0.0679  0.1838
  124TCq2    C8 1895   1.663   4.037   9.549  0.8401  0.3310  0.4338
  124TCq2    O4 1896   1.656   3.916   9.524  0.1502  0.1875 -0.3586
  124TCq2    C9 1897   1.714   4.350   9.937  0.0126 -0.1675  0.5485
  124TCq2    O5 1898   1.680   4.379  10.056  0.1987  0.2918 -0.6080
  124TCq2    O6 1899   1.820   4.392   9.894 -0.1463 -0.4061  0.8516
  124TCq2    H2 1900   1.530   4.191  10.033  1.8651  0.8673  0.1686
  124TCq2    H3 1901   1.766   4.262   9.683 -0.1293 -1.2781 -1.4741
  124TCq2    H4 1902   1.479   3.940   9.701  0.9930 -0.2834  0.1460
  125TMC2    C1 1903   2.063   0.535   9.118 -0.2600 -0.1062 -0.6026
  125TMC2    C2 1904   2.027   0.611   9.010  0.2037  0.7348 -0.1726
  125TMC2    C3 1905   2.129   0.699   8.968 -0.8187  0.0154  0.7973
  125TMC2    C4 1906   2.172   0.560   9.190  0.1038 -0.0756 -0.0706
  125TMC2    C5 1907   2.253   0.665   9.165  0.1774 -0.6578  0.0068
  125TMC2    C6 1908   2.239   0.733   9.053  0.6899 -0.2332  0.4541
  125TMC2     C 1909   1.957   0.460   9.183 -0.0873  0.5843 -0.2043
  125TMC2     O 1910   1.983   0.444   9.304 -0.4816  0.1892 -0.4976
  125TMC2     H 1911   1.943   0.581   8.948  0.4170  0.1712 -0.1874
  125TMC2    H1 1912   2.190   0.498   9.277  0.2052 -3.3671 -2.4458
  125TMC2    H2 1913   2.321   0.785   9.005  0.8655 -0.7215  0.2183
  125TMC2    C7 1914   2.342   0.703   9.269 -0.8415 -0.3814 -0.4064
  125TMC2    C8 1915   2.110   0.794   8.863 -0.2142 -0.5577 -0.4510
  125TMC2    O1 1916   2.362   0.622   9.358  0.2298  0.4146 -0.0320
  125TMC2    O2 1917   2.197   0.852   8.802 -0.0532 -0.6641 -0.8151
  125TMC2    O5 1918   1.982   0.822   8.873  0.2491  0.1325 -0.0162
  125TMC2    H5 1919   1.954   0.808   8.966  0.2583  2.8995  0.3921
  126MPD1     C 1920   1.510   0.220   9.213  0.3302 -0.4904 -0.0828
  126MPD1    C1 1921   1.545   0.223   9.085 -0.6007  0.6511  0.4217
  126MPD1    C2 1922   1.650   0.304   9.052  0.1458  0.5556 -0.4000
  126MPD1    C3 1923   1.743   0.353   9.152 -0.3130 -0.3104 -0.7000
  126MPD1    C4 1924   1.701   0.342   9.281 -0.4490  0.3227 -0.0997
  126MPD1    C5 1925   1.578   0.280   9.310  0.2146 -0.2144 -0.5147
  126MPD1     H 1926   1.687   0.326   8.952  1.7302 -2.6836 -0.5080
  126MPD1    H1 1927   1.760   0.368   9.368  2.0510  0.1252 -1.7204
  126MPD1    H2 1928   1.420   0.167   9.242  1.0334 -1.7685 -0.2538
  126MPD1    H3 1929   1.546   0.263   9.412 -0.0898 -2.1062 -0.9118
  126MPD1     N 1930   1.859   0.416   9.103  0.5016 -0.5106 -0.1735
  126MPD1    H5 1931   1.866   0.421   9.002 -1.2733 -0.5704 -0.3034
  126MPD1    N1 1932   1.467   0.164   8.990  0.6589 -0.7835 -0.2319
  126MPD1    H6 1933   1.507   0.135   8.901  1.0894 -1.1854  0.0841
  126MPD1    H7 1934   1.397   0.098   9.025 -0.3406 -0.4759 -1.6909
  127MPD2     C 1935   3.528   0.410   8.922 -0.4988 -0.2158  0.8089
  127MPD2    C1 1936   3.569   0.396   9.058 -0.0782  0.1044 -0.2589
  127MPD2    C2 1937   3.608   0.508   9.129  0.3406  0.2522  0.0109
  127MPD2    C3 1938   3.597   0.634   9.071 -0.1824 -0.2884  0.4343
  127MPD2    C4 1939   3.549   0.646   8.938 -0.1206 -0.9003  0.4426
  127MPD2    C5 1940   3.524   0.535   8.863 -0.0467 -0.5019 -1.0367
  127MPD2     H 1941   3.638   0.505   9.233  1.3574 -0.5545 -0.3042
  127MPD2    H1 1942   3.550   0.737   8.879 -2.8295 -1.9443 -1.1977
  127MPD2    H2 1943   3.488   0.327   8.866 -0.6616 -1.0750  2.1831
  127MPD2    H3 1944   3.498   0.555   8.760 -1.2076 -0.4441 -0.7325
  127MPD2     N 1945   3.637   0.747   9.152 -0.0166  0.4864 -0.3113
  127MPD2    H5 1946   3.674   0.729   9.244 -4.6251 -0.0137  1.4247
  127MPD2    N1 1947   3.584   0.262   9.112  0.4871  0.1643 -0.7926
  127MPD2    H7 1948   3.548   0.183   9.060 -2.2870  1.2201 -0.5111
  128TCq2    C1 1949   3.637   0.233   9.231 -0.0674 -0.4126  0.0817
  128TCq2    O2 1950   3.715   0.295   9.304  0.6616 -0.2054 -0.5130
  128TCq2    C2 1951   3.591   0.106   9.275 -0.4434 -0.4611  0.2314
  128TCq2    C3 1952   3.648   0.059   9.392  0.3197  0.5653  0.2153
  128TCq2    C4 1953   3.593   4.669   9.450  0.1686 -0.2872 -0.4990
  128TCq2    C5 1954   3.493   4.596   9.395  0.1603 -0.7124 -0.7456
  128TCq2    C6 1955   3.438   4.648   9.282  0.0937 -0.1089 -0.2664
  128TCq2    C7 1956   3.485   0.040   9.224  0.3974  0.5666 -0.2164
  128TCq2    C8 1957   3.293   4.617   9.265 -0.0915 -0.3598 -0.2047
  128TCq2    O4 1958   3.236   4.631   9.155 -0.2136 -0.8401 -0.2146
  128TCq2    C9 1959   3.649   4.627   9.576 -1.0346 -0.2365 -0.0450
  128TCq2    O5 1960   3.613   4.518   9.627 -0.0077 -0.2127  0.1765
  128TCq2    O6 1961   3.752   4.693   9.617  0.6810  0.6811 -0.4435
  128TCq2    H2 1962   3.724   0.112   9.447 -1.9835  3.1550  0.8870
  128TCq2    H3 1963   3.472   4.498   9.439  0.0484  0.8555  2.7367
  128TCq2    H4 1964   3.425   0.089   9.147  0.6859 -1.2205 -1.5762
  129MPD2     C 1965   0.876   1.380   0.321 -0.4713  0.1288 -0.0502
  129MPD2    C1 1966   0.886   1.344   0.454  0.6152 -0.2802  0.9557
  129MPD2    C2 1967   0.986   1.251   0.494  0.4473 -0.2677  0.1015
  129MPD2    C3 1968   1.069   1.203   0.394 -0.3471  0.4172  0.3533
  129MPD2    C4 1969   1.055   1.243   0.263  0.4514  0.6163 -0.3069
  129MPD2    C5 1970   0.956   1.329   0.226 -0.0025 -0.3707 -0.5991
  129MPD2     H 1971   0.989   1.214   0.596 -2.7126 -0.3643  0.1529
  129MPD2    H1 1972   1.107   1.198   0.179 -0.4804 -0.0263 -0.5412
  129MPD2    H2 1973   0.804   1.453   0.285  0.0385  0.6776  0.0521
  129MPD2    H3 1974   0.956   1.356   0.121  1.5437  1.8172 -0.0322
  129MPD2     N 1975   1.178   1.132   0.446  0.4097  0.4755 -0.6768
  129MPD2    H5 1976   1.179   1.119   0.547 -0.6469  0.1338 -0.7106
  129MPD2    N1 1977   0.793   1.379   0.559  0.3199 -0.3636  0.7219
  129MPD2    H7 1978   0.817   1.345   0.651 -0.9013  2.1737  1.9644
  130TCq2    C1 1979   0.699   1.486   0.545  0.5190 -0.4014  0.1210
  130TCq2    O2 1980   0.693   1.556   0.447  0.5012  0.2788  0.2848
  130TCq2    C2 1981   0.654   1.525   0.673  0.3440  0.0183 -0.0706
  130TCq2    C3 1982   0.683   1.655   0.699  0.3738 -0.6491 -0.0491
  130TCq2    C4 1983   0.697   1.706   0.822  0.1074  0.3524 -0.6145
  130TCq2    C5 1984   0.685   1.613   0.921  0.7595 -0.7949  0.2245
  130TCq2    C6 1985   0.648   1.487   0.894 -0.3760  0.2344 -0.1511
  130TCq2    C7 1986   0.638   1.432   0.768  0.3279  0.0488  0.4130
  130TCq2    C8 1987   0.668   1.398   1.004 -0.1799 -0.3521  0.6540
  130TCq2    O4 1988   0.598   1.295   0.998 -0.5302  0.0088 -0.7552
  130TCq2    C9 1989   0.719   1.845   0.846  0.1186  0.1750  0.3426
  130TCq2    O5 1990   0.682   1.924   0.758  0.1176 -0.1661  0.0928
  130TCq2    O6 1991   0.790   1.867   0.948  0.2079  0.1173 -0.5683
  130TCq2    H2 1992   0.684   1.722   0.614  1.3910 -0.7361 -0.1022
  130TCq2    H3 1993   0.675   1.660   1.018 -2.1177 -0.0321 -0.4450
  130TCq2    H4 1994   0.619   1.330   0.738  2.7262 -0.0930 -0.6296
  131MPD2     C 1995   0.592   4.376   8.805  0.0238 -0.6073 -0.1439
  131MPD2    C1 1996   0.700   4.391   8.890  0.1246 -0.3000 -0.8806
  131MPD2    C2 1997   0.697   4.328   9.012 -0.2557  0.5399 -0.5326
  131MPD2    C3 1998   0.589   4.253   9.059 -0.6558 -0.6867  0.3406
  131MPD2    C4 1999   0.492   4.229   8.963  0.6684  0.7396 -0.1546
  131MPD2    C5 2000   0.492   4.292   8.842 -0.1733  0.5103  0.1401
  131MPD2     H 2001   0.780   4.342   9.081  1.1387 -0.3162 -2.0468
  131MPD2    H1 2002   0.399   4.177   8.984 -0.2178  1.6264 -1.8675
  131MPD2    H2 2003   0.597   4.432   8.712  0.5473  1.0135  0.8608
  131MPD2    H3 2004   0.395   4.297   8.795  1.2297  0.2363 -2.8589
  131MPD2     N 2005   0.597   4.195   9.191  0.5021  0.6897  0.1376
  131MPD2    H5 2006   0.683   4.199   9.245  1.2085  1.0209 -1.0333
  131MPD2    N1 2007   0.805   4.463   8.838 -0.1462  0.2918  0.1941
  131MPD2    H7 2008   0.801   4.510   8.748  0.3580  1.3854  0.7385
  132TCq2    C1 2009   1.346   4.567   8.647  0.7213  0.4642  0.2208
  132TCq2    O2 2010   1.375   4.564   8.526  0.0786  0.0487  0.4608
  132TCq2    C2 2011   1.210   4.605   8.681 -0.1748 -0.1570  0.2953
  132TCq2    C3 2012   1.143   4.683   8.593 -0.6647  0.9265  0.4758
  132TCq2    C4 2013   1.007   4.702   8.616  0.1593  0.1234 -0.5210
  132TCq2    C5 2014   0.943   4.651   8.727 -0.2856  0.1305 -0.1930
  132TCq2    C6 2015   1.017   4.569   8.809 -1.1862 -0.5253 -0.5197
  132TCq2    C7 2016   1.151   4.548   8.788  0.2401  0.2981 -0.0180
  132TCq2    C8 2017   0.932   4.478   8.888  0.6298 -0.6333 -0.2739
  132TCq2    O4 2018   0.976   4.413   8.979  0.3684  0.0173 -0.2336
  132TCq2    C9 2019   0.931   0.054   8.517 -0.6011  0.6213  1.3683
  132TCq2    O5 2020   0.806   0.065   8.535 -0.1918 -0.4990 -0.0019
  132TCq2    O6 2021   0.994   0.127   8.438 -0.6779  0.4265  0.2108
  132TCq2    H2 2022   1.184   4.722   8.501 -0.9078  0.1915  0.0503
  132TCq2    H3 2023   0.840   4.681   8.741  0.1954  1.9539 -0.6359
  132TCq2    H4 2024   1.201   4.471   8.845 -2.2645 -0.4486  1.2001
  133MPD2     C 2025   0.348   0.991   8.971 -0.5257  1.0731  0.5348
  133MPD2    C1 2026   0.237   1.008   9.047 -0.3143 -0.2046 -0.6388
  133MPD2    C2 2027   0.171   0.897   9.097 -1.0420  1.4173 -0.7164
  133MPD2    C3 2028   0.207   0.767   9.050  0.2340 -0.4207  0.2078
  133MPD2    C4 2029   0.313   0.750   8.962  0.1211 -0.7270 -0.1467
  133MPD2    C5 2030   0.384   0.865   8.921  0.6047 -0.5704 -0.2025
  133MPD2     H 2031   0.102   0.917   9.178 -0.6078 -2.1040  0.5358
  133MPD2    H1 2032   0.339   0.649   8.931  0.7128 -1.5210  2.9081
  133MPD2    H2 2033   0.398   1.084   8.944 -0.6806  1.7133  2.4865
  133MPD2    H3 2034   0.473   0.864   8.859  1.5782 -0.0391  1.1810
  133MPD2     N 2035   0.149   0.645   9.097 -0.1965  1.0505  0.2789
  133MPD2    H5 2036   0.194   0.558   9.071 -1.2621  1.1618 -1.9809
  133MPD2    N1 2037   0.208   1.140   9.093 -0.6512 -0.6614  0.2268
  133MPD2    H7 2038   0.266   1.220   9.072 -3.0715  0.9963 -0.2162
  134TCq2    C1 2039   0.094   1.168   9.176 -0.4094 -0.1718 -0.1577
  134TCq2    O2 2040   4.715   1.105   9.202 -0.1587  1.0361  0.6934
  134TCq2    C2 2041   0.095   1.308   9.200  0.0246  0.4569  0.7530
  134TCq2    C3 2042   0.208   1.383   9.185  0.2509  0.2140  0.5939
  134TCq2    C4 2043   0.199   1.519   9.213 -0.1260 -0.2483 -0.4575
  134TCq2    C5 2044   0.078   1.574   9.253  0.0714 -0.3648 -0.5369
  134TCq2    C6 2045   4.682   1.498   9.248  0.2867  0.5028  0.6744
  134TCq2    C7 2046   4.692   1.357   9.234  0.1476 -0.2081  0.3492
  134TCq2    C8 2047   4.560   1.556   9.297 -0.3652 -0.0128 -0.1689
  134TCq2    O4 2048   4.566   1.671   9.332 -0.2133  0.4840 -0.7093
  134TCq2    C9 2049   0.315   1.598   9.202  0.6922  0.1538 -0.0178
  134TCq2    O5 2050   0.334   1.690   9.288  0.0248  0.3375 -0.2543
  134TCq2    O6 2051   0.403   1.560   9.114  0.4561  0.3227 -0.1463
  134TCq2    H2 2052   0.307   1.342   9.166  0.3952  0.5807  0.5610
  134TCq2    H3 2053   0.085   1.681   9.267  1.5142 -0.4937 -0.2799
  134TCq2    H4 2054   4.604   1.298   9.259  0.4482 -0.6581  0.3589
  135MPD2     C 2055   2.216   1.414   8.755 -0.6130 -0.4426 -0.1167
  135MPD2    C1 2056   2.301   1.380   8.856  0.4226  0.3736  0.1189
  135MPD2    C2 2057   2.424   1.438   8.860  0.0657  0.1695 -0.4022
  135MPD2    C3 2058   2.455   1.533   8.763 -0.3870  0.4251 -0.4187
  135MPD2    C4 2059   2.367   1.568   8.665 -0.5963  0.3801 -0.1455
  135MPD2    C5 2060   2.251   1.501   8.662 -0.0456 -0.1526  0.7004
  135MPD2     H 2061   2.496   1.421   8.939 -2.3847  1.1421  2.0520
  135MPD2    H1 2062   2.389   1.637   8.585 -1.5140  3.9004  2.5920
  135MPD2    H2 2063   2.123   1.361   8.737 -1.3410  1.2479 -1.2927
  135MPD2    H3 2064   2.181   1.528   8.583 -0.3591  2.1873  1.7855
  135MPD2     N 2065   2.572   1.617   8.770  0.3553 -1.0675  0.1797
  135MPD2    H5 2066   2.577   1.699   8.710  1.0965 -2.0005 -1.0158
  135MPD2    N1 2067   2.276   1.291   8.962  0.3063  0.3023 -0.0858
  135MPD2    H7 2068   2.352   1.283   9.029  0.4984  0.6412 -0.2650
  136TCq2    C1 2069   2.159   1.222   8.983 -0.2681  0.5913 -0.0889
  136TCq2    O2 2070   2.060   1.206   8.914  0.4350  0.3435 -0.0013
  136TCq2    C2 2071   2.151   1.164   9.119 -0.1491  0.4334  0.4830
  136TCq2    C3 2072   2.074   1.051   9.131 -0.4328 -0.6832  0.8002
  136TCq2    C4 2073   2.068   0.986   9.250 -0.3534 -0.0166  0.0789
  136TCq2    C5 2074   2.143   1.024   9.359 -0.8357 -0.3046 -0.6092
  136TCq2    C6 2075   2.217   1.140   9.348  0.0590  0.4849  0.0478
  136TCq2    C7 2076   2.207   1.212   9.232 -0.2598 -0.4199 -0.7936
  136TCq2    C8 2077   2.317   1.173   9.452 -0.2421  1.2965 -0.6994
  136TCq2    O4 2078   2.347   1.296   9.448 -0.2306  0.0050  0.1090
  136TCq2    C9 2079   1.988   0.870   9.256 -0.0585  0.0839 -0.6596
  136TCq2    O5 2080   1.957   0.834   9.373  0.2808  0.5181  0.7399
  136TCq2    O6 2081   1.914   0.848   9.151 -0.7767 -0.0668  0.4315
  136TCq2    H2 2082   2.036   0.995   9.046  2.9252 -0.6260 -0.7345
  136TCq2    H3 2083   2.132   0.954   9.440  2.5830 -0.8401 -0.6215
  136TCq2    H4 2084   2.269   1.301   9.234 -2.3512  1.1128 -4.8663
  137MPD2     C 2085   2.907   0.265   9.390  0.1533  0.3724  0.0808
  137MPD2    C1 2086   2.912   0.404   9.408 -0.8363 -0.5318 -0.1088
  137MPD2    C2 2087   2.953   0.453   9.533 -0.1559  0.2217 -0.3208
  137MPD2    C3 2088   2.976   0.366   9.642 -0.8143  0.4870  0.3134
  137MPD2    C4 2089   2.978   0.228   9.621 -0.1809  0.3878  0.4011
  137MPD2    C5 2090   2.946   0.182   9.494 -0.4429 -0.2720 -0.4049
  137MPD2     H 2091   2.938   0.559   9.547 -0.2446  0.3991 -1.7696
  137MPD2    H1 2092   3.006   0.167   9.706  1.8808  0.3495 -0.3043
  137MPD2    H2 2093   2.872   0.211   9.303  2.3505 -0.6874 -0.1534
  137MPD2    H3 2094   2.944   0.075   9.479  0.8438 -0.7068  2.5855
  137MPD2     N 2095   3.001   0.422   9.768  0.1482 -0.0846  1.2614
  137MPD2    H5 2096   3.000   0.524   9.766  0.0765 -0.1527 -2.5188
  137MPD2    N1 2097   2.880   0.491   9.307  0.2540 -0.2747 -0.0397
  137MPD2    H7 2098   2.817   0.453   9.237  0.3929 -1.7076  0.5982
  138TCq2    C1 2099   2.927   0.620   9.296  0.2507 -0.4878 -0.1200
  138TCq2    O2 2100   3.014   0.672   9.362 -0.2448 -0.2032 -0.4730
  138TCq2    C2 2101   2.837   0.694   9.202  0.4948  0.2875  0.0055
  138TCq2    C3 2102   2.878   0.819   9.174 -0.3589 -0.2200  0.4383
  138TCq2    C4 2103   2.824   0.888   9.072  0.1932  0.3223  0.7527
  138TCq2    C5 2104   2.724   0.833   8.996  0.1035 -0.2920  0.0225
  138TCq2    C6 2105   2.683   0.708   9.026  0.2523  0.1732  0.3758
  138TCq2    C7 2106   2.738   0.634   9.127 -0.6039 -0.3761 -0.5455
  138TCq2    C8 2107   2.588   0.640   8.944  0.2313 -0.2959 -0.2859
  138TCq2    O4 2108   2.569   0.689   8.834  0.2619  0.4884  0.5553
  138TCq2    C9 2109   2.895   1.007   9.027  0.3926  0.1141  0.0395
  138TCq2    O5 2110   3.007   1.035   9.082 -0.8937  0.0588 -0.1263
  138TCq2    O6 2111   2.838   1.069   8.934 -0.3530 -0.0411 -0.6772
  138TCq2    H2 2112   2.965   0.855   9.228  0.9535  1.0270 -2.5454
  138TCq2    H3 2113   2.690   0.880   8.904  0.7087 -0.7336 -0.4236
  138TCq2    H4 2114   2.707   0.535   9.158  0.5220 -0.0567  1.6272
  139TMC2    C1 2115   2.958   3.750  13.589  0.0399  0.0641 -0.0464
  139TMC2    C2 2116   3.082   3.810  13.568  0.4903 -0.1107 -0.0571
  139TMC2    C3 2117   3.090   3.946  13.584 -0.3465  0.0332 -0.3981
  139TMC2    C4 2118   2.854   3.834  13.615  0.1666  0.0700  0.3990
  139TMC2    C5 2119   2.870   3.962  13.662 -0.1092  0.1559  0.8875
  139TMC2    C6 2120   2.986   4.027  13.632  0.1598 -0.1588  0.4825
  139TMC2     C 2121   2.944   3.609  13.539 -1.0084 -0.1250 -0.2846
  139TMC2     O 2122   3.038   3.531  13.536  0.3113 -0.3616  0.2150
  139TMC2     H 2123   3.168   3.763  13.521  2.0217  1.9315  0.7280
  139TMC2    H1 2124   2.757   3.791  13.633  0.5760 -1.8814 -2.0205
  139TMC2    H2 2125   2.994   4.134  13.649 -3.0802  0.3645 -1.2077
  139TMC2    C7 2126   2.756   4.047  13.689  0.5149 -0.3477 -0.1108
  139TMC2    C8 2127   3.224   4.012  13.562 -0.6038  0.6879  0.4600
  139TMC2    O1 2128   2.762   4.163  13.645  0.6727  0.7577  0.5159
  139TMC2    O2 2129   3.318   3.969  13.624 -0.1635  0.5770 -0.1784
  139TMC2    O5 2130   3.198   4.147  13.541 -0.0074 -0.3063 -0.3761
  139TMC2    H5 2131   3.114   4.157  13.492  1.7032  2.9541 -2.6903
  140MPD2     C 2132   2.618   3.453  13.440 -0.2051  0.3701 -0.3991
  140MPD2    C1 2133   2.754   3.458  13.468 -0.0376  1.0611  0.3207
  140MPD2    C2 2134   2.829   3.359  13.410  0.1100  0.6749 -0.0138
  140MPD2    C3 2135   2.777   3.249  13.342  0.2043 -0.2705 -0.1934
  140MPD2    C4 2136   2.637   3.252  13.329  0.0123 -0.5200 -0.1429
  140MPD2    C5 2137   2.567   3.353  13.370  0.4774 -0.1284 -0.3229
  140MPD2     H 2138   2.937   3.366  13.415  0.1631  0.2203 -0.5038
  140MPD2    H1 2139   2.590   3.169  13.277 -0.9298  0.1120 -0.2887
  140MPD2    H2 2140   2.555   3.534  13.475 -0.1918 -0.8900  2.5451
  140MPD2    H3 2141   2.461   3.360  13.349 -0.2801 -2.6373  2.6814
  140MPD2     N 2142   2.862   3.159  13.269  0.3127  0.7434 -0.6481
  140MPD2    H5 2143   2.963   3.164  13.274  0.4718 -1.2227 -1.8694
  140MPD2    N1 2144   2.807   3.575  13.527  0.4619 -0.4852  0.0381
  140MPD2    H7 2145   2.744   3.652  13.546  2.1498  1.1432 -1.0457
  141TCq2    C1 2146   3.330   0.225  14.235 -0.1227 -0.1086  0.4053
  141TCq2    O2 2147   3.323   0.313  14.153 -0.3687 -0.2033  0.2138
  141TCq2    C2 2148   3.224   0.211  14.333  0.0798  0.0404 -0.0524
  141TCq2    C3 2149   3.194   0.084  14.376 -0.5099  0.3668  0.3942
  141TCq2    C4 2150   3.129   0.071  14.493  1.0885 -0.2366 -0.4658
  141TCq2    C5 2151   3.077   0.174  14.555  0.5746  0.1294 -0.2147
  141TCq2    C6 2152   3.099   0.304  14.504  0.0501 -0.4159  0.0259
  141TCq2    C7 2153   3.180   0.327  14.395  0.3782 -0.3975 -0.1560
  141TCq2    C8 2154   3.052   0.413  14.579 -0.2415 -0.0561  0.0223
  141TCq2    O4 2155   3.018   0.387  14.692  0.0923  0.6060  0.4210
  141TCq2    C9 2156   3.116   4.659  14.551  0.3647 -0.0345 -0.3146
  141TCq2    O5 2157   3.140   4.563  14.470  0.6918  0.1373 -0.0167
  141TCq2    O6 2158   3.082   4.648  14.673  0.3094 -0.2437 -0.3496
  141TCq2    H2 2159   3.227   4.719  14.321 -1.7567  0.0415  0.1625
  141TCq2    H3 2160   3.017   0.152  14.642  0.2905  2.3598  0.1588
  141TCq2    H4 2161   3.227   0.422  14.372 -1.2935  0.3177 -0.6148
  142MPD2     C 2162   1.488   3.692  10.050 -0.0525  0.1186 -0.6210
  142MPD2    C1 2163   1.454   3.672   9.920  0.1022  0.2245  0.4598
  142MPD2    C2 2164   1.550   3.686   9.820 -1.0480  0.2983  0.2585
  142MPD2    C3 2165   1.680   3.713   9.855 -0.4765  0.4136 -0.4486
  142MPD2    C4 2166   1.717   3.728   9.985 -0.3232  0.2512  0.0039
  142MPD2    C5 2167   1.616   3.727  10.078  0.1246  0.6396 -0.3392
  142MPD2     H 2168   1.520   3.676   9.716 -0.1035  1.1225 -0.0977
  142MPD2    H1 2169   1.818   3.759  10.009 -0.5157  1.0634 -0.2223
  142MPD2    H2 2170   1.421   3.690  10.135  0.3112 -3.3213 -0.4125
  142MPD2    H3 2171   1.641   3.745  10.182 -1.7884 -0.8033  0.3736
  142MPD2     N 2172   1.780   3.705   9.758 -0.6764 -0.0271 -0.0583
  142MPD2    H5 2173   1.873   3.736   9.783  0.1622 -2.0435 -0.5968
  142MPD2    N1 2174   1.320   3.634   9.904 -0.2125  0.3958 -0.3500
  142MPD2    H7 2175   1.273   3.610   9.991 -1.2824 -1.0356 -1.3392
  143TCq2    C1 2176   1.771   3.650   9.632  1.0613  0.4670  0.1101
  143TCq2    O2 2177   1.692   3.570   9.586  0.0468 -0.0064  0.6660
  143TCq2    C2 2178   1.891   3.679   9.551 -0.2270  0.0015  0.1550
  143TCq2    C3 2179   2.004   3.732   9.609 -0.6101 -0.3387 -0.3424
  143TCq2    C4 2180   2.083   3.804   9.523  0.0639  0.1605 -1.0491
  143TCq2    C5 2181   2.064   3.801   9.384 -0.0622  0.1891 -0.8928
  143TCq2    C6 2182   1.959   3.730   9.337  0.4682 -0.2450  0.9515
  143TCq2    C7 2183   1.878   3.655   9.418  0.3553  0.2119 -0.3899
  143TCq2    C8 2184   1.941   3.731   9.191  0.3476  0.6023  0.0385
  143TCq2    O4 2185   1.972   3.628   9.139 -0.1437  0.2473  0.3233
  143TCq2    C9 2186   2.198   3.879   9.577 -0.6081  0.3126  0.0328
  143TCq2    O5 2187   2.209   3.876   9.700  0.1331  0.4934 -0.4833
  143TCq2    O6 2188   2.276   3.940   9.498  0.3947  0.0416 -0.0335
  143TCq2    H2 2189   2.027   3.719   9.714 -1.4193 -2.6800 -0.4433
  143TCq2    H3 2190   2.133   3.846   9.314  2.2251  0.8299  1.7452
  143TCq2    H4 2191   1.800   3.601   9.365 -1.0853  0.4441  1.4975
  144MPD2     C 2192   4.007   3.767   0.707 -0.1191 -0.2742 -0.6321
  144MPD2    C1 2193   3.949   3.645   0.664 -0.1685 -0.1173  0.0986
  144MPD2    C2 2194   4.011   3.528   0.686 -0.5187  0.4649 -0.2208
  144MPD2    C3 2195   4.137   3.529   0.744 -0.0548 -0.1746  0.0964
  144MPD2    C4 2196   4.200   3.653   0.778 -0.4474  0.1384 -0.1336
  144MPD2    C5 2197   4.137   3.770   0.753 -0.7650 -0.1449 -0.8791
  144MPD2     H 2198   3.964   3.435   0.657 -0.5233  0.1538  0.7775
  144MPD2    H1 2199   4.294   3.659   0.831 -0.0470 -1.4158 -0.6525
  144MPD2    H2 2200   3.953   3.859   0.687 -0.0476 -0.1383 -0.2030
  144MPD2    H3 2201   4.179   3.865   0.784  0.6321 -1.1115  0.1870
  144MPD2     N 2202   4.215   3.416   0.758  0.0631  0.2967 -0.9071
  144MPD2    H5 2203   4.305   3.429   0.804  0.6043 -1.4400 -1.4852
  144MPD2    N1 2204   3.821   3.645   0.597 -0.0623 -0.6732  0.2975
  144MPD2    H7 2205   3.791   3.557   0.556 -0.9351  0.7635 -2.0918
  145TCq2    C1 2206   4.164   3.286   0.764 -0.4269  0.2713 -0.2316
  145TCq2    O2 2207   4.049   3.247   0.755  0.7878 -0.0863  0.2246
  145TCq2    C2 2208   4.267   3.199   0.825  0.6902  0.1265  0.2887
  145TCq2    C3 2209   4.397   3.237   0.820  0.5878  0.1687 -0.1003
  145TCq2    C4 2210   4.485   3.187   0.907  0.8058  0.4490  0.4511
  145TCq2    C5 2211   4.442   3.116   1.015  0.4594 -0.2256  0.2771
  145TCq2    C6 2212   4.311   3.097   1.030 -0.1035 -0.1732  0.1583
  145TCq2    C7 2213   4.218   3.128   0.937  0.1916 -0.1850  0.2735
  145TCq2    C8 2214   4.270   3.084   1.169 -0.5275  0.3348  0.3868
  145TCq2    O4 2215   4.351   3.027   1.243 -0.3794  0.3940 -0.3813
  145TCq2    C9 2216   4.625   3.240   0.905 -0.1055 -0.1694  0.6670
  145TCq2    O5 2217   4.704   3.197   0.995  0.3520  0.1084 -0.5608
  145TCq2    O6 2218   4.648   3.332   0.822  0.1723 -0.0039  0.1168
  145TCq2    H2 2219   4.432   3.290   0.733  1.6363  1.4488  1.0986
  145TCq2    H3 2220   4.509   3.097   1.098  1.0837  0.8478  0.0207
  145TCq2    H4 2221   4.112   3.110   0.956  0.5398 -3.2043 -0.6508
  146TMC2    C1 2222   0.268   1.886  12.229 -0.2465 -0.0699  0.7781
  146TMC2    C2 2223   0.188   1.943  12.140 -1.1364  0.4011  0.3910
  146TMC2    C3 2224   0.237   1.969  12.016 -0.2175  0.3473 -0.2498
  146TMC2    C4 2225   0.403   1.858  12.207 -0.2478 -0.2488 -0.6414
  146TMC2    C5 2226   0.441   1.875  12.076  0.0268 -0.0424 -0.0233
  146TMC2    C6 2227   0.362   1.935  11.981  0.2225 -0.5963  0.2140
  146TMC2     C 2228   0.232   1.915  12.365  0.4657  0.3308 -0.0615
  146TMC2     O 2229   0.136   1.990  12.378  0.1666  0.1389  0.6037
  146TMC2     H 2230   0.083   1.965  12.152 -1.2940  0.1873 -0.6125
  146TMC2    H1 2231   0.474   1.849  12.288 -2.2241  2.0658  1.3481
  146TMC2    H2 2232   0.402   1.942  11.881  0.6516  0.4333  0.4548
  146TMC2    C7 2233   0.569   1.823  12.030 -0.5051  0.1922  0.1602
  146TMC2    C8 2234   0.146   2.007  11.913 -0.0156  0.3167 -0.1048
  146TMC2    O1 2235   0.613   1.856  11.922  0.7475  0.4668  0.2587
  146TMC2    O2 2236   0.047   2.071  11.934  0.0204  0.9253 -0.2424
  146TMC2    O5 2237   0.137   1.882  11.854 -0.2604  0.4856 -0.3737
  146TMC2    H5 2238   0.210   1.820  11.836 -1.7863 -1.3774 -0.2158
  147MPD2     C 2239   0.978   1.506  12.072 -0.5613  0.8351  0.4759
  147MPD2    C1 2240   0.899   1.483  12.188  0.4444 -0.1723  0.4134
  147MPD2    C2 2241   0.787   1.568  12.202 -0.9451  0.0520 -0.0068
  147MPD2    C3 2242   0.742   1.660  12.100 -0.3223  0.3081  0.4017
  147MPD2    C4 2243   0.809   1.661  11.980 -0.4916  0.4904  0.1065
  147MPD2    C5 2244   0.933   1.594  11.971  0.2392 -0.5893 -0.5208
  147MPD2     H 2245   0.712   1.555  12.279 -0.9306  0.5780  0.0991
  147MPD2    H1 2246   0.778   1.720  11.894  0.4200  3.4258  1.7897
  147MPD2    H2 2247   1.072   1.456  12.050 -0.3420  1.2246  0.5251
  147MPD2    H3 2248   0.991   1.608  11.880  1.6995  0.8894  0.6381
  147MPD2     N 2249   0.625   1.734  12.120  0.0948  0.3701 -0.2696
  147MPD2    H5 2250   0.585   1.717  12.212  0.2841 -0.9285 -0.4315
  147MPD2    N1 2251   0.942   1.390  12.283 -0.1636 -0.9177  0.4486
  147MPD2    H7 2252   1.031   1.344  12.266  0.2418 -0.5019  1.4705
  148MPD2     C 2253   1.383   0.190  10.530 -0.9483 -0.3127  0.5583
  148MPD2    C1 2254   1.342   0.121  10.416 -0.2018  0.0123 -0.2816
  148MPD2    C2 2255   1.229   0.041  10.426 -0.6696  0.4183  0.1769
  148MPD2    C3 2256   1.166   0.018  10.553  0.1164  0.1594 -0.5818
  148MPD2    C4 2257   1.207   0.089  10.657 -0.1442 -0.3377  0.2597
  148MPD2    C5 2258   1.313   0.173  10.647 -0.3934  0.1834  0.2927
  148MPD2     H 2259   1.186   4.713  10.340  1.9739 -1.1988 -0.2066
  148MPD2    H1 2260   1.173   0.074  10.759  0.2389 -0.4673  0.3698
  148MPD2    H2 2261   1.466   0.259  10.537 -0.1810 -1.5494  3.4963
  148MPD2    H3 2262   1.346   0.237  10.728 -1.7528 -1.7132  2.3269
  148MPD2     N 2263   1.051   4.663  10.567 -0.0388 -0.0718 -0.6176
  148MPD2    H5 2264   1.007   4.658  10.659  0.5726 -2.9111 -0.4729
  148MPD2    N1 2265   1.413   0.126  10.301 -0.2753 -0.5311 -0.6611
  148MPD2    H7 2266   1.371   0.079  10.221 -0.8526 -1.2628  0.0757
  149TCq2    C1 2267   1.529   0.194  10.279 -0.0813  0.0540  0.3705
  149TCq2    O2 2268   1.611   0.240  10.357  0.6871  0.3810  0.2692
  149TCq2    C2 2269   1.576   0.176  10.140 -0.4011  0.4169 -0.1337
  149TCq2    C3 2270   1.711   0.167  10.129  0.0022 -0.2723 -0.5034
  149TCq2    C4 2271   1.766   0.140  10.007 -1.2373  0.5068  0.0223
  149TCq2    C5 2272   1.681   0.099   9.906  0.1477 -0.2115  0.5741
  149TCq2    C6 2273   1.546   0.115   9.915 -0.9697  0.1935 -0.1545
  149TCq2    C7 2274   1.496   0.157  10.030  0.6514  0.0398  0.0283
  149TCq2    C8 2275   1.454   0.056   9.830  0.3767 -0.4527  0.2218
  149TCq2    O4 2276   1.344   0.029   9.881  0.4299 -0.6881 -0.0897
  149TCq2    C9 2277   1.895   0.070  10.001 -0.4565  0.1932  0.1122
  149TCq2    O5 2278   1.978   0.093  10.091 -0.1165 -0.7734  0.0072
  149TCq2    O6 2279   1.912   4.697   9.928  0.4797 -0.1356 -0.3309
  149TCq2    H2 2280   1.776   0.175  10.216 -1.1276 -0.0136  0.3181
  149TCq2    H3 2281   1.725   0.043   9.824 -0.7975 -0.3333  0.1494
  149TCq2    H4 2282   1.391   0.181  10.042  0.9746  2.0458 -1.1190
  150MPD2     C 2283   1.892   3.784  12.177  0.2375 -0.0531  0.2759
  150MPD2    C1 2284   1.976   3.846  12.088  0.1646 -0.1321  1.0157
  150MPD2    C2 2285   2.109   3.856  12.121  0.2877 -0.5807 -0.7012
  150MPD2    C3 2286   2.160   3.831  12.246  0.5387 -0.1543 -0.0796
  150MPD2    C4 2287   2.079   3.766  12.339 -0.3940 -0.2837 -0.7642
  150MPD2    C5 2288   1.945   3.740  12.299  0.4531  0.1393  0.1131
  150MPD2     H 2289   2.185   3.896  12.055  1.2081 -2.9711 -1.1041
  150MPD2    H1 2290   2.109   3.728  12.436 -1.1686  0.7485 -0.1113
  150MPD2    H2 2291   1.788   3.763  12.152  0.4949 -1.4476  0.3823
  150MPD2    H3 2292   1.877   3.681  12.359  1.4261 -0.5912  0.4910
  150MPD2     N 2293   2.290   3.858  12.266  0.5270 -0.2984 -0.3437
  150MPD2    H5 2294   2.348   3.906  12.199  0.6638  0.3069  0.2074
  150MPD2    N1 2295   1.921   3.877  11.961  0.2957  0.5939 -0.2651
  150MPD2    H7 2296   1.820   3.867  11.952  0.6390 -1.6031 -1.6534
  151TCq2    C1 2297   2.357   3.843  12.379 -0.1169  0.6539 -0.3281
  151TCq2    O2 2298   2.319   3.814  12.491  0.3560 -0.3402  0.7017
  151TCq2    C2 2299   2.503   3.852  12.351  0.1218  0.3731 -0.6949
  151TCq2    C3 2300   2.552   3.822  12.229  0.2534  0.5403  0.4956
  151TCq2    C4 2301   2.669   3.872  12.181  0.1525 -0.2306  0.3496
  151TCq2    C5 2302   2.744   3.958  12.253  0.2515 -0.2355 -0.6993
  151TCq2    C6 2303   2.687   3.998  12.378  0.9086 -0.0493 -0.3780
  151TCq2    C7 2304   2.571   3.940  12.429 -0.1773  0.3718  0.5562
  151TCq2    C8 2305   2.764   4.067  12.482 -0.0738  0.2180 -0.0376
  151TCq2    O4 2306   2.702   4.146  12.553  0.1177 -0.4350  0.0549
  151TCq2    C9 2307   2.704   3.834  12.049 -0.1521 -0.6832 -0.6618
  151TCq2    O5 2308   2.809   3.886  12.002 -0.3992  0.0518  0.0547
  151TCq2    O6 2309   2.627   3.756  11.986 -0.0773 -0.4184  1.0155
  151TCq2    H2 2310   2.493   3.747  12.179 -2.0126  0.7560  2.8557
  151TCq2    H3 2311   2.836   3.987  12.205 -0.0673 -2.1218 -2.4466
  151TCq2    H4 2312   2.552   3.942  12.536  0.9832 -1.8040  0.8148
  152MPD2     C 2313   2.161   3.552  12.788 -0.2220 -0.3191  0.7555
  152MPD2    C1 2314   2.183   3.688  12.811 -0.2443 -0.8385 -0.3381
  152MPD2    C2 2315   2.085   3.788  12.790  0.2282 -0.0102  0.1421
  152MPD2    C3 2316   1.965   3.749  12.738  0.0458 -0.0081  0.2717
  152MPD2    C4 2317   1.945   3.619  12.703  0.4736  0.0307 -0.1520
  152MPD2    C5 2318   2.040   3.522  12.726  0.2529  0.3256  0.1907
  152MPD2     H 2319   2.115   3.888  12.818  0.7905 -0.8725  2.5959
  152MPD2    H1 2320   1.865   3.581  12.641  0.4776  0.8495 -0.6740
  152MPD2    H2 2321   2.235   3.473  12.797 -1.9841 -2.2655 -1.5491
  152MPD2    H3 2322   2.032   3.423  12.683 -0.9224  0.4946  0.0207
  152MPD2     N 2323   1.866   3.845  12.701  0.0708  0.0374 -0.4030
  152MPD2    H5 2324   1.890   3.943  12.714  0.9832 -0.3723  0.9695
  152MPD2    N1 2325   2.322   3.725  12.837  0.4869  0.4059  0.5468
  152MPD2    H7 2326   2.392   3.651  12.830  2.4005  2.4300 -1.4314
  153TCq2    C1 2327   2.382   3.846  12.855  0.8682 -0.6006 -0.0825
  153TCq2    O2 2328   2.326   3.953  12.864 -0.1635  0.0985  0.1789
  153TCq2    C2 2329   2.526   3.837  12.844  0.3264 -0.7352 -0.0541
  153TCq2    C3 2330   2.582   3.724  12.790  0.0760 -0.1449 -0.6368
  153TCq2    C4 2331   2.715   3.741  12.750  0.3026  0.0231  0.2381
  153TCq2    C5 2332   2.786   3.852  12.773 -0.0943  0.0664  0.0518
  153TCq2    C6 2333   2.724   3.966  12.830 -0.4118  0.0924  0.2254
  153TCq2    C7 2334   2.594   3.955  12.868 -0.1998 -0.2463  0.2061
  153TCq2    C8 2335   2.803   4.067  12.905  0.3461  0.2417  0.0076
  153TCq2    O4 2336   2.728   4.150  12.957 -0.1955 -0.2015  0.4243
  153TCq2    C9 2337   2.780   3.634  12.682  0.2620  0.5596 -0.3275
  153TCq2    O5 2338   2.902   3.656  12.656  0.5097  0.9906  0.2633
  153TCq2    O6 2339   2.711   3.544  12.633  0.2760  0.0428 -0.0725
  153TCq2    H2 2340   2.534   3.629  12.773 -0.9873 -0.0874  2.0453
  153TCq2    H3 2341   2.887   3.858  12.733  0.3819  4.1502  1.9258
  153TCq2    H4 2342   2.552   4.040  12.920 -0.1069  1.3394 -2.3486
  154MPD2     C 2343   4.162   4.378   0.017  0.1652 -0.1277  0.4533
  154MPD2    C1 2344   4.175   4.328   0.138  0.3168 -0.3482  0.4021
  154MPD2    C2 2345   4.075   4.342   0.233 -0.3497  0.0306  0.7251
  154MPD2    C3 2346   3.965   4.426   0.210 -0.6057  0.4759 -0.1490
  154MPD2    C4 2347   3.963   4.491   0.087 -0.1443 -0.4361 -0.8084
  154MPD2    C5 2348   4.060   4.470  17.689 -1.3042 -0.0206 -0.2117
  154MPD2     H 2349   4.088   4.289   0.326  2.4857 -1.3753 -0.4816
  154MPD2    H1 2350   3.888   4.569   0.073  0.8119  0.6978  0.4091
  154MPD2    H2 2351   4.238   4.366  17.633 -1.7153 -2.6777 -1.0646
  154MPD2    H3 2352   4.051   4.522  17.594  1.1964  0.1067 -0.3739
  154MPD2     N 2353   3.857   4.457   0.301  0.6734 -0.0794  0.1966
  154MPD2    H5 2354   3.796   4.537   0.286 -3.1258 -3.3809 -2.1061
  154MPD2    N1 2355   4.294   4.260   0.158  0.0436  0.2485  0.2857
  154MPD2    H7 2356   4.356   4.235   0.082 -1.2369  2.3368 -1.4564
  155TCq2    C1 2357   4.353   4.246   0.283  0.2495 -0.1450  0.1480
  155TCq2    O2 2358   4.314   4.283   0.393 -0.3777  0.1713  0.2629
  155TCq2    C2 2359   4.496   4.221   0.281  0.1102 -0.0325  0.1347
  155TCq2    C3 2360   4.548   4.160   0.391 -0.2158  0.1997 -0.7213
  155TCq2    C4 2361   4.666   4.092   0.371  0.2873 -0.2768 -0.0053
  155TCq2    C5 2362   0.016   4.100   0.255 -0.3010 -0.3579  0.3619
  155TCq2    C6 2363   4.687   4.172   0.152  0.7470  0.1646  0.4946
  155TCq2    C7 2364   4.559   4.226   0.164 -0.0004 -0.4198  0.3605
  155TCq2    C8 2365   0.029   4.178   0.030 -0.3036 -0.5224 -0.0102
  155TCq2    O4 2366   4.693   4.213  17.619  0.2043 -0.5856  0.1221
  155TCq2    C9 2367   0.003   4.036   0.489 -0.1176 -0.3132 -0.2087
  155TCq2    O5 2368   0.126   3.993   0.487  0.3785 -0.3708 -0.0617
  155TCq2    O6 2369   4.648   4.017   0.585 -0.0880  0.0257 -0.1572
  155TCq2    H2 2370   4.498   4.155   0.487  2.0410 -0.2477  0.4273
  155TCq2    H3 2371   0.105   4.037   0.250  0.2245  0.2244  2.2943
  155TCq2    H4 2372   4.524   4.288   0.082  0.6253 -1.2244 -0.5127
  156MPD2     C 2373   3.089   1.132  11.883 -0.7338 -0.0873  0.3279
  156MPD2    C1 2374   2.997   1.153  11.790 -0.6745  0.4463  0.6301
  156MPD2    C2 2375   2.913   1.261  11.798 -0.0887 -0.3154  0.4614
  156MPD2    C3 2376   2.925   1.350  11.899 -0.3211  0.1646 -0.1597
  156MPD2    C4 2377   3.025   1.329  11.990  0.2290  0.2330  0.6013
  156MPD2    C5 2378   3.098   1.214  11.986  0.0058  0.4220  0.4193
  156MPD2     H 2379   2.827   1.265  11.733 -0.9675 -0.8801  1.5762
  156MPD2    H1 2380   3.039   1.388  12.081 -0.2524 -0.2531  0.9911
  156MPD2    H2 2381   3.148   1.042  11.893 -0.7625 -0.1542 -0.0796
  156MPD2    H3 2382   3.183   1.190  12.049 -0.7747 -0.8527  0.9900
  156MPD2     N 2383   2.840   1.465  11.900  0.3190  1.1000  0.4422
  156MPD2    H5 2384   2.774   1.485  11.826 -0.4846 -0.9303  0.5927
  156MPD2    N1 2385   2.998   1.067  11.677 -0.9285  0.1925 -0.0370
  156MPD2    H7 2386   3.050   0.980  11.678 -0.1337  0.6513 -1.3316
  157TCq2    C1 2387   2.926   1.087  11.559 -0.1026  0.2388 -0.0141
  157TCq2    O2 2388   2.850   1.181  11.524 -0.3369  0.2173  0.4631
  157TCq2    C2 2389   2.950   0.986  11.460 -0.0521  0.6746  0.6582
  157TCq2    C3 2390   2.982   0.857  11.495 -0.5161 -0.0126 -0.0966
  157TCq2    C4 2391   2.985   0.761  11.398  0.4250 -0.4705  0.4594
  157TCq2    C5 2392   2.979   0.799  11.266  0.0533  0.5971 -0.0267
  157TCq2    C6 2393   2.947   0.929  11.242  0.3441  0.3461  0.5799
  157TCq2    C7 2394   2.929   1.025  11.331  0.3556 -0.7876  0.0503
  157TCq2    C8 2395   2.931   0.966  11.103  0.3047  0.5611  0.3024
  157TCq2    O4 2396   2.913   0.886  11.016 -0.6338 -0.3267  0.6308
  157TCq2    C9 2397   3.000   0.620  11.430 -0.1929 -0.2080 -0.1441
  157TCq2    O5 2398   3.019   0.588  11.548  0.3153  0.4963 -0.4122
  157TCq2    O6 2399   2.993   0.538  11.334 -0.3444 -0.2968 -0.0891
  157TCq2    H2 2400   2.985   0.829  11.600  0.2607  2.0839  0.4422
  157TCq2    H3 2401   2.994   0.730  11.183  2.2616 -0.0909  0.9479
  157TCq2    H4 2402   2.902   1.128  11.314  2.1956 -0.1884  0.8081
  158TMC2    C1 2403   3.247   0.178  13.549 -0.1422 -0.2974  0.0147
  158TMC2    C2 2404   3.311   0.179  13.422  0.6604  0.0451  0.2927
  158TMC2    C3 2405   3.290   0.285  13.332  0.9123 -0.3547  0.0786
  158TMC2    C4 2406   3.151   0.272  13.576  0.2216 -0.0214  0.3035
  158TMC2    C5 2407   3.123   0.362  13.480  0.3724 -0.1964 -0.0078
  158TMC2    C6 2408   3.191   0.374  13.359  0.2912 -0.1083  0.2457
  158TMC2     C 2409   3.292   0.093  13.649 -0.1541 -0.2452 -0.5603
  158TMC2     O 2410   3.403   0.041  13.632  0.4544 -0.0281  0.4355
  158TMC2     H 2411   3.386   0.102  13.406  1.7570  1.1104  0.2281
  158TMC2    H1 2412   3.099   0.275  13.671 -2.1050  1.3925 -0.9939
  158TMC2    H2 2413   3.146   0.431  13.278  0.1526  0.3430  0.6418
  158TMC2    C7 2414   2.992   0.427  13.494 -0.4911  0.0368  0.5491
  158TMC2    C8 2415   3.344   0.277  13.201 -0.0381 -0.1563 -0.0021
  158TMC2    O1 2416   2.984   0.536  13.439 -0.2753 -0.2370  0.0693
  158TMC2    O2 2417   3.402   0.172  13.170  0.4033  0.3348  0.2227
  158TMC2    O5 2418   3.369   0.400  13.153 -0.3153 -0.0263  0.1831
  158TMC2    H5 2419   3.325   0.471  13.205 -1.4525  1.8057 -3.3139
  159MPD2     C 2420   3.260   4.548  14.089  0.5669  0.2561  0.0094
  159MPD2    C1 2421   3.144   4.614  14.069 -0.1168 -0.2433 -0.8830
  159MPD2    C2 2422   3.132   4.687  13.959  0.2732  0.2431 -0.0761
  159MPD2    C3 2423   3.236   4.713  13.869 -0.5806 -0.2339 -0.1350
  159MPD2    C4 2424   3.356   4.644  13.894 -0.4100  0.0769  0.2960
  159MPD2    C5 2425   3.371   4.563  14.006 -0.3375  0.4784 -0.2627
  159MPD2     H 2426   3.041   0.014  13.927 -0.3689 -0.4139  0.7860
  159MPD2    H1 2427   3.444   4.654  13.831 -0.5640  1.4205  0.2899
  159MPD2    H2 2428   3.274   4.483  14.174  2.3064 -0.0527 -0.5099
  159MPD2    H3 2429   3.462   4.511  14.031 -1.1092 -0.7287  0.0657
  159MPD2     N 2430   3.206   0.063  13.755  0.7145 -0.2576 -0.2296
  159MPD2    H5 2431   3.110   0.095  13.762  1.6737  2.9417 -1.6818
  159MPD2    N1 2432   3.042   4.588  14.157 -0.1292  0.3300  0.1854
  159MPD2    H7 2433   3.063   4.523  14.232 -3.4341 -0.5850  0.3037
  160TMC2    C1 2434   2.860   0.866   1.116  0.1983  0.2751  0.9073
  160TMC2    C2 2435   2.992   0.886   1.149 -0.2201 -0.0626  0.1965
  160TMC2    C3 2436   3.076   0.784   1.125 -0.3429 -0.0533  0.7128
  160TMC2    C4 2437   2.823   0.760   1.029 -0.3433  0.0365  0.0060
  160TMC2    C5 2438   2.914   0.671   0.989 -0.3006  0.0998 -0.1240
  160TMC2    C6 2439   3.044   0.675   1.036 -0.1898  0.2705 -0.1386
  160TMC2     C 2440   2.793   0.990   1.089  0.2271  0.7242  0.2081
  160TMC2     O 2441   2.859   1.076   1.023  0.2384  0.6472 -0.5600
  160TMC2     H 2442   3.019   0.976   1.203  1.2988 -0.2345 -0.2678
  160TMC2    H1 2443   2.727   0.767   0.978 -1.2912  1.4880  1.9795
  160TMC2    H2 2444   3.121   0.605   1.008 -1.1630 -0.5128 -0.8282
  160TMC2    C7 2445   2.871   0.569   0.906 -0.5278  0.0628 -0.2055
  160TMC2    C8 2446   3.225   0.791   1.142  0.3031 -0.1658  0.4036
  160TMC2    O1 2447   2.769   0.589   0.840 -0.1779 -0.1925  0.0696
  160TMC2    O2 2448   3.304   0.701   1.134 -0.1727  0.5083  0.2499
  160TMC2    O5 2449   3.256   0.924   1.162 -0.4031 -0.5777  0.1457
  160TMC2    H5 2450   3.196   0.982   1.111  0.8786  0.3262 -0.3327
  161MPD2     C 2451   2.568   1.185   1.013  0.0860  0.0118  0.3029
  161MPD2    C1 2452   2.552   1.054   1.059  0.1763 -0.1999 -0.1052
  161MPD2    C2 2453   2.421   1.011   1.073 -0.3292  0.5686  0.7500
  161MPD2    C3 2454   2.311   1.086   1.034  0.1796  0.2635 -0.3518
  161MPD2    C4 2455   2.330   1.216   0.985  0.1391  0.0200 -0.0004
  161MPD2    C5 2456   2.457   1.260   0.977 -0.0505 -0.1808  0.7445
  161MPD2     H 2457   2.416   0.906   1.099 -0.5466  0.8773  1.9410
  161MPD2    H1 2458   2.247   1.280   0.958 -0.7821 -1.9706 -1.9492
  161MPD2    H2 2459   2.667   1.227   0.997 -0.2920  0.9342  0.4153
  161MPD2    H3 2460   2.475   1.359   0.936 -0.8996  0.2205  1.3377
  161MPD2     N 2461   2.181   1.036   1.040  1.1316 -0.3002 -0.2133
  161MPD2    H5 2462   2.110   1.098   1.003  0.6209 -0.7018  0.1068
  161MPD2    N1 2463   2.659   0.978   1.108  0.1736 -0.0136 -0.2224
  161MPD2    H7 2464   2.645   0.884   1.143  1.9269  0.0859  0.7262
  162TMC2    C1 2465   4.457   0.676   0.860  0.1333  0.4000  0.2423
  162TMC2    C2 2466   4.325   0.708   0.832  0.3151  0.4532 -0.4981
  162TMC2    C3 2467   4.237   0.730   0.942 -0.4319 -0.4189 -0.3572
  162TMC2    C4 2468   4.503   0.668   0.995  0.7579  0.6410 -0.0006
  162TMC2    C5 2469   4.411   0.689   1.098  0.3167 -0.0457  0.5061
  162TMC2    C6 2470   4.279   0.734   1.071 -0.2484 -0.2737 -0.7593
  162TMC2     C 2471   4.554   0.685   0.747 -0.0766 -0.2434  0.4846
  162TMC2     O 2472   4.671   0.656   0.772 -0.3824  0.1293  0.2058
  162TMC2     H 2473   4.280   0.697   0.734 -1.7488  0.8965  0.4040
  162TMC2    H1 2474   4.603   0.630   1.011 -0.3131 -1.5231  1.5827
  162TMC2    H2 2475   4.215   0.737   1.158  2.0380  1.6300  0.8761
  162TMC2    C7 2476   4.449   0.673   1.240 -0.2347  1.0057 -0.4637
  162TMC2    C8 2477   4.098   0.776   0.909 -0.3191 -0.4225 -0.0925
  162TMC2    O1 2478   4.365   0.651   1.325 -0.1136  0.3634  0.4554
  162TMC2    O2 2479   4.055   0.781   0.795  0.2307  0.3320 -0.0399
  162TMC2    O5 2480   4.034   0.796   1.025  0.9801  0.2191 -0.6505
  162TMC2    H5 2481   3.936   0.795   1.017  1.0120  0.3183 -1.0516
  163MPD2     C 2482   4.670   0.797   0.248 -0.3591 -0.2431 -0.5461
  163MPD2    C1 2483   0.027   0.751   0.353  0.3671 -0.7550 -0.2823
  163MPD2    C2 2484   4.698   0.732   0.479 -0.2747 -0.1705  0.7714
  163MPD2    C3 2485   4.561   0.748   0.508  0.2822  0.9318 -0.4289
  163MPD2    C4 2486   4.485   0.798   0.402 -1.2294 -0.6921  0.1175
  163MPD2    C5 2487   4.535   0.828   0.279 -1.2558 -0.9200  0.0163
  163MPD2     H 2488   0.044   0.705   0.559  0.5616  0.3019  0.2234
  163MPD2    H1 2489   4.380   0.821   0.420 -0.6516  1.8220  0.2877
  163MPD2    H2 2490   4.709   0.821   0.149 -0.9233  0.9130 -0.4995
  163MPD2    H3 2491   4.472   0.871   0.202  0.1136  0.1881 -0.4887
  163MPD2     N 2492   4.497   0.734   0.632 -0.1990  0.0207  0.2562
  163MPD2    H5 2493   4.401   0.768   0.639 -0.3394 -0.0308 -1.5548
  163MPD2    N1 2494   0.159   0.713   0.314  0.5510  0.4784 -0.1506
  163MPD2    H7 2495   0.180   0.713   0.215 -1.9310 -0.8962 -0.6539
  164TCq2    C1 2496   1.522   0.311  11.188  0.1995 -0.1192 -0.1074
  164TCq2    O2 2497   1.460   0.289  11.290  0.1894 -0.6432  0.3480
  164TCq2    C2 2498   1.547   0.452  11.153 -0.5000 -0.1982  0.6484
  164TCq2    C3 2499   1.625   0.485  11.050  0.7708  0.0601 -0.1651
  164TCq2    C4 2500   1.583   0.583  10.963 -0.8988  0.5060  0.2173
  164TCq2    C5 2501   1.466   0.647  10.981  0.0459 -1.1386 -0.8264
  164TCq2    C6 2502   1.395   0.619  11.093  0.1608 -0.2143 -0.5480
  164TCq2    C7 2503   1.437   0.526  11.182  0.0714  0.5799  0.3000
  164TCq2    C8 2504   1.280   0.702  11.119  0.0425 -0.4258  0.4221
  164TCq2    O4 2505   1.235   0.760  11.021  0.1793  0.1169 -0.2960
  164TCq2    C9 2506   1.657   0.593  10.844  0.5550 -0.0219 -0.3334
  164TCq2    O5 2507   1.605   0.664  10.753 -0.1811  0.1113 -0.2315
  164TCq2    O6 2508   1.772   0.542  10.837 -0.0611 -0.3614 -0.6656
  164TCq2    H2 2509   1.712   0.424  11.029  1.4634  0.5309  1.2685
  164TCq2    H3 2510   1.441   0.726  10.912  2.4650  0.3121 -0.0297
  164TCq2    H4 2511   1.378   0.487  11.264  1.3801  0.7722  1.3331
  165MPD2     C 2512   2.150   1.699   1.297  0.5278  0.1699 -0.3106
  165MPD2    C1 2513   2.233   1.601   1.352 -0.7488 -0.2115  0.0062
  165MPD2    C2 2514   2.335   1.642   1.440 -0.6874  0.2303  0.2390
  165MPD2    C3 2515   2.340   1.780   1.475 -0.6212  0.4070  0.2639
  165MPD2    C4 2516   2.248   1.871   1.422  0.1040 -0.4615  0.0249
  165MPD2    C5 2517   2.155   1.829   1.331  0.5438 -0.0973  0.4268
  165MPD2     H 2518   2.393   1.571   1.498  1.0963  0.7015 -0.9565
  165MPD2    H1 2519   2.236   1.973   1.458  1.4750  0.2564 -1.5339
  165MPD2    H2 2520   2.071   1.667   1.230 -0.5121  1.0418  0.5048
  165MPD2    H3 2521   2.096   1.906   1.284  1.0585  0.0950  0.0984
  165MPD2     N 2522   2.434   1.838   1.561 -0.1671  0.4900 -0.9456
  165MPD2    H5 2523   2.439   1.939   1.573  3.0226  0.5298 -2.6378
  165MPD2    N1 2524   2.210   1.474   1.309 -0.4685 -0.1976  0.0039
  165MPD2    H7 2525   2.146   1.466   1.231  0.2086 -0.2289 -0.5480
  166TCq2    C1 2526   2.514   1.760   1.637  0.6874 -0.6551  0.0107
  166TCq2    O2 2527   2.510   1.646   1.686  0.4053 -0.6741  0.4547
  166TCq2    C2 2528   2.631   1.830   1.687 -0.7247 -0.2925 -0.0320
  166TCq2    C3 2529   2.698   1.781   1.801  0.3776 -0.5464  0.5467
  166TCq2    C4 2530   2.801   1.848   1.852  0.4979  0.1150  0.3557
  166TCq2    C5 2531   2.847   1.964   1.793 -0.5072 -0.2463 -0.0672
  166TCq2    C6 2532   2.766   2.023   1.694  0.2303  0.1624  0.2142
  166TCq2    C7 2533   2.663   1.953   1.634  0.1144 -0.2303  0.4673
  166TCq2    C8 2534   2.804   2.152   1.656  0.0894  0.0412  0.6112
  166TCq2    O4 2535   2.910   2.191   1.700  0.5378 -0.3180  0.2507
  166TCq2    C9 2536   2.879   1.784   1.951  0.4508  0.5127  0.2580
  166TCq2    O5 2537   2.816   1.710   2.027  0.1202  0.0333 -0.0496
  166TCq2    O6 2538   3.000   1.815   1.964  0.3767  0.3106  0.7303
  166TCq2    H2 2539   2.675   1.684   1.843 -2.3400 -0.0496  0.2138
  166TCq2    H3 2540   2.942   2.007   1.822 -1.6764  2.0460  0.3074
  166TCq2    H4 2541   2.616   1.990   1.544  2.8193 -1.6936 -1.5848
  167TMC2    C1 2542   0.439   0.536  11.865 -0.1353  0.0107 -0.0857
  167TMC2    C2 2543   0.334   0.623  11.867  0.1581 -0.4727 -0.8776
  167TMC2    C3 2544   0.259   0.634  11.987 -0.3282 -0.2806  0.0984
  167TMC2    C4 2545   0.465   0.449  11.970 -0.3605  0.1129  0.0861
  167TMC2    C5 2546   0.380   0.456  12.077 -0.5671  0.0390 -0.8027
  167TMC2    C6 2547   0.282   0.556  12.096 -0.0466 -0.4470 -0.6298
  167TMC2     C 2548   0.508   0.512  11.737 -0.2832  0.1832 -1.0658
  167TMC2     O 2549   0.434   0.528  11.645 -0.2299 -0.4466 -0.0770
  167TMC2     H 2550   0.310   0.678  11.776  0.0651  0.5893 -0.2136
  167TMC2    H1 2551   0.538   0.369  11.960 -1.8857 -0.9837 -2.1287
  167TMC2    H2 2552   0.214   0.549  12.180 -1.0034  0.8898 -1.3093
  167TMC2    C7 2553   0.398   0.364  12.187 -0.6528 -0.1727 -0.0358
  167TMC2    C8 2554   0.132   0.704  11.967  0.6776  0.2235 -0.0525
  167TMC2    O1 2555   0.304   0.356  12.267  0.2086 -0.2766  0.2664
  167TMC2    O2 2556   0.082   0.730  11.858  0.2564 -0.1419  0.1068
  167TMC2    O5 2557   0.086   0.741  12.085  0.1657 -0.3084  0.0212
  167TMC2    H5 2558   0.151   0.744  12.159 -0.3706 -0.0551  0.4872
  168MPD2     C 2559   0.677   0.336  11.544  0.3443 -0.8863  0.2061
  168MPD2    C1 2560   0.681   0.336  11.683  0.3384 -0.5122  0.4795
  168MPD2    C2 2561   0.748   0.237  11.754  0.1705  0.0611  0.6182
  168MPD2    C3 2562   0.779   0.128  11.682  0.5406 -0.2072  0.1279
  168MPD2    C4 2563   0.770   0.123  11.545  0.6208 -0.6733 -0.2524
  168MPD2    C5 2564   0.725   0.232  11.470 -0.6952  0.2843  0.2217
  168MPD2     H 2565   0.751   0.240  11.862 -1.9226  1.8607  0.6230
  168MPD2    H1 2566   0.806   0.036  11.492  1.2906 -0.6074  0.0864
  168MPD2    H2 2567   0.627   0.417  11.493  3.5870  0.5637 -0.6619
  168MPD2    H3 2568   0.722   0.227  11.362 -2.6348  0.8515  0.2525
  168MPD2     N 2569   0.821   0.006  11.744  0.1750  0.4339  0.2695
  168MPD2    H5 2570   0.847   4.656  11.678 -0.2010  0.1184  0.4731
  168MPD2    N1 2571   0.621   0.435  11.762 -0.8796  0.4357  0.4131
  168MPD2    H7 2572   0.652   0.437  11.859 -1.0852 -4.3956  0.5973
  169MPD1     C 2573   4.003   3.066   9.630  0.2999  0.4080  0.7739
  169MPD1    C1 2574   4.090   3.139   9.562 -0.2404 -0.1420 -0.6468
  169MPD1    C2 2575   4.061   3.277   9.553  0.2566 -0.3240 -0.1527
  169MPD1    C3 2576   3.941   3.332   9.609  0.1732 -0.3501 -0.6554
  169MPD1    C4 2577   3.853   3.246   9.675  0.7134 -0.1082 -0.2753
  169MPD1    C5 2578   3.876   3.111   9.675  0.2820  0.6754 -0.7735
  169MPD1     H 2579   4.137   3.335   9.501 -0.7983 -1.7008 -3.1558
  169MPD1    H1 2580   3.760   3.286   9.715  0.7657  0.0289 -0.2900
  169MPD1    H2 2581   4.022   2.965   9.665 -0.3597  0.2655  0.7204
  169MPD1    H3 2582   3.808   3.043   9.724 -0.1718  1.2003 -0.6738
  169MPD1     N 2583   3.905   3.463   9.580 -0.0542 -0.4895 -0.5564
  169MPD1    H5 2584   3.965   3.510   9.513 -3.2607 -0.0160 -3.1194
  169MPD1    N1 2585   4.220   3.089   9.532 -0.3634 -0.3326  0.8093
  169MPD1    H6 2586   4.202   2.994   9.499 -0.7527 -0.1073  0.3683
  169MPD1    H7 2587   4.253   3.141   9.451 -0.6244 -2.8127 -0.9158
  170MPD1     C 2588   0.914   2.259  12.462  0.8112 -0.1539  0.3803
  170MPD1    C1 2589   1.025   2.331  12.490  0.2555 -0.2376 -0.3183
  170MPD1    C2 2590   1.037   2.387  12.619 -0.5726 -0.7743  0.2484
  170MPD1    C3 2591   0.938   2.371  12.718 -0.4678 -0.3508  0.5618
  170MPD1    C4 2592   0.830   2.290  12.686 -0.3284  0.4728 -0.8422
  170MPD1    C5 2593   0.816   2.240  12.557  0.0146  0.2431  0.1741
  170MPD1     H 2594   1.128   2.446  12.628 -1.3300  0.2593  1.0607
  170MPD1    H1 2595   0.755   2.251  12.754  0.7007  0.3366  0.2018
  170MPD1    H2 2596   0.899   2.209  12.367  2.1088  0.4906 -0.1715
  170MPD1    H3 2597   0.746   2.160  12.535 -0.9251  0.2541  3.0355
  170MPD1     N 2598   0.948   2.428  12.848  0.7548 -0.3695  0.4174
  170MPD1    H5 2599   0.874   2.401  12.912  0.1033  0.3688 -0.0175
  170MPD1    N1 2600   1.120   2.367  12.392  0.1116  0.3745  0.0012
  170MPD1    H6 2601   1.214   2.374  12.432 -0.4671  0.0319  1.4359
  170MPD1    H7 2602   1.124   2.309  12.309 -3.3330 -1.2344  0.9730
  171MPD1     C 2603   0.086   3.579  14.915 -0.4003 -0.3138 -0.2147
  171MPD1    C1 2604   0.030   3.603  15.041 -0.3786 -0.3698  0.0301
  171MPD1    C2 2605   0.057   3.515  15.150  0.6194  0.3258 -0.0926
  171MPD1    C3 2606   0.132   3.401  15.126 -0.4474  0.1031 -0.4275
  171MPD1    C4 2607   0.168   3.375  14.992  0.0321 -0.0872  0.6579
  171MPD1    C5 2608   0.152   3.469  14.891 -0.0627 -0.3819 -0.2252
  171MPD1     H 2609   0.014   3.540  15.246 -0.2669 -2.4040  0.2214
  171MPD1    H1 2610   0.216   3.280  14.971  0.7773 -0.1324  2.5434
  171MPD1    H2 2611   0.085   3.650  14.833  3.4621 -0.8643 -0.7368
  171MPD1    H3 2612   0.190   3.446  14.792  2.0960 -0.8231  0.6850
  171MPD1     N 2613   0.168   3.307  15.226  0.1721 -0.4729 -0.8758
  171MPD1    H5 2614   0.209   3.221  15.192 -0.0054 -0.0721 -2.0788
  171MPD1    N1 2615   4.700   3.731  15.066 -0.0262  0.5105 -0.1868
  171MPD1    H6 2616   4.636   3.723  15.145 -1.5927  0.0685 -1.4964
  171MPD1    H7 2617   4.654   3.778  14.989  0.1061  0.8673 -0.0495
  172MPD1     C 2618   3.983   2.970   0.349  0.0100 -0.1354  0.2861
  172MPD1    C1 2619   3.993   3.076   0.438  0.2348 -0.2670  0.1748
  172MPD1    C2 2620   4.055   3.195   0.401 -0.2460  0.3847 -0.2030
  172MPD1    C3 2621   4.112   3.205   0.274 -0.8999  0.0876  0.0848
  172MPD1    C4 2622   4.099   3.102   0.184  0.1971  0.0985 -0.5850
  172MPD1    C5 2623   4.034   2.990   0.221 -0.0137  0.7499  0.1711
  172MPD1     H 2624   4.065   3.276   0.473 -2.0054  0.3430  0.0847
  172MPD1    H1 2625   4.140   3.100   0.084  2.6440  1.7404  0.4115
  172MPD1    H2 2626   3.926   2.884   0.382  0.9201 -0.6161  0.6064
  172MPD1    H3 2627   4.020   2.908   0.151 -0.7468  0.8413  0.2066
  172MPD1     N 2628   4.178   3.326   0.225  0.4863  0.0001  0.3110
  172MPD1    H5 2629   4.202   3.332   0.127  1.9217  1.6692  0.7697
  172MPD1    N1 2630   3.919   3.076   0.558 -0.1358  0.7101 -0.1231
  172MPD1    H6 2631   3.904   2.986   0.602 -1.1747  0.1263 -1.6679
  172MPD1    H7 2632   3.956   3.139   0.629 -0.6569 -0.8383  1.4965
  173MPD1     C 2633   0.292   2.960  14.453  0.2764 -0.6708  0.1712
  173MPD1    C1 2634   0.241   2.888  14.345  0.1732  0.4448 -0.0627
  173MPD1    C2 2635   0.171   2.773  14.383  0.5448 -0.0934  0.1991
  173MPD1    C3 2636   0.122   2.746  14.512  1.2133  0.3370 -0.3814
  173MPD1    C4 2637   0.172   2.828  14.611  0.2508  0.2498 -0.8962
  173MPD1    C5 2638   0.254   2.933  14.584 -0.2423  0.4280 -0.1723
  173MPD1     H 2639   0.119   2.715  14.308  1.1475 -0.6723  0.2287
  173MPD1    H1 2640   0.148   2.818  14.716 -1.4866  0.3336 -1.2765
  173MPD1    H2 2641   0.362   3.040  14.432 -1.6385  1.5737  2.4430
  173MPD1    H3 2642   0.298   2.992  14.664  0.3633  0.0813 -0.2501
  173MPD1     N 2643   0.036   2.629  14.533  0.0047  0.4520  0.3580
  173MPD1    H5 2644   0.026   2.567  14.453  0.6468 -0.2327  0.8115
  173MPD1    N1 2645   0.295   2.917  14.223 -0.0516 -0.1302  0.2604
  173MPD1    H6 2646   0.236   2.869  14.155 -1.8102  2.3277  0.0557
  173MPD1    H7 2647   0.307   3.016  14.202  1.5808 -0.2560  0.6493
  174MPD1     C 2648   4.686   2.087  13.908 -0.1027 -0.3877 -0.0460
  174MPD1    C1 2649   4.666   2.000  14.011 -0.0061  0.7807 -0.2985
  174MPD1    C2 2650   4.638   2.057  14.137 -0.6149 -0.5180  0.1867
  174MPD1    C3 2651   4.638   2.189  14.164 -0.4411  0.3526  0.9446
  174MPD1    C4 2652   4.668   2.274  14.062  0.7342 -0.4922 -0.8019
  174MPD1    C5 2653   4.691   2.222  13.934  0.4080 -0.0682 -0.8322
  174MPD1     H 2654   4.637   1.992  14.224 -2.2412 -0.6907  0.0396
  174MPD1    H1 2655   4.670   2.382  14.068  1.1808 -0.5697  0.3970
  174MPD1    H2 2656   4.718   2.053  13.811 -1.6615 -0.5753 -0.4943
  174MPD1    H3 2657   4.722   2.284  13.851  1.2928 -1.0807 -1.2553
  174MPD1     N 2658   4.617   2.247  14.293  0.1699 -0.3446 -0.1204
  174MPD1    H5 2659   4.667   2.335  14.297 -0.9318  0.2639  0.3550
  174MPD1    N1 2660   4.655   1.863  14.002 -0.2948 -0.2305 -0.3397
  174MPD1    H6 2661   4.701   1.815  13.925 -1.2280  1.2572 -1.8372
  174MPD1    H7 2662   4.690   1.813  14.083  0.8706 -0.6516 -1.1033
  175MPD1     C 2663   3.429   3.403  15.441 -0.3668  0.2817  0.6219
  175MPD1    C1 2664   3.306   3.372  15.483 -0.3273 -0.9077  0.1264
  175MPD1    C2 2665   3.275   3.398  15.612 -0.0875 -0.4888 -0.5593
  175MPD1    C3 2666   3.373   3.430  15.706 -0.1821 -0.5039 -0.3570
  175MPD1    C4 2667   3.504   3.438  15.661 -0.0397  0.7052  0.3062
  175MPD1    C5 2668   3.528   3.433  15.527 -0.7032  0.7656  0.0075
  175MPD1     H 2669   3.175   3.396  15.655  0.3693 -0.2313  0.5047
  175MPD1    H1 2670   3.588   3.455  15.728  0.6443 -2.3823  0.1973
  175MPD1    H2 2671   3.458   3.395  15.337 -2.7555 -0.2717 -0.0013
  175MPD1    H3 2672   3.628   3.455  15.492 -0.4216 -2.4480 -1.1812
  175MPD1     N 2673   3.359   3.452  15.850  0.4460  0.0254  0.1120
  175MPD1    H5 2674   3.441   3.483  15.900  0.4828  0.2466 -0.0806
  175MPD1    N1 2675   3.205   3.360  15.387 -0.3106  0.0363 -0.0750
  175MPD1    H6 2676   3.125   3.307  15.422  0.6437 -1.6642 -0.4630
  175MPD1    H7 2677   3.235   3.333  15.294 -2.2210  2.4888 -1.3924
  176MPD1     C 2678   0.849   0.114  15.947  0.0499 -0.6351  0.2902
  176MPD1    C1 2679   0.747   0.090  16.039  0.6038 -0.1684  0.5760
  176MPD1    C2 2680   0.725   0.190  16.130  0.2702  0.8345 -0.7497
  176MPD1    C3 2681   0.801   0.307  16.134 -0.7537 -0.4353  0.1618
  176MPD1    C4 2682   0.911   0.314  16.046 -0.0359 -0.0518 -0.4431
  176MPD1    C5 2683   0.939   0.217  15.954 -0.0888  0.1913  0.1124
  176MPD1     H 2684   0.646   0.171  16.202  0.0372  0.0939 -1.2015
  176MPD1    H1 2685   0.973   0.403  16.054 -1.1487  0.5213  1.6230
  176MPD1    H2 2686   0.857   0.041  15.867 -1.2110 -1.6334  1.0761
  176MPD1    H3 2687   1.022   0.229  15.885 -1.1039  0.8048 -1.0055
  176MPD1     N 2688   0.759   0.413  16.215  0.1014  0.4791 -0.0321
  176MPD1    H5 2689   0.676   0.394  16.271 -0.2305 -1.9875 -1.3764
  176MPD1    N1 2690   0.666   4.702  16.035 -0.5084  0.6571  0.2870
  176MPD1    H6 2691   0.719   4.617  16.018  0.0952  0.6065  2.3878
  176MPD1    H7 2692   0.604   4.692  16.115 -1.9918  1.6279 -0.7405
  177MPD1     C 2693   4.376   1.135   9.613 -0.3408  1.0112  0.3261
  177MPD1    C1 2694   4.305   1.255   9.591 -0.0587 -1.1088  0.8146
  177MPD1    C2 2695   4.185   1.245   9.536 -0.2792  0.6384  0.1642
  177MPD1    C3 2696   4.141   1.123   9.489 -0.3832  0.3403  0.0387
  177MPD1    C4 2697   4.218   1.007   9.498  0.1432  0.3880  0.3001
  177MPD1    C5 2698   4.340   1.010   9.563 -0.0498  0.1757  0.2148
  177MPD1     H 2699   4.122   1.333   9.522 -2.1208 -0.7341 -0.1162
  177MPD1    H1 2700   4.181   0.908   9.473 -1.9408  1.2278  0.0176
  177MPD1    H2 2701   4.473   1.148   9.659  0.0248  2.1087 -0.7723
  177MPD1    H3 2702   4.398   0.921   9.583  2.8290  1.4743 -2.3988
  177MPD1     N 2703   4.005   1.120   9.444  0.1018  0.3121 -0.2476
  177MPD1    H5 2704   3.945   1.202   9.440 -0.5930 -0.0717  1.8977
  177MPD1    N1 2705   4.336   1.373   9.658  0.0611 -0.6012  0.0031
  177MPD1    H6 2706   4.296   1.455   9.613 -2.1589 -2.2904 -1.0920
  177MPD1    H7 2707   4.436   1.388   9.670  0.1357  0.2208 -1.6985
  178MPD1     C 2708   2.065   1.095   0.163 -0.0332 -0.4416 -0.0686
  178MPD1    C1 2709   2.145   1.187   0.105 -0.6540  0.1910 -0.4363
  178MPD1    C2 2710   2.103   1.264  17.691 -0.7228 -0.1513  0.5733
  178MPD1    C3 2711   1.981   1.251  17.636 -0.6316 -0.0334  0.1593
  178MPD1    C4 2712   1.898   1.154  17.691 -0.1603  1.1176 -0.1016
  178MPD1    C5 2713   1.938   1.078   0.107 -0.4107 -0.3289  0.1035
  178MPD1     H 2714   2.175   1.337  17.656 -1.4908  1.3442  2.1539
  178MPD1    H1 2715   1.798   1.130  17.655  0.4059 -0.6854 -0.4832
  178MPD1    H2 2716   2.095   1.038   0.250 -0.9100  0.3401  0.7460
  178MPD1    H3 2717   1.866   1.015   0.157 -2.1129  1.2026 -0.3987
  178MPD1     N 2718   1.951   1.325  17.518  0.5654  0.2911 -0.1957
  178MPD1    H5 2719   2.024   1.382  17.477 -0.2030  1.1803 -0.3327
  178MPD1    N1 2720   2.278   1.214   0.151  0.3424  0.1634  0.2588
  178MPD1    H6 2721   2.283   1.214   0.252  1.1452  1.1367  0.2183
  178MPD1    H7 2722   2.329   1.291   0.109  0.5411 -1.4772 -2.5371
  179MPD1     C 2723   0.743   0.035  15.353 -0.9221  0.1609  0.0640
  179MPD1    C1 2724   0.782   0.011  15.480  0.0624  0.1586  0.4693
  179MPD1    C2 2725   0.719   4.626  15.537 -0.5397 -0.4979  0.8118
  179MPD1    C3 2726   0.628   4.546  15.469 -0.6051 -0.2869  0.5985
  179MPD1    C4 2727   0.591   4.576  15.338  0.1399  0.9632 -0.3168
  179MPD1    C5 2728   0.656   4.681  15.281  0.0594 -0.2464 -0.4283
  179MPD1     H 2729   0.736   4.605  15.642  0.0578 -0.7166  0.6719
  179MPD1    H1 2730   0.531   4.513  15.274  3.2254 -0.4941 -1.7968
  179MPD1    H2 2731   0.776   0.125  15.304 -0.3072 -0.8210 -1.3355
  179MPD1    H3 2732   0.631   4.702  15.178  1.6116  1.8946 -0.3712
  179MPD1     N 2733   0.566   4.431  15.528 -0.1618  0.3737 -0.7116
  179MPD1    H5 2734   0.473   4.403  15.498  1.0081 -2.0474 -2.0992
  179MPD1    N1 2735   0.872   0.090  15.549  0.4730 -0.0010  0.6189
  179MPD1    H6 2736   0.938   0.133  15.485 -2.2949  0.4906 -1.9228
  179MPD1    H7 2737   0.922   0.047  15.626  0.2756  1.6586  1.6660
  180MPD1     C 2738   0.052   1.295  15.168  0.0096 -0.2281 -0.3375
  180MPD1    C1 2739   0.169   1.316  15.094 -0.6123 -0.0916 -0.1109
  180MPD1    C2 2740   0.191   1.255  14.974  0.4341  0.3436 -0.0313
  180MPD1    C3 2741   0.090   1.193  14.904  0.3730 -0.3917 -0.3301
  180MPD1    C4 2742   4.692   1.189  14.971  1.1291  0.3690 -0.2044
  180MPD1    C5 2743   4.676   1.234  15.104  0.2406 -0.3824  0.3411
  180MPD1     H 2744   0.289   1.266  14.930  0.2263  1.0122 -0.3324
  180MPD1    H1 2745   4.599   1.151  14.932 -0.3824  2.2235  1.5809
  180MPD1    H2 2746   0.039   1.334  15.269 -1.7816 -0.6371 -0.4066
  180MPD1    H3 2747   4.578   1.219  15.145 -0.3202  1.2593 -0.3891
  180MPD1     N 2748   0.107   1.154  14.772  0.7379 -0.3347  0.3772
  180MPD1    H5 2749   0.195   1.181  14.729  1.3270 -2.1527  0.4424
  180MPD1    N1 2750   0.274   1.378  15.167  0.2634 -0.5458 -0.1237
  180MPD1    H6 2751   0.345   1.416  15.104 -2.2201  0.1009 -2.5201
  180MPD1    H7 2752   0.230   1.456  15.215 -0.1889 -0.7982 -0.1334
  181MPD1     C 2753   2.228   2.635  10.638  1.1581  0.0675 -0.5173
  181MPD1    C1 2754   2.273   2.736  10.716  0.5372 -0.1876  0.0413
  181MPD1    C2 2755   2.368   2.826  10.673  0.6047  0.1118  0.0623
  181MPD1    C3 2756   2.427   2.801  10.546  0.3358  0.6927  0.2584
  181MPD1    C4 2757   2.385   2.695  10.472 -0.4909  0.3619 -0.1032
  181MPD1    C5 2758   2.291   2.607  10.520  0.1879 -0.3614 -0.0212
  181MPD1     H 2759   2.398   2.912  10.732  1.3678 -0.5293  0.5840
  181MPD1    H1 2760   2.426   2.670  10.375 -1.9087 -1.5198 -0.2167
  181MPD1    H2 2761   2.165   2.553  10.673  2.3115 -0.5325  0.1557
  181MPD1    H3 2762   2.270   2.522  10.457 -0.3843  0.7941 -1.3747
  181MPD1     N 2763   2.535   2.876  10.494  0.8525  0.7428  0.2212
  181MPD1    H5 2764   2.587   2.837  10.417  0.0867  0.0188  0.0682
  181MPD1    N1 2765   2.218   2.747  10.844  0.3870 -0.4654  0.0530
  181MPD1    H6 2766   2.274   2.803  10.909 -0.6271  1.0212 -0.3478
  181MPD1    H7 2767   2.208   2.655  10.887 -1.5053 -0.0407  0.5289
  182MPD1     C 2768   3.660   1.924   2.139 -0.0459 -0.1087  0.2945
  182MPD1    C1 2769   3.543   1.991   2.134 -0.2650  0.6729 -0.0355
  182MPD1    C2 2770   3.482   2.011   2.011 -0.0671 -0.2131  0.2701
  182MPD1    C3 2771   3.551   1.969   1.898 -0.3695  0.6400 -0.7808
  182MPD1    C4 2772   3.674   1.902   1.908  0.6851  0.3524 -0.3523
  182MPD1    C5 2773   3.730   1.883   2.029  0.7492  0.3115 -0.6653
  182MPD1     H 2774   3.383   2.054   2.008 -0.7533 -1.9377 -1.2510
  182MPD1    H1 2775   3.733   1.870   1.823  2.3735  1.5174  0.4067
  182MPD1    H2 2776   3.698   1.895   2.236  0.7943 -0.9830 -0.3023
  182MPD1    H3 2777   3.815   1.816   2.037 -1.1043 -1.9564 -0.3248
  182MPD1     N 2778   3.509   2.004   1.765  0.4439  0.5542  0.3307
  182MPD1    H5 2779   3.566   1.962   1.693  0.2870  2.4075 -0.8532
  182MPD1    N1 2780   3.487   2.017   2.257  0.1009  0.1064  0.4699
  182MPD1    H6 2781   3.557   2.039   2.327 -0.0483 -1.0456  0.9725
  182MPD1    H7 2782   3.421   2.095   2.261 -0.7776 -0.6501  0.7085
  183MPD1     C 2783   4.166   2.083   8.883  0.6203  0.2561 -0.3949
  183MPD1    C1 2784   4.256   2.112   8.984 -0.9898 -0.1512 -0.2164
  183MPD1    C2 2785   4.215   2.187   9.093  0.2574  1.0123 -0.7259
  183MPD1    C3 2786   4.084   2.227   9.112 -0.4227 -0.0380 -0.7613
  183MPD1    C4 2787   3.989   2.198   9.012 -0.3102  0.1026  0.5134
  183MPD1    C5 2788   4.042   2.131   8.892  0.0041  0.0032 -0.1016
  183MPD1     H 2789   4.287   2.224   9.165 -1.7060  2.4151  0.5091
  183MPD1    H1 2790   3.885   2.228   9.020 -0.1159  0.5832  1.3048
  183MPD1    H2 2791   4.173   2.015   8.799  1.4860 -1.4201  1.0327
  183MPD1    H3 2792   3.982   2.105   8.805  1.2161 -1.6147 -0.4566
  183MPD1     N 2793   4.051   2.302   9.228  0.0537 -0.1704 -0.1207
  183MPD1    H5 2794   4.124   2.318   9.297  0.7785  0.2170 -0.9698
  183MPD1    N1 2795   4.395   2.090   8.958 -0.2841 -0.2124 -1.0406
  183MPD1    H6 2796   4.403   2.014   8.890 -0.8823 -0.6073 -0.6731
  183MPD1    H7 2797   4.443   2.071   9.046 -1.1161  1.5583 -0.1998
  184MPD1     C 2798   3.424   4.594  10.108 -0.8971  0.0968 -0.6902
  184MPD1    C1 2799   3.324   4.597  10.009  0.3116  0.2439  0.0027
  184MPD1    C2 2800   3.339   4.689   9.908 -0.7067  0.1491 -0.1741
  184MPD1    C3 2801   3.454   0.036   9.891 -0.5151  0.1122 -0.0266
  184MPD1    C4 2802   3.563   0.017   9.972  0.0760 -0.1735 -0.3469
  184MPD1    C5 2803   3.543   4.660  10.083 -0.2825 -0.0352  0.0199
  184MPD1     H 2804   3.262   4.705   9.833 -1.4255  0.8186  0.7121
  184MPD1    H1 2805   3.663   0.043   9.941 -0.8890  1.3043 -2.2091
  184MPD1    H2 2806   3.412   4.529  10.194 -1.5442 -1.4525 -1.9270
  184MPD1    H3 2807   3.630   4.634  10.142 -0.1491 -1.9049 -1.0006
  184MPD1     N 2808   3.465   0.122   9.783 -0.0312  0.2927 -0.5129
  184MPD1    H5 2809   3.545   0.183   9.774  0.5065 -0.4623 -0.8046
  184MPD1    N1 2810   3.203   4.534  10.039  0.3228  0.0797 -0.3473
  184MPD1    H6 2811   3.231   4.458  10.101 -3.8023 -1.2765 -0.1419
  184MPD1    H7 2812   3.160   4.497   9.954  2.0055 -1.3972 -0.5660
  185MPD1     C 2813   3.028   0.605   8.879  0.1798 -0.8174  0.5456
  185MPD1    C1 2814   2.997   0.483   8.926 -0.2559  0.2620 -0.1639
  185MPD1    C2 2815   3.071   0.430   9.029 -0.1192 -0.0542 -0.2458
  185MPD1    C3 2816   3.169   0.505   9.086  0.0571  0.2731  0.8291
  185MPD1    C4 2817   3.208   0.630   9.038 -0.3993  0.0684  0.1738
  185MPD1    C5 2818   3.129   0.681   8.935 -0.4385 -0.2732 -0.5098
  185MPD1     H 2819   3.038   0.333   9.065  1.2498 -0.2625  0.4475
  185MPD1    H1 2820   3.288   0.687   9.084  0.0469 -0.5089  0.1025
  185MPD1    H2 2821   2.985   0.647   8.789 -1.7789 -1.8597  1.0015
  185MPD1    H3 2822   3.144   0.779   8.892  0.7336  0.6288  1.9217
  185MPD1     N 2823   3.241   0.466   9.202 -0.6549 -0.6694  0.4910
  185MPD1    H5 2824   3.300   0.541   9.236 -1.4913 -0.0048  0.4710
  185MPD1    N1 2825   2.899   0.394   8.864 -0.3022  0.2313  0.8904
  185MPD1    H6 2826   2.861   0.323   8.927 -1.9540  1.2384  1.0308
  185MPD1    H7 2827   2.828   0.454   8.823  0.4791  0.4892 -0.0915
  186MPD1     C 2828   1.101   4.546  15.406  0.0975  0.2790  0.3290
  186MPD1    C1 2829   1.031   4.492  15.511 -0.2093 -0.1330 -0.0411
  186MPD1    C2 2830   1.075   4.513  15.635  0.1956 -0.0421  0.3804
  186MPD1    C3 2831   1.173   4.613  15.658  0.7620 -1.2574 -0.1499
  186MPD1    C4 2832   1.237   4.673  15.554 -0.1543 -0.1410 -0.2581
  186MPD1    C5 2833   1.195   4.641  15.428  0.0529  0.0935  0.2477
  186MPD1     H 2834   1.026   4.454  15.712 -1.3177  2.6393  1.4744
  186MPD1    H1 2835   1.312   0.024  15.578  1.0732 -0.6986 -2.3387
  186MPD1    H2 2836   1.084   4.514  15.304  1.0838  0.3240  0.1572
  186MPD1    H3 2837   1.243   4.693  15.345 -2.2223  0.0587 -1.1089
  186MPD1     N 2838   1.210   4.659  15.782 -0.1012  0.1099 -0.6045
  186MPD1    H5 2839   1.296   4.712  15.791  1.2648 -2.0222 -1.0667
  186MPD1    N1 2840   0.940   4.394  15.480  0.0933 -0.1792 -0.2028
  186MPD1    H6 2841   0.900   4.432  15.394 -1.9253  1.7255  1.5535
  186MPD1    H7 2842   0.861   4.377  15.542 -0.2687 -3.0126 -1.4383
  187MPD1     C 2843   4.353   2.785   0.029  0.0633  0.7135 -0.0478
  187MPD1    C1 2844   4.461   2.743   0.102  0.9686 -0.1781 -0.0805
  187MPD1    C2 2845   4.547   2.650   0.041 -0.0719 -0.6889 -0.1004
  187MPD1    C3 2846   4.531   2.614  17.596 -0.7222 -0.3371 -0.0773
  187MPD1    C4 2847   4.427   2.667  17.524 -0.3276 -0.4767 -0.3012
  187MPD1    C5 2848   4.339   2.746  17.592  0.1881 -0.2075  0.2752
  187MPD1     H 2849   4.622   2.611   0.109  0.5655  1.6467  0.5650
  187MPD1    H1 2850   4.416   2.651  17.418 -0.2478 -0.3612 -0.3261
  187MPD1    H2 2851   4.286   2.860   0.070 -0.5396  0.6175 -0.8596
  187MPD1    H3 2852   4.257   2.787  17.534  0.0589 -1.1587 -0.2279
  187MPD1     N 2853   4.612   2.521  17.529  0.0005 -0.3330  0.3073
  187MPD1    H5 2854   4.588   2.507  17.431 -1.3830 -0.8850  0.7263
  187MPD1    N1 2855   4.467   2.754   0.241 -0.1571  0.4434 -0.7166
  187MPD1    H6 2856   4.560   2.738   0.278 -0.2689  0.5253 -0.3995
  187MPD1    H7 2857   4.433   2.838   0.287  0.0188  1.6163 -2.7496
  188MPD1     C 2858   0.762   2.390   9.948  1.0914 -0.3707  0.1451
  188MPD1    C1 2859   0.800   2.281  10.029  1.4279 -0.1273  0.2950
  188MPD1    C2 2860   0.808   2.156   9.972 -0.1679  0.9379  0.7225
  188MPD1    C3 2861   0.792   2.134   9.837  0.4974 -0.1226  0.3633
  188MPD1    C4 2862   0.779   2.247   9.756  0.8899  0.1888 -0.0077
  188MPD1    C5 2863   0.755   2.371   9.812  0.7610 -0.3295 -0.0264
  188MPD1     H 2864   0.835   2.074  10.038  0.3286  1.6394  1.3990
  188MPD1    H1 2865   0.759   2.231   9.651  0.8821 -0.0453  0.0307
  188MPD1    H2 2866   0.765   2.490   9.990  1.9189 -0.2790 -0.1388
  188MPD1    H3 2867   0.736   2.461   9.755  0.4905 -0.9243 -0.8740
  188MPD1     N 2868   0.796   2.007   9.771 -0.3416 -0.7923  0.0913
  188MPD1    H5 2869   0.764   2.001   9.675 -2.0769  0.8609  0.5539
  188MPD1    N1 2870   0.800   2.299  10.172  0.6789  0.0667 -0.1111
  188MPD1    H6 2871   0.840   2.223  10.227  1.9344  0.9379  0.2016
  188MPD1    H7 2872   0.807   2.394  10.208  0.8206  0.5491 -1.4259
  189MPD1     C 2873   1.462   2.467   0.879  0.3859 -0.1373 -0.4550
  189MPD1    C1 2874   1.460   2.577   0.796 -0.3757 -0.2410  0.0012
  189MPD1    C2 2875   1.460   2.562   0.663  0.3004 -0.3792  0.7335
  189MPD1    C3 2876   1.443   2.435   0.607  0.2074 -0.1915  0.8795
  189MPD1    C4 2877   1.445   2.325   0.694  0.4758  0.4316 -0.3892
  189MPD1    C5 2878   1.451   2.343   0.827 -0.6364 -0.6707  0.2328
  189MPD1     H 2879   1.471   2.651   0.601  0.8947 -1.6736 -1.0036
  189MPD1    H1 2880   1.455   2.221   0.665  0.2309 -0.6151  3.2786
  189MPD1    H2 2881   1.480   2.472   0.986 -0.8082  1.2737 -0.3231
  189MPD1    H3 2882   1.453   2.259   0.895 -0.6456 -0.7346  0.1542
  189MPD1     N 2883   1.440   2.420   0.466  0.2530  0.1738  0.2358
  189MPD1    H5 2884   1.453   2.503   0.407  0.1480  0.5520  0.7469
  189MPD1    N1 2885   1.472   2.706   0.858 -0.5944  0.3817 -0.4310
  189MPD1    H6 2886   1.394   2.716   0.921  0.1841  1.6598  0.3338
  189MPD1    H7 2887   1.473   2.791   0.801 -1.7851  0.9737  0.4482
  190MPD1     C 2888   0.700   1.473  15.011  0.3951  0.0302 -0.7323
  190MPD1    C1 2889   0.822   1.466  15.082  0.1998 -0.1037  0.2150
  190MPD1    C2 2890   0.844   1.351  15.160 -0.1231  0.0759  0.2689
  190MPD1    C3 2891   0.747   1.257  15.162 -0.3366  0.7996  0.0333
  190MPD1    C4 2892   0.632   1.263  15.090 -0.3865  0.0623  0.4536
  190MPD1    C5 2893   0.603   1.374  15.020 -0.6985  0.9596 -0.8391
  190MPD1     H 2894   0.935   1.338  15.219 -0.5230 -1.0224  0.6479
  190MPD1    H1 2895   0.556   1.186  15.080 -1.7556  1.4122  0.5072
  190MPD1    H2 2896   0.691   1.565  14.954 -0.1264 -1.0557 -2.4150
  190MPD1    H3 2897   0.515   1.377  14.958 -0.1641 -0.8789 -1.6886
  190MPD1     N 2898   0.782   1.143  15.234 -0.2728  0.3055 -0.5081
  190MPD1    H5 2899   0.877   1.138  15.271 -1.0781  1.2141  1.6722
  190MPD1    N1 2900   0.915   1.566  15.071 -0.2831  0.0797  0.1724
  190MPD1    H6 2901   1.005   1.543  15.113 -0.9301  1.6431  2.3983
  190MPD1    H7 2902   0.938   1.597  14.976 -0.8893  2.0478  0.6652
  191MPD1     C 2903   0.667   2.728  13.138  0.0909  0.8898 -0.7076
  191MPD1    C1 2904   0.587   2.640  13.066 -0.3610 -0.2141  0.2370
  191MPD1    C2 2905   0.596   2.648  12.924  1.0879 -0.5812  0.1450
  191MPD1    C3 2906   0.679   2.745  12.866 -0.2105 -0.7661  0.5105
  191MPD1    C4 2907   0.751   2.832  12.947 -0.8185 -0.3971 -0.6659
  191MPD1    C5 2908   0.747   2.822  13.084  0.6298  0.5660 -0.6064
  191MPD1     H 2909   0.539   2.589  12.853 -2.0746  0.5732  1.7314
  191MPD1    H1 2910   0.817   2.908  12.905 -1.4134  0.1329 -0.6431
  191MPD1    H2 2911   0.680   2.716  13.245 -2.0014 -0.9443 -0.6529
  191MPD1    H3 2912   0.815   2.887  13.138  3.3158 -2.9467  0.2179
  191MPD1     N 2913   0.671   2.760  12.730 -1.2301  0.1882  0.3481
  191MPD1    H5 2914   0.614   2.693  12.680  1.8094 -1.3366 -1.0854
  191MPD1    N1 2915   0.535   2.522  13.128 -0.0910  0.3291  0.4722
  191MPD1    H6 2916   0.465   2.476  13.070 -0.0821 -0.4115  1.0493
  191MPD1    H7 2917   0.501   2.530  13.224 -2.5453  1.2703 -0.4655
  192MPD1     C 2918   4.648   2.607  12.297 -0.5908  1.1921 -0.7595
  192MPD1    C1 2919   0.010   2.620  12.186 -0.0962 -0.2288  1.3904
  192MPD1    C2 2920   0.147   2.648  12.219 -0.4812  0.6512 -0.6401
  192MPD1    C3 2921   0.197   2.673  12.349  0.4820  0.9221  0.3782
  192MPD1    C4 2922   0.112   2.668  12.447  0.0602  0.0205  0.6095
  192MPD1    C5 2923   4.703   2.636  12.420  0.8267  0.7112 -0.5614
  192MPD1     H 2924   0.209   2.642  12.130 -0.3049  0.4978 -0.5062
  192MPD1    H1 2925   0.149   2.692  12.546  1.2716 -1.1836  0.4488
  192MPD1    H2 2926   4.546   2.572  12.288 -0.4659  0.7597 -0.4816
  192MPD1    H3 2927   4.635   2.613  12.501  0.3079  0.0501 -1.1863
  192MPD1     N 2928   0.334   2.707  12.380 -0.2016  0.6135 -0.3852
  192MPD1    H5 2929   0.365   2.730  12.474 -0.6144  2.4763 -0.7071
  192MPD1    N1 2930   4.686   2.559  12.066 -0.0282 -0.2013 -0.0281
  192MPD1    H6 2931   0.014   2.610  11.994  0.2424 -2.5897 -1.5134
  192MPD1    H7 2932   4.586   2.571  12.050 -0.4328 -0.6012  2.3107
  193MPD1     C 2933   4.623   2.806  15.663  0.3273 -0.5415  0.3960
  193MPD1    C1 2934   4.587   2.913  15.745  0.1923 -0.1337 -0.1935
  193MPD1    C2 2935   4.681   2.939  15.843 -0.0145 -0.1685  0.4393
  193MPD1    C3 2936   0.059   2.849  15.887  0.1576 -0.1788  0.1048
  193MPD1    C4 2937   0.070   2.730  15.817  0.7963 -0.3075  0.2634
  193MPD1    C5 2938   0.003   2.724  15.700 -0.1324  0.7658  0.0473
  193MPD1     H 2939   4.664   3.028  15.903  3.9096  1.8072 -1.4002
  193MPD1    H1 2940   0.148   2.659  15.841  1.3291 -0.4318 -1.8928
  193MPD1    H2 2941   4.576   2.787  15.567  0.2793  0.9276  0.1235
  193MPD1    H3 2942   0.023   2.633  15.645 -0.5754 -0.2469  1.5664
  193MPD1     N 2943   0.144   2.878  15.995  0.4359  0.3224  0.1442
  193MPD1    H5 2944   0.211   2.803  16.012  3.3821  2.7827 -0.6405
  193MPD1    N1 2945   4.486   2.997  15.701 -0.0842  0.0911  0.5549
  193MPD1    H6 2946   4.416   2.967  15.634 -0.3037  0.6212  0.5438
  193MPD1    H7 2947   4.440   3.058  15.769 -0.5322  0.3805 -0.0129
  194MPD1     C 2948   2.352   1.147  16.643  0.4453 -0.2250 -0.1574
  194MPD1    C1 2949   2.453   1.154  16.734  1.5810 -0.3596  0.2473
  194MPD1    C2 2950   2.524   1.039  16.754  0.3548  0.6042  0.4156
  194MPD1    C3 2951   2.510   0.931  16.670 -0.2264  0.0125  0.9439
  194MPD1    C4 2952   2.416   0.934  16.572 -0.5223  0.2025  0.1154
  194MPD1    C5 2953   2.326   1.040  16.560 -0.2024 -0.6861  0.1993
  194MPD1     H 2954   2.593   1.032  16.838  0.2981 -0.4806  0.3729
  194MPD1    H1 2955   2.397   0.866  16.491  2.2876 -3.1417  2.2609
  194MPD1    H2 2956   2.278   1.227  16.633  3.3666  2.1753 -2.6111
  194MPD1    H3 2957   2.242   1.038  16.492  1.0388 -4.1608 -1.2519
  194MPD1     N 2958   2.582   0.808  16.684  0.2848  0.0866 -0.1171
  194MPD1    H5 2959   2.554   0.736  16.618 -0.8759 -0.6539  1.1936
  194MPD1    N1 2960   2.459   1.254  16.832 -0.2298 -0.5273  0.3514
  194MPD1    H6 2961   2.556   1.263  16.860 -0.3835 -0.2890  0.8250
  194MPD1    H7 2962   2.432   1.340  16.784 -0.1116 -0.6472  0.0733
  195MPD1     C 2963   0.845   1.549  17.641  0.2883 -0.1869  0.5033
  195MPD1    C1 2964   0.843   1.486  17.516 -0.1409  0.5668  0.5141
  195MPD1    C2 2965   0.743   1.389  17.492 -0.3206 -0.5360 -0.0670
  195MPD1    C3 2966   0.646   1.357  17.584 -0.5447  0.3753 -0.3230
  195MPD1    C4 2967   0.644   1.431   0.006  0.4346 -0.1877 -0.7951
  195MPD1    C5 2968   0.744   1.527   0.038  0.4944  0.3016 -0.2483
  195MPD1     H 2969   0.742   1.340  17.395  0.7801 -2.3663  0.8359
  195MPD1    H1 2970   0.561   1.412   0.074 -2.2645  0.6028 -3.8268
  195MPD1    H2 2971   0.923   1.621  17.665  0.4502 -0.3925  0.5990
  195MPD1    H3 2972   0.739   1.577   0.134 -1.0257  1.6583 -1.0269
  195MPD1     N 2973   0.548   1.257  17.569 -0.0918  0.2969  0.0459
  195MPD1    H5 2974   0.493   1.246  17.654  1.2223  4.2950  1.4090
  195MPD1    N1 2975   0.956   1.502  17.429  0.5145 -0.3521 -0.2144
  195MPD1    H6 2976   0.941   1.489  17.330  0.3641 -1.9572  0.0274
  195MPD1    H7 2977   1.003   1.593  17.438  0.8196 -0.2949 -2.5145
  196MPD1     C 2978   0.133   1.326   0.791  0.1602  0.6148  0.6143
  196MPD1    C1 2979   0.038   1.419   0.767  0.2228 -0.7059  0.2845
  196MPD1    C2 2980   0.029   1.523   0.859  0.1038 -0.0780  0.0128
  196MPD1    C3 2981   0.105   1.523   0.979 -0.1216 -0.1475  0.6637
  196MPD1    C4 2982   0.185   1.416   0.996  0.1243 -0.1498 -0.5896
  196MPD1    C5 2983   0.208   1.321   0.907  0.0576 -0.6906 -0.0065
  196MPD1     H 2984   4.670   1.595   0.849  0.8934  0.7206 -0.6437
  196MPD1    H1 2985   0.246   1.415   1.086  0.0453 -2.9545 -0.5527
  196MPD1    H2 2986   0.149   1.246   0.720 -1.1353  0.9279 -0.0355
  196MPD1    H3 2987   0.281   1.244   0.930  0.4542 -0.1017  0.6907
  196MPD1     N 2988   0.102   1.622   1.085  0.1842 -0.2557  0.5125
  196MPD1    H5 2989   0.160   1.600   1.165 -1.0780  0.2676  1.5755
  196MPD1    N1 2990   4.688   1.414   0.648 -0.2046 -0.3019  0.2026
  196MPD1    H6 2991   4.689   1.318   0.614 -1.5755 -0.1680 -0.2178
  196MPD1    H7 2992   4.588   1.430   0.663 -0.6189 -0.6910 -2.0344
  197MPD1     C 2993   4.129   0.282  17.491 -0.0941 -0.1485 -0.0594
  197MPD1    C1 2994   4.156   0.149  17.498 -0.4422 -0.9590 -0.1859
  197MPD1    C2 2995   4.081   0.053  17.427 -0.0819  0.2611  0.0761
  197MPD1    C3 2996   3.999   0.099  17.331 -0.1469  0.5561  0.1377
  197MPD1    C4 2997   3.975   0.231  17.315 -0.2028  0.7590  0.6325
  197MPD1    C5 2998   4.031   0.323  17.404  0.0918  0.5663  0.0836
  197MPD1     H 2999   4.101   4.669  17.428  0.1247  0.3026  0.3375
  197MPD1    H1 3000   3.898   0.271  17.250 -0.6258  0.6710  1.0775
  197MPD1    H2 3001   4.174   0.362  17.547 -0.6631 -0.7329  1.2203
  197MPD1    H3 3002   3.992   0.423  17.410 -3.2051 -0.7450  0.1487
  197MPD1     N 3003   3.928   0.012  17.246 -0.3882 -0.3231 -0.0455
  197MPD1    H5 3004   3.893   0.057  17.162  0.2015  0.8599  0.3349
  197MPD1    N1 3005   4.239   0.096  17.598 -0.2860 -0.0413  0.6991
  197MPD1    H6 3006   4.293   0.011  17.582  2.6801  1.9965 -0.2462
  197MPD1    H7 3007   4.311   0.168  17.607 -0.5315 -0.0163  2.5053
  198MPD1     C 3008   1.272   1.832  16.161 -0.6550 -0.1089  0.5129
  198MPD1    C1 3009   1.271   1.924  16.266  0.3426 -0.5091  0.4948
  198MPD1    C2 3010   1.295   2.058  16.243 -0.5700 -0.7266 -0.3194
  198MPD1    C3 3011   1.321   2.097  16.115  0.2895 -0.2228 -0.1619
  198MPD1    C4 3012   1.311   2.008  16.010  0.5443  0.3598  0.2090
  198MPD1    C5 3013   1.294   1.872  16.028 -0.1789 -0.6713  0.8629
  198MPD1     H 3014   1.310   2.132  16.320  2.1288 -1.2424 -0.3650
  198MPD1    H1 3015   1.317   2.040  15.906 -0.8735  1.9427  0.6240
  198MPD1    H2 3016   1.254   1.728  16.186 -1.4733  0.0628  0.6193
  198MPD1    H3 3017   1.299   1.801  15.946  0.6040 -0.3917  0.6699
  198MPD1     N 3018   1.368   2.230  16.103 -0.6719  0.6723  0.4428
  198MPD1    H5 3019   1.370   2.271  16.196  0.3817 -0.4540  0.9178
  198MPD1    N1 3020   1.287   1.871  16.394  0.6066 -0.0215 -0.0379
  198MPD1    H6 3021   1.250   1.924  16.473  2.9486  1.3880  0.1134
  198MPD1    H7 3022   1.256   1.775  16.409  2.0113 -0.3041  1.0068
  199MPD1     C 3023   2.519   2.943  10.139 -0.8309 -0.3598  0.0033
  199MPD1    C1 3024   2.628   2.936  10.058  1.1622 -0.7662 -0.1979
  199MPD1    C2 3025   2.658   3.051   9.984 -0.6603  0.2390 -0.5619
  199MPD1    C3 3026   2.582   3.167   9.995  0.1456  0.1725 -1.0064
  199MPD1    C4 3027   2.473   3.168  10.074 -0.3558  0.1982 -0.2437
  199MPD1    C5 3028   2.440   3.052  10.141 -0.4444 -0.2135  0.4350
  199MPD1     H 3029   2.742   3.051   9.915 -1.0967 -0.1178 -1.0928
  199MPD1    H1 3030   2.421   3.259  10.101 -2.0994 -0.5609 -1.0639
  199MPD1    H2 3031   2.480   2.853  10.183 -0.4555  0.1928  1.4609
  199MPD1    H3 3032   2.354   3.050  10.208 -1.4544  0.0626 -0.8432
  199MPD1     N 3033   2.625   3.288   9.931  0.3110  0.1642  0.5840
  199MPD1    H5 3034   2.559   3.364   9.948 -0.1139 -0.4059  1.4689
  199MPD1    N1 3035   2.698   2.811  10.047 -0.0194 -0.0213  0.0996
  199MPD1    H6 3036   2.785   2.815   9.995  1.2775  0.1525  2.3178
  199MPD1    H7 3037   2.703   2.755  10.132  1.5164 -0.6712 -0.4167
  200MPD1     C 3038   1.532   3.714  15.233  0.6543 -0.3658  0.5329
  200MPD1    C1 3039   1.453   3.609  15.197 -0.3175 -0.4886  0.9129
  200MPD1    C2 3040   1.491   3.532  15.094 -0.3037 -0.0474 -0.2432
  200MPD1    C3 3041   1.614   3.550  15.033  0.1242 -0.2820  0.1736
  200MPD1    C4 3042   1.701   3.649  15.075 -0.1171  0.1031 -0.1715
  200MPD1    C5 3043   1.649   3.729  15.170  0.2961  0.6970 -0.3573
  200MPD1     H 3044   1.415   3.459  15.067  0.2115 -0.5220 -0.4008
  200MPD1    H1 3045   1.799   3.679  15.038 -0.8129  0.4330 -1.7454
  200MPD1    H2 3046   1.504   3.781  15.313 -2.2653 -2.0255  0.8909
  200MPD1    H3 3047   1.717   3.805  15.206  0.9252 -0.1148  0.1814
  200MPD1     N 3048   1.655   3.459  14.929  0.1227  0.6614  0.5412
  200MPD1    H5 3049   1.591   3.381  14.935  0.4894  0.2363 -1.0411
  200MPD1    N1 3050   1.323   3.585  15.256 -0.3615 -0.1943  0.6525
  200MPD1    H6 3051   1.308   3.623  15.349 -0.2698  0.5903  0.3429
  200MPD1    H7 3052   1.305   3.486  15.273  1.6795 -0.5660  0.6729
  201MPD1     C 3053   4.253   2.718  12.318 -0.6460  0.1060 -0.5785
  201MPD1    C1 3054   4.161   2.629  12.267  0.1153  0.1663  0.2413
  201MPD1    C2 3055   4.136   2.515  12.336 -0.2764 -0.0084  1.0399
  201MPD1    C3 3056   4.211   2.476  12.442 -0.3682 -0.7369 -0.4415
  201MPD1    C4 3057   4.310   2.567  12.483 -0.1933 -0.2015 -0.2154
  201MPD1    C5 3058   4.324   2.689  12.428  0.2580 -0.1016  0.4934
  201MPD1     H 3059   4.062   2.450  12.293  0.8204 -1.1955  0.9433
  201MPD1    H1 3060   4.379   2.551  12.565 -2.5779  0.0601  1.8346
  201MPD1    H2 3061   4.276   2.818  12.280  0.7423 -0.4437 -1.2010
  201MPD1    H3 3062   4.392   2.763  12.471 -0.0079  2.4604 -3.4897
  201MPD1     N 3063   4.191   2.345  12.489  0.4990  0.1004 -0.1057
  201MPD1    H5 3064   4.123   2.287  12.441  1.1759  0.8259 -1.9667
  201MPD1    N1 3065   4.083   2.668  12.157 -0.8875 -0.1440  0.1393
  201MPD1    H6 3066   4.051   2.591  12.099  0.6761 -0.8252  0.1825
  201MPD1    H7 3067   4.139   2.724  12.094 -1.0482 -0.6378 -0.4465
  202MPD1     C 3068   0.540   2.327   9.338  0.3710  0.3694 -0.3165
  202MPD1    C1 3069   0.530   2.364   9.469  0.0157 -0.4260  0.1297
  202MPD1    C2 3070   0.438   2.288   9.549 -0.2735  0.1647 -0.1424
  202MPD1    C3 3071   0.402   2.161   9.510 -0.5483 -0.5431 -0.6841
  202MPD1    C4 3072   0.440   2.115   9.392 -0.0181  0.2333  0.3738
  202MPD1    C5 3073   0.496   2.200   9.308 -0.6161 -0.1839  0.1663
  202MPD1     H 3074   0.417   2.321   9.650  0.5164  1.4085 -0.3875
  202MPD1    H1 3075   0.409   2.016   9.361 -0.9566  1.1652 -1.7071
  202MPD1    H2 3076   0.593   2.389   9.267 -1.8992  1.4098 -1.0977
  202MPD1    H3 3077   0.514   2.161   9.208  0.6929 -2.0724  1.1251
  202MPD1     N 3078   0.322   2.076   9.592  0.5988 -0.3311 -0.3345
  202MPD1    H5 3079   0.308   1.983   9.554  0.4223 -1.1643  1.7937
  202MPD1    N1 3080   0.550   2.502   9.493  0.9855  0.6566 -0.8277
  202MPD1    H6 3081   0.632   2.540   9.447  0.7291  0.3183 -1.5649
  202MPD1    H7 3082   0.556   2.524   9.592  0.2081 -0.3023 -0.5636
  203MPD1     C 3083   3.290   3.159  12.726 -0.0302  0.0317  0.7069
  203MPD1    C1 3084   3.272   3.146  12.586  0.0406  0.2522 -0.7458
  203MPD1    C2 3085   3.335   3.043  12.513 -0.1061  0.7885 -0.2095
  203MPD1    C3 3086   3.391   2.940  12.591 -0.1774 -0.2285 -0.4706
  203MPD1    C4 3087   3.416   2.956  12.729  0.1420  0.2645  0.2609
  203MPD1    C5 3088   3.373   3.068  12.795  1.1139  0.1412  0.4296
  203MPD1     H 3089   3.329   3.027  12.406  0.1820 -0.8146  0.0126
  203MPD1    H1 3090   3.480   2.890  12.787 -2.3396 -0.9186  1.6570
  203MPD1    H2 3091   3.266   3.245  12.788 -1.4241  0.4966 -0.4409
  203MPD1    H3 3092   3.394   3.086  12.900 -2.6461 -0.3559  1.2784
  203MPD1     N 3093   3.425   2.817  12.527  0.0750 -0.2678  0.5264
  203MPD1    H5 3094   3.421   2.809  12.426 -0.5998 -0.5419  0.5799
  203MPD1    N1 3095   3.230   3.260  12.525 -0.7796 -0.3607  0.0237
  203MPD1    H6 3096   3.191   3.240  12.433 -0.4264 -5.4657  0.9970
  203MPD1    H7 3097   3.159   3.307  12.580 -0.0341  1.3880 -0.4808
  204MPD1     C 3098   2.952   3.050   0.829  0.1499  0.2440  0.0382
  204MPD1    C1 3099   3.079   3.069   0.775  0.2380 -0.4781 -0.2282
  204MPD1    C2 3100   3.091   3.106   0.640  0.5377 -0.3119 -0.5774
  204MPD1    C3 3101   2.971   3.142   0.573  0.0769 -0.1573  0.3234
  204MPD1    C4 3102   2.850   3.129   0.629 -0.0629  0.4719  0.1128
  204MPD1    C5 3103   2.843   3.090   0.759  0.4209 -0.2046 -0.1685
  204MPD1     H 3104   3.184   3.111   0.583  0.1060  2.5226 -1.0709
  204MPD1    H1 3105   2.758   3.148   0.574 -0.1727  0.3387  0.2486
  204MPD1    H2 3106   2.930   3.012   0.928  2.6303 -0.5891  0.2596
  204MPD1    H3 3107   2.746   3.076   0.807  0.1593  1.1147 -0.3023
  204MPD1     N 3108   2.994   3.171   0.441  0.2315  0.3643  0.7158
  204MPD1    H5 3109   3.091   3.180   0.413 -0.5446 -2.1114 -2.7672
  204MPD1    N1 3110   3.193   3.011   0.839  0.6322 -0.1586 -0.2166
  204MPD1    H6 3111   3.189   3.008   0.941  0.8432 -0.7919 -0.2229
  204MPD1    H7 3112   3.277   3.062   0.814 -0.8351  1.7554 -1.2107
  205MPD1     C 3113   3.296   2.609  16.617 -0.7988  0.8919  0.0834
  205MPD1    C1 3114   3.396   2.523  16.645 -0.1893 -0.3145 -0.4169
  205MPD1    C2 3115   3.442   2.502  16.773  0.0981  0.5325 -0.4193
  205MPD1    C3 3116   3.387   2.576  16.875 -0.3003 -0.2108  0.6924
  205MPD1    C4 3117   3.283   2.665  16.842  0.2769 -0.4671 -0.1097
  205MPD1    C5 3118   3.245   2.688  16.719  0.0206  0.5557 -0.0225
  205MPD1     H 3119   3.518   2.428  16.796 -0.7568  0.3085  1.5817
  205MPD1    H1 3120   3.250   2.736  16.916  0.1428 -0.2690 -0.3570
  205MPD1    H2 3121   3.265   2.634  16.516 -2.9685 -1.7512  0.1080
  205MPD1    H3 3122   3.160   2.753  16.699  0.8966  1.8531  0.4902
  205MPD1     N 3123   3.438   2.580  17.008 -0.0824  0.6499  0.1774
  205MPD1    H5 3124   3.403   2.646  17.076 -0.0901 -0.9638  1.7509
  205MPD1    N1 3125   3.436   2.447  16.534  0.3811  0.3223 -0.0268
  205MPD1    H6 3126   3.529   2.407  16.546  0.0422 -0.6313 -0.5655
  205MPD1    H7 3127   3.435   2.498  16.447  1.0178 -0.7903 -0.6905
  206MPD1     C 3128   2.692   1.215  16.417  0.0142 -0.3551 -0.3359
  206MPD1    C1 3129   2.754   1.102  16.374  0.2935  0.4836 -0.9335
  206MPD1    C2 3130   2.707   1.035  16.263 -0.5078  0.0204  0.2768
  206MPD1    C3 3131   2.599   1.084  16.192 -0.5059 -0.5026 -0.4295
  206MPD1    C4 3132   2.549   1.209  16.234  1.0076  0.0870 -0.3507
  206MPD1    C5 3133   2.581   1.267  16.352  0.1311 -0.2164  0.0990
  206MPD1     H 3134   2.765   0.945  16.244  0.2480  0.4866  0.3646
  206MPD1    H1 3135   2.460   1.253  16.191 -0.5307 -2.0330  0.7037
  206MPD1    H2 3136   2.730   1.261  16.508 -0.2829 -0.4146 -0.1812
  206MPD1    H3 3137   2.540   1.363  16.379 -1.3095 -1.1224  1.1240
  206MPD1     N 3138   2.537   1.023  16.078  0.0186 -0.1124 -0.6746
  206MPD1    H5 3139   2.451   1.059  16.038 -0.7815 -0.9862  0.2877
  206MPD1    N1 3140   2.871   1.050  16.433  0.1249 -0.2424 -0.7303
  206MPD1    H6 3141   2.880   1.053  16.535  2.1890 -2.4388 -0.8297
  206MPD1    H7 3142   2.879   0.951  16.409 -0.9578 -0.0799 -1.6888
  207MPD1     C 3143   0.746   3.826   9.079  0.6074  0.8346 -0.0253
  207MPD1    C1 3144   0.656   3.782   9.177  0.3831  0.2437 -0.4206
  207MPD1    C2 3145   0.714   3.719   9.291  0.1147  0.1937 -0.0466
  207MPD1    C3 3146   0.846   3.716   9.320 -0.3533  0.1281  0.5227
  207MPD1    C4 3147   0.927   3.777   9.228  0.5291  0.5231 -0.3477
  207MPD1    C5 3148   0.880   3.826   9.107 -0.0595 -0.3558 -0.7928
  207MPD1     H 3149   0.646   3.678   9.365 -0.5816  1.5939  0.0811
  207MPD1    H1 3150   1.035   3.767   9.225  0.2812 -1.9548 -0.6369
  207MPD1    H2 3151   0.721   3.867   8.982 -2.6084 -0.2709  0.3176
  207MPD1    H3 3152   0.950   3.852   9.029 -0.8241 -3.5122 -2.5345
  207MPD1     N 3153   0.905   3.666   9.435 -0.0844  0.5649  0.1094
  207MPD1    H5 3154   1.006   3.668   9.423 -0.2312  0.7300 -1.0726
  207MPD1    N1 3155   0.521   3.758   9.146 -0.0039 -0.6358 -0.1333
  207MPD1    H6 3156   0.494   3.834   9.083  0.2711 -1.6176 -1.4244
  207MPD1    H7 3157   0.456   3.749   9.223 -0.9165 -1.1095 -0.9560
  208MPD1     C 3158   4.414   2.921   0.693 -0.2874  0.0750 -0.3262
  208MPD1    C1 3159   4.418   2.829   0.797 -0.4932  0.1630 -0.4300
  208MPD1    C2 3160   4.332   2.719   0.792  0.6608 -0.1616  0.2281
  208MPD1    C3 3161   4.242   2.701   0.692  0.6128 -0.5436  0.3243
  208MPD1    C4 3162   4.249   2.782   0.583  0.6073  0.1980 -0.0131
  208MPD1    C5 3163   4.331   2.899   0.590  0.0586 -0.2396 -0.0810
  208MPD1     H 3164   4.333   2.641   0.868  1.7591 -1.2947 -0.9387
  208MPD1    H1 3165   4.178   2.769   0.502  2.5120  1.0911 -1.8370
  208MPD1    H2 3166   4.483   3.004   0.685 -1.2023  0.8531 -0.1714
  208MPD1    H3 3167   4.324   2.978   0.516 -0.1264  0.5206  0.7471
  208MPD1     N 3168   4.155   2.590   0.700  0.2376 -0.4161 -0.9273
  208MPD1    H5 3169   4.174   2.522   0.773 -1.4059  0.2997  0.1784
  208MPD1    N1 3170   4.528   2.829   0.885 -0.0471 -0.1625  0.0964
  208MPD1    H6 3171   4.547   2.925   0.913  3.5493 -0.4558 -1.4061
  208MPD1    H7 3172   4.513   2.767   0.965 -2.0971  0.7234  0.3949
  209MPD1     C 3173   0.486   2.489  11.109 -0.0403 -0.8969  0.0028
  209MPD1    C1 3174   0.621   2.482  11.115 -0.5668 -0.1635  0.1243
  209MPD1    C2 3175   0.699   2.573  11.045 -0.1840 -0.5676  0.1729
  209MPD1    C3 3176   0.634   2.663  10.958  0.5122 -0.1085 -0.3529
  209MPD1    C4 3177   0.493   2.667  10.954 -0.2988  0.1247 -0.2188
  209MPD1    C5 3178   0.420   2.577  11.024  0.0467  0.3995  0.3013
  209MPD1     H 3179   0.807   2.573  11.051 -0.1894  0.9359  0.2056
  209MPD1    H1 3180   0.438   2.744  10.900  2.2167  1.4749 -0.8744
  209MPD1    H2 3181   0.428   2.428  11.178 -1.7451  1.3100  0.4960
  209MPD1    H3 3182   0.312   2.581  11.033  0.0095 -0.7934  0.3454
  209MPD1     N 3183   0.723   2.739  10.871  0.8035 -0.0117  0.4135
  209MPD1    H5 3184   0.823   2.730  10.889  0.5591 -1.6888  0.8807
  209MPD1    N1 3185   0.685   2.395  11.208  0.5373  0.5884 -0.0527
  209MPD1    H6 3186   0.640   2.307  11.229  1.8202 -0.1136 -0.2268
  209MPD1    H7 3187   0.787   2.395  11.215  0.5511 -0.9015 -0.4453
  210MPD1     C 3188   1.575   2.822  10.909  0.0320 -0.2039 -0.5119
  210MPD1    C1 3189   1.536   2.954  10.885 -0.2191 -0.2945  0.1158
  210MPD1    C2 3190   1.412   2.973  10.829 -0.2730 -0.2357  0.2174
  210MPD1    C3 3191   1.329   2.865  10.819 -0.1423  0.0162 -0.2716
  210MPD1    C4 3192   1.370   2.736  10.838  0.1556 -0.1295 -0.1529
  210MPD1    C5 3193   1.496   2.718  10.887  0.4839  0.5658 -1.0030
  210MPD1     H 3194   1.379   3.074  10.811 -2.3329 -0.7211  1.2418
  210MPD1    H1 3195   1.299   2.656  10.822  0.0769 -0.2666  0.8926
  210MPD1    H2 3196   1.673   2.805  10.952 -0.0727  1.3295  0.3202
  210MPD1    H3 3197   1.531   2.616  10.901  1.6108  0.8096 -2.1007
  210MPD1     N 3198   1.194   2.878  10.773  0.0921 -0.8286  0.6130
  210MPD1    H5 3199   1.137   2.795  10.764  0.4494 -0.7319 -2.5797
  210MPD1    N1 3200   1.629   3.062  10.899 -0.3364  0.1423 -0.1643
  210MPD1    H6 3201   1.569   3.136  10.935 -1.6737 -1.0127 -0.0052
  210MPD1    H7 3202   1.702   3.046  10.968 -1.0251 -0.8024  0.3464
  211MPD1     C 3203   3.326   2.015  16.251 -0.7150 -0.5165 -0.3428
  211MPD1    C1 3204   3.208   2.067  16.214 -0.2302 -0.5907  1.6440
  211MPD1    C2 3205   3.201   2.200  16.175 -0.4191 -0.4414  0.5397
  211MPD1    C3 3206   3.303   2.280  16.209 -0.1405  0.1807  0.1238
  211MPD1    C4 3207   3.418   2.232  16.266  0.6492  0.0188 -0.1541
  211MPD1    C5 3208   3.424   2.098  16.292 -0.1953  0.1135 -0.1345
  211MPD1     H 3209   3.119   2.242  16.117 -1.0512  1.6147  2.9276
  211MPD1    H1 3210   3.499   2.291  16.307 -0.7489 -0.3655  3.2529
  211MPD1    H2 3211   3.330   1.909  16.275  0.4907 -0.4270 -0.1598
  211MPD1    H3 3212   3.503   2.051  16.350 -1.0564 -0.3858  0.6324
  211MPD1     N 3213   3.280   2.413  16.170  0.1900  0.8573  0.0203
  211MPD1    H5 3214   3.195   2.427  16.116  0.0771 -1.1129 -0.3338
  211MPD1    N1 3215   3.096   1.981  16.178  0.8238  0.5848 -1.1084
  211MPD1    H6 3216   3.101   1.893  16.229  0.6904  0.2352 -1.7057
  211MPD1    H7 3217   3.003   2.019  16.167  0.9337  1.6119  1.3500
  212MPD1     C 3218   2.243   0.760  16.108 -0.0560  0.5208 -0.4439
  212MPD1    C1 3219   2.203   0.824  16.223 -0.4806 -0.1209 -0.0434
  212MPD1    C2 3220   2.147   0.748  16.322 -0.3677 -0.6850  0.3554
  212MPD1    C3 3221   2.101   0.618  16.300 -0.1529 -0.5691  0.4512
  212MPD1    C4 3222   2.139   0.559  16.179  0.5601  0.5504 -0.2783
  212MPD1    C5 3223   2.208   0.630  16.082  0.3845 -0.1335 -0.4785
  212MPD1     H 3224   2.125   0.802  16.413 -1.3942  0.6253 -0.6738
  212MPD1    H1 3225   2.120   0.455  16.156  0.2446  0.3910  0.7304
  212MPD1    H2 3226   2.285   0.817  16.026  1.0924 -2.7879 -2.1283
  212MPD1    H3 3227   2.233   0.588  15.985  0.8576  0.4649 -0.6171
  212MPD1     N 3228   2.032   0.537  16.394 -0.7328 -0.1897  0.3475
  212MPD1    H5 3229   2.008   0.442  16.369  0.7038 -0.1225 -1.3000
  212MPD1    N1 3230   2.246   0.954  16.256  0.3505 -0.7089 -0.2158
  212MPD1    H6 3231   2.253   1.009  16.170 -1.6626 -0.2580 -0.1065
  212MPD1    H7 3232   2.174   0.998  16.313  1.2393  0.6403 -0.1277
  213MPD1     C 3233   0.415   2.041  15.498  0.8560 -0.5036 -0.6785
  213MPD1    C1 3234   0.327   2.119  15.426 -0.5655 -0.2139 -0.0236
  213MPD1    C2 3235   0.263   2.052  15.323  0.0003 -0.1931  0.8762
  213MPD1    C3 3236   0.250   1.914  15.320 -0.0792 -0.6083  0.1459
  213MPD1    C4 3237   0.328   1.838  15.406 -0.1121  0.2335 -0.1170
  213MPD1    C5 3238   0.408   1.903  15.490 -0.0978  0.1893 -0.3021
  213MPD1     H 3239   0.201   2.116  15.262  0.5793  0.3474  0.8557
  213MPD1    H1 3240   0.350   1.733  15.392  0.7050  0.3094  0.6010
  213MPD1    H2 3241   0.486   2.084  15.568  1.7039 -2.2555 -0.4698
  213MPD1    H3 3242   0.481   1.851  15.551 -1.8267 -0.0539  1.5865
  213MPD1     N 3243   0.185   1.852  15.211  0.0421 -0.3740 -0.0862
  213MPD1    H5 3244   0.142   1.911  15.140  2.1528  2.4391  0.9890
  213MPD1    N1 3245   0.354   2.253  15.404  0.6561  0.1953 -0.3311
  213MPD1    H6 3246   0.380   2.300  15.491  2.2717 -0.3527 -0.5368
  213MPD1    H7 3247   0.273   2.303  15.367  1.4258 -0.0886 -2.3849
  214MPD1     C 3248   4.078   1.275  15.165  0.4095 -0.4478  0.0257
  214MPD1    C1 3249   4.124   1.289  15.035 -0.4282  0.5548  0.2092
  214MPD1    C2 3250   4.248   1.357  15.018  0.1599  0.4400 -0.1619
  214MPD1    C3 3251   4.309   1.425  15.119  0.1054  0.2643  0.8118
  214MPD1    C4 3252   4.265   1.409  15.244  0.4604  0.9003 -0.1035
  214MPD1    C5 3253   4.144   1.347  15.258  0.1765 -0.4318 -0.6815
  214MPD1     H 3254   4.300   1.351  14.923  0.8802 -0.0981  0.2748
  214MPD1    H1 3255   4.310   1.458  15.330  1.0499 -1.8546  1.1535
  214MPD1    H2 3256   3.989   1.216  15.188 -0.0714 -0.0771 -0.8860
  214MPD1    H3 3257   4.103   1.347  15.359 -0.9342 -0.1206 -1.1277
  214MPD1     N 3258   4.430   1.495  15.104 -0.7117 -0.7922 -0.5342
  214MPD1    H5 3259   4.477   1.528  15.188  1.5557 -2.5232 -1.1163
  214MPD1    N1 3260   4.072   1.216  14.928  0.6249 -0.4509  0.3207
  214MPD1    H6 3261   4.108   1.259  14.843  1.2545 -0.8743  0.3715
  214MPD1    H7 3262   3.976   1.187  14.944 -0.0042  0.9387 -0.9569
  215MPD1     C 3263   4.663   2.536  11.279  0.3172  0.1158  0.2314
  215MPD1    C1 3264   0.064   2.521  11.345  0.1665 -0.0934  0.6199
  215MPD1    C2 3265   0.164   2.613  11.326  0.5404 -0.1514 -0.4613
  215MPD1    C3 3266   0.151   2.717  11.243 -0.2302 -0.4280  0.1211
  215MPD1    C4 3267   0.033   2.736  11.178  0.3336 -0.3300 -0.1986
  215MPD1    C5 3268   4.651   2.647  11.195  0.3265  0.0428 -0.4681
  215MPD1     H 3269   0.262   2.609  11.372  0.6617  3.2490 -0.4352
  215MPD1    H1 3270   0.016   2.822  11.115  0.1154 -0.4026 -0.2381
  215MPD1    H2 3271   4.582   2.466  11.300  1.4288 -1.2919 -0.1781
  215MPD1    H3 3272   4.560   2.667  11.140  0.1466  0.8839  0.1358
  215MPD1     N 3273   0.266   2.797  11.231  0.3079 -0.3977 -0.2001
  215MPD1    H5 3274   0.345   2.770  11.288  0.3520 -3.5330 -1.7828
  215MPD1    N1 3275   0.088   2.406  11.428 -0.1408  0.6755 -0.5219
  215MPD1    H6 3276   0.183   2.402  11.464  0.0531  0.6882 -1.0233
  215MPD1    H7 3277   0.032   2.424  11.511 -1.6998 -2.6527 -0.8549
  216MPD1     C 3278   2.336   0.741  16.895 -0.4182  0.1330 -0.4053
  216MPD1    C1 3279   2.402   0.677  16.998 -0.4387 -0.4696  0.5455
  216MPD1    C2 3280   2.382   0.538  17.011  0.7848  0.2409 -0.4710
  216MPD1    C3 3281   2.300   0.468  16.925  0.0311 -0.1160 -0.0872
  216MPD1    C4 3282   2.237   0.539  16.826 -0.0692  0.3044  0.1661
  216MPD1    C5 3283   2.270   0.669  16.803 -0.1020  0.4733  0.4801
  216MPD1     H 3284   2.441   0.480  17.080 -1.3252  0.4031  1.4774
  216MPD1    H1 3285   2.193   0.492  16.738  3.8820 -0.8749 -1.2124
  216MPD1    H2 3286   2.370   0.840  16.868  2.4674 -0.9633 -0.7936
  216MPD1    H3 3287   2.235   0.715  16.711  1.4671  0.1794 -0.2679
  216MPD1     N 3288   2.296   0.332  16.939  0.5052 -0.6582  0.3271
  216MPD1    H5 3289   2.333   0.297  17.026  1.6840  0.5275  0.2975
  216MPD1    N1 3290   2.488   0.746  17.086  0.1126  0.3466  0.0662
  216MPD1    H6 3291   2.519   0.837  17.051  1.2214 -0.3438 -0.7734
  216MPD1    H7 3292   2.566   0.688  17.115 -1.4856 -1.7235  0.2250
  217MPD1     C 3293   2.843   2.485   9.177 -0.4021  0.2570  0.8297
  217MPD1    C1 3294   2.735   2.406   9.161 -0.4038  0.2246  0.5236
  217MPD1    C2 3295   2.739   2.292   9.082  0.3075 -0.2200 -0.3964
  217MPD1    C3 3296   2.866   2.243   9.041  0.6385 -0.1711 -0.7512
  217MPD1    C4 3297   2.974   2.326   9.066 -0.3735  0.0625 -0.5514
  217MPD1    C5 3298   2.959   2.444   9.126 -0.1556 -0.3838 -0.4926
  217MPD1     H 3299   2.646   2.237   9.072  0.3280 -0.4401  0.6954
  217MPD1    H1 3300   3.072   2.291   9.034  0.2262 -0.0859  1.4719
  217MPD1    H2 3301   2.841   2.581   9.227 -2.0948  1.8163 -2.2417
  217MPD1    H3 3302   3.041   2.515   9.130  2.2602 -3.1737  0.5974
  217MPD1     N 3303   2.881   2.114   8.979 -0.1686  0.2040 -0.8072
  217MPD1    H5 3304   2.968   2.099   8.928  1.2770 -1.4367  2.0967
  217MPD1    N1 3305   2.610   2.454   9.202 -0.7338 -0.1038 -0.5956
  217MPD1    H6 3306   2.559   2.367   9.218  0.5189 -0.1287  3.1627
  217MPD1    H7 3307   2.625   2.505   9.289 -0.4077  1.0986 -1.3557
  218MPD1     C 3308   4.275   2.201  12.026  0.5660 -0.5083 -0.2022
  218MPD1    C1 3309   4.371   2.124  11.972 -0.3438  0.1551  0.0944
  218MPD1    C2 3310   4.488   2.124  12.042 -0.2183  0.0760  0.2042
  218MPD1    C3 3311   4.514   2.225  12.136  0.4231 -0.6019 -0.7886
  218MPD1    C4 3312   4.416   2.305  12.177  0.1592  0.1548  0.3631
  218MPD1    C5 3313   4.297   2.296  12.115 -0.4722 -0.1227  0.3549
  218MPD1     H 3314   4.558   2.049  12.005  0.1294  0.4517  0.1069
  218MPD1    H1 3315   4.431   2.393  12.239 -1.4938  3.2756 -3.6290
  218MPD1    H2 3316   4.178   2.201  11.977  1.1016  0.2114 -1.2563
  218MPD1    H3 3317   4.215   2.363  12.136 -1.6838 -0.6175 -2.8036
  218MPD1     N 3318   4.648   2.239  12.176  0.3555  0.0178  0.8139
  218MPD1    H5 3319   0.000   2.189  12.129  0.4604  1.2838 -0.3456
  218MPD1    N1 3320   4.354   2.024  11.870  0.3343  0.3715 -0.4759
  218MPD1    H6 3321   4.290   2.042  11.794 -0.9393  0.6880  0.6707
  218MPD1    H7 3322   4.437   1.988  11.824 -1.1750 -1.8852 -1.3878
  219MPD1     C 3323   0.677   2.617  11.738 -0.0470 -0.8307 -0.2873
  219MPD1    C1 3324   0.565   2.546  11.710 -0.1188  0.3858  0.3811
  219MPD1    C2 3325   0.505   2.487  11.817 -0.1513  0.9132 -0.0505
  219MPD1    C3 3326   0.536   2.502  11.952  0.0426 -0.1669 -0.2026
  219MPD1    C4 3327   0.644   2.583  11.977  0.1109  0.3189 -0.0296
  219MPD1    C5 3328   0.718   2.632  11.867  0.6565  0.6952 -0.2790
  219MPD1     H 3329   0.429   2.415  11.788 -0.7578  1.6165 -0.2191
  219MPD1    H1 3330   0.680   2.590  12.079 -0.4020  1.4630  0.0630
  219MPD1    H2 3331   0.742   2.655  11.660 -0.3455 -0.7981 -0.5182
  219MPD1    H3 3332   0.812   2.683  11.885 -0.0950  2.9222 -2.5537
  219MPD1     N 3333   0.477   2.437  12.061  0.2863  0.5251  0.5101
  219MPD1    H5 3334   0.514   2.454  12.154 -0.6017  1.1805  0.7473
  219MPD1    N1 3335   0.548   2.503  11.576 -0.1241  0.4756 -0.3680
  219MPD1    H6 3336   0.564   2.575  11.506  0.3096  1.6767  0.9793
  219MPD1    H7 3337   0.456   2.465  11.554 -0.7797  1.3398  0.8494
  220MPD1     C 3338   0.333   3.373   9.377 -0.5449 -0.1702 -0.0606
  220MPD1    C1 3339   0.209   3.344   9.427 -0.5657  0.1888  0.6238
  220MPD1    C2 3340   0.205   3.359   9.564 -0.5263  0.2672 -0.2096
  220MPD1    C3 3341   0.310   3.419   9.639 -0.6014 -0.4398  0.3153
  220MPD1    C4 3342   0.427   3.468   9.582  0.1131 -0.1855 -0.7455
  220MPD1    C5 3343   0.438   3.431   9.449 -0.1947 -0.1826 -0.0790
  220MPD1     H 3344   0.112   3.335   9.614  0.7595 -1.5755  1.2495
  220MPD1    H1 3345   0.509   3.516   9.633 -1.4900  1.4890  0.2537
  220MPD1    H2 3346   0.356   3.361   9.272  2.3959 -0.8676  0.6606
  220MPD1    H3 3347   0.531   3.454   9.397 -0.5298 -1.3915 -1.2083
  220MPD1     N 3348   0.295   3.408   9.783 -0.0376 -0.2406  0.2716
  220MPD1    H5 3349   0.215   3.349   9.803  0.2956 -1.5543 -2.2610
  220MPD1    N1 3350   0.104   3.287   9.352  0.5235  0.2668 -0.3291
  220MPD1    H6 3351   0.122   3.300   9.253 -3.8336 -2.0180 -1.4406
  220MPD1    H7 3352   0.011   3.309   9.388  0.0601  0.0110 -1.3645
  221MPD1     C 3353   3.056   2.292  15.508  0.1819 -0.4749 -0.4903
  221MPD1    C1 3354   2.930   2.260  15.559  0.0898 -0.0285 -0.6776
  221MPD1    C2 3355   2.893   2.131  15.554 -0.6394  0.6563 -0.0532
  221MPD1    C3 3356   2.979   2.039  15.493  0.2112 -0.7258 -0.3653
  221MPD1    C4 3357   3.107   2.069  15.453 -0.2310 -0.0464 -0.2684
  221MPD1    C5 3358   3.143   2.197  15.462  0.1842  0.2075  0.4970
  221MPD1     H 3359   2.795   2.097  15.586 -1.3748  0.6413 -2.3070
  221MPD1    H1 3360   3.168   1.995  15.402  0.3473  1.0724 -1.1855
  221MPD1    H2 3361   3.088   2.395  15.500 -0.6025 -0.2257 -0.3981
  221MPD1    H3 3362   3.239   2.231  15.424  0.3589  1.7891  2.3550
  221MPD1     N 3363   2.936   1.905  15.471  0.5964  0.4940  0.3839
  221MPD1    H5 3364   3.009   1.835  15.464 -2.8151 -2.9796 -0.8328
  221MPD1    N1 3365   2.840   2.360  15.577  0.0810  0.3306 -0.6546
  221MPD1    H6 3366   2.764   2.340  15.642  0.0072 -1.2182 -1.2259
  221MPD1    H7 3367   2.872   2.452  15.605  2.0239  0.0976 -2.0526
  222MPD1     C 3368   1.834   1.101  16.196  0.3165 -0.8359  1.0700
  222MPD1    C1 3369   1.943   1.184  16.231  0.1733  0.5925 -0.1120
  222MPD1    C2 3370   1.980   1.178  16.364 -0.1994 -0.5249 -0.7046
  222MPD1    C3 3371   1.932   1.080  16.451  1.0754 -0.0337  0.1395
  222MPD1    C4 3372   1.858   0.981  16.397  0.1609  0.1464  0.1911
  222MPD1    C5 3373   1.804   0.998  16.273  0.2970 -0.6691 -0.0868
  222MPD1     H 3374   2.047   1.255  16.399 -2.4364  1.7664 -1.5106
  222MPD1    H1 3375   1.818   0.902  16.459 -0.6140  0.3918  0.0060
  222MPD1    H2 3376   1.805   1.094  16.092 -0.4618  0.3014  1.2040
  222MPD1    H3 3377   1.740   0.927  16.223  0.6302 -0.4089 -0.8812
  222MPD1     N 3378   1.966   1.064  16.591 -0.0911 -0.3638 -0.0218
  222MPD1    H5 3379   1.925   0.985  16.641  3.2660 -0.3662  2.7961
  222MPD1    N1 3380   1.978   1.295  16.150  0.0417  0.1708  0.0908
  222MPD1    H6 3381   2.076   1.322  16.160 -0.6515  2.8676 -0.4924
  222MPD1    H7 3382   1.962   1.280  16.051 -0.3195 -0.0520  0.1822
  223MPD1     C 3383   2.072   0.392  17.275 -0.3773  0.2494  0.0140
  223MPD1    C1 3384   2.148   0.490  17.332 -0.1508  0.4083  0.0790
  223MPD1    C2 3385   2.160   0.606  17.259 -0.1010 -0.5459 -0.6656
  223MPD1    C3 3386   2.082   0.647  17.153  0.0975  0.1640 -0.5145
  223MPD1    C4 3387   1.995   0.553  17.109 -0.1216  0.7368 -0.7956
  223MPD1    C5 3388   1.996   0.428  17.165 -0.6487  0.8587 -0.0307
  223MPD1     H 3389   2.235   0.677  17.292  0.2628 -1.8079  1.2740
  223MPD1    H1 3390   1.924   0.578  17.032 -2.0584  0.8632  1.0424
  223MPD1    H2 3391   2.046   0.296  17.318 -2.3684  0.0548 -1.6026
  223MPD1    H3 3392   1.928   0.356  17.122 -0.2867 -0.3271  1.3731
  223MPD1     N 3393   2.086   0.782  17.110 -0.2982  0.4932 -0.1052
  223MPD1    H5 3394   2.141   0.848  17.164  1.3219 -0.4942 -0.5606
  223MPD1    N1 3395   2.235   0.466  17.439 -0.3825 -0.4277 -0.0467
  223MPD1    H6 3396   2.239   0.556  17.486  0.3573  0.0479 -1.0210
  223MPD1    H7 3397   2.212   0.388  17.500  1.2684 -2.1324 -1.6093
  224MPD1     C 3398   2.737   3.011   9.137  0.9171  0.4375 -0.7216
  224MPD1    C1 3399   2.863   2.985   9.082 -0.3977  0.4391  0.1029
  224MPD1    C2 3400   2.944   2.899   9.157  0.6540 -0.2998  0.2704
  224MPD1    C3 3401   2.919   2.865   9.286  0.2435 -0.5441  0.7471
  224MPD1    C4 3402   2.797   2.896   9.341  0.4839 -0.1285 -0.4027
  224MPD1    C5 3403   2.715   2.971   9.267  0.0431  0.3691 -0.1315
  224MPD1     H 3404   3.036   2.866   9.109  0.1969  0.1518 -0.9181
  224MPD1    H1 3405   2.766   2.872   9.442 -0.5196  1.1390 -0.3958
  224MPD1    H2 3406   2.656   3.064   9.089  0.8161  0.8448 -0.1029
  224MPD1    H3 3407   2.621   3.005   9.309  0.6359  0.7109  0.9144
  224MPD1     N 3408   3.006   2.792   9.375  0.5028 -0.0261 -0.0356
  224MPD1    H5 3409   2.967   2.765   9.464 -3.1296  0.9768 -1.3198
  224MPD1    N1 3410   2.895   3.021   8.947 -0.0627 -0.3964  0.9129
  224MPD1    H6 3411   2.994   3.041   8.931 -0.1246 -0.1020  0.8951
  224MPD1    H7 3412   2.845   3.102   8.911 -0.3562 -1.5518 -1.2404
  225MPD1     C 3413   0.473   3.173  12.381  0.0251  0.3690 -0.4650
  225MPD1    C1 3414   0.456   3.290  12.314 -0.7400 -0.3769 -0.7103
  225MPD1    C2 3415   0.332   3.327  12.260 -0.3413  0.2231  0.6168
  225MPD1    C3 3416   0.233   3.235  12.264 -0.1419 -0.1315 -0.6591
  225MPD1    C4 3417   0.259   3.107  12.316 -1.4734  0.6988  0.0088
  225MPD1    C5 3418   0.378   3.082  12.382 -0.7609 -0.7494 -0.2274
  225MPD1     H 3419   0.326   3.428  12.221 -1.5020 -0.3568 -0.6977
  225MPD1    H1 3420   0.186   3.028  12.334 -3.0929  2.8377  2.8175
  225MPD1    H2 3421   0.563   3.153  12.437  0.3218  0.5068 -0.8986
  225MPD1    H3 3422   0.379   2.993  12.444 -0.7793  0.2055  1.1566
  225MPD1     N 3423   0.105   3.257  12.219 -0.0496  0.1626 -0.1174
  225MPD1    H5 3424   0.037   3.182  12.232  0.4026 -0.6501 -2.4397
  225MPD1    N1 3425   0.550   3.390  12.322 -0.0359 -0.6895  0.3036
  225MPD1    H6 3426   0.546   3.458  12.246  0.5292 -1.2466 -0.2249
  225MPD1    H7 3427   0.646   3.357  12.329  0.9122  1.4475 -2.7443
  226MPD1     C 3428   3.003   4.068   9.429  0.4204  0.6788 -0.7885
  226MPD1    C1 3429   2.950   3.944   9.412 -0.3073 -0.1681  0.0994
  226MPD1    C2 3430   3.039   3.841   9.385  0.1536  0.4354  0.0378
  226MPD1    C3 3431   3.174   3.855   9.398 -0.3103 -0.5483 -0.0949
  226MPD1    C4 3432   3.223   3.987   9.414 -0.3624  0.3030  0.0080
  226MPD1    C5 3433   3.133   4.087   9.424 -0.5767  0.0317 -0.0678
  226MPD1     H 3434   3.007   3.738   9.371  2.6064 -0.5587  1.8166
  226MPD1    H1 3435   3.329   4.010   9.412 -0.2649 -0.0997  0.4170
  226MPD1    H2 3436   2.940   4.154   9.446 -0.4522 -0.1819  0.3534
  226MPD1    H3 3437   3.166   4.187   9.446 -0.9816 -0.3705  2.3986
  226MPD1     N 3438   3.264   3.749   9.371  0.3289  0.0296 -0.0936
  226MPD1    H5 3439   3.224   3.661   9.340  1.9424  0.1457 -2.5079
  226MPD1    N1 3440   2.807   3.920   9.402  0.5333 -0.2482 -0.2465
  226MPD1    H6 3441   2.776   3.825   9.421 -1.7889  0.4456 -0.5934
  226MPD1    H7 3442   2.753   3.977   9.467 -0.0881 -0.6439 -0.4119
  227MPD1     C 3443   4.134   3.257   8.966  0.1871  0.0929  0.8340
  227MPD1    C1 3444   4.088   3.177   9.067  0.1073  0.0596  0.2762
  227MPD1    C2 3445   3.985   3.224   9.140  0.2002 -0.9538  1.4727
  227MPD1    C3 3446   3.924   3.344   9.110 -0.4477  1.7936  0.4860
  227MPD1    C4 3447   3.965   3.420   9.003 -0.0383  0.8259  0.8718
  227MPD1    C5 3448   4.070   3.374   8.931 -0.0343 -0.1853  0.3041
  227MPD1     H 3449   3.963   3.167   9.230 -3.7907  1.7190  2.2002
  227MPD1    H1 3450   3.925   3.516   8.975  1.0760  0.6168 -1.4278
  227MPD1    H2 3451   4.218   3.226   8.905 -0.3435  0.5435 -0.1349
  227MPD1    H3 3452   4.119   3.426   8.850  0.0165  0.3039  0.6515
  227MPD1     N 3453   3.822   3.390   9.192  0.2825  0.4181 -0.3941
  227MPD1    H5 3454   3.798   3.326   9.266  0.5040  0.2622 -0.4576
  227MPD1    N1 3455   4.164   3.071   9.109  0.6506 -0.5536  0.3360
  227MPD1    H6 3456   4.239   3.044   9.046  0.2639  0.9759 -0.7783
  227MPD1    H7 3457   4.104   2.995   9.139 -0.2927  0.0879  0.0680
  228MPD1     C 3458   1.750   1.291  12.829 -0.8350  0.0454 -0.2866
  228MPD1    C1 3459   1.667   1.238  12.921 -0.4106  0.3849  0.2546
  228MPD1    C2 3460   1.538   1.216  12.884 -0.0344  0.1024  0.4105
  228MPD1    C3 3461   1.479   1.251  12.765  0.6762  0.6473 -0.5574
  228MPD1    C4 3462   1.565   1.309  12.679 -0.1530 -0.5964  0.2839
  228MPD1    C5 3463   1.698   1.317  12.705 -0.5466  0.6363 -1.4464
  228MPD1     H 3464   1.477   1.168  12.960 -2.2853  3.2325  0.5935
  228MPD1    H1 3465   1.536   1.353  12.584 -0.7123 -1.8693 -0.1422
  228MPD1    H2 3466   1.858   1.297  12.837 -0.8524  3.7227 -2.7401
  228MPD1    H3 3467   1.759   1.354  12.624 -0.0057 -0.0941 -1.3776
  228MPD1     N 3468   1.342   1.233  12.729  0.3222  0.2600 -0.4750
  228MPD1    H5 3469   1.286   1.203  12.808 -0.0451  1.5639 -0.2515
  228MPD1    N1 3470   1.720   1.175  13.032 -0.2100  0.0589 -0.3529
  228MPD1    H6 3471   1.657   1.167  13.112  1.0693  1.6571  0.8098
  228MPD1    H7 3472   1.809   1.211  13.064  0.5475 -0.1661 -2.1816
  229MPD1     C 3473   1.496   0.198  13.722  0.6934  0.0982  0.4936
  229MPD1    C1 3474   1.600   0.116  13.747  0.3236  0.1217 -0.3609
  229MPD1    C2 3475   1.596   0.009  13.841  0.4094  0.7629  0.2375
  229MPD1    C3 3476   1.488   0.003  13.928 -0.0270 -0.1482  0.1996
  229MPD1    C4 3477   1.393   0.106  13.915  0.8088  0.7728  0.6510
  229MPD1    C5 3478   1.397   0.196  13.811  0.4256 -0.1038  0.1045
  229MPD1     H 3479   1.677   4.660  13.842 -1.5460 -1.4751 -0.1437
  229MPD1    H1 3480   1.332   0.122  14.003  0.2180 -2.4929  0.8482
  229MPD1    H2 3481   1.495   0.277  13.648  3.2221 -1.7706 -1.5284
  229MPD1    H3 3482   1.324   0.275  13.804  1.1665  0.6436  0.7029
  229MPD1     N 3483   1.476   4.629  14.040 -0.1779  0.0153 -0.2472
  229MPD1    H5 3484   1.392   4.641  14.096 -2.0719  0.0731 -3.0406
  229MPD1    N1 3485   1.708   0.120  13.651  0.1666  0.4074  0.2882
  229MPD1    H6 3486   1.801   0.105  13.692  0.5694 -2.6442 -1.7348
  229MPD1    H7 3487   1.714   0.212  13.608 -1.3835 -0.1652 -1.1464
  230MPD1     C 3488   0.963   4.281  14.812 -0.2624  1.1044 -0.0525
  230MPD1    C1 3489   1.052   4.179  14.805  1.0856  0.8602  0.2715
  230MPD1    C2 3490   1.160   4.199  14.715 -0.5837 -0.8275  0.3168
  230MPD1    C3 3491   1.167   4.311  14.629 -0.8350 -0.0048  0.0173
  230MPD1    C4 3492   1.068   4.409  14.637  0.3798 -0.1607  0.3059
  230MPD1    C5 3493   0.968   4.386  14.731  0.5928 -0.1465  0.6751
  230MPD1     H 3494   1.239   4.126  14.724 -0.1169 -0.4647 -0.9505
  230MPD1    H1 3495   1.053   4.490  14.567  0.8490 -1.9438 -1.8512
  230MPD1    H2 3496   0.886   4.271  14.888  1.0754 -1.5309  0.9800
  230MPD1    H3 3497   0.886   4.457  14.737 -0.3057 -1.1794  0.7040
  230MPD1     N 3498   1.283   4.322  14.551 -1.0945 -0.1097  0.0909
  230MPD1    H5 3499   1.331   4.232  14.559  0.4662  0.4776 -2.6797
  230MPD1    N1 3500   1.054   4.073  14.900 -0.0935  0.5341  0.1503
  230MPD1    H6 3501   0.957   4.052  14.919 -0.2466 -0.3961 -1.6504
  230MPD1    H7 3502   1.082   3.985  14.858  1.0754  0.6301  0.7152
  231MPD1     C 3503   3.210   1.354  15.366  1.5887 -0.1539 -0.7900
  231MPD1    C1 3504   3.256   1.285  15.253 -0.1176 -0.2145 -0.1097
  231MPD1    C2 3505   3.384   1.300  15.212  0.0177  0.6684 -0.2750
  231MPD1    C3 3506   3.459   1.402  15.271 -0.4571 -0.4513 -0.1812
  231MPD1    C4 3507   3.421   1.468  15.388 -0.1912 -0.4533  0.1119
  231MPD1    C5 3508   3.295   1.440  15.438  0.2823  0.0091 -0.1853
  231MPD1     H 3509   3.427   1.241  15.133 -0.0748  0.0186  0.1544
  231MPD1    H1 3510   3.491   1.529  15.444 -2.4351  1.8400  0.4012
  231MPD1    H2 3511   3.109   1.342  15.404  2.0605  1.7947  1.0796
  231MPD1    H3 3512   3.264   1.487  15.531  0.4855  0.7618 -0.4943
  231MPD1     N 3513   3.583   1.423  15.201 -0.1454 -0.6301 -0.5063
  231MPD1    H5 3514   3.587   1.375  15.112 -0.8798  0.0936 -0.9329
  231MPD1    N1 3515   3.178   1.184  15.195  0.0251 -0.3122 -0.2048
  231MPD1    H6 3516   3.197   1.178  15.095  1.6412 -0.6301  0.1105
  231MPD1    H7 3517   3.081   1.213  15.191  0.0119 -0.4156 -0.6275
  232MPD1     C 3518   1.960   0.058  17.104  0.8850 -0.7204 -0.7870
  232MPD1    C1 3519   1.845   4.704  17.098  0.0966 -1.2864 -0.8746
  232MPD1    C2 3520   1.809   4.636  17.210 -0.1754 -0.8414  0.0287
  232MPD1    C3 3521   1.888   4.637  17.320 -0.3671 -0.8370 -0.9168
  232MPD1    C4 3522   2.002   4.706  17.324 -0.1525  0.1422 -0.0666
  232MPD1    C5 3523   2.034   0.056  17.219  0.1325 -0.1691 -0.2758
  232MPD1     H 3524   1.712   4.588  17.214  1.5218 -4.0802  2.4695
  232MPD1    H1 3525   2.068   4.719  17.410  0.3253  2.4467 -0.7678
  232MPD1    H2 3526   1.986   0.116  17.016  0.4015 -1.0698 -1.1641
  232MPD1    H3 3527   2.131   0.105  17.221 -1.2351  2.5697 -1.2411
  232MPD1     N 3528   1.844   4.554  17.423  0.6480 -0.2974 -0.0772
  232MPD1    H5 3529   1.758   4.503  17.405  1.2253 -1.1399 -0.3915
  232MPD1    N1 3530   1.760   4.715  16.989  0.1780  0.2466 -0.6935
  232MPD1    H6 3531   1.716   4.625  16.969  0.9819 -0.1120 -0.8593
  232MPD1    H7 3532   1.803   0.020  16.901  1.2638  0.9557  0.0640
  233MPD1     C 3533   2.030   1.361   1.783  0.3004 -0.4129  0.3854
  233MPD1    C1 3534   2.087   1.236   1.764 -0.0919  0.2753  0.1091
  233MPD1    C2 3535   2.219   1.234   1.757  0.0312  0.3777  0.1091
  233MPD1    C3 3536   2.300   1.347   1.740  0.1235 -0.0759 -0.3313
  233MPD1    C4 3537   2.238   1.468   1.724  1.2550  0.3386  0.0280
  233MPD1    C5 3538   2.105   1.468   1.752 -0.4555  0.2226  0.1832
  233MPD1     H 3539   2.276   1.145   1.781 -0.3856  0.2464  0.6101
  233MPD1    H1 3540   2.282   1.564   1.702  0.0513  1.3053  1.8054
  233MPD1    H2 3541   1.928   1.377   1.816  0.1463 -2.0531  0.6868
  233MPD1    H3 3542   2.049   1.560   1.740  0.6226  0.6243 -1.8282
  233MPD1     N 3543   2.439   1.341   1.728  0.4911 -0.2751  0.2048
  233MPD1    H5 3544   2.475   1.436   1.718  2.0981 -0.9259 -0.3047
  233MPD1    N1 3545   2.022   1.125   1.799  0.4105  0.0727 -0.3187
  233MPD1    H6 3546   1.921   1.129   1.788  0.7261  2.6168 -2.1625
  233MPD1    H7 3547   2.058   1.039   1.758 -0.1066 -1.1417  1.7511
  234MPD1     C 3548   4.497   1.363   8.830  1.0967  0.3257 -1.1753
  234MPD1    C1 3549   4.368   1.327   8.803 -0.0170 -0.6294  0.6272
  234MPD1    C2 3550   4.270   1.418   8.838  0.4564  0.0655  0.2814
  234MPD1    C3 3551   4.295   1.546   8.895 -0.8491  0.0572  0.7764
  234MPD1    C4 3552   4.425   1.578   8.922  0.5159  0.7572  0.4402
  234MPD1    C5 3553   4.520   1.482   8.894 -0.5518  0.2278  0.5044
  234MPD1     H 3554   4.167   1.393   8.814  0.9948 -1.6328 -0.2495
  234MPD1    H1 3555   4.460   1.673   8.960 -0.5721  1.3968 -0.1808
  234MPD1    H2 3556   4.583   1.301   8.808  1.3983  1.3885 -2.9905
  234MPD1    H3 3557   4.625   1.502   8.912 -0.8020  0.0526  2.1343
  234MPD1     N 3558   4.184   1.621   8.936 -0.5041 -0.3388 -0.5762
  234MPD1    H5 3559   4.094   1.578   8.917 -0.8499 -0.4666  1.3324
  234MPD1    N1 3560   4.336   1.193   8.767 -0.4951  0.0877 -0.0288
  234MPD1    H6 3561   4.400   1.151   8.700 -0.4437 -0.4976  0.3863
  234MPD1    H7 3562   4.246   1.199   8.719  0.0766 -0.0763 -1.1087
  235MPD1     C 3563   0.108   4.100  10.157  0.1160  0.4722  0.2890
  235MPD1    C1 3564   0.234   4.145  10.164  0.2530  0.2199  0.0119
  235MPD1    C2 3565   0.322   4.144  10.053 -0.2183 -0.3143  0.3412
  235MPD1    C3 3566   0.273   4.109   9.927 -0.9575  0.7773  0.2132
  235MPD1    C4 3567   0.135   4.070   9.917 -0.6857  0.0486  0.3839
  235MPD1    C5 3568   0.055   4.076  10.027  1.2230  0.5271  0.5845
  235MPD1     H 3569   0.424   4.173  10.074 -0.6147  0.3504  1.3828
  235MPD1    H1 3570   0.081   4.031   9.831 -0.1689  2.3696 -0.9788
  235MPD1    H2 3571   0.042   4.090  10.242 -0.4631 -1.8870 -0.4335
  235MPD1    H3 3572   4.680   4.028  10.022  2.2296 -1.2536 -1.7049
  235MPD1     N 3573   0.368   4.107   9.820 -0.5719 -0.1119 -0.2146
  235MPD1    H5 3574   0.464   4.116   9.850  0.5113 -0.1950 -3.5913
  235MPD1    N1 3575   0.290   4.167  10.289 -0.7311  0.1599  0.1135
  235MPD1    H6 3576   0.213   4.206  10.344 -0.4905  1.6767 -0.6245
  235MPD1    H7 3577   0.369   4.231  10.291  1.8752 -3.0739 -0.7182
  236MPD1     C 3578   0.253   4.629   9.930  0.2940 -0.2768 -0.6844
  236MPD1    C1 3579   0.247   4.510  10.005  0.2400  0.0043 -0.5275
  236MPD1    C2 3580   0.325   4.496  10.119  0.9888 -0.0810  0.1738
  236MPD1    C3 3581   0.430   4.586  10.142 -0.3843  0.6294 -0.5502
  236MPD1    C4 3582   0.448   4.689  10.050  0.6110 -0.0153  0.2351
  236MPD1    C5 3583   0.354   4.715   9.955  0.3754 -0.1116 -0.2348
  236MPD1     H 3584   0.307   4.416  10.189  0.4222  1.2331  1.5357
  236MPD1    H1 3585   0.524   0.042  10.062 -0.7733  1.7755 -2.2536
  236MPD1    H2 3586   0.179   4.663   9.858  0.3164  1.0475 -0.0802
  236MPD1    H3 3587   0.364   0.081   9.893 -1.1486 -1.3183 -2.2004
  236MPD1     N 3588   0.530   4.566  10.246  0.4250 -0.9370  0.3547
  236MPD1    H5 3589   0.610   4.628  10.248  2.1076 -3.0995 -0.5904
  236MPD1    N1 3590   0.127   4.435   9.991 -0.0226 -0.3024 -0.3602
  236MPD1    H6 3591   0.146   4.344  10.032  1.9529 -0.7119 -2.1703
  236MPD1    H7 3592   0.094   4.426   9.895  1.1920  0.5385 -0.8444
  237MPD1     C 3593   4.528   3.283  15.266  0.5376  0.2799 -0.2164
  237MPD1    C1 3594   4.495   3.167  15.326  0.3599  0.0322  0.3565
  237MPD1    C2 3595   4.389   3.091  15.272 -0.2206 -0.0990 -0.2376
  237MPD1    C3 3596   4.307   3.144  15.179 -0.1832 -0.6945  0.1053
  237MPD1    C4 3597   4.333   3.274  15.139 -0.2972 -0.3320 -0.2945
  237MPD1    C5 3598   4.451   3.332  15.168 -0.0789 -0.4812 -0.0548
  237MPD1     H 3599   4.374   2.990  15.308 -2.6508  0.4682  0.3253
  237MPD1    H1 3600   4.267   3.326  15.070 -1.0385 -0.8632  0.0104
  237MPD1    H2 3601   4.616   3.337  15.296 -0.4030  1.2320  0.8384
  237MPD1    H3 3602   4.478   3.423  15.115  3.1693  0.2130  2.8827
  237MPD1     N 3603   4.188   3.078  15.133  0.4653 -0.5565 -0.4677
  237MPD1    H5 3604   4.140   3.121  15.055  0.1794 -0.9333 -0.4995
  237MPD1    N1 3605   4.594   3.105  15.416 -0.0189  0.1368  0.8422
  237MPD1    H6 3606   4.557   3.042  15.487 -1.8119 -0.5254 -0.6654
  237MPD1    H7 3607   4.645   3.177  15.467 -0.7876  1.6246 -0.4759
  238MPD1     C 3608   0.837   2.482  15.505  0.7206  0.8048  0.0774
  238MPD1    C1 3609   0.848   2.500  15.373  0.0264  0.6625  0.4011
  238MPD1    C2 3610   0.831   2.387  15.296  0.4830 -0.0220  0.7148
  238MPD1    C3 3611   0.761   2.275  15.346  0.2962 -0.3050  0.6746
  238MPD1    C4 3612   0.754   2.259  15.483 -0.2651  0.0868 -0.6243
  238MPD1    C5 3613   0.799   2.366  15.560 -0.7582 -0.4649 -0.1665
  238MPD1     H 3614   0.861   2.390  15.192 -1.5719 -1.5414  0.0820
  238MPD1    H1 3615   0.709   2.173  15.532  0.8931 -0.4443 -0.4831
  238MPD1    H2 3616   0.862   2.568  15.566 -1.7816  1.2136  0.5247
  238MPD1    H3 3617   0.791   2.353  15.667  0.5369 -0.5074 -0.0730
  238MPD1     N 3618   0.715   2.162  15.268  0.6001 -0.0167  0.0875
  238MPD1    H5 3619   0.696   2.080  15.325  0.1557 -1.0457 -1.5264
  238MPD1    N1 3620   0.891   2.626  15.322  0.8649 -0.7502  0.0296
  238MPD1    H6 3621   0.876   2.703  15.387 -0.9282 -0.3659 -0.8324
  238MPD1    H7 3622   0.854   2.645  15.229  0.8717 -1.8160 -0.1882
  239MPD1     C 3623   1.181   2.370  14.576  0.7227 -0.4260  0.7161
  239MPD1    C1 3624   1.294   2.447  14.572 -1.4041 -0.1949  0.0080
  239MPD1    C2 3625   1.322   2.523  14.459  0.0635 -1.1390  0.2046
  239MPD1    C3 3626   1.220   2.540  14.363  0.1900  0.0934  0.3995
  239MPD1    C4 3627   1.091   2.482  14.381  0.8074  0.1449  0.1911
  239MPD1    C5 3628   1.083   2.392  14.484 -0.8502  0.0171 -0.5804
  239MPD1     H 3629   1.418   2.572  14.449  0.5179 -1.7292  1.5680
  239MPD1    H1 3630   1.013   2.501  14.309  1.1778 -0.5988 -0.3975
  239MPD1    H2 3631   1.166   2.298  14.656  0.0472 -2.8668 -1.6447
  239MPD1    H3 3632   0.995   2.332  14.504  0.4101 -1.0395  1.6696
  239MPD1     N 3633   1.226   2.624  14.250 -0.1330 -0.6384  0.0128
  239MPD1    H5 3634   1.139   2.630  14.198  0.6217  0.8546 -1.1061
  239MPD1    N1 3635   1.397   2.403  14.654  0.1449 -0.5319  0.6469
  239MPD1    H6 3636   1.456   2.485  14.663 -1.3154  0.4925  0.9555
  239MPD1    H7 3637   1.354   2.382  14.744 -2.0892 -0.0814 -0.2941
  240MPD1     C 3638   0.985   1.913  13.680 -0.4406  0.4667  0.4578
  240MPD1    C1 3639   0.855   1.898  13.658 -0.3846 -0.1019  0.0555
  240MPD1    C2 3640   0.768   1.912  13.765  0.2397 -0.1958 -0.2776
  240MPD1    C3 3641   0.815   1.942  13.890 -0.0629 -0.2198  0.7336
  240MPD1    C4 3642   0.951   1.945  13.915 -0.0362 -0.4440  0.4781
  240MPD1    C5 3643   1.035   1.923  13.806  0.5138 -0.6194 -0.7364
  240MPD1     H 3644   0.663   1.885  13.758 -0.0608  1.7743 -3.1566
  240MPD1    H1 3645   1.007   1.971  14.004 -1.5117 -1.0681  1.5746
  240MPD1    H2 3646   1.050   1.905  13.593  0.9037  3.1572  1.1957
  240MPD1    H3 3647   1.141   1.932  13.828  0.0474  2.0962  0.4743
  240MPD1     N 3648   0.711   1.960  13.989 -0.0552 -0.2364 -0.3062
  240MPD1    H5 3649   0.615   1.936  13.965  0.3475 -1.3252 -0.7990
  240MPD1    N1 3650   0.803   1.889  13.529 -0.1958 -0.0854  0.2541
  240MPD1    H6 3651   0.723   1.827  13.528 -2.4378  2.8280 -0.2042
  240MPD1    H7 3652   0.866   1.842  13.464 -0.3034  1.7039 -1.1571
  241MPD1     C 3653   0.887   2.599  14.725  0.2999 -0.4033 -0.0691
  241MPD1    C1 3654   0.833   2.494  14.798  0.8591 -0.3135  0.5589
  241MPD1    C2 3655   0.772   2.395  14.719  0.5298  0.6123 -0.4446
  241MPD1    C3 3656   0.744   2.406  14.582  0.2175 -0.1851 -0.4890
  241MPD1    C4 3657   0.795   2.524  14.519 -0.0895 -0.2297 -0.1730
  241MPD1    C5 3658   0.874   2.603  14.593 -0.5065  0.5809  0.4416
  241MPD1     H 3659   0.747   2.305  14.773 -1.0577  1.3250 -0.0094
  241MPD1    H1 3660   0.798   2.537  14.412  0.0362  0.1919 -0.1156
  241MPD1    H2 3661   0.950   2.676  14.770  1.6826 -2.4045  1.4501
  241MPD1    H3 3662   0.923   2.681  14.535 -1.5275  0.9894  0.1261
  241MPD1     N 3663   0.692   2.307  14.500 -0.1738  0.2007 -0.3713
  241MPD1    H5 3664   0.691   2.317  14.399 -0.7496  0.6820 -0.3193
  241MPD1    N1 3665   0.875   2.470  14.928  0.7790 -0.2570 -0.8317
  241MPD1    H6 3666   0.875   2.563  14.969 -0.1853 -0.7907  0.3630
  241MPD1    H7 3667   0.811   2.404  14.971  0.8570 -0.3136 -0.8021
  242MPD1     C 3668   0.592   0.646  15.916 -0.0934  0.2212 -0.5200
  242MPD1    C1 3669   0.492   0.698  15.833 -0.1542 -0.3202  0.2496
  242MPD1    C2 3670   0.504   0.674  15.694 -0.7238 -0.2068 -0.5393
  242MPD1    C3 3671   0.612   0.603  15.639 -0.7540  0.2703  0.4131
  242MPD1    C4 3672   0.707   0.549  15.723  0.4792  0.8589 -0.0605
  242MPD1    C5 3673   0.704   0.579  15.860 -0.5990 -0.4804 -0.4736
  242MPD1     H 3674   0.446   0.730  15.622 -1.5590 -1.5292 -0.9048
  242MPD1    H1 3675   0.801   0.512  15.682 -0.5716 -3.7466  1.7785
  242MPD1    H2 3676   0.583   0.657  16.024  1.6260 -1.9672 -0.1657
  242MPD1    H3 3677   0.791   0.565  15.924 -0.7648  0.7255  0.0102
  242MPD1     N 3678   0.628   0.581  15.498  0.3018  0.5430 -0.2480
  242MPD1    H5 3679   0.705   0.519  15.478 -1.2539 -2.0175  1.7569
  242MPD1    N1 3680   0.405   0.796  15.881 -0.0148 -0.0970  0.1254
  242MPD1    H6 3681   0.314   0.805  15.837 -0.0678 -1.9642 -0.1828
  242MPD1    H7 3682   0.396   0.785  15.982 -1.1338 -1.7440 -0.1413
  243MPD1     C 3683   1.958   3.304   0.126 -0.0795  0.5182  0.8910
  243MPD1    C1 3684   2.015   3.423   0.165 -0.2761  0.4409  0.0879
  243MPD1    C2 3685   2.035   3.527   0.074 -0.6985  0.6383 -0.1262
  243MPD1    C3 3686   1.989   3.507  17.635  0.3600 -0.3094  0.7175
  243MPD1    C4 3687   1.931   3.386  17.593 -0.8101  0.4915 -0.1771
  243MPD1    C5 3688   1.918   3.288  17.689 -0.6089  0.6584  0.3244
  243MPD1     H 3689   2.088   3.619   0.096  2.9243 -0.6147 -3.6240
  243MPD1    H1 3690   1.897   3.358  17.494  4.1243 -1.4072 -1.3088
  243MPD1    H2 3691   1.930   3.223   0.191 -2.3846  2.3201  2.1459
  243MPD1    H3 3692   1.869   3.197  17.657  2.4010 -0.4967 -0.9967
  243MPD1     N 3693   1.997   3.617  17.549  0.1203  0.0325  0.1296
  243MPD1    H5 3694   2.056   3.693  17.581  0.4522 -1.1948  2.4240
  243MPD1    N1 3695   2.046   3.441   0.298  0.0286  0.3943 -0.2789
  243MPD1    H6 3696   2.047   3.352   0.348  1.0430  0.4214 -0.2533
  243MPD1    H7 3697   2.129   3.499   0.309  0.7854 -0.6007 -0.6540
  244MPD1     C 3698   2.331   4.336   0.124  0.0984 -0.4167  0.8638
  244MPD1    C1 3699   2.250   4.390   0.029  0.2671  0.1779  0.0334
  244MPD1    C2 3700   2.198   4.307  17.625  0.6038 -0.0532  0.3816
  244MPD1    C3 3701   2.199   4.168  17.645  0.0321  0.3358 -0.1454
  244MPD1    C4 3702   2.280   4.120   0.054  0.3835  0.1880  0.0764
  244MPD1    C5 3703   2.346   4.202   0.136 -0.3390  0.4915 -0.4389
  244MPD1     H 3704   2.153   4.348  17.535  1.3466  0.6866  0.3543
  244MPD1    H1 3705   2.283   4.015   0.084 -0.3133  0.4305  1.0119
  244MPD1    H2 3706   2.390   4.392   0.195  0.0447  0.0181  0.5676
  244MPD1    H3 3707   2.412   4.157   0.209 -1.9347 -0.8198  0.2074
  244MPD1     N 3708   2.136   4.074  17.566  0.4010 -0.8781  0.0645
  244MPD1    H5 3709   2.157   3.978  17.591 -0.0526 -0.7792  0.8387
  244MPD1    N1 3710   2.249   4.532   0.015  0.2809 -0.1045 -0.2609
  244MPD1    H6 3711   2.164   4.551  17.655 -0.1272 -0.8444  0.1234
  244MPD1    H7 3712   2.230   4.589   0.097 -1.2844  1.1634 -1.4943
  245MPD1     C 3713   4.275   0.309  12.695 -0.6346 -0.0514 -0.0402
  245MPD1    C1 3714   4.191   0.405  12.761 -0.1720 -0.6922  0.8667
  245MPD1    C2 3715   4.209   0.447  12.894  0.3730  0.5209  0.3420
  245MPD1    C3 3716   4.318   0.398  12.964 -0.6251 -0.4331  0.2699
  245MPD1    C4 3717   4.391   0.297  12.900 -0.2437 -1.0010 -0.4578
  245MPD1    C5 3718   4.377   0.254  12.768 -0.4640 -0.1742 -0.1491
  245MPD1     H 3719   4.139   0.510  12.948  2.7200  1.9535  1.7432
  245MPD1    H1 3720   4.467   0.242  12.954 -0.5087  0.7290  1.6868
  245MPD1    H2 3721   4.252   0.270  12.597  2.5796 -0.5763 -0.6012
  245MPD1    H3 3722   4.458   0.197  12.724 -0.4907 -1.3603  1.3347
  245MPD1     N 3723   4.328   0.428  13.104 -0.2556 -0.1037 -0.3587
  245MPD1    H5 3724   4.271   0.505  13.139 -0.6778  0.2807 -1.9124
  245MPD1    N1 3725   4.059   0.425  12.710  0.1173 -0.4770  0.0898
  245MPD1    H6 3726   4.063   0.413  12.609  1.6029 -0.6437  0.1749
  245MPD1    H7 3727   4.024   0.514  12.744 -1.7920 -1.8966  1.8811
  246MPD1     C 3728   4.056   1.548   9.347 -0.4203  0.2238  0.3056
  246MPD1    C1 3729   4.082   1.440   9.266  0.2481  0.5732 -0.6816
  246MPD1    C2 3730   4.220   1.423   9.245 -0.4522 -0.3861 -0.9197
  246MPD1    C3 3731   4.320   1.497   9.303 -0.8164  0.5752 -0.2460
  246MPD1    C4 3732   4.282   1.581   9.405 -0.0989 -0.1782 -0.3305
  246MPD1    C5 3733   4.153   1.600   9.432  1.1014  0.2970  0.0477
  246MPD1     H 3734   4.247   1.364   9.158 -1.2196 -0.4646 -1.1058
  246MPD1    H1 3735   4.352   1.653   9.446 -0.2904  1.1008 -2.2357
  246MPD1    H2 3736   3.960   1.599   9.353 -0.5667  0.6625 -5.5777
  246MPD1    H3 3737   4.130   1.692   9.485 -1.7067 -0.4377  0.1534
  246MPD1     N 3738   4.452   1.482   9.256 -0.6536  0.5204  0.0691
  246MPD1    H5 3739   4.467   1.416   9.181 -1.6019  2.0864 -1.5148
  246MPD1    N1 3740   3.979   1.392   9.190  0.4104 -0.2609  0.7570
  246MPD1    H6 3741   3.993   1.295   9.164  1.7585 -0.3396  1.7568
  246MPD1    H7 3742   3.888   1.406   9.234 -0.4948  0.5158 -1.3282
  247MPD1     C 3743   3.491   4.061  16.535  0.1334 -0.1707  0.0161
  247MPD1    C1 3744   3.456   4.191  16.521 -0.0307 -0.1259 -0.7545
  247MPD1    C2 3745   3.406   4.230  16.395 -0.0859 -0.1004 -0.1199
  247MPD1    C3 3746   3.404   4.135  16.293  0.0706 -0.2188 -0.7126
  247MPD1    C4 3747   3.442   4.001  16.314  0.1894  0.3692  0.1610
  247MPD1    C5 3748   3.496   3.966  16.433 -0.4378 -0.0836 -0.1381
  247MPD1     H 3749   3.359   4.327  16.388 -1.1879 -0.7917 -2.2188
  247MPD1    H1 3750   3.443   3.925  16.237 -0.4771  0.8096 -0.2827
  247MPD1    H2 3751   3.537   4.033  16.628  0.7563  0.3126 -0.1514
  247MPD1    H3 3752   3.532   3.864  16.442 -1.2577 -0.5011 -1.4399
  247MPD1     N 3753   3.370   4.163  16.160  0.6505  0.5213 -0.0467
  247MPD1    H5 3754   3.359   4.081  16.101  3.3368 -0.5786  0.9560
  247MPD1    N1 3755   3.458   4.275  16.634  0.7325 -0.3480 -0.4362
  247MPD1    H6 3756   3.535   4.232  16.685 -0.4591 -1.6743  0.2020
  247MPD1    H7 3757   3.465   4.375  16.613  0.4579 -0.2937 -0.2564
  248MPD1     C 3758   0.404   4.035  17.416  0.3634 -0.1118  0.0010
  248MPD1    C1 3759   0.445   4.002  17.548 -0.3548 -0.6215  0.3229
  248MPD1    C2 3760   0.365   4.052  17.649 -0.7205 -0.3345 -0.9408
  248MPD1    C3 3761   0.253   4.128  17.627  0.9580 -0.1594  0.3774
  248MPD1    C4 3762   0.231   4.172  17.497  1.2314  0.8053  0.0143
  248MPD1    C5 3763   0.303   4.117  17.393 -0.2866  0.4603  0.1891
  248MPD1     H 3764   0.376   4.025   0.061  1.5027  2.8415 -0.3410
  248MPD1    H1 3765   0.150   4.238  17.467 -0.2746 -1.3943 -0.7816
  248MPD1    H2 3766   0.449   3.972  17.340 -2.1030 -2.6272  0.6036
  248MPD1    H3 3767   0.270   4.143  17.293 -0.7146  1.2061  0.5247
  248MPD1     N 3768   0.154   4.131   0.036  0.5531  0.0321 -0.3762
  248MPD1    H5 3769   0.179   4.104   0.131 -0.1941 -2.0899 -0.7807
  248MPD1    N1 3770   0.520   3.887  17.562 -0.3954 -0.4609 -0.1467
  248MPD1    H6 3771   0.572   3.892  17.649 -0.1760  1.6485 -0.3989
  248MPD1    H7 3772   0.593   3.875  17.492  0.1156 -0.5262  0.4009
  249MPD1     C 3773   0.732   2.548  10.558 -0.6318 -0.3833  0.1788
  249MPD1    C1 3774   0.642   2.515  10.461 -0.0911 -1.0173 -0.2337
  249MPD1    C2 3775   0.663   2.577  10.333  0.0959  0.1792  0.7912
  249MPD1    C3 3776   0.778   2.655  10.318  0.6843  0.1333 -0.2611
  249MPD1    C4 3777   0.873   2.662  10.420 -0.2926  0.4067 -0.3387
  249MPD1    C5 3778   0.849   2.607  10.541  0.0016 -0.7755  0.4835
  249MPD1     H 3779   0.597   2.561  10.248 -0.6905  0.9399  1.2593
  249MPD1    H1 3780   0.960   2.725  10.401  1.2383 -1.3256  0.9240
  249MPD1    H2 3781   0.719   2.517  10.661  0.4426  1.2140  0.8051
  249MPD1    H3 3782   0.928   2.621  10.615  1.2427 -0.9430 -0.8069
  249MPD1     N 3783   0.779   2.739  10.201 -0.1399 -0.2999 -0.5979
  249MPD1    H5 3784   0.701   2.736  10.136 -0.9113  1.3145  0.2419
  249MPD1    N1 3785   0.524   2.440  10.489 -0.2130 -0.3129  0.2871
  249MPD1    H6 3786   0.539   2.368  10.560  0.5777  0.5383  0.9866
  249MPD1    H7 3787   0.468   2.399  10.415 -0.5363  1.4366 -0.4348
  250MPD2     C 3788   2.253   3.019  13.139 -0.3533 -0.2020  0.3859
  250MPD2    C1 3789   2.316   3.044  13.017  0.0535  0.0498 -0.1608
  250MPD2    C2 3790   2.301   2.946  12.919  0.5326 -1.0937 -0.4022
  250MPD2    C3 3791   2.226   2.838  12.936  0.1359 -0.2046 -0.8524
  250MPD2    C4 3792   2.158   2.814  13.053 -0.0044 -0.6246  0.1315
  250MPD2    C5 3793   2.172   2.910  13.159  0.4840 -0.5069  0.3255
  250MPD2     H 3794   2.346   2.960  12.821  1.7702  1.9310  0.5707
  250MPD2    H1 3795   2.096   2.727  13.071 -0.7854  0.1651  1.3332
  250MPD2    H2 3796   2.247   3.094  13.217  1.2588 -0.8796  1.1676
  250MPD2    H3 3797   2.113   2.905  13.249  0.2139  1.2473  0.2481
  250MPD2     N 3798   2.207   2.742  12.837  0.3049  0.0863 -0.2910
  250MPD2    H5 3799   2.137   2.670  12.852  2.3259 -1.5466  1.3248
  250MPD2    N1 3800   2.396   3.161  13.004  0.0335 -0.2651 -0.0943
  250MPD2    H7 3801   2.392   3.224  13.084  2.1266 -1.5631  1.0510
  251TMC3    C1 3802   2.598   3.279  12.962 -0.0862 -0.0782  0.2316
  251TMC3    C2 3803   2.544   3.388  13.026  0.0391  0.0550  0.7969
  251TMC3    C3 3804   2.631   3.491  13.047 -0.2008 -0.2365 -0.0007
  251TMC3    C4 3805   2.723   3.270  12.920 -0.8726  0.1196  0.0031
  251TMC3    C5 3806   2.812   3.371  12.951 -0.0641 -0.3130 -0.5351
  251TMC3    C6 3807   2.768   3.480  13.020 -0.3907  0.1016  0.2038
  251TMC3     C 3808   2.511   3.164  12.924  0.3781 -0.0280  0.2982
  251TMC3     O 3809   2.544   3.100  12.827 -0.4212 -0.3007 -0.0348
  251TMC3     H 3810   2.438   3.401  13.042 -0.3579  0.6352 -2.2421
  251TMC3    H1 3811   2.754   3.200  12.843  3.1188  0.8448  0.9491
  251TMC3    H2 3812   2.829   3.570  13.022  1.5194 -1.2045  2.3650
  251TMC3    C7 3813   2.952   3.332  12.956  0.0300  0.4988  0.4984
  251TMC3    C8 3814   2.575   3.607  13.113 -0.5114 -0.0047  0.7319
  251TMC3    O1 3815   2.959   3.212  12.935 -0.3177  0.4219 -0.3103
  251TMC3    O2 3816   2.456   3.607  13.133  0.4006  0.2652  1.1197
  252TMC3    C1 3817   3.815   3.676   9.625  0.4662 -0.6076 -0.3761
  252TMC3    C2 3818   3.942   3.729   9.637  0.9112  0.1357 -0.1727
  252TMC3    C3 3819   3.955   3.858   9.664  0.1125  0.7023 -0.5843
  252TMC3    C4 3820   3.705   3.755   9.636 -0.5991 -0.1825  0.5083
  252TMC3    C5 3821   3.723   3.887   9.651 -0.3480  0.1323 -0.1913
  252TMC3    C6 3822   3.849   3.945   9.661 -0.2368  0.4488 -0.3263
  252TMC3     C 3823   3.802   3.537   9.626 -0.1462  0.5673  0.0040
  252TMC3     O 3824   3.699   3.498   9.685  0.2894  0.8865 -0.1289
  252TMC3     H 3825   4.036   3.679   9.655  0.3440 -1.4450 -1.6645
  252TMC3    H1 3826   3.609   3.706   9.633 -1.1172  1.0035 -2.1511
  252TMC3    H2 3827   3.861   4.053   9.658  1.1785  0.3037  0.4550
  252TMC3    C7 3828   3.606   3.971   9.667 -0.2277  0.1030 -0.3270
  252TMC3    C8 3829   4.088   3.903   9.681 -0.0360  0.5665 -0.0488
  252TMC3    O1 3830   3.629   4.090   9.684 -0.1340  0.1963  0.1201
  252TMC3    O2 3831   4.172   3.848   9.616 -0.1625  0.2515 -0.0532
  253MPD2     C 3832   3.609   3.186  15.973 -0.3650 -0.5610 -0.1935
  253MPD2    C1 3833   3.472   3.178  15.964  0.0525  0.2408 -0.1767
  253MPD2    C2 3834   3.399   3.208  16.078 -0.0419  0.1809 -0.3187
  253MPD2    C3 3835   3.459   3.248  16.198  0.4411  0.3508 -0.2657
  253MPD2    C4 3836   3.591   3.256  16.198 -0.3636  0.2081 -0.8759
  253MPD2    C5 3837   3.665   3.222  16.091  0.1664 -0.0737 -0.0718
  253MPD2     H 3838   3.293   3.199  16.061 -0.3682  2.1114  0.6984
  253MPD2    H1 3839   3.643   3.285  16.289  0.9356  0.6551 -1.7561
  253MPD2    H2 3840   3.673   3.174  15.887  0.4240  0.0029  0.3183
  253MPD2    H3 3841   3.773   3.230  16.095  0.1752 -0.5429  0.8202
  253MPD2     N 3842   3.393   3.289  16.312 -0.2618 -0.1214 -0.1094
  253MPD2    H5 3843   3.455   3.297  16.391  0.3039 -1.1114 -0.4636
  253MPD2    N1 3844   3.399   3.125  15.858 -0.0088  0.2769 -0.0958
  253MPD2    H7 3845   3.298   3.121  15.852  0.0643 -3.0714  0.8584
  254TMC3    C1 3846   3.215   3.362  16.451 -0.0941 -0.1626 -0.7032
  254TMC3    C2 3847   3.078   3.401  16.464 -0.3335 -0.3248  0.3160
  254TMC3    C3 3848   3.024   3.406  16.586 -0.0436 -0.6068  0.9497
  254TMC3    C4 3849   3.291   3.338  16.564  0.1788 -0.4096  0.0961
  254TMC3    C5 3850   3.229   3.344  16.690 -0.4967  0.0157 -0.8137
  254TMC3    C6 3851   3.099   3.378  16.699  0.2861 -1.0304 -0.6206
  254TMC3     C 3852   3.256   3.303  16.325 -0.1461 -0.1572 -0.8588
  254TMC3     O 3853   3.167   3.288  16.243 -0.5500 -0.7061 -0.2194
  254TMC3     H 3854   3.027   3.437  16.376 -1.7765  2.3561  2.2156
  254TMC3    H1 3855   3.399   3.338  16.554 -0.0284  0.7008 -1.9091
  254TMC3    H2 3856   3.063   3.400  16.799 -2.7099  0.8873 -2.1225
  254TMC3    C7 3857   3.311   3.314  16.806  0.1211 -0.5018 -0.5230
  254TMC3    C8 3858   2.887   3.459  16.614 -0.5600  0.4206 -0.8843
  254TMC3    O1 3859   3.421   3.268  16.785 -0.5427 -0.0444  0.1829
  254TMC3    O2 3860   2.863   3.455  16.732  0.5053 -0.2721  0.5098
  255MPD2     C 3861   2.609   0.191  10.469  0.6106 -0.4573  0.5128
  255MPD2    C1 3862   2.622   0.314  10.424 -0.7852  0.8289  0.2066
  255MPD2    C2 3863   2.747   0.358  10.385  0.6063  0.7106 -0.2631
  255MPD2    C3 3864   2.851   0.266  10.396 -0.0206 -0.2509  0.5119
  255MPD2    C4 3865   2.834   0.141  10.435  0.8298 -0.8144 -0.5692
  255MPD2    C5 3866   2.711   0.107  10.473 -0.0816  0.3676  0.0971
  255MPD2     H 3867   2.770   0.451  10.336 -1.2592  0.9030 -0.7771
  255MPD2    H1 3868   2.918   0.073  10.433  2.2118  0.8637  0.0842
  255MPD2    H2 3869   2.511   0.145  10.468 -0.7589  2.5260 -2.3896
  255MPD2    H3 3870   2.685   0.004  10.495  2.9518 -0.4590 -0.2072
  255MPD2     N 3871   2.980   0.299  10.341 -0.8111 -0.4699 -1.1515
  255MPD2    H5 3872   3.022   0.223  10.289  0.8829 -0.0299 -0.4100
  255MPD2    N1 3873   2.507   0.392  10.406  0.0654  0.4763  0.2567
  255MPD2    H7 3874   2.418   0.346  10.417 -0.2284  0.9030 -0.3390
  256TMC3    C1 3875   2.361   0.557  10.303 -0.4672  0.2615  0.6427
  256TMC3    C2 3876   2.358   0.691  10.270  0.0250 -0.3682 -0.0250
  256TMC3    C3 3877   2.302   0.731  10.159 -0.0517 -0.0264  0.5573
  256TMC3    C4 3878   2.300   0.468  10.210 -0.5636  0.0267  0.1096
  256TMC3    C5 3879   2.228   0.517  10.103  0.6573  0.4323  0.1224
  256TMC3    C6 3880   2.224   0.653  10.078  0.2295  0.0238 -0.8495
  256TMC3     C 3881   2.491   0.515  10.353 -0.0723  0.2808 -0.0097
  256TMC3     O 3882   2.572   0.603  10.338 -0.0604  0.0130  0.0971
  256TMC3     H 3883   2.401   0.765  10.337 -1.9754  0.1954  0.6495
  256TMC3    H1 3884   2.335   0.366  10.218  1.2138  0.4467 -2.4765
  256TMC3    H2 3885   2.165   0.690   9.995 -0.3054  0.5933 -0.2081
  256TMC3    C7 3886   2.183   0.429  10.001 -0.0227  0.7012 -0.7065
  256TMC3    C8 3887   2.320   0.867  10.117  0.4202  0.0690 -0.1750
  256TMC3    O1 3888   2.256   0.350   9.945  0.6023 -0.6535 -0.1744
  256TMC3    O2 3889   2.302   0.956  10.194 -0.2232  0.3058 -0.2855
  257MPD2     C 3890   1.476   3.255  12.939 -0.4295 -0.5785  0.2233
  257MPD2    C1 3891   1.472   3.153  12.849 -0.1729 -0.3915  0.1807
  257MPD2    C2 3892   1.374   3.052  12.875  0.4288  0.2155  0.5126
  257MPD2    C3 3893   1.323   3.027  13.004  0.2353 -0.0155  0.0988
  257MPD2    C4 3894   1.342   3.128  13.092  0.1863  0.5115  0.4970
  257MPD2    C5 3895   1.412   3.241  13.060  0.2775  0.1439  0.2911
  257MPD2     H 3896   1.358   2.978  12.798 -1.0686  0.1445  0.8930
  257MPD2    H1 3897   1.289   3.132  13.187  1.3860 -0.9197  1.2228
  257MPD2    H2 3898   1.545   3.337  12.924 -0.5195 -0.6669 -0.6672
  257MPD2    H3 3899   1.417   3.319  13.135 -2.2580 -1.1223  1.7673
  257MPD2     N 3900   1.243   2.912  13.030 -0.2116  0.2793 -0.1365
  257MPD2    H5 3901   1.234   2.844  12.955 -1.8518  2.3891 -1.8696
  257MPD2    N1 3902   1.537   3.156  12.729 -0.2261 -0.1748  0.2453
  257MPD2    H7 3903   1.514   3.088  12.657 -0.1210  1.9254 -1.7694
  258TMC3    C1 3904   1.140   2.734  13.156  0.2231 -0.0711  0.7512
  258TMC3    C2 3905   1.084   2.692  13.036  0.3445 -0.4120  0.0512
  258TMC3    C3 3906   1.044   2.563  13.025  0.3096  0.1658 -0.1079
  258TMC3    C4 3907   1.162   2.658  13.261  0.4502  0.2793 -0.2317
  258TMC3    C5 3908   1.104   2.529  13.252 -0.2962 -0.0500  0.1210
  258TMC3    C6 3909   1.063   2.477  13.130 -0.0280 -0.6865 -0.2143
  258TMC3     C 3910   1.202   2.868  13.154  0.1617 -0.1320  0.4617
  258TMC3     O 3911   1.230   2.913  13.264  0.2060  0.7261  0.0862
  258TMC3     H 3912   1.072   2.753  12.947 -1.0560  0.0127  0.5316
  258TMC3    H1 3913   1.192   2.694  13.359 -2.1753 -0.1253  0.7377
  258TMC3    H2 3914   1.034   2.372  13.121  1.1178 -1.1731  1.9143
  258TMC3    C7 3915   1.122   2.432  13.354  0.4604  0.6188 -0.1299
  258TMC3    C8 3916   1.043   2.522  12.886 -0.2827  0.5222 -0.1353
  258TMC3    O1 3917   1.051   2.330  13.355  0.5359 -0.1145 -0.1464
  258TMC3    O2 3918   1.118   2.584  12.809 -0.2952  0.2067 -0.0829
  259MPD2     C 3919   0.176   4.698   0.875  0.5815  0.1789  0.1431
  259MPD2    C1 3920   0.290   4.637   0.928 -0.4371 -0.6126 -0.3775
  259MPD2    C2 3921   0.396   4.612   0.844 -0.4014 -0.5276 -0.6034
  259MPD2    C3 3922   0.394   4.642   0.711  0.0818 -0.2733  0.7231
  259MPD2    C4 3923   0.282   4.695   0.663 -0.2584 -0.5207 -0.1915
  259MPD2    C5 3924   0.173   0.007   0.739  0.3637 -0.6331  0.2842
  259MPD2     H 3925   0.486   4.561   0.875  1.0047  0.9706 -2.2128
  259MPD2    H1 3926   0.267   4.711   0.556  0.8639  1.1797 -0.1035
  259MPD2    H2 3927   0.090   4.721   0.937  1.6542 -0.5845  1.9418
  259MPD2    H3 3928   0.089   0.062   0.700  0.9915  1.1559  1.4856
  259MPD2     N 3929   0.503   4.604   0.624  0.1771 -0.2342 -0.1430
  259MPD2    H5 3930   0.578   4.553   0.669  2.7731  2.0167 -1.9427
  259MPD2    N1 3931   0.296   4.602   1.067 -0.6684  0.0423  0.2998
  259MPD2    H7 3932   0.210   4.615   1.119 -1.0597  3.4189 -1.1428
  260TMC3    C1 3933   0.633   4.567   0.430  0.4461  0.3903  0.3577
  260TMC3    C2 3934   0.681   4.636   0.328  0.4962  0.9643  0.2257
  260TMC3    C3 3935   0.789   4.586   0.270 -0.1848  0.3032 -0.2670
  260TMC3    C4 3936   0.677   4.443   0.474 -0.3197 -0.2748 -0.7303
  260TMC3    C5 3937   0.785   4.395   0.402  0.3459  0.1732 -0.3726
  260TMC3    C6 3938   0.850   4.473   0.306  0.3157  0.1508 -0.9926
  260TMC3     C 3939   0.512   4.633   0.490 -0.1493  0.3518 -0.4861
  260TMC3     O 3940   0.443   4.706   0.414 -0.3341 -0.4819 -0.3186
  260TMC3     H 3941   0.627   0.002   0.297 -1.5180  1.0259  3.8878
  260TMC3    H1 3942   0.612   4.389   0.542  2.0222 -2.7831 -0.5073
  260TMC3    H2 3943   0.946   4.441   0.266 -0.3762 -1.6887 -1.1908
  260TMC3    C7 3944   0.819   4.257   0.394 -0.1414 -0.0178  0.1570
  260TMC3    C8 3945   0.863   4.680   0.184 -0.2526  0.4973  0.2683
  260TMC3    O1 3946   0.880   4.236   0.290 -0.1625  0.2947  0.5227
  260TMC3    O2 3947   0.800   0.059   0.151 -0.1052 -0.0379 -0.2786
  261MPD2     C 3948   1.755   2.488  12.270 -0.3832  0.3252  0.0420
  261MPD2    C1 3949   1.888   2.516  12.240  0.1923 -0.0869  0.8599
  261MPD2    C2 3950   1.916   2.572  12.122 -0.4815  0.4193 -0.1839
  261MPD2    C3 3951   1.816   2.604  12.035 -0.1487 -0.1827 -0.4955
  261MPD2    C4 3952   1.685   2.579  12.068  0.4747  0.2025  0.3012
  261MPD2    C5 3953   1.653   2.507  12.179 -0.7290  0.0876 -0.0460
  261MPD2     H 3954   2.018   2.599  12.095  0.0951 -0.5318  1.0017
  261MPD2    H1 3955   1.607   2.607  11.998 -0.4167 -0.1687  1.1489
  261MPD2    H2 3956   1.727   2.457  12.370 -2.3553  1.3882 -0.1739
  261MPD2    H3 3957   1.550   2.482  12.198 -0.7208 -0.6545 -0.9931
  261MPD2     N 3958   1.863   2.681  11.925 -0.0269  0.5313  0.1496
  261MPD2    H5 3959   1.964   2.692  11.925 -0.1814  2.1063  1.0075
  261MPD2    N1 3960   1.986   2.490  12.342  0.4939 -0.0191 -0.2913
  261MPD2    H7 3961   2.082   2.480  12.311  0.2427  0.8750 -1.3225
  262TMC3    C1 3962   1.868   2.818  11.744 -0.2150  0.3509  0.1681
  262TMC3    C2 3963   1.806   2.922  11.682  0.0926 -0.0377 -0.1277
  262TMC3    C3 3964   1.875   2.993  11.584  0.0626  0.0546  0.0975
  262TMC3    C4 3965   1.998   2.782  11.707  0.3315 -0.0783 -0.3925
  262TMC3    C5 3966   2.061   2.861  11.609  0.6888 -0.0274 -0.4444
  262TMC3    C6 3967   2.003   2.974  11.548 -0.3187  0.1434  0.4235
  262TMC3     C 3968   1.791   2.731  11.828  0.3527  0.4204 -0.3437
  262TMC3     O 3969   1.671   2.727  11.806  0.2040 -0.2446 -0.7490
  262TMC3     H 3970   1.702   2.939  11.704 -0.2686 -2.5878  0.0854
  262TMC3    H1 3971   2.047   2.696  11.752 -0.5321 -1.5073 -2.1503
  262TMC3    H2 3972   2.054   3.034  11.474 -0.3301 -1.8241 -1.1753
  262TMC3    C7 3973   2.199   2.836  11.572 -0.1362 -0.2467  0.7892
  262TMC3    C8 3974   1.837   3.129  11.558  0.6985  0.0055  0.4231
  262TMC3    O1 3975   2.240   2.722  11.574  0.5511 -0.1769  0.1421
  262TMC3    O2 3976   1.915   3.213  11.526 -0.1331  0.0084  0.1663
  263MPD2     C 3977   3.219   1.861  11.020 -0.5009 -0.5150  0.0455
  263MPD2    C1 3978   3.215   1.991  11.081 -0.2878  0.4037  0.8411
  263MPD2    C2 3979   3.220   2.108  11.000 -0.0597 -0.9817  0.0206
  263MPD2    C3 3980   3.235   2.101  10.862 -0.8120  0.3801  0.1075
  263MPD2    C4 3981   3.236   1.973  10.809 -0.6002 -0.6115  0.4638
  263MPD2    C5 3982   3.224   1.860  10.888 -0.5306 -0.2981  0.5404
  263MPD2     H 3983   3.240   2.202  11.050  2.6636 -0.2374 -2.4951
  263MPD2    H1 3984   3.236   1.947  10.704  0.4740  1.8503 -0.1383
  263MPD2    H2 3985   3.226   1.765  11.070 -1.5965 -0.6319 -0.0313
  263MPD2    H3 3986   3.231   1.761  10.844 -0.6183  0.2678 -0.7444
  263MPD2     N 3987   3.255   2.216  10.787 -0.2752  0.6261 -0.0617
  263MPD2    H5 3988   3.260   2.304  10.838 -3.1663  0.2604  0.8456
  263MPD2    N1 3989   3.214   1.987  11.220  0.2312 -0.9532 -0.4037
  263MPD2    H7 3990   3.226   1.894  11.260 -0.8991 -0.2127  1.6653
  264TMC3    C1 3991   3.293   2.353  10.598 -0.5112 -0.6390  0.1077
  264TMC3    C2 3992   3.235   2.454  10.665  0.1021 -0.3119 -0.1817
  264TMC3    C3 3993   3.253   2.580  10.621  0.5829  0.3902 -0.4420
  264TMC3    C4 3994   3.380   2.367  10.494 -0.1399 -0.3884  0.0625
  264TMC3    C5 3995   3.403   2.498  10.460  0.5409  0.5218  0.5848
  264TMC3    C6 3996   3.345   2.606  10.524  0.1971  0.0018 -0.4655
  264TMC3     C 3997   3.265   2.217  10.650  0.5038  0.1575 -0.3137
  264TMC3     O 3998   3.276   2.128  10.567 -0.0320 -0.2297  0.0955
  264TMC3     H 3999   3.154   2.435  10.734  0.3855 -3.0106 -0.5754
  264TMC3    H1 4000   3.426   2.281  10.445  0.4198  0.2939 -0.6050
  264TMC3    H2 4001   3.374   2.707  10.498 -1.4620  0.6942  0.3719
  264TMC3    C7 4002   3.499   2.532  10.352 -0.0001  0.3685 -0.3677
  264TMC3    C8 4003   3.196   2.697  10.680  0.0151 -0.6481 -0.5491
  264TMC3    O1 4004   3.573   2.443  10.316  0.4233  0.3200 -0.1501
  264TMC3    O2 4005   3.193   2.794  10.607 -0.7193 -0.4694 -0.1102
  265MPD2     C 4006   0.391   2.636  15.313  0.1914 -0.8496 -0.5041
  265MPD2    C1 4007   0.361   2.737  15.231 -0.0818 -0.1679  0.1414
  265MPD2    C2 4008   0.398   2.735  15.102  0.3219 -0.0285  0.2147
  265MPD2    C3 4009   0.471   2.629  15.053 -0.3253 -0.1305  0.4018
  265MPD2    C4 4010   0.491   2.520  15.127 -0.0300  0.6622  0.3340
  265MPD2    C5 4011   0.456   2.533  15.259 -0.3553 -0.5800 -0.1493
  265MPD2     H 4012   0.368   2.814  15.034  0.1794  1.2427  1.7456
  265MPD2    H1 4013   0.541   2.432  15.089 -0.2397 -0.4802  2.7176
  265MPD2    H2 4014   0.380   2.630  15.421  2.3693 -2.3717 -0.3730
  265MPD2    H3 4015   0.482   2.451  15.326 -0.0811 -0.2051  0.2011
  265MPD2     N 4016   0.507   2.620  14.917  0.4198 -0.2356 -0.2693
  265MPD2    H5 4017   0.505   2.531  14.868  0.4655 -0.9043  0.9463
  265MPD2    N1 4018   0.298   2.855  15.286  0.2015  0.1662 -0.1099
  265MPD2    H7 4019   0.308   2.942  15.235  0.1963  1.5739  2.2380
  266TMC3    C1 4020   0.205   2.991  15.465 -0.3843  0.3245  0.0485
  266TMC3    C2 4021   0.216   3.000  15.604 -0.0388 -0.3482  0.0527
  266TMC3    C3 4022   0.201   3.124  15.663  0.2646  0.0340  1.0014
  266TMC3    C4 4023   0.194   3.097  15.383  0.0462  0.5275  0.5455
  266TMC3    C5 4024   0.199   3.223  15.442  0.5629 -0.2931  0.0385
  266TMC3    C6 4025   0.197   3.235  15.581  0.5094  0.0094  0.2556
  266TMC3     C 4026   0.241   2.855  15.413 -1.1607  0.2085 -0.0618
  266TMC3     O 4027   0.229   2.773  15.495 -0.5252  0.1941  0.5082
  266TMC3     H 4028   0.230   2.910  15.663  1.0745 -1.4563 -1.8899
  266TMC3    H1 4029   0.178   3.070  15.279  2.8548  0.6937  0.0545
  266TMC3    H2 4030   0.210   3.331  15.630  1.0953 -0.1937  0.5001
  266TMC3    C7 4031   0.173   3.335  15.359 -0.0642  0.7803 -0.2041
  266TMC3    C8 4032   0.288   3.124  15.778  0.1260 -0.1251  0.2589
  266TMC3    O1 4033   0.146   3.434  15.422  0.0355  0.4016  0.1818
  266TMC3    O2 4034   0.358   3.028  15.800  0.7132 -0.3211 -0.0999
  267MPD2     C 4035   2.661   4.247  17.419  0.5901 -0.1355 -0.1445
  267MPD2    C1 4036   2.709   4.363  17.371 -0.1567 -0.1291  0.1910
  267MPD2    C2 4037   2.644   4.439  17.277 -0.1247 -0.3663 -0.3368
  267MPD2    C3 4038   2.518   4.393  17.242 -0.3271  0.0218  0.9773
  267MPD2    C4 4039   2.461   4.275  17.295 -0.4445 -0.6609  0.6233
  267MPD2    C5 4040   2.534   4.207  17.385  0.1003  0.5347 -0.3058
  267MPD2     H 4041   2.682   4.532  17.235 -0.2671 -0.2717 -0.2526
  267MPD2    H1 4042   2.365   4.248  17.254  0.4489 -1.5240 -0.8858
  267MPD2    H2 4043   2.714   4.199  17.501 -2.7675 -2.9258  0.4116
  267MPD2    H3 4044   2.499   4.112  17.424  0.5130 -0.7390 -3.0288
  267MPD2     N 4045   2.439   4.470  17.156 -0.4878  0.7496 -0.7392
  267MPD2    H5 4046   2.346   4.440  17.129 -1.3671  0.7350  2.3282
  267MPD2    N1 4047   2.825   4.402  17.431  0.5563  1.0109  0.5313
  267MPD2    H7 4048   2.874   4.323  17.472  0.0022 -2.0352 -4.7293
  268TMC3    C1 4049   3.026   4.522  17.457  0.1855  0.1301 -0.5605
  268TMC3    C2 4050   3.102   4.593  17.369  0.7511  0.5074 -0.2591
  268TMC3    C3 4051   3.233   4.610  17.409  0.0184  0.4675 -0.3657
  268TMC3    C4 4052   3.066   4.467  17.574  0.4537 -0.4049  0.2698
  268TMC3    C5 4053   3.201   4.472  17.601  0.7306 -0.8645  0.1352
  268TMC3    C6 4054   3.288   4.537  17.519  0.4721  0.3057  0.1301
  268TMC3     C 4055   2.886   4.526  17.424  0.3739 -0.3232  0.5551
  268TMC3     O 4056   2.841   4.632  17.385 -0.3649  0.4990  0.0415
  268TMC3     H 4057   3.062   4.616  17.271  0.2819 -0.2974 -0.2537
  268TMC3    H1 4058   3.001   4.413  17.641 -0.3267 -0.9555 -0.9372
  268TMC3    H2 4059   3.396   4.533  17.531  0.7706  1.5126 -2.1352
  268TMC3    C7 4060   3.251   4.426   0.040 -0.3179  0.6487  0.0858
  268TMC3    C8 4061   3.308   4.708  17.337 -0.2422  1.0655 -0.0786
  268TMC3    O1 4062   3.169   4.434   0.131  0.4401  0.1993  0.4215
  268TMC3    O2 4063   3.431   4.693  17.319  0.0504  0.4816 -0.2639
  269MPD2     C 4064   2.671   3.013  15.752 -0.3065 -0.9669 -0.2895
  269MPD2    C1 4065   2.537   3.038  15.746 -0.1297 -1.1666 -0.4848
  269MPD2    C2 4066   2.501   3.164  15.698  0.7548  0.6235 -0.8134
  269MPD2    C3 4067   2.591   3.270  15.690 -0.3217 -0.2237  0.0248
  269MPD2    C4 4068   2.725   3.238  15.688  0.2361 -1.0253 -0.1623
  269MPD2    C5 4069   2.766   3.109  15.715  0.2654 -0.2005 -0.2019
  269MPD2     H 4070   2.397   3.194  15.685  0.8967  1.5783  0.3549
  269MPD2    H1 4071   2.805   3.310  15.678  1.5491 -2.9718 -3.3937
  269MPD2    H2 4072   2.718   2.920  15.783 -1.6629 -0.9670  1.7619
  269MPD2    H3 4073   2.872   3.089  15.717  0.6699  2.0533  0.2764
  269MPD2     N 4074   2.541   3.398  15.668 -0.1306 -0.2867  0.2285
  269MPD2    H5 4075   2.442   3.404  15.644  0.8536 -0.8515 -3.9513
  269MPD2    N1 4076   2.453   2.934  15.781  0.6292 -0.2896 -0.3628
  269MPD2    H7 4077   2.493   2.855  15.831  0.4080 -0.2142 -0.0670
  270TMC3    C1 4078   2.256   2.801  15.796 -0.2981 -0.6612  0.2795
  270TMC3    C2 4079   2.145   2.787  15.717 -1.1047  0.0904  0.6482
  270TMC3    C3 4080   2.077   2.662  15.734 -1.0807 -0.6451  0.3543
  270TMC3    C4 4081   2.321   2.707  15.855 -0.3383 -0.0210  0.2022
  270TMC3    C5 4082   2.267   2.584  15.849  0.3630  0.6878  0.7286
  270TMC3    C6 4083   2.140   2.568  15.815  0.2644  0.2930 -0.2811
  270TMC3     C 4084   2.315   2.931  15.762 -0.4834  1.1284 -0.4570
  270TMC3     O 4085   2.249   3.018  15.702 -0.6625 -0.6867 -0.2206
  270TMC3     H 4086   2.108   2.870  15.658  0.1347  0.2304  0.0634
  270TMC3    H1 4087   2.417   2.724  15.902 -0.1777 -2.2719  0.7069
  270TMC3    H2 4088   2.094   2.472  15.836  1.1583 -0.0678  0.0238
  270TMC3    C7 4089   2.360   2.497  15.776  0.5694 -0.7163 -0.5583
  270TMC3    C8 4090   2.031   2.584  15.620 -0.6609 -0.0520 -0.4094
  270TMC3    O1 4091   2.482   2.520  15.783 -0.1357  0.1708 -0.4536
  270TMC3    O2 4092   1.965   2.484  15.644  0.0335 -0.0963 -0.5409
  271MPD2     C 4093   1.576   3.224  13.824  0.5122 -0.6838 -0.9337
  271MPD2    C1 4094   1.494   3.155  13.909 -0.9534 -0.1758  0.3515
  271MPD2    C2 4095   1.352   3.175  13.908 -0.2769  0.4858  0.5355
  271MPD2    C3 4096   1.299   3.242  13.800 -0.0516  0.5660 -0.9200
  271MPD2    C4 4097   1.383   3.305  13.710  0.4568  0.5473  0.6308
  271MPD2    C5 4098   1.515   3.305  13.730  1.0191  0.7793  0.2626
  271MPD2     H 4099   1.293   3.126  13.985 -0.5801  0.9932  0.6231
  271MPD2    H1 4100   1.349   3.359  13.622  1.5058 -1.6780 -1.1364
  271MPD2    H2 4101   1.684   3.231  13.829  0.4337 -0.0820 -0.0439
  271MPD2    H3 4102   1.581   3.355  13.661  0.8277  0.4727 -0.1465
  271MPD2     N 4103   1.163   3.249  13.785  0.3644  0.7489  0.3433
  271MPD2    H5 4104   1.113   3.226  13.870  1.6720  1.0947  1.1941
  271MPD2    N1 4105   1.551   3.077  14.008  0.2696  0.3883  0.1249
  271MPD2    H7 4106   1.487   3.057  14.084  0.6073 -2.4595 -0.3383
  272TMC3    C1 4107   1.717   2.934  14.112  0.3007  0.1024  0.1232
  272TMC3    C2 4108   1.812   2.839  14.089 -0.3131 -1.3076  0.2565
  272TMC3    C3 4109   1.877   2.787  14.196 -0.7211 -0.2502  0.4359
  272TMC3    C4 4110   1.675   2.967  14.234  0.1868  0.2186  0.3537
  272TMC3    C5 4111   1.732   2.899  14.340 -0.4118 -0.3478  0.3034
  272TMC3    C6 4112   1.838   2.813  14.325 -0.5816 -0.4414 -0.7086
  272TMC3     C 4113   1.670   3.008  13.995  0.2443 -0.0028  0.3861
  272TMC3     O 4114   1.747   3.010  13.901 -0.0843  0.0834 -0.3679
  272TMC3     H 4115   1.847   2.805  13.992  2.0934 -2.2017  1.4224
  272TMC3    H1 4116   1.614   3.054  14.256 -0.9383 -0.4236 -0.2755
  272TMC3    H2 4117   1.876   2.754  14.408  3.5352 -0.0917 -2.3562
  272TMC3    C7 4118   1.695   2.944  14.470 -0.7975 -0.0385  0.6770
  272TMC3    C8 4119   2.013   2.743  14.162 -0.7260  0.3591  0.2541
  272TMC3    O1 4120   1.585   2.998  14.485 -0.3482 -0.2273  0.4393
  272TMC3    O2 4121   2.062   2.758  14.049  0.0552 -0.1861 -0.1992
  273MPD2     C 4122   3.409   0.736  11.347  0.3289 -0.3883 -0.2812
  273MPD2    C1 4123   3.511   0.793  11.418 -1.1111  0.7415 -0.7729
  273MPD2    C2 4124   3.577   0.906  11.362 -0.4823  0.0667 -0.1228
  273MPD2    C3 4125   3.534   0.962  11.239 -0.1885 -0.2007  0.4207
  273MPD2    C4 4126   3.424   0.899  11.177 -0.2207  0.0996 -0.2439
  273MPD2    C5 4127   3.370   0.787  11.228  0.2377  0.0429 -0.2583
  273MPD2     H 4128   3.664   0.953  11.406 -1.6131  1.3902  0.7229
  273MPD2    H1 4129   3.385   0.933  11.082  2.4365  0.3199 -1.2665
  273MPD2    H2 4130   3.368   0.640  11.377 -1.6119  0.7642  0.7129
  273MPD2    H3 4131   3.306   0.726  11.165  0.2513  0.2310 -0.4529
  273MPD2     N 4132   3.599   1.069  11.170  0.2970  0.0925  0.0505
  273MPD2    H5 4133   3.572   1.068  11.072  1.2835  0.2744 -0.2233
  273MPD2    N1 4134   3.548   0.726  11.538  0.1779  0.6503  0.3405
  273MPD2    H7 4135   3.488   0.646  11.556 -1.9314  2.1929  0.1189
  274TMC3    C1 4136   3.763   1.235  11.126  0.1083 -1.0194  0.1068
  274TMC3    C2 4137   3.740   1.224  10.994 -0.5630 -0.7613 -0.9278
  274TMC3    C3 4138   3.765   1.327  10.910  0.7187  0.1336 -0.2302
  274TMC3    C4 4139   3.812   1.355  11.169  0.4660  0.0251 -0.3275
  274TMC3    C5 4140   3.853   1.463  11.089 -0.9244  0.3778 -1.0637
  274TMC3    C6 4141   3.804   1.454  10.956 -0.0216 -1.4920  0.3813
  274TMC3     C 4142   3.695   1.149  11.222  0.2054 -0.6066 -0.3466
  274TMC3     O 4143   3.716   1.176  11.338 -0.1451 -0.2076  0.4629
  274TMC3     H 4144   3.714   1.128  10.950 -0.5676  0.1265 -2.8890
  274TMC3    H1 4145   3.832   1.374  11.274 -0.4369  0.1484 -0.1738
  274TMC3    H2 4146   3.842   1.532  10.891 -1.7958 -1.9547 -1.1938
  274TMC3    C7 4147   3.845   1.599  11.151 -0.0120  0.5950 -0.4719
  274TMC3    C8 4148   3.719   1.312  10.775 -0.0720 -0.3103 -0.5546
  274TMC3    O1 4149   3.762   1.673  11.105  0.3571 -0.6141 -0.6867
  274TMC3    O2 4150   3.664   1.206  10.740 -0.7618  0.3007 -0.1967
  275MPD2     C 4151   3.368   3.578  14.232 -0.8033  0.1233  0.1268
  275MPD2    C1 4152   3.338   3.537  14.361 -0.3609  0.2450 -0.2421
  275MPD2    C2 4153   3.205   3.505  14.395 -0.3036 -0.0863  0.7705
  275MPD2    C3 4154   3.105   3.509  14.300 -0.0439  0.4404  0.0645
  275MPD2    C4 4155   3.142   3.540  14.169  0.8525  0.1953  0.1159
  275MPD2    C5 4156   3.274   3.574  14.142  0.4706 -0.2785  0.0086
  275MPD2     H 4157   3.188   3.483  14.500  1.2044 -1.9549  0.6193
  275MPD2    H1 4158   3.071   3.547  14.088 -0.5265  0.6693  1.3863
  275MPD2    H2 4159   3.468   3.612  14.206 -0.2310 -0.6469  1.3318
  275MPD2    H3 4160   3.298   3.601  14.039  0.2934 -0.8524 -0.1851
  275MPD2     N 4161   2.969   3.502  14.327  0.4329  0.1898 -0.4557
  275MPD2    H5 4162   2.902   3.489  14.252  0.2584  0.2391 -0.3081
  275MPD2    N1 4163   3.432   3.524  14.464  0.5887 -0.2124  0.9299
  275MPD2    H7 4164   3.403   3.480  14.551 -0.4657 -2.2658 -0.4809
  276TMC3    C1 4165   3.639   3.528  14.573  0.1240 -0.0581  0.0606
  276TMC3    C2 4166   3.604   3.412  14.640 -0.1345 -0.8075  0.1869
  276TMC3    C3 4167   3.672   3.390  14.757  0.6375  0.2057 -0.6547
  276TMC3    C4 4168   3.738   3.608  14.604 -0.1177  0.2447 -0.0653
  276TMC3    C5 4169   3.786   3.592  14.734 -0.1982  0.0865 -0.1528
  276TMC3    C6 4170   3.748   3.487  14.813  0.2838  0.9655 -0.0836
  276TMC3     C 4171   3.566   3.565  14.451  0.3000 -0.4868 -1.1635
  276TMC3     O 4172   3.616   3.645  14.373 -0.2418  0.3279  0.8592
  276TMC3     H 4173   3.529   3.345  14.597 -1.4574  1.0871 -0.4371
  276TMC3    H1 4174   3.762   3.690  14.537 -3.0006 -0.5025 -1.9875
  276TMC3    H2 4175   3.786   3.475  14.914 -0.2638 -1.0472 -0.1026
  276TMC3    C7 4176   3.853   3.695  14.803 -0.4508 -0.4895 -0.3747
  276TMC3    C8 4177   3.633   3.278  14.840 -0.0145 -0.2808 -0.2843
  276TMC3    O1 4178   3.919   3.664  14.900  0.1417  0.7935  0.7048
  276TMC3    O2 4179   3.634   3.305  14.961 -0.1467 -0.5108  0.1778
  277MPD2     C 4180   0.630   2.868  13.494  0.4795 -0.1833  0.2543
  277MPD2    C1 4181   0.515   2.906  13.425  0.0435  0.3394 -0.1032
  277MPD2    C2 4182   0.397   2.854  13.463  0.2232 -0.3084  0.6800
  277MPD2    C3 4183   0.388   2.746  13.549  0.5292 -0.3905  0.0294
  277MPD2    C4 4184   0.496   2.714  13.620 -0.4130  0.1506  0.8116
  277MPD2    C5 4185   0.613   2.777  13.588  0.4701 -0.0752 -0.0498
  277MPD2     H 4186   0.311   2.891  13.408  1.0715  1.0624  0.2775
  277MPD2    H1 4187   0.496   2.642  13.701  1.6115 -3.1408 -2.1064
  277MPD2    H2 4188   0.732   2.897  13.474 -0.1527  1.7172 -0.2134
  277MPD2    H3 4189   0.698   2.745  13.647 -0.7060  0.1549  1.7917
  277MPD2     N 4190   0.262   2.685  13.566 -0.5185 -0.4318  0.0393
  277MPD2    H5 4191   0.187   2.732  13.516  0.4422  0.1676 -0.8281
  277MPD2    N1 4192   0.521   3.005  13.316  0.6570  0.4479 -0.3955
  277MPD2    H7 4193   0.433   3.026  13.270 -0.1698 -1.8998  0.0882
  278TMC3    C1 4194   0.120   2.511  13.592  0.4898 -0.1091  0.4479
  278TMC3    C2 4195   0.114   2.385  13.532 -0.5788  0.7198  0.4359
  278TMC3    C3 4196   4.715   2.352  13.470 -0.0428 -0.1591 -0.2210
  278TMC3    C4 4197   0.019   2.597  13.595  0.6133  0.3547 -0.1796
  278TMC3    C5 4198   4.620   2.557  13.539  0.7214 -0.1231 -0.2993
  278TMC3    C6 4199   4.604   2.433  13.474  0.1967 -0.4563 -0.5955
  278TMC3     C 4200   0.249   2.560  13.611 -0.6179 -0.5610 -0.4573
  278TMC3     O 4201   0.335   2.489  13.655  0.0306  0.3052  0.4577
  278TMC3     H 4202   0.201   2.321  13.529 -0.5901  0.6899  0.7003
  278TMC3    H1 4203   0.029   2.686  13.657 -5.4933 -0.1553  1.5410
  278TMC3    H2 4204   4.503   2.398  13.457  0.0069 -0.3990  0.4354
  278TMC3    C7 4205   4.501   2.610  13.597 -0.0695 -0.1392 -0.2669
  278TMC3    C8 4206   4.703   2.215  13.435 -0.4117 -0.2386  0.3094
  278TMC3    O1 4207   4.401   2.544  13.606 -0.1750  0.4099  0.0563
  278TMC3    O2 4208   0.065   2.131  13.466  0.6429 -0.6282 -0.0955
  279MPD2     C 4209   4.707   3.766   0.238  0.2056  0.5317  0.1523
  279MPD2    C1 4210   4.600   3.811   0.160  0.4631  0.4772  0.3586
  279MPD2    C2 4211   4.633   3.842   0.026 -0.1976  0.4713 -0.0309
  279MPD2    C3 4212   0.041   3.833  17.672  0.0965  0.2267  0.8590
  279MPD2    C4 4213   0.145   3.795   0.076 -0.1982  0.5934 -0.6991
  279MPD2    C5 4214   0.115   3.763   0.203 -0.4632 -0.2756  0.3445
  279MPD2     H 4215   4.558   3.873  17.647 -0.1701  0.0736 -0.2306
  279MPD2    H1 4216   0.245   3.764   0.047 -0.7316 -2.3908  0.5655
  279MPD2    H2 4217   4.681   3.729   0.337 -1.3705  2.0774  0.3200
  279MPD2    H3 4218   0.190   3.723   0.271 -0.6036  1.3952  1.4728
  279MPD2     N 4219   0.072   3.844  17.534 -0.6038 -0.1237  0.1328
  279MPD2    H5 4220   0.161   3.813  17.497  0.1641 -0.4952  2.3109
  279MPD2    N1 4221   4.473   3.804   0.219 -0.3824 -0.3819 -0.1475
  279MPD2    H7 4222   4.477   3.768   0.314  0.4423 -0.4750 -0.2115
  280TMC3    C1 4223   4.234   3.786   0.200 -0.3525  0.1279  0.2105
  280TMC3    C2 4224   4.250   3.664   0.259 -0.9361 -0.7223  0.6152
  280TMC3    C3 4225   4.188   3.555   0.211 -0.1266 -0.0870  0.2392
  280TMC3    C4 4226   4.143   3.796   0.096 -0.7608  0.6743 -0.0611
  280TMC3    C5 4227   4.074   3.687   0.055 -0.5678  0.6676  0.6088
  280TMC3    C6 4228   4.102   3.561   0.105 -0.6362  0.1678  0.6470
  280TMC3     C 4229   4.355   3.847   0.160  0.1660  0.4829 -0.1963
  280TMC3     O 4230   4.347   3.904   0.052  0.3262  0.4364  0.5045
  280TMC3     H 4231   4.320   3.653   0.341 -1.4151 -1.0679  0.9783
  280TMC3    H1 4232   4.129   3.884   0.033  1.3915  2.0728  1.4302
  280TMC3    H2 4233   4.052   3.476   0.059 -0.0251  0.2920 -0.2484
  280TMC3    C7 4234   4.006   3.691  17.621  0.1995  0.4148 -0.1387
  280TMC3    C8 4235   4.179   3.441   0.300 -0.2568  0.2991 -0.1603
  280TMC3    O1 4236   4.024   3.601  17.541  0.5769 -0.0444 -0.3803
  280TMC3    O2 4237   4.209   3.464   0.415  0.4137  0.6920  0.0737
  281TMC3    C1 4238   2.929   2.974  13.141 -0.2944  0.2763  0.8811
  281TMC3    C2 4239   3.058   2.980  13.184  0.6868 -0.2688  0.1592
  281TMC3    C3 4240   3.157   2.937  13.096  0.3271  0.0341 -0.7574
  281TMC3    C4 4241   2.894   2.908  13.024 -0.5338  0.7519  0.2863
  281TMC3    C5 4242   2.998   2.867  12.938 -0.3939  0.5423  0.2201
  281TMC3    C6 4243   3.134   2.872  12.977  0.0044  0.0405 -0.6166
  281TMC3     C 4244   2.818   3.049  13.205 -0.5694 -0.0167  0.5613
  281TMC3     O 4245   2.704   3.017  13.169 -0.5449 -0.3037 -0.5470
  281TMC3     H 4246   3.091   3.013  13.282  0.2700  1.3748 -0.2475
  281TMC3    H1 4247   2.793   2.912  12.985 -0.3461  1.0502 -0.1691
  281TMC3    H2 4248   3.222   2.858  12.915 -0.2238  1.2937 -1.2246
  281TMC3    C7 4249   2.975   2.737  12.876 -0.0121  0.3128 -0.6030
  281TMC3    C8 4250   3.297   2.961  13.132 -0.2336 -0.2634  0.0156
  281TMC3    O1 4251   3.036   2.705  12.776 -0.4999 -0.1744  0.6410
  281TMC3    O2 4252   3.368   2.869  13.105 -0.3943 -0.0677  0.3248
  282MPD2     C 4253   0.350   0.089  15.209  0.2074 -0.2117 -0.0458
  282MPD2    C1 4254   0.227   0.017  15.221 -0.4743 -0.1880 -0.2145
  282MPD2    C2 4255   0.157   4.717  15.101 -0.0402  0.2016  0.1606
  282MPD2    C3 4256   0.211   0.026  14.981  0.2400 -0.1863 -0.1781
  282MPD2    C4 4257   0.330   0.093  14.973 -0.4307  0.2952 -0.0437
  282MPD2    C5 4258   0.398   0.133  15.084  0.4734  0.4745  0.2093
  282MPD2     H 4259   0.059   4.669  15.096  0.0033  0.0236  0.9883
  282MPD2    H1 4260   0.368   0.122  14.875 -3.6553 -0.2999 -1.4857
  282MPD2    H2 4261   0.397   0.134  15.296 -2.3458  3.2163 -0.4741
  282MPD2    H3 4262   0.479   0.204  15.087 -0.4896  1.6156 -1.1909
  282MPD2     N 4263   0.125   4.719  14.872 -0.0610 -0.1101 -0.2396
  282MPD2    H5 4264   0.028   4.698  14.893 -0.1114  1.2989  0.9656
  282MPD2    N1 4265   0.178   4.695  15.354  0.5003 -0.3145 -0.1019
  282MPD2    H7 4266   0.230   0.005  15.434  0.6765  0.7115 -0.6305
  283TMC3    C1 4267   0.030   4.609  15.505 -0.1622  0.0736 -0.4555
  283TMC3    C2 4268   0.059   4.712  15.586 -0.6333  0.5867  0.2300
  283TMC3    C3 4269   0.025   4.712  15.723 -0.5207 -0.7817  0.3224
  283TMC3    C4 4270   4.696   4.494  15.553 -0.3122  0.2426 -0.1777
  283TMC3    C5 4271   4.672   4.487  15.690  0.0796 -0.6035 -0.5187
  283TMC3    C6 4272   4.695   4.595  15.776  0.2533  0.5778  0.3696
  283TMC3     C 4273   0.068   4.615  15.367  0.2083  0.3671  0.1621
  283TMC3     O 4274   0.009   4.543  15.288  0.4532  0.0774  0.5063
  283TMC3     H 4275   0.082   0.088  15.547 -0.1579  1.2823  2.2833
  283TMC3    H1 4276   4.660   4.416  15.488  2.9611 -1.2955 -0.1479
  283TMC3    H2 4277   4.665   4.591  15.880  2.2739 -0.9395  0.8922
  283TMC3    C7 4278   4.565   4.396  15.721  0.0985 -0.1286  0.6200
  283TMC3    C8 4279   0.011   0.113  15.803 -0.2859  0.3030  0.3980
  283TMC3    O1 4280   4.456   4.450  15.710 -0.2223 -0.1539  0.4359
  283TMC3    O2 4281   4.694   0.091  15.918  0.2818 -0.3437 -0.1087
  284MPD2     C 4282   3.402   3.652  12.179 -0.4258 -0.6227  0.0478
  284MPD2    C1 4283   3.392   3.621  12.047 -0.4488 -0.1257  0.1096
  284MPD2    C2 4284   3.310   3.519  12.014  0.3471  0.0298  0.4941
  284MPD2    C3 4285   3.256   3.439  12.116  0.2101 -0.0015 -0.1589
  284MPD2    C4 4286   3.275   3.470  12.248  0.7433 -0.4017 -0.0585
  284MPD2    C5 4287   3.345   3.580  12.275 -0.8350 -0.3329  0.2507
  284MPD2     H 4288   3.271   3.497  11.916 -1.6718 -0.5185  1.4249
  284MPD2    H1 4289   3.226   3.423  12.332  0.2792 -2.4402 -1.4484
  284MPD2    H2 4290   3.461   3.736  12.212  0.0139 -0.9390  0.0710
  284MPD2    H3 4291   3.364   3.598  12.380  0.2988  0.4103 -0.0859
  284MPD2     N 4292   3.186   3.328  12.076 -0.8694  0.0298 -0.6042
  284MPD2    H5 4293   3.179   3.310  11.977  0.3154 -1.0325 -0.4983
  284MPD2    N1 4294   3.458   3.686  11.942 -0.3189 -0.0629 -0.3210
  284MPD2    H7 4295   3.429   3.670  11.846  0.1751 -0.8687 -0.3411
  285TMC3    C1 4296   3.608   3.833  11.835 -0.8597 -0.7561 -0.5828
  285TMC3    C2 4297   3.597   3.770  11.714  0.0948  0.5442 -0.1346
  285TMC3    C3 4298   3.662   3.828  11.612 -0.2739  0.4016 -0.8290
  285TMC3    C4 4299   3.685   3.948  11.845  0.5589 -0.0434  0.3464
  285TMC3    C5 4300   3.739   4.007  11.734 -0.0366  0.2669  0.7274
  285TMC3    C6 4301   3.734   3.943  11.612 -0.1476 -0.3296  0.2999
  285TMC3     C 4302   3.568   3.769  11.959  0.2597  0.2432  0.2038
  285TMC3     O 4303   3.628   3.784  12.063 -0.2678  0.1516  0.2236
  285TMC3     H 4304   3.533   3.683  11.699 -0.2275  1.0669 -1.7820
  285TMC3    H1 4305   3.693   3.994  11.943  0.3166  0.2601  0.2221
  285TMC3    H2 4306   3.769   4.001  11.528 -2.7717 -0.5928 -0.9692
  285TMC3    C7 4307   3.770   4.150  11.741  0.7097  0.7427 -0.3746
  285TMC3    C8 4308   3.679   3.755  11.486 -0.4543 -0.1134 -0.9988
  285TMC3    O1 4309   3.776   4.214  11.635 -0.4044 -0.0280  0.4718
  285TMC3    O2 4310   3.578   3.714  11.425 -0.0664  0.4096 -0.4518
  286MPD2     C 4311   3.557   2.413   1.657 -0.6065  0.4367  0.0520
  286MPD2    C1 4312   3.585   2.463   1.530 -0.3008 -0.6419 -0.3798
  286MPD2    C2 4313   3.689   2.399   1.460  0.3677  0.4160  0.1595
  286MPD2    C3 4314   3.767   2.295   1.512 -0.2362 -0.4290  0.4958
  286MPD2    C4 4315   3.733   2.255   1.639 -0.4853  0.0629 -0.5266
  286MPD2    C5 4316   3.637   2.319   1.717 -0.2135  0.3942 -0.2256
  286MPD2     H 4317   3.701   2.425   1.355 -1.3999  2.5709  0.4846
  286MPD2    H1 4318   3.796   2.185   1.692  0.0562  0.3954 -0.7308
  286MPD2    H2 4319   3.460   2.437   1.699  0.8653  2.1759  2.5202
  286MPD2    H3 4320   3.622   2.282   1.818  1.1670 -0.6775 -0.4173
  286MPD2     N 4321   3.883   2.230   1.457  0.4914  0.0835  0.5333
  286MPD2    H5 4322   3.919   2.149   1.506  0.7786 -0.6574 -0.9046
  286MPD2    N1 4323   3.510   2.556   1.464 -0.4382 -0.3157 -0.9678
  286MPD2    H7 4324   3.529   2.576   1.366  3.8949 -0.1436 -0.1026
  287TMC3    C1 4325   4.074   2.189   1.345  0.0788 -0.3258  0.0501
  287TMC3    C2 4326   4.137   2.172   1.231  0.3487 -0.3237 -0.4929
  287TMC3    C3 4327   4.252   2.098   1.228  0.0740 -0.6034 -0.4215
  287TMC3    C4 4328   4.124   2.151   1.466 -0.3297  0.5785  0.0544
  287TMC3    C5 4329   4.248   2.091   1.459 -0.4553 -0.6365  0.5209
  287TMC3    C6 4330   4.312   2.056   1.343  0.3698 -0.0805 -0.2108
  287TMC3     C 4331   3.951   2.262   1.344 -0.1301  0.1536 -0.4623
  287TMC3     O 4332   3.943   2.359   1.269  0.1517  0.4757 -0.6354
  287TMC3     H 4333   4.091   2.203   1.138 -0.0148 -1.1057 -0.5751
  287TMC3    H1 4334   4.093   2.181   1.566  1.8620 -1.5554  1.3871
  287TMC3    H2 4335   4.416   2.024   1.333  0.3752  0.6276 -2.4929
  287TMC3    C7 4336   4.337   2.125   1.570  0.0782  0.2074 -0.0079
  287TMC3    C8 4337   4.292   2.042   1.102 -0.2612  0.2959 -0.3615
  287TMC3    O1 4338   4.291   2.207   1.649 -1.0946  0.1949  0.0861
  287TMC3    O2 4339   4.300   1.918   1.095  0.3008 -0.0026 -0.2075
  288TMC3    C1 4340   4.585   2.249  14.534  0.9029  1.3173  0.3769
  288TMC3    C2 4341   4.571   2.187  14.653  0.6052  0.5958  0.3581
  288TMC3    C3 4342   4.599   2.258  14.770 -0.1570  0.1085  0.0143
  288TMC3    C4 4343   4.623   2.379  14.526  0.2327 -0.0346  0.2056
  288TMC3    C5 4344   4.661   2.443  14.645  0.3472 -0.3068 -0.1821
  288TMC3    C6 4345   4.656   2.384  14.766 -0.2466  0.4750  0.2457
  288TMC3     C 4346   4.570   2.175  14.406  0.6470 -0.7582  0.4582
  288TMC3     O 4347   4.511   2.071  14.404  0.5501 -0.1553  0.1542
  288TMC3     H 4348   4.542   2.083  14.644 -0.7654  1.2003 -1.9991
  288TMC3    H1 4349   4.609   2.441  14.438  1.4898  0.8845  0.6542
  288TMC3    H2 4350   4.694   2.434  14.855  2.2340 -0.7642 -0.1260
  288TMC3    C7 4351   4.700   2.584  14.651 -0.0637  0.0640 -0.0469
  288TMC3    C8 4352   4.597   2.182  14.892  0.9593 -0.4232 -0.1489
  288TMC3    O1 4353   4.700   2.648  14.757  0.2323  0.0741 -0.3015
  288TMC3    O2 4354   4.672   2.205  14.984  0.4470  0.4204  0.5853
  289MPD2     C 4355   0.308   1.597  14.654  0.8279 -0.6285  0.2409
  289MPD2    C1 4356   0.311   1.651  14.526 -0.2283 -0.7817  0.2908
  289MPD2    C2 4357   0.193   1.647  14.456 -0.1013 -0.0671  0.1903
  289MPD2    C3 4358   0.074   1.582  14.496 -0.3076 -0.0371 -0.4158
  289MPD2    C4 4359   0.078   1.524  14.623 -0.4953  0.7852 -0.2866
  289MPD2    C5 4360   0.191   1.537  14.701 -0.3245  0.6785  0.4135
  289MPD2     H 4361   0.197   1.702  14.362 -2.0542  0.2134  0.2774
  289MPD2    H1 4362   4.715   1.472  14.663  1.0772 -2.1625 -0.7619
  289MPD2    H2 4363   0.399   1.586  14.711  1.1862 -0.4627 -0.3024
  289MPD2    H3 4364   0.195   1.473  14.789  2.5887 -0.1093 -0.3128
  289MPD2     N 4365   4.675   1.571  14.425 -0.0414  0.0311  0.2385
  289MPD2    H5 4366   4.605   1.511  14.467 -0.8207  2.1449  1.9566
  289MPD2    N1 4367   0.423   1.726  14.491 -0.0726 -0.4023 -0.4046
  289MPD2    H7 4368   0.500   1.743  14.555  0.6768  1.4588 -1.8055
  290TMC3    C1 4369   4.503   1.634  14.278  0.5591  0.0277 -0.4681
  290TMC3    C2 4370   4.434   1.747  14.239 -0.7940  0.2748  0.3516
  290TMC3    C3 4371   4.299   1.746  14.233  1.5054  0.1067 -0.3515
  290TMC3    C4 4372   4.435   1.511  14.295  0.2819  0.7255  0.3676
  290TMC3    C5 4373   4.302   1.512  14.264 -0.0745 -0.3045 -0.0445
  290TMC3    C6 4374   4.229   1.625  14.233 -0.0296 -0.8281  0.6151
  290TMC3     C 4375   4.640   1.647  14.314 -0.0258  0.1145  0.3729
  290TMC3     O 4376   4.710   1.716  14.239  0.2687  0.3740 -0.0193
  290TMC3     H 4377   4.490   1.840  14.232 -1.2456  0.4700 -0.7042
  290TMC3    H1 4378   4.485   1.427  14.342 -0.1169 -0.1376 -0.7718
  290TMC3    H2 4379   4.123   1.610  14.215 -0.2483  0.2715  1.0070
  290TMC3    C7 4380   4.222   1.414  14.328 -0.5595  0.0760  1.1911
  290TMC3    C8 4381   4.236   1.858  14.177  0.2010  0.1560 -0.6768
  290TMC3    O1 4382   4.128   1.445  14.401  0.3446  0.3997 -0.0798
  290TMC3    O2 4383   4.130   1.832  14.126  0.1493 -0.2156 -0.1777
  291MPD2     C 4384   4.529   1.289   0.229 -0.2655  0.0392 -0.1925
  291MPD2    C1 4385   4.503   1.203   0.131  0.4499 -0.1257  0.6283
  291MPD2    C2 4386   4.606   1.130   0.077  0.0327 -0.1347  0.1850
  291MPD2    C3 4387   0.015   1.148   0.118  0.0977 -0.2809 -0.0765
  291MPD2    C4 4388   0.031   1.240   0.218 -0.0300  0.0404  0.2961
  291MPD2    C5 4389   4.652   1.307   0.276 -0.3654 -0.2910  0.5328
  291MPD2     H 4390   4.574   1.050   0.011 -0.5494 -0.0801  0.3946
  291MPD2    H1 4391   0.132   1.254   0.254 -0.1463 -0.8738  0.9681
  291MPD2    H2 4392   4.454   1.347   0.282  0.8207  1.3847 -0.1038
  291MPD2    H3 4393   4.678   1.378   0.355 -0.4677  0.0839  0.2282
  291MPD2     N 4394   0.123   1.087   0.061  0.6403  0.3343 -0.3378
  291MPD2    H5 4395   0.214   1.094   0.105  1.5533  1.0362 -2.3299
  291MPD2    N1 4396   4.380   1.179   0.070 -0.0458  0.3793  0.0574
  291MPD2    H7 4397   4.382   1.126  17.676 -0.9444 -0.0884  0.3146
  292TMC3    C1 4398   4.148   1.193   0.034 -0.4636 -0.6474  0.4996
  292TMC3    C2 4399   4.028   1.261   0.044  0.7139  0.1409 -0.6195
  292TMC3    C3 4400   3.930   1.213  17.653 -0.7137  0.4834 -0.5490
  292TMC3    C4 4401   4.167   1.096  17.626  0.0911 -0.3296  0.3700
  292TMC3    C5 4402   4.066   1.061  17.536 -0.2583 -0.9084  0.0038
  292TMC3    C6 4403   3.944   1.114  17.562  0.1759  0.0540  0.2259
  292TMC3     C 4404   4.259   1.228   0.118  0.5076 -0.2592 -0.2749
  292TMC3     O 4405   4.236   1.297   0.217  0.2272  0.1613 -0.0989
  292TMC3     H 4406   4.003   1.336   0.118 -0.1691 -1.3666  0.6201
  292TMC3    H1 4407   4.267   1.059  17.607 -0.6862 -1.6226 -1.2303
  292TMC3    H2 4408   3.858   1.089  17.502  0.6359  0.3402 -0.5501
  292TMC3    C7 4409   4.088   0.939  17.456 -0.5952  0.3793  0.1152
  292TMC3    C8 4410   3.792   1.240   0.004 -0.0997 -0.0224 -0.2347
  292TMC3    O1 4411   4.203   0.890  17.458  0.4828  0.0593 -0.0209
  292TMC3    O2 4412   3.704   1.232  17.614 -0.0913  0.1184 -0.2727
  293MPD2     C 4413   1.832   2.886  12.170 -0.4676 -0.7255 -0.0601
  293MPD2    C1 4414   1.707   2.892  12.234 -0.5580 -0.1323 -0.3414
  293MPD2    C2 4415   1.699   2.899  12.373  0.5201 -0.2501 -0.5042
  293MPD2    C3 4416   1.813   2.908  12.446 -0.2022  0.1317 -0.1131
  293MPD2    C4 4417   1.940   2.895  12.390  0.1632  0.3257 -0.6236
  293MPD2    C5 4418   1.946   2.890  12.252  0.2996  0.1552  0.2385
  293MPD2     H 4419   1.602   2.891  12.421 -0.2943  1.0073 -1.9452
  293MPD2    H1 4420   2.027   2.876  12.452  0.5426  0.0765 -1.2434
  293MPD2    H2 4421   1.836   2.887  12.062 -0.4208 -2.4383 -0.0770
  293MPD2    H3 4422   2.040   2.878  12.200 -0.2306 -3.0626 -0.0130
  293MPD2     N 4423   1.803   2.916  12.591  0.2318  0.4703  0.1671
  293MPD2    H5 4424   1.709   2.908  12.628  0.1701  1.0107  0.1187
  293MPD2    N1 4425   1.595   2.888  12.145  0.3339  0.0936 -0.0954
  293MPD2    H7 4426   1.607   2.918  12.048  0.6362 -0.6196 -0.2795
  294TMC3    C1 4427   1.372   2.833  12.067 -0.1407 -0.4701 -0.1026
  294TMC3    C2 4428   1.253   2.768  12.089  0.1324  0.0551 -0.0669
  294TMC3    C3 4429   1.168   2.726  11.992 -0.2120  0.5323 -0.7341
  294TMC3    C4 4430   1.401   2.859  11.937  0.7039  0.1631  0.0620
  294TMC3    C5 4431   1.316   2.818  11.844 -0.3713 -0.7000  0.9167
  294TMC3    C6 4432   1.203   2.734  11.866 -0.3661 -0.5432  0.3826
  294TMC3     C 4433   1.471   2.836  12.179 -0.3484  0.0103 -0.0151
  294TMC3     O 4434   1.428   2.792  12.288 -0.2715  0.0436 -0.3513
  294TMC3     H 4435   1.222   2.756  12.192 -3.9749 -0.5883 -1.3938
  294TMC3    H1 4436   1.485   2.925  11.918 -0.1467  0.5086 -2.5288
  294TMC3    H2 4437   1.136   2.708  11.785 -0.3243 -5.2550  1.8873
  294TMC3    C7 4438   1.330   2.862  11.709  0.2655 -0.5006 -0.4461
  294TMC3    C8 4439   1.069   2.632  12.028  0.1811 -0.5042 -0.5884
  294TMC3    O1 4440   1.244   2.930  11.659  0.0721  0.0187  0.2478
  294TMC3    O2 4441   0.979   2.670  12.103 -0.1717 -0.2265 -0.0828
  295MPD2     C 4442   2.176   1.400   0.518  0.0105  0.0320  0.5025
  295MPD2    C1 4443   2.101   1.405   0.403  0.0585  0.6094 -0.5652
  295MPD2    C2 4444   1.985   1.331   0.394  0.6553 -0.2112  0.6153
  295MPD2    C3 4445   1.950   1.245   0.500  0.7070 -0.0957 -0.5225
  295MPD2    C4 4446   2.028   1.241   0.611  0.2185 -0.4401  0.5860
  295MPD2    C5 4447   2.142   1.309   0.619 -0.4484  0.4883 -0.1624
  295MPD2     H 4448   1.929   1.327   0.301 -1.5992 -1.7105  2.0356
  295MPD2    H1 4449   1.992   1.178   0.691  1.0037  1.8781  2.7727
  295MPD2    H2 4450   2.278   1.436   0.525  0.0784  0.1433 -1.0256
  295MPD2    H3 4451   2.206   1.294   0.706 -0.5062  0.3473 -0.1441
  295MPD2     N 4452   1.843   1.158   0.508  0.3233  0.6129 -0.4552
  295MPD2    H5 4453   1.846   1.081   0.574 -0.0899  0.0953 -1.0418
  295MPD2    N1 4454   2.123   1.497   0.296 -0.0646  0.1037  0.1165
  295MPD2    H7 4455   2.051   1.506   0.225 -0.0700  0.7999  0.2051
  296TMC3    C1 4456   1.624   1.073   0.468 -0.1469  0.1010 -0.1259
  296TMC3    C2 4457   1.608   1.042   0.599  1.1592 -0.7292 -1.1372
  296TMC3    C3 4458   1.478   1.014   0.646  0.8340  0.3558 -0.5377
  296TMC3    C4 4459   1.515   1.066   0.384 -0.1299  0.6331 -0.0129
  296TMC3    C5 4460   1.388   1.034   0.436  0.5585  0.1885  0.2669
  296TMC3    C6 4461   1.372   1.008   0.568  0.5778  0.4965 -0.4046
  296TMC3     C 4462   1.728   1.166   0.433  0.2708  0.3649 -0.4200
  296TMC3     O 4463   1.702   1.245   0.340  0.8419 -0.8229  0.5842
  296TMC3     H 4464   1.691   1.034   0.668  0.5887 -1.6017 -0.5458
  296TMC3    H1 4465   1.520   1.112   0.286  1.6420 -0.7520 -0.5651
  296TMC3    H2 4466   1.275   0.981   0.608  0.5584  2.5053  0.9460
  296TMC3    C7 4467   1.286   1.091   0.367  0.1727 -0.1401 -0.1596
  296TMC3    C8 4468   1.465   0.955   0.777 -0.3861 -0.4940  0.8281
  296TMC3    O1 4469   1.311   1.127   0.253 -0.4079 -0.2491  0.4148
  296TMC3    O2 4470   1.363   0.887   0.790 -0.2668 -0.3785  0.6809
  297MPD2     C 4471   3.717   3.521  16.425 -0.3569  0.3629  0.1857
  297MPD2    C1 4472   3.704   3.609  16.322  0.3877  0.6071 -0.5370
  297MPD2    C2 4473   3.815   3.674  16.279 -0.2769 -0.2102 -0.0318
  297MPD2    C3 4474   3.943   3.652  16.321 -0.0758  0.4751 -0.1554
  297MPD2    C4 4475   3.953   3.557  16.418 -0.6074  0.2876 -0.3165
  297MPD2    C5 4476   3.842   3.496  16.463  0.2231  0.3784 -0.2643
  297MPD2     H 4477   3.798   3.744  16.198 -1.2141  1.0576  1.2611
  297MPD2    H1 4478   4.050   3.511  16.434 -1.7401 -1.8882  0.2296
  297MPD2    H2 4479   3.636   3.465  16.471  0.6261  1.0426  2.7472
  297MPD2    H3 4480   3.862   3.422  16.540 -1.6965  0.0837 -0.0390
  297MPD2     N 4481   4.054   3.726  16.282  0.3842  0.5368 -0.2184
  297MPD2    H5 4482   4.042   3.790  16.204 -0.5980 -0.7969 -1.1648
  297MPD2    N1 4483   3.583   3.640  16.253  0.1257  0.1151 -0.1672
  297MPD2    H7 4484   3.584   3.694  16.167  0.3662  1.2678  0.5568
  298TMC3    C1 4485   3.361   3.650  16.203  0.0835  0.1719 -0.2481
  298TMC3    C2 4486   3.365   3.569  16.086  0.3559 -0.2824 -0.5064
  298TMC3    C3 4487   3.239   3.537  16.031  0.2839  0.2666 -0.3166
  298TMC3    C4 4488   3.241   3.701  16.254  0.2031  0.2452 -0.3421
  298TMC3    C5 4489   3.121   3.668  16.184  0.5245  0.3055  0.2128
  298TMC3    C6 4490   3.116   3.584  16.074 -0.2645 -0.1875 -0.5089
  298TMC3     C 4491   3.462   3.619  16.304 -0.4056  0.4646 -0.4590
  298TMC3     O 4492   3.432   3.575  16.415  0.0841  0.2110 -0.0652
  298TMC3     H 4493   3.446   3.502  16.063 -0.6042 -1.4846 -0.3802
  298TMC3    H1 4494   3.245   3.756  16.347  0.5995 -1.8790  0.9038
  298TMC3    H2 4495   3.017   3.558  16.039 -1.9109  1.9601  2.5711
  298TMC3    C7 4496   3.003   3.746  16.230 -0.2622  0.2393 -0.2492
  298TMC3    C8 4497   3.235   3.464  15.906  0.6595 -0.1643 -0.2853
  298TMC3    O1 4498   3.021   3.819  16.326 -0.1375  0.4832  0.2350
  298TMC3    O2 4499   3.128   3.419  15.870 -0.5650  0.6869  0.4733
  299MPD2     C 4500   0.221   3.736   9.865  0.2156 -0.3085 -0.2541
  299MPD2    C1 4501   0.166   3.747   9.999  0.3627  0.2566  0.2924
  299MPD2    C2 4502   0.029   3.747  10.019  0.3189 -0.0410 -0.0483
  299MPD2    C3 4503   4.660   3.738   9.918 -0.2048 -0.1106  0.3790
  299MPD2    C4 4504   4.710   3.738   9.791  0.8669 -0.5163 -0.2629
  299MPD2    C5 4505   0.123   3.731   9.764  0.0514 -0.2928  0.0282
  299MPD2     H 4506   0.000   3.774  10.120 -2.6927 -0.1623 -0.8890
  299MPD2    H1 4507   4.644   3.752   9.707  1.8936 -1.6602 -1.2470
  299MPD2    H2 4508   0.328   3.737   9.846 -0.0620  0.1887 -1.8270
  299MPD2    H3 4509   0.149   3.747   9.660 -3.0911 -0.8045 -0.8177
  299MPD2     N 4510   4.520   3.740   9.934 -0.4365  0.2808 -0.4685
  299MPD2    H5 4511   4.463   3.745   9.850 -1.9526 -0.1896  0.5255
  299MPD2    N1 4512   0.251   3.757  10.117 -0.0329  0.4200  0.1384
  299MPD2    H7 4513   0.349   3.784  10.111 -0.0965 -0.0203 -3.2647
  300TMC3    C1 4514   4.320   3.795  10.039 -0.2024 -0.2628 -1.0163
  300TMC3    C2 4515   4.271   3.897  10.118  0.3982  0.3488 -0.4596
  300TMC3    C3 4516   4.134   3.913  10.125 -0.8797 -0.0775  0.1663
  300TMC3    C4 4517   4.239   3.722   9.961  0.0437 -0.4412  0.5064
  300TMC3    C5 4518   4.106   3.742   9.969  0.4300 -0.0511  0.5317
  300TMC3    C6 4519   4.050   3.836  10.050 -0.6440  0.0757 -0.2630
  300TMC3     C 4520   4.453   3.745  10.055 -0.4451  0.0177 -0.1813
  300TMC3     O 4521   4.499   3.749  10.163 -0.0733  0.4545  0.2679
  300TMC3     H 4522   4.348   3.956  10.165  0.8649 -0.7091  0.0960
  300TMC3    H1 4523   4.272   3.637   9.903 -2.4084  0.1334 -1.7379
  300TMC3    H2 4524   3.943   3.850  10.060 -0.3211  1.3258  1.6277
  300TMC3    C7 4525   4.027   3.613   9.966  0.1994 -0.2920 -0.1531
  300TMC3    C8 4526   4.072   4.009  10.218  0.0785 -0.8115  0.7879
  300TMC3    O1 4527   4.048   3.535   9.879 -0.2234 -0.1015 -0.2979
  300TMC3    O2 4528   3.964   4.064  10.186 -0.3855  0.3481  0.0213
  301MPD2     C 4529   1.448   0.534   1.556 -0.1740  0.1065 -0.1332
  301MPD2    C1 4530   1.441   0.486   1.430  0.1971  0.0378 -1.0529
  301MPD2    C2 4531   1.536   0.520   1.337 -0.1669  0.0284 -0.1953
  301MPD2    C3 4532   1.656   0.579   1.377  0.2139  0.1621 -0.3065
  301MPD2    C4 4533   1.666   0.614   1.508 -0.3413  0.3148  0.6203
  301MPD2    C5 4534   1.565   0.591   1.598 -0.5058  0.0576  0.0067
  301MPD2     H 4535   1.522   0.500   1.231 -0.6546  1.8155 -0.4654
  301MPD2    H1 4536   1.757   0.653   1.550  0.4044 -1.0686  0.2860
  301MPD2    H2 4537   1.373   0.515   1.632 -1.3327  1.6419 -0.8992
  301MPD2    H3 4538   1.573   0.608   1.705 -1.6380  0.2981  0.0449
  301MPD2     N 4539   1.755   0.633   1.290  0.0533 -0.5917 -0.4504
  301MPD2    H5 4540   1.813   0.705   1.331 -0.7053  0.4626 -1.2224
  301MPD2    N1 4541   1.335   0.409   1.378  0.3541 -0.7457 -0.0395
  301MPD2    H7 4542   1.346   0.379   1.282  0.7670  0.8414 -0.4835
  302TMC3    C1 4543   1.837   0.724   1.083 -0.6324  0.5480 -0.0242
  302TMC3    C2 4544   1.951   0.784   1.131 -0.8590 -0.3201 -0.1598
  302TMC3    C3 4545   2.013   0.877   1.046 -0.5441  0.2135 -0.7470
  302TMC3    C4 4546   1.801   0.741   0.953 -0.1324  0.0717 -0.5926
  302TMC3    C5 4547   1.864   0.838   0.870 -0.4053 -0.1214  0.1083
  302TMC3    C6 4548   1.972   0.907   0.920  0.2194 -0.5471  0.3663
  302TMC3     C 4549   1.751   0.631   1.152 -0.1208  0.0004 -0.0487
  302TMC3     O 4550   1.670   0.572   1.087  0.3705  0.2907 -0.4901
  302TMC3     H 4551   1.995   0.764   1.228 -2.2635  0.2359  0.6030
  302TMC3    H1 4552   1.724   0.676   0.913 -0.2681  0.6233 -1.2242
  302TMC3    H2 4553   2.028   0.966   0.848 -1.7553  0.2458 -0.5279
  302TMC3    C7 4554   1.845   0.835   0.726  0.1334 -0.1879  0.1081
  302TMC3    C8 4555   2.139   0.920   1.094  0.8755 -0.6176  0.8605
  302TMC3    O1 4556   1.891   0.931   0.667  0.2143 -0.1950  0.4048
  302TMC3    O2 4557   2.210   0.850   1.166  0.2835 -0.2469  0.2872
  303MPD2     C 4558   2.099   3.131  10.327 -0.5432 -1.1216  1.2050
  303MPD2    C1 4559   2.032   3.021  10.273  0.5130 -0.2665 -0.5688
  303MPD2    C2 4560   1.979   3.036  10.146 -0.2504  0.0273 -0.0261
  303MPD2    C3 4561   2.015   3.134  10.057  0.5215 -0.7626 -0.1201
  303MPD2    C4 4562   2.101   3.237  10.106  0.3032 -0.5285  0.9991
  303MPD2    C5 4563   2.133   3.234  10.238  0.1072  0.0153  0.8468
  303MPD2     H 4564   1.921   2.950  10.113 -2.0646  1.6902 -1.1657
  303MPD2    H1 4565   2.136   3.326  10.056 -2.9942  0.0256 -0.3287
  303MPD2    H2 4566   2.125   3.134  10.433  1.1654  3.6234  0.6095
  303MPD2    H3 4567   2.190   3.317  10.279 -0.6856  1.9762 -2.0169
  303MPD2     N 4568   1.971   3.140   9.925  0.0255  0.3257 -0.2025
  303MPD2    H5 4569   2.001   3.220   9.870 -1.2130  1.2478  0.4668
  303MPD2    N1 4570   2.018   2.901  10.347 -0.0768  0.3820  0.1895
  303MPD2    H7 4571   2.017   2.923  10.446 -1.6462  1.3644 -0.0458
  304TMC3    C1 4572   1.955   2.678  10.395  0.0042  0.1329 -0.1642
  304TMC3    C2 4573   1.866   2.717  10.488 -0.2523 -0.1201  0.2700
  304TMC3    C3 4574   1.795   2.624  10.566  0.1611 -0.1587 -0.7797
  304TMC3    C4 4575   1.969   2.547  10.372 -0.0657  0.0425 -0.1784
  304TMC3    C5 4576   1.908   2.458  10.456  0.1378 -0.1255 -0.2716
  304TMC3    C6 4577   1.828   2.492  10.558 -0.0434  0.4100 -0.4372
  304TMC3     C 4578   2.009   2.772  10.299  0.6886 -0.2082 -0.5044
  304TMC3     O 4579   2.020   2.734  10.182 -0.4633 -0.4898  0.0960
  304TMC3     H 4580   1.844   2.823  10.495 -1.7182 -0.4522  0.5423
  304TMC3    H1 4581   2.036   2.515  10.292 -0.9960 -1.6983 -0.2656
  304TMC3    H2 4582   1.757   2.424  10.605 -0.2890  0.8616 -0.1472
  304TMC3    C7 4583   1.883   2.331  10.391  0.0261  0.3322 -0.6696
  304TMC3    C8 4584   1.659   2.639  10.547  0.0495  0.1386 -0.0057
  304TMC3    O1 4585   1.968   2.276  10.322 -0.2865  0.2853  0.5033
  304TMC3    O2 4586   1.606   2.541  10.500 -0.3012 -0.0337 -0.4225
  305MPD2     C 4587   0.163   0.457  13.767  0.1793  0.3860  0.7218
  305MPD2    C1 4588   0.165   0.319  13.785 -0.6275 -0.3589 -0.8744
  305MPD2    C2 4589   0.137   0.236  13.675 -0.0120 -1.1301  0.2957
  305MPD2    C3 4590   0.122   0.301  13.551 -0.6795  0.8507  0.4678
  305MPD2    C4 4591   0.129   0.436  13.537 -0.1651  0.5667 -0.2064
  305MPD2    C5 4592   0.138   0.518  13.648  0.4912 -0.5630 -0.0525
  305MPD2     H 4593   0.118   0.132  13.695  2.3647 -1.5828  0.2810
  305MPD2    H1 4594   0.108   0.488  13.444 -0.3811  2.9866  1.1915
  305MPD2    H2 4595   0.179   0.522  13.852 -0.2172 -0.8547  1.7443
  305MPD2    H3 4596   0.128   0.626  13.645 -1.9467 -0.7798  0.4752
  305MPD2     N 4597   0.101   0.234  13.424  0.4368  0.1538  0.3004
  305MPD2    H5 4598   0.107   0.277  13.332  0.0777  0.6655  0.5154
  305MPD2    N1 4599   0.182   0.277  13.917 -0.1367 -0.3966  0.2000
  305MPD2    H7 4600   0.216   0.350  13.979  1.2698  0.1876 -1.2377
  306TMC3    C1 4601   0.229   0.134  14.102 -0.0288 -0.2198  0.2747
  306TMC3    C2 4602   0.323   0.040  14.132  0.6960  0.4935 -0.6066
  306TMC3    C3 4603   0.374   0.040  14.259 -0.0405  0.1461 -0.0214
  306TMC3    C4 4604   0.182   0.223  14.197  0.2068  0.0480 -0.8877
  306TMC3    C5 4605   0.235   0.213  14.320  0.3209 -0.3134 -0.4406
  306TMC3    C6 4606   0.337   0.124  14.354  0.6871  0.0656 -1.0199
  306TMC3     C 4607   0.182   0.145  13.965 -0.4220 -0.3181  0.5256
  306TMC3     O 4608   0.179   0.042  13.897 -0.6523  0.1908 -0.1584
  306TMC3     H 4609   0.374   4.699  14.060  0.6733  0.4545 -0.5881
  306TMC3    H1 4610   0.103   0.294  14.175 -0.4616 -0.1736  0.7481
  306TMC3    H2 4611   0.390   0.126  14.448 -1.1670 -0.8720  0.0479
  306TMC3    C7 4612   0.147   0.258  14.425  0.1398  0.2152 -1.0111
  306TMC3    C8 4613   0.410   4.638  14.331 -0.6511  1.0535 -0.1001
  306TMC3    O1 4614   0.024   0.262  14.412  0.4405  0.0311  0.2868
  306TMC3    O2 4615   0.475   4.636  14.437  0.1966  0.1565 -0.3383
  307MPD2     C 4616   3.178   2.518   0.966 -0.7286 -0.0018  0.5456
  307MPD2    C1 4617   3.126   2.635   0.915  0.0258  0.3336 -0.2656
  307MPD2    C2 4618   2.997   2.665   0.949  0.2253 -0.5671 -0.0216
  307MPD2    C3 4619   2.919   2.586   1.031 -0.5784  0.0005  0.0748
  307MPD2    C4 4620   2.986   2.484   1.097 -0.0115 -0.6253 -0.1567
  307MPD2    C5 4621   3.116   2.455   1.064  0.2101 -0.4392 -0.1632
  307MPD2     H 4622   2.955   2.750   0.897 -0.0645 -1.0498 -0.5675
  307MPD2    H1 4623   2.942   2.419   1.171 -0.1828 -0.4378 -0.0910
  307MPD2    H2 4624   3.264   2.468   0.922 -0.4268  1.1139 -0.1355
  307MPD2    H3 4625   3.172   2.375   1.112  1.4598  1.2175  1.1171
  307MPD2     N 4626   2.783   2.612   1.062 -0.6199  0.0481  0.1992
  307MPD2    H5 4627   2.759   2.704   1.026  1.2400  0.3913 -0.1422
  307MPD2    N1 4628   3.184   2.696   0.802 -0.4839 -0.2545  1.1115
  307MPD2    H7 4629   3.147   2.787   0.773 -1.4320 -0.9241  0.2070
  308TMC3    C1 4630   2.353   2.606   1.069  0.9382 -0.3173 -0.4861
  308TMC3    C2 4631   2.358   2.743   1.058  0.4650 -0.0091 -0.0449
  308TMC3    C3 4632   2.470   2.809   1.101 -0.2811 -1.0756  0.1887
  308TMC3    C4 4633   2.461   2.535   1.109  0.1344 -0.2707  0.1949
  308TMC3    C5 4634   2.570   2.603   1.148 -0.1060 -1.0449 -0.2126
  308TMC3    C6 4635   2.565   2.739   1.162  0.1216 -0.5451  0.5215
  308TMC3     C 4636   2.285   2.539   0.958  0.2329  0.5318  0.1034
  308TMC3     O 4637   2.328   2.438   0.908 -0.4969  0.0426  0.0268
  308TMC3     H 4638   2.275   2.807   1.030  1.1809  1.9604  2.3496
  308TMC3    H1 4639   2.464   2.428   1.092 -2.3483 -0.1873 -0.7734
  308TMC3    H2 4640   2.659   2.782   1.196 -0.8339  2.6782 -0.9500
  308TMC3    C7 4641   2.693   2.533   1.129 -0.8494 -0.7424 -0.8965
  308TMC3    C8 4642   2.507   2.937   1.046  0.2504  0.1554  0.2163
  308TMC3    O1 4643   2.687   2.411   1.120  0.3183 -0.5740  0.3026
  308TMC3    O2 4644   2.591   3.004   1.100  0.5563 -0.4898  0.5474
  309MPD2     C 4645   2.263   3.384  17.042  0.3529  0.9500 -0.3926
  309MPD2    C1 4646   2.192   3.430  16.934  0.5084 -0.3117  0.0722
  309MPD2    C2 4647   2.055   3.453  16.946  0.6683  0.5856  0.6602
  309MPD2    C3 4648   2.008   3.439  17.071  0.1262 -0.4373 -0.1868
  309MPD2    C4 4649   2.079   3.409  17.182  1.0276 -0.1284 -0.5194
  309MPD2    C5 4650   2.204   3.371  17.160  0.7694 -0.6253  0.3248
  309MPD2     H 4651   1.993   3.488  16.864  1.7141 -2.5401 -1.4701
  309MPD2    H1 4652   2.046   3.376  17.280  0.6949  2.5276  0.2787
  309MPD2    H2 4653   2.360   3.344  17.016  1.3192  2.9232  0.2520
  309MPD2    H3 4654   2.259   3.315  17.236  2.3739 -0.4272 -0.6891
  309MPD2     N 4655   1.873   3.459  17.095  0.1808 -0.0627 -0.0141
  309MPD2    H5 4656   1.848   3.464  17.194  0.0109  1.2038 -0.1195
  309MPD2    N1 4657   2.249   3.433  16.804 -0.9192  0.2323 -0.2584
  309MPD2    H7 4658   2.189   3.445  16.723 -1.8749 -1.8027  0.1458
  310TMC3    C1 4659   2.423   3.407  16.645 -0.5737 -0.9411 -0.3294
  310TMC3    C2 4660   2.343   3.440  16.544  0.1367  0.5782 -0.2708
  310TMC3    C3 4661   2.373   3.397  16.419  0.1774  0.6031  0.6112
  310TMC3    C4 4662   2.532   3.325  16.628 -1.1305 -0.2604 -0.4407
  310TMC3    C5 4663   2.555   3.278  16.502 -0.4478  0.4276 -0.5413
  310TMC3    C6 4664   2.479   3.318  16.400 -0.5923 -0.0206  0.2935
  310TMC3     C 4665   2.386   3.434  16.781 -0.3780 -0.5403 -0.6418
  310TMC3     O 4666   2.476   3.441  16.860  0.0164  0.3889 -0.5323
  310TMC3     H 4667   2.267   3.515  16.559 -1.0294 -0.5735 -0.3540
  310TMC3    H1 4668   2.590   3.298  16.716 -1.8679  0.7337  0.3466
  310TMC3    H2 4669   2.496   3.288  16.297  1.5421  1.8436  0.0900
  310TMC3    C7 4670   2.679   3.205  16.468 -0.0137 -0.3734  0.4717
  310TMC3    C8 4671   2.339   3.492  16.310  0.2945  0.7899 -0.1689
  310TMC3    O1 4672   2.695   3.198  16.349 -0.5727 -0.0072 -0.4983
  310TMC3    O2 4673   2.430   3.527  16.227 -0.2666 -0.0667  0.2380
  311MPD2     C 4674   4.244   4.218  12.352 -0.6864  0.3855  0.0936
  311MPD2    C1 4675   4.228   4.325  12.443  0.2229  0.0379 -0.0915
  311MPD2    C2 4676   4.117   4.333  12.518 -0.0971 -0.5369 -0.5768
  311MPD2    C3 4677   4.031   4.223  12.522  0.3827  0.1293 -0.4130
  311MPD2    C4 4678   4.044   4.122  12.438  0.6988  0.8366  0.4797
  311MPD2    C5 4679   4.148   4.121  12.350  0.0491 -0.0779  0.0120
  311MPD2     H 4680   4.111   4.417  12.586  0.8738 -0.2576 -0.8376
  311MPD2    H1 4681   3.985   4.031  12.448 -1.0699  2.0153  0.6118
  311MPD2    H2 4682   4.325   4.217  12.280  1.6124 -2.2944  2.7016
  311MPD2    H3 4683   4.169   4.035  12.288 -0.4521  1.0948 -1.7575
  311MPD2     N 4684   3.932   4.227  12.624 -0.6819  0.6259 -0.1772
  311MPD2    H5 4685   3.935   4.308  12.684  0.2063  0.8247 -0.4950
  311MPD2    N1 4686   4.327   4.424  12.451 -0.3925 -0.3958 -0.8675
  311MPD2    H7 4687   4.293   4.506  12.501 -2.4436 -2.1266  0.5950
  312TMC3    C1 4688   3.774   4.143  12.773  0.3507 -0.3299 -0.1017
  312TMC3    C2 4689   3.651   4.098  12.803  0.4435 -0.6018 -0.3017
  312TMC3    C3 4690   3.596   4.138  12.923  0.0925 -0.3101 -0.3284
  312TMC3    C4 4691   3.841   4.210  12.873 -0.0022 -0.7196 -0.4232
  312TMC3    C5 4692   3.780   4.242  12.984 -0.3768  0.6914  0.0356
  312TMC3    C6 4693   3.659   4.212  13.019 -0.2542 -0.2535  0.5580
  312TMC3     C 4694   3.825   4.139  12.638 -0.3333  0.2928  0.2930
  312TMC3     O 4695   3.792   4.047  12.565 -0.7654 -0.0931 -0.5958
  312TMC3     H 4696   3.605   4.017  12.747  0.3678  0.0187 -1.1211
  312TMC3    H1 4697   3.948   4.224  12.865 -0.1603 -0.4294 -2.0066
  312TMC3    H2 4698   3.632   4.228  13.123 -0.1135  0.6219  0.4625
  312TMC3    C7 4699   3.839   4.351  13.048  0.2131 -0.4392  0.2005
  312TMC3    C8 4700   3.464   4.097  12.941  0.2841  0.0897 -0.0653
  312TMC3    O1 4701   3.882   4.440  12.973  0.5302 -0.2688  0.0385
  312TMC3    O2 4702   3.429   4.009  12.864 -0.0409 -0.0546  0.0304
  313MPD2     C 4703   3.758   3.904  10.936 -0.3083 -0.3509 -0.0443
  313MPD2    C1 4704   3.672   4.006  10.908 -0.7835 -0.2275  0.2484
  313MPD2    C2 4705   3.621   4.022  10.782  0.7219  0.4765 -0.4251
  313MPD2    C3 4706   3.665   3.947  10.678 -0.0831 -0.9129  0.1138
  313MPD2    C4 4707   3.763   3.856  10.706 -0.0024  0.1516  0.4317
  313MPD2    C5 4708   3.809   3.840  10.830 -0.1074  0.4484 -0.0570
  313MPD2     H 4709   3.539   4.090  10.760 -0.9822 -1.1881  0.8845
  313MPD2    H1 4710   3.800   3.788  10.630 -0.2591 -0.2968  0.7030
  313MPD2    H2 4711   3.788   3.871  11.035 -2.1065 -0.8447  0.3443
  313MPD2    H3 4712   3.889   3.768  10.844 -0.3685 -0.8617 -5.3290
  313MPD2     N 4713   3.601   3.962  10.552 -0.3058 -0.5501  0.0162
  313MPD2    H5 4714   3.523   4.026  10.538 -0.1809 -0.1271  1.1733
  313MPD2    N1 4715   3.614   4.078  11.015 -0.0470 -0.2193 -0.3757
  313MPD2    H7 4716   3.540   4.141  10.988  0.4405 -1.0600 -3.7732
  314TMC3    C1 4717   3.567   4.180  11.220 -0.7601 -0.0661  0.5073
  314TMC3    C2 4718   3.646   4.251  11.302  0.0215  0.3904 -1.1738
  314TMC3    C3 4719   3.648   4.390  11.286 -0.2116  0.2101 -0.2708
  314TMC3    C4 4720   3.470   4.236  11.142 -0.1449 -0.0521 -0.4835
  314TMC3    C5 4721   3.465   4.370  11.127  0.2367 -0.5783 -0.3916
  314TMC3    C6 4722   3.564   4.448  11.193 -0.1615 -0.1033  0.0503
  314TMC3     C 4723   3.644   4.078  11.151  0.7051  0.4754 -0.2796
  314TMC3     O 4724   3.742   4.027  11.205  0.0336 -0.0526  0.1957
  314TMC3     H 4725   3.718   4.190  11.355 -0.6786 -0.1443 -0.8409
  314TMC3    H1 4726   3.404   4.164  11.096  1.5988 -1.3306 -0.9733
  314TMC3    H2 4727   3.555   4.555  11.185  3.5974  0.2945  1.4032
  314TMC3    C7 4728   3.431   4.421  10.993  0.1545 -0.3688  0.4313
  314TMC3    C8 4729   3.757   4.475  11.332  0.3802  0.1309 -0.0526
  314TMC3    O1 4730   3.334   4.373  10.939  0.5033 -0.0027 -0.3959
  314TMC3    O2 4731   3.778   4.566  11.259  0.7167 -0.0734 -0.0930
  315MPD2     C 4732   3.061   3.942   0.311 -0.0902 -0.3707 -0.3007
  315MPD2    C1 4733   3.172   3.889   0.252  1.2605  0.8298 -0.6703
  315MPD2    C2 4734   3.209   3.925   0.124  0.1240 -0.0449  0.1431
  315MPD2    C3 4735   3.130   4.001   0.045 -0.4325  0.3635 -0.4321
  315MPD2    C4 4736   3.012   4.067   0.105  0.1922  0.6879  0.0085
  315MPD2    C5 4737   2.986   4.034   0.235 -0.1264  0.2139  0.2135
  315MPD2     H 4738   3.301   3.881   0.086 -1.9797  0.0597 -5.1483
  315MPD2    H1 4739   2.945   4.136   0.054 -1.6312 -0.6114  0.6871
  315MPD2    H2 4740   3.027   3.918   0.411  2.1356  1.9199  1.0095
  315MPD2    H3 4741   2.891   4.071   0.272 -0.0409 -0.9650  1.5849
  315MPD2     N 4742   3.182   4.037  17.607  0.0353 -0.0415  0.3106
  315MPD2    H5 4743   3.265   3.987  17.580 -0.8011 -0.4691 -1.4286
  315MPD2    N1 4744   3.258   3.803   0.332  0.3142  0.0447 -0.1382
  315MPD2    H7 4745   3.327   3.762   0.269  2.1034  2.7425  0.0886
  316TMC3    C1 4746   3.190   4.122  17.391 -0.0489  0.0776  0.7248
  316TMC3    C2 4747   3.327   4.090  17.385  0.4666 -0.5701  1.2430
  316TMC3    C3 4748   3.396   4.134  17.278  0.1424  0.0309  0.0876
  316TMC3    C4 4749   3.130   4.203  17.299 -0.2602  0.7022  1.0234
  316TMC3    C5 4750   3.208   4.250  17.192  1.1501  0.0031  0.1052
  316TMC3    C6 4751   3.339   4.212  17.179 -0.1808 -0.6142  0.1458
  316TMC3     C 4752   3.116   4.110  17.517  0.0395  0.4801 -0.5193
  316TMC3     O 4753   3.008   4.165  17.528 -0.4381 -0.6513  0.4628
  316TMC3     H 4754   3.376   4.045  17.471  1.9183 -0.1191  0.6453
  316TMC3    H1 4755   3.033   4.245  17.323 -0.9353 -0.3241  0.0842
  316TMC3    H2 4756   3.400   4.251  17.099  1.4939 -1.5349  0.9614
  316TMC3    C7 4757   3.170   4.365  17.109 -0.6372 -0.4640 -0.0204
  316TMC3    C8 4758   3.533   4.090  17.246 -0.5837  0.1317  0.3411
  316TMC3    O1 4759   3.249   4.454  17.085 -0.0077 -0.5035  0.7032
  316TMC3    O2 4760   3.575   4.107  17.135 -1.0258 -0.4425  0.2834
  317MPD2     C 4761   0.206   1.971  12.656  0.0242  0.4524  0.0293
  317MPD2    C1 4762   0.297   1.883  12.600  0.0074  0.2799  0.2739
  317MPD2    C2 4763   0.356   1.799  12.686 -0.0697 -0.1227 -0.3929
  317MPD2    C3 4764   0.334   1.802  12.819  0.2139 -0.1830 -0.3695
  317MPD2    C4 4765   0.258   1.902  12.872  0.5204 -0.0836  0.0388
  317MPD2    C5 4766   0.192   1.985  12.789  0.0756 -0.2742 -0.1502
  317MPD2     H 4767   0.425   1.729  12.641 -0.7836 -0.1558 -1.4382
  317MPD2    H1 4768   0.240   1.903  12.978 -1.1167  0.0949 -0.2502
  317MPD2    H2 4769   0.155   2.047  12.599 -0.1428 -0.3467 -0.9072
  317MPD2    H3 4770   0.126   2.056  12.839  1.8228  1.2253  0.0231
  317MPD2     N 4771   0.395   1.701  12.892 -0.2395 -0.2897 -0.0723
  317MPD2    H5 4772   0.434   1.627  12.833 -0.7385 -0.0382 -0.7119
  317MPD2    N1 4773   0.301   1.851  12.460  0.0719 -0.2825 -0.3242
  317MPD2    H7 4774   0.376   1.788  12.434  1.4353  1.4389 -0.5511
  318TMC3    C1 4775   0.454   1.562  13.068  0.0378 -0.6799 -0.4442
  318TMC3    C2 4776   0.439   1.461  12.976  0.4222 -0.1959  0.3435
  318TMC3    C3 4777   0.497   1.338  12.990 -1.7372 -0.6580 -0.7021
  318TMC3    C4 4778   0.534   1.542  13.174  0.5742 -0.2327  0.6975
  318TMC3    C5 4779   0.617   1.437  13.176  0.1493  0.8029 -0.2719
  318TMC3    C6 4780   0.600   1.335  13.082  0.3356 -0.2932 -0.5697
  318TMC3     C 4781   0.417   1.699  13.028 -0.1824  0.7055 -0.2979
  318TMC3     O 4782   0.410   1.794  13.107 -0.2645  0.7854  0.0349
  318TMC3     H 4783   0.373   1.459  12.889  0.2015 -0.2829  0.5120
  318TMC3    H1 4784   0.536   1.607  13.261  0.8722  1.5024 -0.6000
  318TMC3    H2 4785   0.663   1.247  13.080 -1.8372 -1.8539  0.2939
  318TMC3    C7 4786   0.664   1.403  13.309  0.6768  0.2541 -0.1806
  318TMC3    C8 4787   0.513   1.272  12.869  0.0751 -0.5454 -0.8169
  318TMC3    O1 4788   0.616   1.463  13.406  0.0135  0.5083 -0.0358
  318TMC3    O2 4789   0.624   1.272  12.820 -0.4769  0.5909 -0.0424
  319MPD2     C 4790   1.816   3.119  16.091 -0.3573 -0.3030 -0.0071
  319MPD2    C1 4791   1.763   3.033  16.180  0.2176  0.2025  0.1038
  319MPD2    C2 4792   1.658   2.947  16.154 -0.4875  0.7088 -0.3366
  319MPD2    C3 4793   1.609   2.949  16.028 -0.5131 -0.1709 -0.0212
  319MPD2    C4 4794   1.663   3.031  15.926  0.5676  0.0271  0.4158
  319MPD2    C5 4795   1.765   3.120  15.963  0.2174 -0.6925  0.5795
  319MPD2     H 4796   1.616   2.889  16.235  0.4175  1.4278  0.6437
  319MPD2    H1 4797   1.620   3.034  15.826  1.4815 -0.8369 -0.0002
  319MPD2    H2 4798   1.901   3.184  16.110  1.1267 -2.5380  1.0675
  319MPD2    H3 4799   1.807   3.186  15.888  0.3419  0.0772  1.3314
  319MPD2     N 4800   1.489   2.876  16.000 -0.2560 -0.2084 -0.1124
  319MPD2    H5 4801   1.458   2.885  15.904 -0.4517 -1.1138 -0.1331
  319MPD2    N1 4802   1.832   3.044  16.307 -0.0041  0.1892  0.6196
  319MPD2    H7 4803   1.919   3.094  16.316  0.1409 -0.1178  0.9403
  320TMC3    C1 4804   1.299   2.744  16.022  0.1728 -0.0232  0.6662
  320TMC3    C2 4805   1.234   2.828  15.935  0.0172  0.2443 -0.8086
  320TMC3    C3 4806   1.116   2.792  15.890  0.0978  0.0425 -0.3268
  320TMC3    C4 4807   1.241   2.636  16.071 -0.7051 -0.6044  0.5472
  320TMC3    C5 4808   1.129   2.589  16.006  0.6980  0.0906 -0.3472
  320TMC3    C6 4809   1.059   2.670  15.917 -0.1144  0.0628  0.5954
  320TMC3     C 4810   1.428   2.784  16.079  0.4397  0.8285 -0.3568
  320TMC3     O 4811   1.444   2.747  16.193 -0.6870 -0.1300 -0.6764
  320TMC3     H 4812   1.285   2.909  15.884  1.8058 -0.9426 -0.8989
  320TMC3    H1 4813   1.298   2.569  16.135 -0.4429  0.2896  1.2543
  320TMC3    H2 4814   0.959   2.633  15.898  0.6911 -2.1635  0.7564
  320TMC3    C7 4815   1.060   2.470  16.052 -0.1793  0.9631 -0.1201
  320TMC3    C8 4816   1.029   2.894  15.844  0.0416 -0.7253 -0.4141
  320TMC3    O1 4817   1.005   2.406  15.961  0.8466 -0.4321 -0.1691
  320TMC3    O2 4818   1.071   3.011  15.844  0.5368  0.1615 -0.1383
  321TMC3    C1 4819   1.867   3.015  16.535  0.0636  0.1575 -0.3846
  321TMC3    C2 4820   1.798   3.034  16.657  0.3966 -0.1595  0.0638
  321TMC3    C3 4821   1.850   3.126  16.748 -0.8353 -0.0281  0.6713
  321TMC3    C4 4822   1.989   3.062  16.512  0.8311  0.6857  0.2772
  321TMC3    C5 4823   2.048   3.144  16.609  0.4865  0.7972 -0.9113
  321TMC3    C6 4824   1.978   3.184  16.720  0.7936  0.1733  0.3169
  321TMC3     C 4825   1.781   2.985  16.420  0.4781  0.2976  0.0842
  321TMC3     O 4826   1.671   2.937  16.440 -0.2384  0.2329  0.3947
  321TMC3     H 4827   1.707   2.982  16.681 -0.0838  0.2536 -0.8723
  321TMC3    H1 4828   2.047   3.035  16.424  0.9478 -0.0365  0.5801
  321TMC3    H2 4829   2.010   3.254  16.797  2.9935  0.1707 -0.5889
  321TMC3    C7 4830   2.189   3.110  16.634 -0.3526 -0.0536  0.3605
  321TMC3    C8 4831   1.828   3.087  16.885 -0.1232  0.6231  0.8720
  321TMC3    O1 4832   2.260   3.061  16.545 -0.4192  0.5827  0.3448
  321TMC3    O2 4833   1.909   3.137  16.960 -0.0138  0.7375 -0.2943
  322MPD2     C 4834   0.252   4.507  13.126 -0.0155  0.1779  0.6509
  322MPD2    C1 4835   0.186   4.451  13.236 -0.6804 -0.1289 -0.0131
  322MPD2    C2 4836   0.108   4.339  13.210 -0.1849 -0.6580 -0.3169
  322MPD2    C3 4837   0.096   4.282  13.083 -0.2484  0.4627 -0.4478
  322MPD2    C4 4838   0.161   4.339  12.971  0.0515 -0.8003  0.3813
  322MPD2    C5 4839   0.244   4.450  12.995 -0.0128 -0.2235 -0.3774
  322MPD2     H 4840   0.050   4.288  13.286  0.7976  0.3423  1.1024
  322MPD2    H1 4841   0.142   4.304  12.871 -0.9451  1.9562 -0.3757
  322MPD2    H2 4842   0.324   4.588  13.139 -0.3249  0.8927 -2.1077
  322MPD2    H3 4843   0.296   4.486  12.908 -0.3987  0.9860 -0.1129
  322MPD2     N 4844   0.010   4.164  13.085 -0.1723  0.8159 -0.2909
  322MPD2    H5 4845   4.700   4.130  13.175 -0.7209  1.1170 -0.3725
  322MPD2    N1 4846   0.200   4.499  13.367  0.1226  0.2372  0.6072
  322MPD2    H7 4847   0.270   4.571  13.382  0.6123 -0.2829  0.8163
  323TMC3    C1 4848   0.183   4.509  13.605 -0.2241  0.4232  0.0811
  323TMC3    C2 4849   0.296   4.582  13.603 -0.3747  0.0359 -0.0868
  323TMC3    C3 4850   0.380   4.573  13.708 -0.3415 -0.0632 -0.7705
  323TMC3    C4 4851   0.157   4.424  13.709 -0.4154  0.0016  0.9907
  323TMC3    C5 4852   0.242   4.424  13.815  0.1855  0.3358  0.3530
  323TMC3    C6 4853   0.353   4.502  13.818 -0.2084 -1.0574 -0.1362
  323TMC3     C 4854   0.129   4.456  13.482  0.2165  0.0389 -0.3739
  323TMC3     O 4855   0.033   4.377  13.486  0.8087  0.4096 -0.2490
  323TMC3     H 4856   0.319   4.641  13.515  0.7102  2.2155  1.6648
  323TMC3    H1 4857   0.078   4.351  13.705  0.2633 -0.6698 -0.3105
  323TMC3    H2 4858   0.417   4.489  13.904 -1.3757  3.3711  1.4274
  323TMC3    C7 4859   0.243   4.306  13.904 -0.5135 -1.2657 -0.4171
  323TMC3    C8 4860   0.492   4.660  13.709 -0.2155 -0.3320 -0.1749
  323TMC3    O1 4861   0.351   4.276  13.955  0.5645  0.0355  0.1351
  323TMC3    O2 4862   0.588   4.622  13.774  0.4326  0.0265 -0.2231
  324MPD2     C 4863   1.541   0.092  14.335  0.3750 -0.2649  0.0273
  324MPD2    C1 4864   1.589   0.178  14.238 -0.9134 -0.2415 -0.9069
  324MPD2    C2 4865   1.497   0.273  14.183  0.5065  0.3473 -0.4297
  324MPD2    C3 4866   1.368   0.275  14.223 -0.1491 -0.3810 -0.0028
  324MPD2    C4 4867   1.326   0.188  14.324 -0.6582  1.0541  0.0747
  324MPD2    C5 4868   1.408   0.095  14.364  0.5474 -0.2627  0.0284
  324MPD2     H 4869   1.530   0.344  14.108  0.3844  0.0684 -0.7434
  324MPD2    H1 4870   1.223   0.175  14.357 -1.1657  0.4389 -1.7708
  324MPD2    H2 4871   1.596   0.012  14.385 -1.5249 -1.2944  0.4475
  324MPD2    H3 4872   1.376   0.026  14.441 -0.2062 -1.0716 -1.0198
  324MPD2     N 4873   1.282   0.373  14.179 -0.3139  1.5753  0.1166
  324MPD2    H5 4874   1.196   0.389  14.231 -1.3031 -0.0589 -1.0458
  324MPD2    N1 4875   1.722   0.189  14.196 -0.2264  0.2888  0.2930
  324MPD2    H7 4876   1.735   0.270  14.137  2.5817 -0.5206 -0.2177
  325TMC3    C1 4877   1.187   0.543  14.056  0.1569  0.3980  0.4191
  325TMC3    C2 4878   1.139   0.564  13.927 -0.3968  0.2375 -0.4047
  325TMC3    C3 4879   1.018   0.637  13.915 -0.0982  0.8802  0.2387
  325TMC3    C4 4880   1.114   0.588  14.166 -0.2298 -0.0459  0.2939
  325TMC3    C5 4881   0.998   0.656  14.148  0.2387 -0.5089  0.8074
  325TMC3    C6 4882   0.944   0.684  14.026  0.4168  0.3030 -0.5709
  325TMC3     C 4883   1.299   0.448  14.068  0.1747  0.1840 -0.4251
  325TMC3     O 4884   1.376   0.430  13.973 -0.0747  1.0067 -0.3260
  325TMC3     H 4885   1.197   0.531  13.842 -0.3877 -0.1189 -0.2582
  325TMC3    H1 4886   1.139   0.568  14.269 -1.5878  0.6696  0.7607
  325TMC3    H2 4887   0.854   0.742  14.012  0.5192  1.0291  1.9203
  325TMC3    C7 4888   0.975   0.747  14.262  0.2398  0.0120  0.2583
  325TMC3    C8 4889   0.960   0.647  13.781  0.3755  0.0267 -0.7147
  325TMC3    O1 4890   1.068   0.773  14.342  0.3718 -0.0573 -0.2050
  325TMC3    O2 4891   1.020   0.591  13.691  0.2598  0.1032  0.4522
  326MPD2     C 4892   3.270   1.386  10.885  0.5161 -0.0893  0.8374
  326MPD2    C1 4893   3.281   1.469  10.776  0.1554 -0.4808  1.1453
  326MPD2    C2 4894   3.373   1.570  10.772 -0.2020 -0.0443 -0.2336
  326MPD2    C3 4895   3.464   1.586  10.875  0.1587  0.3621 -0.4739
  326MPD2    C4 4896   3.463   1.503  10.982 -0.0603  1.2563 -0.1783
  326MPD2    C5 4897   3.368   1.400  10.980  0.0464  0.8283 -0.1323
  326MPD2     H 4898   3.374   1.635  10.686  1.2538  0.4118  0.1319
  326MPD2    H1 4899   3.524   1.523  11.069 -2.8841  0.9222  1.8535
  326MPD2    H2 4900   3.188   1.318  10.900 -1.2085  1.8385  0.1778
  326MPD2    H3 4901   3.379   1.327  11.059  0.6052  1.6969  0.5946
  326MPD2     N 4902   3.572   1.685  10.870  0.1785  0.0989  0.2123
  326MPD2    H5 4903   3.623   1.696  10.957 -0.3354  2.8473  0.1401
  326MPD2    N1 4904   3.190   1.454  10.669  0.2708 -0.2946  0.0082
  326MPD2    H7 4905   3.186   1.527  10.599  0.5222  0.2245  0.5363
  327TMC3    C1 4906   3.086   1.343  10.499 -0.3670  0.4288  0.3172
  327TMC3    C2 4907   2.999   1.453  10.486 -0.1664 -0.0282 -0.1436
  327TMC3    C3 4908   3.006   1.534  10.377  0.0601  0.3092 -0.0410
  327TMC3    C4 4909   3.178   1.325  10.401  0.3754  0.1654  0.4642
  327TMC3    C5 4910   3.196   1.420  10.305 -0.3996  0.2475  0.1187
  327TMC3    C6 4911   3.102   1.518  10.282  0.6547  0.2134  0.2895
  327TMC3     C 4912   3.129   1.330  10.638 -0.5368 -0.2714  0.1338
  327TMC3     O 4913   3.133   1.223  10.692 -0.2867  0.3931  0.4528
  327TMC3     H 4914   2.936   1.475  10.571  1.6599 -1.3556  1.5632
  327TMC3    H1 4915   3.257   1.251  10.397  2.0013  1.7670  2.6891
  327TMC3    H2 4916   3.126   1.591  10.205 -2.5064 -0.3960 -1.2854
  327TMC3    C7 4917   3.327   1.476  10.297  0.2686 -0.1699  0.1355
  327TMC3    C8 4918   2.907   1.639  10.337 -0.3071 -0.6008  0.2128
  327TMC3    O1 4919   3.344   1.567  10.218 -0.4591 -0.0600  0.3052
  327TMC3    O2 4920   2.942   1.706  10.239  0.2283  0.5163 -0.2275
  328MPD2     C 4921   0.813   1.227  16.620  0.1855 -0.3333 -0.4665
  328MPD2    C1 4922   0.708   1.159  16.561  0.0079  0.2253  0.0264
  328MPD2    C2 4923   0.589   1.218  16.528  0.2288 -0.3399 -1.1945
  328MPD2    C3 4924   0.562   1.348  16.576 -0.2258  0.5079 -0.6205
  328MPD2    C4 4925   0.666   1.409  16.637  0.0475  0.3037  0.6364
  328MPD2    C5 4926   0.795   1.361  16.653 -0.0104 -0.1739  0.0480
  328MPD2     H 4927   0.516   1.154  16.479  1.2379 -1.3236 -1.4044
  328MPD2    H1 4928   0.662   1.517  16.654  1.3250  0.0239  2.8214
  328MPD2    H2 4929   0.911   1.189  16.646  0.0992  1.0465  1.9002
  328MPD2    H3 4930   0.872   1.423  16.698  0.8328 -1.1972  0.0132
  328MPD2     N 4931   0.442   1.419  16.565  0.1259 -0.2366 -0.8629
  328MPD2    H5 4932   0.442   1.509  16.612  0.9333 -0.5735 -0.2030
  328MPD2    N1 4933   0.736   1.023  16.529 -0.1004  0.5091 -0.2187
  328MPD2    H7 4934   0.829   0.989  16.550 -0.2149  0.0279 -0.4872
  329TMC3    C1 4935   0.702   0.804  16.445  0.0571  0.1659 -0.1914
  329TMC3    C2 4936   0.691   0.748  16.567 -0.2528  0.1265  0.5770
  329TMC3    C3 4937   0.704   0.612  16.571  0.5115  0.8415  0.1564
  329TMC3    C4 4938   0.733   0.735  16.336 -0.0904 -0.2134  0.5320
  329TMC3    C5 4939   0.752   0.604  16.347 -0.5281 -1.2016 -0.5784
  329TMC3    C6 4940   0.739   0.540  16.467 -0.3557 -0.7719 -0.3185
  329TMC3     C 4941   0.664   0.949  16.435  0.5454  0.2452  0.5502
  329TMC3     O 4942   0.591   0.994  16.347  0.8392 -0.1180 -0.3770
  329TMC3     H 4943   0.659   0.809  16.651 -2.8686  0.4025 -0.6336
  329TMC3    H1 4944   0.745   0.790  16.244  3.7227 -0.5218  0.8474
  329TMC3    H2 4945   0.734   0.432  16.463 -0.1752 -0.8169  0.6503
  329TMC3    C7 4946   0.814   0.534  16.234  0.6786 -1.5182  0.3494
  329TMC3    C8 4947   0.675   0.543  16.690  0.2879 -0.3748 -0.0887
  329TMC3    O1 4948   0.925   0.576  16.200  0.7099  0.0403 -0.0562
  329TMC3    O2 4949   0.677   0.418  16.682  0.2431 -0.0503 -0.0811
  330TMC3    C1 4950   3.653   1.192   9.278 -0.0091 -0.2738  0.2497
  330TMC3    C2 4951   3.597   1.092   9.198 -0.0651 -0.1225 -0.0010
  330TMC3    C3 4952   3.636   0.964   9.215 -1.1057 -0.4090  0.2471
  330TMC3    C4 4953   3.759   1.166   9.358 -0.6255 -0.0110 -0.1260
  330TMC3    C5 4954   3.803   1.041   9.353  0.1021 -0.3170  0.1656
  330TMC3    C6 4955   3.737   0.940   9.295  0.2290  0.1468  0.2122
  330TMC3     C 4956   3.616   1.331   9.257  0.1259  0.0328  0.0732
  330TMC3     O 4957   3.709   1.405   9.289  0.3001  0.2359 -0.3224
  330TMC3     H 4958   3.517   1.117   9.129  0.0304  0.6577  0.1779
  330TMC3    H1 4959   3.801   1.243   9.422  1.8259 -0.5370 -1.0690
  330TMC3    H2 4960   3.771   0.837   9.304  0.9054  0.5716  2.4518
  330TMC3    C7 4961   3.937   1.009   9.390  0.2134 -0.4100  0.5289
  330TMC3    C8 4962   3.602   0.876   9.112  0.4429 -0.4098  0.1649
  330TMC3    O1 4963   3.980   0.897   9.366 -0.2034 -0.4286 -0.5937
  330TMC3    O2 4964   3.531   0.916   9.022 -0.1251 -0.0757 -0.1890
  331MPD2     C 4965   1.134   4.510  12.732 -0.4401  0.3950  0.4298
  331MPD2    C1 4966   1.255   4.549  12.675  0.1284 -0.0026 -0.3873
  331MPD2    C2 4967   1.335   4.448  12.618 -0.2232  1.0137  0.3674
  331MPD2    C3 4968   1.302   4.312  12.607 -0.5550  0.0153 -0.1138
  331MPD2    C4 4969   1.184   4.274  12.661  0.2917 -0.7478  0.3953
  331MPD2    C5 4970   1.101   4.374  12.713 -0.3636 -0.4438 -0.9017
  331MPD2     H 4971   1.433   4.471  12.578 -0.1418  2.3180  1.3082
  331MPD2    H1 4972   1.150   4.172  12.670 -0.2000 -0.6225 -0.0814
  331MPD2    H2 4973   1.063   4.573  12.784 -0.7205 -0.4563  1.0777
  331MPD2    H3 4974   1.002   4.348  12.747  0.5995 -1.4733  1.1459
  331MPD2     N 4975   1.390   4.217  12.538  0.2343  0.1286 -0.4654
  331MPD2    H5 4976   1.462   4.259  12.480  3.1791 -3.2472  0.7622
  331MPD2    N1 4977   1.299   4.683  12.676 -0.5499 -0.6020 -0.0320
  331MPD2    H7 4978   1.235   0.028  12.716  0.7077  1.2681 -1.1761
  332TMC3    C1 4979   1.489   4.016  12.495  0.3429 -0.3628  0.3711
  332TMC3    C2 4980   1.566   4.085  12.406  0.0679  0.2021  0.3448
  332TMC3    C3 4981   1.699   4.050  12.396 -0.1297 -0.6909 -0.5683
  332TMC3    C4 4982   1.546   3.943  12.598 -0.5131  0.6623 -0.3054
  332TMC3    C5 4983   1.680   3.935  12.598  0.8009  0.1348 -0.1481
  332TMC3    C6 4984   1.760   3.988  12.497  0.1883 -0.1345 -0.7400
  332TMC3     C 4985   1.370   4.088  12.552 -0.2885  0.0675  0.2965
  332TMC3     O 4986   1.292   4.020  12.620  0.3373  0.3157  0.3963
  332TMC3     H 4987   1.519   4.145  12.329 -2.7455 -2.2021  0.1867
  332TMC3    H1 4988   1.492   3.902  12.683  0.7863 -0.2404  0.0815
  332TMC3    H2 4989   1.864   3.962  12.483  0.4336  0.4888 -0.0624
  332TMC3    C7 4990   1.739   3.818  12.659  0.5822  0.4666  0.5032
  332TMC3    C8 4991   1.777   4.125  12.300  0.1795 -0.3350  0.2545
  332TMC3    O1 4992   1.673   3.714  12.666  0.1884  0.3439  0.2145
  332TMC3    O2 4993   1.875   4.179  12.347 -0.5200 -0.4251  0.1687
  333MPD2     C 4994   2.322   4.684  11.321  0.0969 -0.5737  0.3681
  333MPD2    C1 4995   2.244   4.722  11.212 -0.0063 -0.4860  0.1958
  333MPD2    C2 4996   2.115   4.679  11.208  0.5239  0.5361 -0.1773
  333MPD2    C3 4997   2.068   4.585  11.305  0.3252 -0.0421  0.1664
  333MPD2    C4 4998   2.156   4.534  11.402  0.3900  0.2406  0.8566
  333MPD2    C5 4999   2.276   4.594  11.409 -0.1445 -0.1405 -0.5392
  333MPD2     H 5000   2.049   4.711  11.129  2.3618 -2.7909 -3.0386
  333MPD2    H1 5001   2.134   4.453  11.470  0.2689 -0.6997 -0.2937
  333MPD2    H2 5002   2.420   0.003  11.341  1.6516 -4.0606  0.0422
  333MPD2    H3 5003   2.336   4.560  11.492  1.2810 -1.3025 -2.0414
  333MPD2     N 5004   1.938   4.531  11.286  0.4499  0.2014 -0.1695
  333MPD2    H5 5005   1.882   4.586  11.220 -0.5772  0.1536  0.6714
  333MPD2    N1 5006   2.292   0.089  11.117  0.3272  0.3509  0.1028
  333MPD2    H7 5007   2.389   0.118  11.127  1.5599 -2.8445 -2.2142
  334TMC3    C1 5008   2.342   0.190  10.913 -0.8387  0.6846  0.0762
  334TMC3    C2 5009   2.445   0.109  10.889 -0.3739 -0.0533 -0.1774
  334TMC3    C3 5010   2.558   0.161  10.830  0.4108 -0.2028  0.6954
  334TMC3    C4 5011   2.349   0.322  10.895 -0.3522 -0.0642 -0.0112
  334TMC3    C5 5012   2.468   0.376  10.852 -0.3635 -0.1262  0.1493
  334TMC3    C6 5013   2.568   0.300  10.818  0.0719  0.1238 -0.4899
  334TMC3     C 5014   2.235   0.138  11.002 -0.6066  0.7916 -0.0895
  334TMC3     O 5015   2.120   0.150  10.971 -0.0677  0.5701 -0.6955
  334TMC3     H 5016   2.439   0.002  10.904  1.4583 -0.0648  0.5353
  334TMC3    H1 5017   2.269   0.388  10.927 -0.9749  0.5293 -2.8561
  334TMC3    H2 5018   2.664   0.340  10.788  1.7721 -2.0394  2.1477
  334TMC3    C7 5019   2.485   0.516  10.817  0.5642  0.3514  0.4905
  334TMC3    C8 5020   2.671   0.067  10.819 -0.6095 -0.3316 -0.1091
  334TMC3    O1 5021   2.605   0.551  10.811 -0.0859  0.4208  0.8157
  334TMC3    O2 5022   2.654   4.675  10.854 -0.0025 -0.0034  0.2255
  335TMC3    C1 5023   1.837   1.373  17.314  0.4325 -0.5590  0.0695
  335TMC3    C2 5024   1.755   1.329  17.215  0.7194  0.5398  0.1218
  335TMC3    C3 5025   1.744   1.398  17.098 -0.1085 -0.0907 -0.0553
  335TMC3    C4 5026   1.915   1.491  17.292  0.2743 -0.3022 -0.4481
  335TMC3    C5 5027   1.908   1.554  17.173  0.1522 -0.2151 -0.3658
  335TMC3    C6 5028   1.824   1.508  17.076  0.0534 -0.0522  0.0310
  335TMC3     C 5029   1.839   1.301  17.441 -0.2009 -0.4350  0.2481
  335TMC3     O 5030   1.744   1.230  17.467 -0.0478  0.2161 -0.8540
  335TMC3     H 5031   1.705   1.236  17.239 -1.2839  1.1587 -1.7364
  335TMC3    H1 5032   1.982   1.538  17.362  0.0376 -0.4384 -0.1286
  335TMC3    H2 5033   1.813   1.560  16.982 -0.7029  0.3840  0.3576
  335TMC3    C7 5034   1.983   1.676  17.139 -0.1790 -0.7504 -0.6384
  335TMC3    C8 5035   1.661   1.353  16.982 -0.2416  0.4659 -0.1754
  335TMC3    O1 5036   1.990   1.700  17.017  0.0653  0.8669  0.5484
  335TMC3    O2 5037   1.708   1.372  16.870  0.2579  0.1045 -0.6086
  336MPD2     C 5038   0.838   3.936  16.115  0.4139 -0.3051  0.5928
  336MPD2    C1 5039   0.833   3.892  15.986  0.1082  0.3192 -0.4080
  336MPD2    C2 5040   0.925   3.800  15.945 -0.0018  0.1844 -0.3010
  336MPD2    C3 5041   1.010   3.739  16.038 -0.1846  0.3879  0.0314
  336MPD2    C4 5042   1.026   3.797  16.159  0.0077 -0.5856  0.0288
  336MPD2    C5 5043   0.948   3.902  16.198 -0.4315  0.8600 -0.2240
  336MPD2     H 5044   0.907   3.755  15.849 -0.4512  0.8830 -0.5444
  336MPD2    H1 5045   1.089   3.753  16.236  0.5349  0.3676  0.1538
  336MPD2    H2 5046   0.772   4.010  16.158  2.0302  1.2928  0.3046
  336MPD2    H3 5047   0.943   3.940  16.299  0.2790  0.2365  0.0438
  336MPD2     N 5048   1.080   3.621  16.013 -0.3030  0.1486  0.9201
  336MPD2    H5 5049   1.120   3.580  16.097 -0.2164  0.0029  0.8065
  336MPD2    N1 5050   0.730   3.948  15.903  0.2981  0.1470  0.1853
  336MPD2    H7 5051   0.683   4.034  15.931 -0.1804  0.1135 -0.5343
  337TMC3    C1 5052   0.618   4.000  15.703 -0.1764 -0.0271 -0.1612
  337TMC3    C2 5053   0.503   3.959  15.644  0.3256 -0.6805 -0.8604
  337TMC3    C3 5054   0.426   4.049  15.589  0.7992 -0.1863  0.1706
  337TMC3    C4 5055   0.655   4.133  15.714 -0.0364  0.1902 -0.8962
  337TMC3    C5 5056   0.562   4.228  15.660  0.0250 -0.0081  0.0479
  337TMC3    C6 5057   0.455   4.188  15.595  0.0940  0.5221 -0.1411
  337TMC3     C 5058   0.695   3.903  15.776 -0.2260 -0.1224 -0.6815
  337TMC3     O 5059   0.709   3.797  15.720 -0.0455 -0.3803  0.3030
  337TMC3     H 5060   0.474   3.855  15.654 -0.1666 -0.5557 -0.9736
  337TMC3    H1 5061   0.745   4.156  15.770  0.0245 -0.6781 -0.6357
  337TMC3    H2 5062   0.388   4.262  15.553 -0.6328 -0.5236 -0.8040
  337TMC3    C7 5063   0.628   4.356  15.625  0.7704 -0.5068  0.3917
  337TMC3    C8 5064   0.297   4.009  15.547 -0.1127  0.9161  0.0686
  337TMC3    O1 5065   0.737   4.367  15.677  0.2893 -0.1314 -0.2900
  337TMC3    O2 5066   0.255   3.902  15.575  0.2172  0.2098 -0.1150
  338MPD2     C 5067   1.388   3.164   0.897 -0.4046  0.0994  0.3684
  338MPD2    C1 5068   1.449   3.237   0.796  0.0181  0.7871  0.0888
  338MPD2    C2 5069   1.458   3.379   0.810  0.3494 -0.1148  0.1751
  338MPD2    C3 5070   1.387   3.438   0.902  0.2613  0.7465  0.4107
  338MPD2    C4 5071   1.323   3.370   1.004 -0.4998 -0.3758  0.3427
  338MPD2    C5 5072   1.332   3.234   1.003  0.0447 -0.5297 -0.8622
  338MPD2     H 5073   1.528   3.427   0.742  2.2425 -2.0007  0.7994
  338MPD2    H1 5074   1.277   3.429   1.082 -0.2243 -0.3916  0.5147
  338MPD2    H2 5075   1.378   3.056   0.898  0.6507  0.0078  0.1845
  338MPD2    H3 5076   1.267   3.190   1.078  1.6233 -1.7657 -0.2195
  338MPD2     N 5077   1.376   3.582   0.893  0.2645  0.2978 -0.5108
  338MPD2    H5 5078   1.442   3.627   0.830 -1.8476  2.2494 -1.3119
  338MPD2    N1 5079   1.500   3.177   0.676  0.1402  0.1847 -0.0673
  338MPD2    H7 5080   1.534   3.237   0.601 -1.6967 -0.5156 -1.4611
  339TMC3    C1 5081   1.292   3.803   0.944  0.5796 -0.2583  0.1837
  339TMC3    C2 5082   1.211   3.881   1.022  0.1937  0.0944 -0.7690
  339TMC3    C3 5083   1.245   4.008   1.045  0.2247 -0.0867 -0.9703
  339TMC3    C4 5084   1.398   3.857   0.874 -0.3522 -0.2873 -0.0472
  339TMC3    C5 5085   1.409   3.992   0.877  0.5213 -1.0447  0.1884
  339TMC3    C6 5086   1.343   4.063   0.974 -0.5204 -0.4575  0.1520
  339TMC3     C 5087   1.277   3.658   0.961  0.5853  0.3218  0.3996
  339TMC3     O 5088   1.175   3.620   1.014 -0.6433  0.1220  0.0030
  339TMC3     H 5089   1.134   3.843   1.088  1.9461 -1.6754  0.2780
  339TMC3    H1 5090   1.447   3.799   0.796  0.0764 -1.9234  1.4528
  339TMC3    H2 5091   1.384   4.161   0.993 -2.0081  0.3918 -0.9857
  339TMC3    C7 5092   1.500   4.064   0.789  0.1822 -0.2947  0.3211
  339TMC3    C8 5093   1.207   4.072   1.168 -0.1090 -0.1367 -0.2518
  339TMC3    O1 5094   1.481   4.179   0.765 -0.2251 -0.2036 -0.1590
  339TMC3    O2 5095   1.277   4.160   1.211  0.3965 -0.0992  0.0204
  340MPD2     C 5096   1.783   0.332   9.703  0.5033  0.9399 -1.5704
  340MPD2    C1 5097   1.912   0.282   9.700  0.1557 -0.3364  0.0268
  340MPD2    C2 5098   2.004   0.328   9.793 -0.3600 -1.1486  0.2855
  340MPD2    C3 5099   1.962   0.418   9.888 -0.6547 -0.6349  0.5969
  340MPD2    C4 5100   1.830   0.466   9.892 -0.0572 -0.8024  0.3332
  340MPD2    C5 5101   1.744   0.422   9.798  0.5233 -0.0898  0.2753
  340MPD2     H 5102   2.106   0.290   9.787 -0.6018 -1.6714 -0.6390
  340MPD2    H1 5103   1.800   0.537   9.968 -0.2444  0.0311 -0.5137
  340MPD2    H2 5104   1.707   0.312   9.629 -0.9409  1.2481 -0.1740
  340MPD2    H3 5105   1.644   0.462   9.794  0.1744 -0.8368  1.4278
  340MPD2     N 5106   2.049   0.457   9.990 -0.2057  0.2446  0.1312
  340MPD2    H5 5107   2.006   0.522  10.056 -2.6542 -2.4728  1.2138
  340MPD2    N1 5108   1.952   0.196   9.600 -0.3041  0.6958  0.8707
  340MPD2    H7 5109   2.053   0.189   9.588 -0.5000  0.7235 -0.8405
  341TMC3    C1 5110   1.924   0.052   9.420 -0.1907 -0.3439 -0.2263
  341TMC3    C2 5111   1.840   4.691   9.351 -0.8119  0.4155  0.0563
  341TMC3    C3 5112   1.871   4.673   9.220  0.0352  0.8055  0.1871
  341TMC3    C4 5113   2.039   0.108   9.360  0.5662  0.5025 -0.5407
  341TMC3    C5 5114   2.061   0.087   9.227 -0.6446 -0.5616  0.1456
  341TMC3    C6 5115   1.982   0.005   9.154  0.3751  0.1443  0.4860
  341TMC3     C 5116   1.869   0.115   9.530  0.0578 -0.1814  0.4216
  341TMC3     O 5117   1.751   0.097   9.562 -0.6458  0.0346  0.3853
  341TMC3     H 5118   1.758   4.640   9.400 -0.3234  0.0482  0.4814
  341TMC3    H1 5119   2.096   0.187   9.408 -0.8299 -0.1259  2.1618
  341TMC3    H2 5120   2.004   4.718   9.049 -0.2349 -3.8664  0.7283
  341TMC3    C7 5121   2.173   0.168   9.168 -0.3796 -0.0295  0.9638
  341TMC3    C8 5122   1.778   4.602   9.137  0.2261 -0.0556  0.8110
  341TMC3    O1 5123   2.261   0.198   9.245  0.3234 -0.3328 -0.4017
  341TMC3    O2 5124   1.678   4.565   9.190 -0.2074  0.3078 -0.1176
  342MPD2     C 5125   4.373   4.489  16.460 -0.3309  0.3794 -0.1699
  342MPD2    C1 5126   4.388   4.430  16.585 -1.2232 -0.6636 -0.2234
  342MPD2    C2 5127   4.371   4.514  16.700  0.4349 -0.0233  0.3665
  342MPD2    C3 5128   4.332   4.647  16.686  0.2428  0.1986  0.3707
  342MPD2    C4 5129   4.282   4.688  16.556 -0.1126  0.3095  0.2633
  342MPD2    C5 5130   4.311   4.611  16.449 -0.1826  1.0098  0.0111
  342MPD2     H 5131   4.390   4.481  16.801 -0.7303  2.1207  1.3046
  342MPD2    H1 5132   4.249   0.065  16.530  1.8092  0.9266  0.1761
  342MPD2    H2 5133   4.397   4.432  16.371 -1.0097  0.9602 -0.7288
  342MPD2    H3 5134   4.293   4.655  16.351 -1.1533 -0.5053 -0.4787
  342MPD2     N 5135   4.326   0.016  16.791 -0.3042  0.8838  0.1566
  342MPD2    H5 5136   4.301   0.110  16.763 -0.1930  0.6668 -0.6934
  342MPD2    N1 5137   4.405   4.288  16.613  0.2416 -0.0524  0.2135
  342MPD2    H7 5138   4.421   4.268  16.711  0.1483 -2.8350 -0.3459
  343TMC3    C1 5139   4.465   4.067  16.587  0.2054  0.0510  0.1640
  343TMC3    C2 5140   4.559   3.986  16.532  0.5181 -0.4666  0.5686
  343TMC3    C3 5141   4.545   3.848  16.544  0.0473 -1.3713 -0.2627
  343TMC3    C4 5142   4.358   4.014  16.648  0.4983 -0.6087 -0.5526
  343TMC3    C5 5143   4.349   3.878  16.666 -0.1312 -0.7841  0.3452
  343TMC3    C6 5144   4.448   3.790  16.619  0.0482  0.2325  0.2388
  343TMC3     C 5145   4.448   4.196  16.521 -0.5691 -0.1196 -0.4096
  343TMC3     O 5146   4.490   4.223  16.410 -0.4124 -0.4749  0.0415
  343TMC3     H 5147   4.647   4.033  16.490  1.4690 -2.0079  0.8878
  343TMC3    H1 5148   4.279   4.086  16.667  0.3058 -1.7041  2.8308
  343TMC3    H2 5149   4.454   3.686  16.648  2.6104  0.3107 -0.0603
  343TMC3    C7 5150   4.232   3.822  16.723  0.2939 -0.0270 -0.4247
  343TMC3    C8 5151   4.675   3.793  16.583 -0.3033  0.2325 -0.7980
  343TMC3    O1 5152   4.153   3.900  16.778 -0.3881 -0.3409 -0.4403
  343TMC3    O2 5153   0.030   3.861  16.656 -0.8619  0.0515 -0.3785
  344MPD2     C 5154   0.786   4.150  10.406 -0.2293 -0.4935  0.4228
  344MPD2    C1 5155   0.693   4.109  10.312 -0.3952  0.3949 -0.8227
  344MPD2    C2 5156   0.690   4.150  10.180 -0.0259  0.4043 -0.3157
  344MPD2    C3 5157   0.795   4.227  10.134 -0.6171  0.2732  0.4197
  344MPD2    C4 5158   0.893   4.260  10.224 -0.3529  0.7606  0.1650
  344MPD2    C5 5159   0.887   4.225  10.359  0.4967 -0.5309  0.1555
  344MPD2     H 5160   0.611   4.119  10.113 -0.1669 -2.0662  0.9773
  344MPD2    H1 5161   0.978   4.318  10.191 -0.9260  1.3327 -0.3129
  344MPD2    H2 5162   0.775   4.137  10.513 -1.7782  1.4033  0.4878
  344MPD2    H3 5163   0.967   4.266  10.420  1.3512  0.1388 -1.4308
  344MPD2     N 5164   0.820   4.275  10.001 -0.0450 -0.0986  0.7036
  344MPD2    H5 5165   0.900   4.337   9.995  1.0879 -1.9975 -4.0961
  344MPD2    N1 5166   0.587   4.022  10.356 -0.0872  0.2332 -0.4222
  344MPD2    H7 5167   0.519   3.991  10.287 -0.1235 -0.1935 -0.1944
  345TMC3    C1 5168   0.782   4.336   9.785 -0.8758 -0.2621  0.0165
  345TMC3    C2 5169   0.914   4.334   9.754  0.5203 -0.7791  0.4403
  345TMC3    C3 5170   0.946   4.423   9.652  0.6260 -0.3109  0.7614
  345TMC3    C4 5171   0.685   4.415   9.731  0.3569  0.2868  0.5453
  345TMC3    C5 5172   0.726   4.511   9.639 -0.3728 -0.3796  0.3751
  345TMC3    C6 5173   0.860   4.514   9.597 -0.2441  0.4061 -0.5675
  345TMC3     C 5174   0.738   4.255   9.895  0.0266 -0.7187 -1.2661
  345TMC3     O 5175   0.633   4.191   9.883  0.9654  0.2925 -0.2538
  345TMC3     H 5176   0.990   4.263   9.785 -0.2165 -0.6574  2.5463
  345TMC3    H1 5177   0.581   4.403   9.759  0.6938 -2.1374  0.7158
  345TMC3    H2 5178   0.885   4.592   9.524 -0.9269  0.6974 -0.4923
  345TMC3    C7 5179   0.655   4.633   9.642 -0.4944 -0.2825  0.5803
  345TMC3    C8 5180   1.085   4.447   9.638 -0.1076 -0.5144 -0.0979
  345TMC3    O1 5181   0.723   0.008   9.654  0.6396 -0.3493 -0.6047
  345TMC3    O2 5182   1.157   4.414   9.730  0.4483 -0.6289 -0.0745
  346MPD2     C 5183   4.610   0.747  13.777  0.5438  0.1083 -0.5988
  346MPD2    C1 5184   4.710   0.848  13.764 -0.5340  0.1951 -0.0546
  346MPD2    C2 5185   0.010   0.927  13.875  0.0674  0.1548 -0.4453
  346MPD2    C3 5186   4.675   0.898  13.993  0.4899 -0.4445 -0.1661
  346MPD2    C4 5187   4.576   0.801  14.001  0.0070  0.4978  0.6469
  346MPD2    C5 5188   4.545   0.729  13.892 -0.4089  0.5546  0.1445
  346MPD2     H 5189   0.096   0.993  13.867  1.2670 -1.4453 -0.6786
  346MPD2    H1 5190   4.525   0.771  14.092 -1.5238 -1.9480 -1.0233
  346MPD2    H2 5191   4.584   0.684  13.693 -0.9572 -0.4258  0.2762
  346MPD2    H3 5192   4.473   0.649  13.896 -1.3703  1.2473 -3.5705
  346MPD2     N 5193   4.719   0.965  14.110  0.4078  0.7132 -0.0482
  346MPD2    H5 5194   0.074   1.028  14.097 -0.3666  1.9491  1.3157
  346MPD2    N1 5195   0.059   0.889  13.654  0.1724 -0.4933  0.6744
  346MPD2    H7 5196   0.102   0.980  13.662 -0.9976  0.1660 -0.4316
  347TMC3    C1 5197   0.034   1.021  14.336 -0.0171  0.4672 -0.5160
  347TMC3    C2 5198   0.164   1.045  14.298  0.1021 -0.0429 -0.1558
  347TMC3    C3 5199   0.251   1.065  14.404  0.3525 -0.8102  0.4461
  347TMC3    C4 5200   4.710   1.036  14.461  0.1597 -1.0011 -1.0929
  347TMC3    C5 5201   0.074   1.060  14.561  0.7580  0.3451  1.2901
  347TMC3    C6 5202   0.209   1.068  14.540 -0.8484 -0.7152 -0.1054
  347TMC3     C 5203   4.677   0.948  14.236 -0.7833  0.4234  0.2496
  347TMC3     O 5204   4.583   0.876  14.279 -0.2159  0.4506  0.6306
  347TMC3     H 5205   0.205   1.027  14.199 -0.0226  0.0442 -0.2237
  347TMC3    H1 5206   4.603   1.035  14.478  0.3386 -1.0723  0.0331
  347TMC3    H2 5207   0.281   1.068  14.621 -0.4594  0.1475 -0.4551
  347TMC3    C7 5208   0.019   1.087  14.696  0.6762  0.4128 -0.6497
  347TMC3    C8 5209   0.382   1.000  14.380 -0.3559 -0.5932  0.5925
  347TMC3    O1 5210   4.631   1.043  14.714 -0.5039 -0.7905 -0.2805
  347TMC3    O2 5211   0.396   0.930  14.283 -0.0888 -0.1806  0.3555
  348MPD2     C 5212   4.108   0.274  11.886  0.5553  0.0984 -0.2350
  348MPD2    C1 5213   4.214   0.346  11.826  0.2502 -0.3882 -0.0762
  348MPD2    C2 5214   4.183   0.422  11.714  0.2968 -0.4729  0.0441
  348MPD2    C3 5215   4.051   0.437  11.668 -0.5744 -0.1330  0.3401
  348MPD2    C4 5216   3.947   0.375  11.732 -0.0180  0.1293  0.3816
  348MPD2    C5 5217   3.983   0.290  11.839  0.1459  0.8821  0.6937
  348MPD2     H 5218   4.262   0.478  11.664 -0.2165  1.0677  0.9635
  348MPD2    H1 5219   3.842   0.385  11.708  0.3156 -2.5180 -2.1711
  348MPD2    H2 5220   4.123   0.221  11.980 -0.6085  1.2698  0.6040
  348MPD2    H3 5221   3.908   0.236  11.895  0.2265 -1.1057 -1.0965
  348MPD2     N 5222   4.026   0.516  11.554  0.4447 -0.0402  0.5655
  348MPD2    H5 5223   4.105   0.568  11.517 -1.5285  2.3109 -0.3350
  348MPD2    N1 5224   4.354   0.336  11.868  0.3993 -0.7301  0.8249
  348MPD2    H7 5225   4.426   0.391  11.824 -0.0598 -1.2303 -0.5356
  349TMC3    C1 5226   4.541   0.238  11.978  0.2867 -0.0007 -0.9416
  349TMC3    C2 5227   4.571   0.120  12.040 -0.4033 -0.2179  0.7285
  349TMC3    C3 5228   4.660   0.034  11.977  1.1712  0.5121 -0.3830
  349TMC3    C4 5229   4.601   0.271  11.860 -0.4598  0.8830  0.2937
  349TMC3    C5 5230   4.668   0.169  11.789  0.3623  0.2738 -0.3906
  349TMC3    C6 5231   4.698   0.046  11.848 -0.2344  0.4684 -0.5461
  349TMC3     C 5232   4.396   0.252  11.971  0.4549  0.6614 -0.2417
  349TMC3     O 5233   4.335   0.170  12.038 -0.4470  0.3875  0.5893
  349TMC3     H 5234   4.530   0.096  12.138 -0.8392 -0.8388  0.3956
  349TMC3    H1 5235   4.592   0.371  11.821  2.7139  0.5626 -1.2022
  349TMC3    H2 5236   0.035   4.702  11.786 -1.5293 -1.4953  0.3074
  349TMC3    C7 5237   4.592   0.154  11.665 -0.0128 -0.1332 -0.2047
  349TMC3    C8 5238   4.670   4.624  12.035  0.5487  0.1284 -0.8244
  349TMC3    O1 5239   4.568   0.039  11.638  0.1398  0.6214 -0.0257
  349TMC3    O2 5240   4.575   4.592  12.108  0.3163  0.1759 -0.4843
  350MPD2     C 5241   2.783   3.620  10.163  0.7149  0.1739  0.7927
  350MPD2    C1 5242   2.881   3.567  10.234  0.1872 -0.7974 -0.0971
  350MPD2    C2 5243   3.002   3.632  10.228 -0.5419 -0.3554 -0.4922
  350MPD2    C3 5244   3.013   3.757  10.165  0.9947 -0.1565  0.0140
  350MPD2    C4 5245   2.907   3.811  10.091 -0.4213  0.2221 -0.7455
  350MPD2    C5 5246   2.793   3.739  10.095  0.2555 -0.3360  0.3923
  350MPD2     H 5247   3.089   3.588  10.274 -0.4498  0.9327  0.5843
  350MPD2    H1 5248   2.908   3.905  10.037  0.9275  0.2771 -0.6046
  350MPD2    H2 5249   2.685   3.573  10.167  0.2477  0.7701 -3.1717
  350MPD2    H3 5250   2.715   3.787  10.037 -1.0943 -1.0161  1.6398
  350MPD2     N 5251   3.145   3.816  10.153 -0.3832 -0.0860 -0.9104
  350MPD2    H5 5252   3.148   3.891  10.086 -1.5984  1.0684  0.3200
  350MPD2    N1 5253   2.880   3.437  10.290  0.3388 -0.4717  0.0897
  350MPD2    H7 5254   2.965   3.391  10.321 -0.4759  0.1492  3.1753
  351TMC3    C1 5255   2.779   3.243  10.356 -0.4057  0.1020  0.5354
  351TMC3    C2 5256   2.850   3.159  10.278  0.1066  0.0441 -0.2233
  351TMC3    C3 5257   2.856   3.024  10.304  0.8860  0.7557  0.4651
  351TMC3    C4 5258   2.692   3.190  10.453 -0.4521 -0.1608 -0.6282
  351TMC3    C5 5259   2.689   3.051  10.469 -0.4936  0.4385 -0.3522
  351TMC3    C6 5260   2.768   2.963  10.403 -0.0224 -0.5070 -0.4287
  351TMC3     C 5261   2.760   3.378  10.316  0.1444 -0.7216 -0.3355
  351TMC3     O 5262   2.651   3.427  10.346  0.0067  0.4244  0.2835
  351TMC3     H 5263   2.923   3.198  10.209 -0.4961 -1.2904 -1.5991
  351TMC3    H1 5264   2.640   3.259  10.519  0.7937 -1.0809  1.3203
  351TMC3    H2 5265   2.770   2.858  10.428 -3.2546 -0.9650 -2.0320
  351TMC3    C7 5266   2.565   3.007  10.532  0.2296  0.1227 -0.7056
  351TMC3    C8 5267   2.960   2.946  10.234  0.0051  0.1484  0.5246
  351TMC3    O1 5268   2.499   3.091  10.598 -0.7322 -0.7114  0.0017
  351TMC3    O2 5269   3.042   3.013  10.175  0.1495 -0.3665  0.0613
  352MPD2     C 5270   0.440   0.391   0.891 -0.3690 -0.3413  0.2070
  352MPD2    C1 5271   0.540   0.478   0.925  0.1208  0.0159  0.8779
  352MPD2    C2 5272   0.650   0.433   0.998  0.5390 -0.3980 -0.3848
  352MPD2    C3 5273   0.652   0.301   1.042 -0.7343 -0.2381 -0.1620
  352MPD2    C4 5274   0.552   0.216   1.003 -0.1068 -0.3057 -0.2427
  352MPD2    C5 5275   0.441   0.258   0.932  0.7396 -0.3849  0.3332
  352MPD2     H 5276   0.729   0.504   1.018  1.0844 -1.0908 -0.0946
  352MPD2    H1 5277   0.542   0.116   1.043  1.3465 -0.9374 -1.4371
  352MPD2    H2 5278   0.357   0.423   0.829  2.0538  1.1289 -2.2906
  352MPD2    H3 5279   0.361   0.189   0.910  0.4538 -0.1636  0.6803
  352MPD2     N 5280   0.755   0.249   1.129  0.4200  0.2112  0.4476
  352MPD2    H5 5281   0.758   0.150   1.147  0.8740  0.1425  0.0042
  352MPD2    N1 5282   0.528   0.603   0.862  0.6184  0.0175  0.1277
  352MPD2    H7 5283   0.457   0.630   0.794  0.9021 -0.5252 -0.3866
  353TMC3    C1 5284   0.946   0.263   1.253  0.1466  0.7515 -0.4919
  353TMC3    C2 5285   1.024   0.327   1.346 -0.3327  0.0372  0.3985
  353TMC3    C3 5286   1.149   0.286   1.365 -0.4381  0.1584  0.2143
  353TMC3    C4 5287   0.997   0.161   1.177  0.6026 -0.4304  0.3721
  353TMC3    C5 5288   1.134   0.120   1.197 -0.3980  0.2568  0.3496
  353TMC3    C6 5289   1.212   0.180   1.295  0.7427 -0.1154  0.2288
  353TMC3     C 5290   0.833   0.337   1.204  0.2847  0.0377  0.6504
  353TMC3     O 5291   0.824   0.457   1.233  0.6457 -0.3524 -0.3912
  353TMC3     H 5292   0.987   0.413   1.402  0.3141  1.3132 -1.1368
  353TMC3    H1 5293   0.945   0.113   1.094 -1.4140  2.8758 -0.2431
  353TMC3    H2 5294   1.309   0.151   1.334  0.0033  0.1890  2.2805
  353TMC3    C7 5295   1.201   0.054   1.093  0.1762 -0.4824  0.5152
  353TMC3    C8 5296   1.223   0.373   1.446  0.0539  0.2093  0.0352
  353TMC3    O1 5297   1.140   0.053   0.984 -0.1574 -0.1238  0.0277
  353TMC3    O2 5298   1.182   0.427   1.552 -0.5107  0.5281 -0.1547
  354TMC3    C1 5299   2.889   1.820  13.283 -0.1773  0.4551 -0.3438
  354TMC3    C2 5300   2.957   1.937  13.306 -0.1225 -0.1540  0.0203
  354TMC3    C3 5301   3.046   1.976  13.207 -0.6075  0.8108 -0.6819
  354TMC3    C4 5302   2.871   1.770  13.159 -0.4321 -0.1404 -0.7102
  354TMC3    C5 5303   2.958   1.802  13.058  0.3732  0.3198  0.7573
  354TMC3    C6 5304   3.048   1.913  13.080 -0.5173 -0.5091  0.5722
  354TMC3     C 5305   2.811   1.753  13.382  0.4043  0.6753 -0.9865
  354TMC3     O 5306   2.720   1.676  13.349  0.2492  0.3530 -0.3507
  354TMC3     H 5307   2.958   1.993  13.399 -1.1594  0.3633 -0.2874
  354TMC3    H1 5308   2.823   1.674  13.147  3.6930 -2.0669 -1.8561
  354TMC3    H2 5309   3.102   1.957  12.997 -2.0367 -0.2808 -0.2913
  354TMC3    C7 5310   2.925   1.760  12.923  0.3577  0.2209 -0.7025
  354TMC3    C8 5311   3.084   2.113  13.209  0.2526  0.1437 -0.1495
  354TMC3    O1 5312   2.813   1.703  12.906  0.2282  0.6295  0.5132
  354TMC3    O2 5313   3.033   2.178  13.299 -0.1157  0.0791  0.6907
  355MPD2     C 5314   3.319   2.393  11.615 -0.5779  0.7342  0.3967
  355MPD2    C1 5315   3.315   2.476  11.507  0.5806 -0.2626  0.4317
  355MPD2    C2 5316   3.445   2.504  11.456  0.2932 -0.1645  0.8433
  355MPD2    C3 5317   3.562   2.445  11.505 -0.0066  0.5449 -0.2949
  355MPD2    C4 5318   3.553   2.352  11.611 -0.4803 -0.3681  1.0463
  355MPD2    C5 5319   3.429   2.332  11.659  0.6492  0.8172 -1.2639
  355MPD2     H 5320   3.454   2.557  11.362 -1.4469 -1.0112  0.2015
  355MPD2    H1 5321   3.632   2.295  11.659 -1.9050 -3.0095  0.2074
  355MPD2    H2 5322   3.229   2.375  11.673 -0.2884  0.3044  0.7120
  355MPD2    H3 5323   3.427   2.275  11.751  1.2056  0.4387 -1.4836
  355MPD2     N 5324   3.691   2.465  11.456 -0.4254  0.4144 -0.5024
  355MPD2    H5 5325   3.767   2.415  11.500 -0.7667 -1.6001 -2.1939
  355MPD2    N1 5326   3.190   2.525  11.464 -0.3045  0.2403 -0.3340
  355MPD2    H7 5327   3.110   2.477  11.504  0.4156 -1.4491 -0.9338
  356TMC3    C1 5328   3.836   2.638  11.390  0.6140 -0.1560  0.1375
  356TMC3    C2 5329   3.869   2.734  11.299  0.4300 -0.0175 -0.4451
  356TMC3    C3 5330   3.969   2.813  11.341  0.4441 -0.1315  0.4677
  356TMC3    C4 5331   3.909   2.613  11.503 -0.3536 -0.0771 -0.9867
  356TMC3    C5 5332   4.016   2.693  11.529 -0.6166  0.1015  0.4997
  356TMC3    C6 5333   4.042   2.799  11.457  0.7272 -0.1767  0.1258
  356TMC3     C 5334   3.721   2.553  11.357  0.1977 -0.0495  0.4093
  356TMC3     O 5335   3.653   2.581  11.260  0.3429  0.4273 -0.6705
  356TMC3     H 5336   3.789   2.763  11.232 -1.6001 -2.2871  0.9792
  356TMC3    H1 5337   3.888   2.533  11.574  0.5139  0.6006  0.0454
  356TMC3    H2 5338   4.143   2.839  11.462  0.7751  0.1680 -3.2567
  356TMC3    C7 5339   4.106   2.649  11.642 -1.0510  0.6549  1.1968
  356TMC3    C8 5340   4.016   2.918  11.245 -0.6564 -0.3386  0.1587
  356TMC3    O1 5341   4.093   2.537  11.683  0.1827  0.1151 -0.4841
  356TMC3    O2 5342   3.974   2.907  11.132  0.2434  0.8998 -0.7285
  357MPD2     C 5343   2.835   1.957   1.297 -0.0254 -0.2669  0.2537
  357MPD2    C1 5344   2.935   1.915   1.386  0.0857 -0.1461 -0.1524
  357MPD2    C2 5345   2.923   1.800   1.455  0.7418 -0.7190 -0.2195
  357MPD2    C3 5346   2.815   1.713   1.435 -0.5194 -0.1954 -0.0163
  357MPD2    C4 5347   2.711   1.756   1.351  0.5152 -0.6401 -0.2825
  357MPD2    C5 5348   2.720   1.874   1.278  0.4983  0.1265 -0.4832
  357MPD2     H 5349   2.993   1.774   1.533 -0.8598 -0.5561  1.2782
  357MPD2    H1 5350   2.623   1.693   1.338  0.4435 -0.4908 -0.5273
  357MPD2    H2 5351   2.847   2.047   1.237  2.4446  0.5349  1.9334
  357MPD2    H3 5352   2.640   1.900   1.210 -0.4916  1.0898  1.0488
  357MPD2     N 5353   2.797   1.592   1.501 -0.0256 -0.3301 -0.2296
  357MPD2    H5 5354   2.706   1.547   1.493  0.7001 -1.7401 -0.5983
  357MPD2    N1 5355   3.050   1.980   1.411  0.6208 -0.3251 -0.0153
  357MPD2    H7 5356   3.107   1.941   1.486  0.7685  1.3820  0.7543
  358TMC3    C1 5357   3.220   2.136   1.425  0.0547 -0.9438 -0.6414
  358TMC3    C2 5358   3.328   2.140   1.333  0.5961  0.5235 -0.0246
  358TMC3    C3 5359   3.449   2.098   1.378  0.5069  0.3854  0.0806
  358TMC3    C4 5360   3.241   2.103   1.553  0.8354  0.1224  0.0742
  358TMC3    C5 5361   3.368   2.075   1.593  0.1500  1.5282  0.2048
  358TMC3    C6 5362   3.474   2.066   1.510 -0.3017  0.3175  0.0032
  358TMC3     C 5363   3.100   2.092   1.356 -0.1328  0.9217 -0.1702
  358TMC3     O 5364   3.069   2.153   1.254 -0.1647  0.3632 -0.2811
  358TMC3     H 5365   3.301   2.174   1.234  2.0440 -0.6962 -0.8313
  358TMC3    H1 5366   3.158   2.120   1.620  0.7929  0.0388  0.0421
  358TMC3    H2 5367   3.574   2.078   1.549 -0.1895 -1.1837  0.1787
  358TMC3    C7 5368   3.386   2.053   1.735  0.0243 -0.2799 -0.0951
  358TMC3    C8 5369   3.564   2.082   1.283 -0.6035  0.0379 -0.0848
  358TMC3    O1 5370   3.298   2.097   1.811  0.4170 -0.1768 -0.6830
  358TMC3    O2 5371   3.548   2.137   1.175 -0.1124  0.9307 -0.0902
  359MPD2     C 5372   3.488   0.076  11.892  0.3687 -0.6230  0.1688
  359MPD2    C1 5373   3.499   0.170  11.999 -0.2350 -0.3847 -0.3549
  359MPD2    C2 5374   3.464   0.132  12.124  0.4613  0.0972  0.3785
  359MPD2    C3 5375   3.423   0.005  12.157 -0.4726 -0.1133  0.3042
  359MPD2    C4 5376   3.407   4.637  12.048 -0.0189 -0.8108  0.4979
  359MPD2    C5 5377   3.445   4.673  11.925 -0.6049 -0.7124  0.1360
  359MPD2     H 5378   3.468   0.216  12.192 -0.6518 -0.9879  1.7665
  359MPD2    H1 5379   3.374   4.534  12.061 -2.7757 -0.2244 -1.6522
  359MPD2    H2 5380   3.516   0.105  11.791 -1.1912 -3.0405 -0.9536
  359MPD2    H3 5381   3.453   4.598  11.847 -1.1990 -1.4346  0.7644
  359MPD2     N 5382   3.373   4.693  12.287 -0.7066  0.2888 -0.4544
  359MPD2    H5 5383   3.308   4.618  12.309  0.3231  0.3841  2.9709
  359MPD2    N1 5384   3.550   0.297  11.978  0.0503 -0.2507 -0.1921
  359MPD2    H7 5385   3.570   0.354  12.060 -0.6268 -0.4455  0.1045
  360TMC3    C1 5386   3.614   0.501  11.867  0.3483 -0.5174 -0.1641
  360TMC3    C2 5387   3.719   0.522  11.951  0.2594  0.0792  0.0774
  360TMC3    C3 5388   3.791   0.636  11.931 -0.5605  0.0142 -0.5548
  360TMC3    C4 5389   3.590   0.586  11.764 -0.2270  0.1903  0.3002
  360TMC3    C5 5390   3.661   0.697  11.744  0.1910  0.6279 -0.6219
  360TMC3    C6 5391   3.759   0.728  11.838  0.1873  0.3305 -0.0031
  360TMC3     C 5392   3.560   0.362  11.859 -0.2969  0.7591 -0.2432
  360TMC3     O 5393   3.499   0.331  11.752  0.0227  0.6375 -0.3569
  360TMC3     H 5394   3.735   0.453  12.032  0.7069 -1.4733 -1.3371
  360TMC3    H1 5395   3.518   0.542  11.696  0.9594  0.0763 -0.8861
  360TMC3    H2 5396   3.807   0.826  11.832  1.0610 -0.1178 -0.3999
  360TMC3    C7 5397   3.642   0.774  11.625  0.5567  0.3446 -0.1731
  360TMC3    C8 5398   3.918   0.661  11.999  0.0723 -0.2385  0.0070
  360TMC3    O1 5399   3.727   0.857  11.605  0.2338  0.1985  0.7825
  360TMC3    O2 5400   3.928   0.602  12.108  0.3093  0.5558  0.1949
  361MPD2     C 5401   0.204   4.422  16.293  0.5363 -0.3817  0.1444
  361MPD2    C1 5402   0.200   4.517  16.392 -0.2358 -0.3092 -0.0200
  361MPD2    C2 5403   0.312   4.520  16.476  0.0633  0.1196 -0.5082
  361MPD2    C3 5404   0.413   4.431  16.454  0.8150  0.2261  0.0509
  361MPD2    C4 5405   0.411   4.341  16.344 -0.2359  0.1079  0.0366
  361MPD2    C5 5406   0.305   4.335  16.270  0.2311 -0.8035  0.1503
  361MPD2     H 5407   0.304   4.584  16.563  0.7863 -0.6533  0.1300
  361MPD2    H1 5408   0.494   4.272  16.328  0.4493  0.6429  1.3412
  361MPD2    H2 5409   0.120   4.390  16.231  1.5798 -1.3373 -0.7908
  361MPD2    H3 5410   0.288   4.262  16.191 -1.0858 -1.0244  0.6469
  361MPD2     N 5411   0.505   4.396  16.555  0.8648  0.5193 -0.0389
  361MPD2    H5 5412   0.571   4.323  16.532  0.6431  0.3105 -0.0105
  361MPD2    N1 5413   0.093   4.608  16.412  0.5509  0.5058  0.2723
  361MPD2    H7 5414   0.103   4.677  16.485 -0.7051  2.1893 -1.1529
  362TMC3    C1 5415   4.629   0.014  16.365  0.0150 -0.3290 -0.4119
  362TMC3    C2 5416   4.621   0.052  16.497 -0.8542  0.1002 -0.1315
  362TMC3    C3 5417   4.554   0.163  16.521 -0.6090 -0.2456 -0.4297
  362TMC3    C4 5418   4.585   0.090  16.257  0.8553 -0.4706 -0.0687
  362TMC3    C5 5419   4.504   0.193  16.299 -0.8406  0.3114  0.8004
  362TMC3    C6 5420   4.482   0.228  16.426 -1.1479 -0.0547  0.7737
  362TMC3     C 5421   4.709   4.622  16.333 -0.0179  0.8082 -0.1481
  362TMC3     O 5422   4.673   4.573  16.225  0.3208 -0.2573 -0.4419
  362TMC3     H 5423   4.682   0.008  16.576 -0.2043 -1.5448 -1.5475
  362TMC3    H1 5424   4.597   0.061  16.153 -0.0986 -0.9273 -0.0562
  362TMC3    H2 5425   4.418   0.312  16.451 -0.9629  0.5890 -0.9048
  362TMC3    C7 5426   4.462   0.292  16.205 -0.1442  0.2677  0.0084
  362TMC3    C8 5427   4.581   0.225  16.649 -1.2111  0.2461  0.3637
  362TMC3    O1 5428   4.431   0.399  16.254 -0.5276 -0.2197  0.5717
  362TMC3    O2 5429   4.682   0.186  16.707 -0.4549  0.1822 -0.0789
  363TMC3    C1 5430   3.904   2.430   9.379  0.1307 -0.0308 -0.4159
  363TMC3    C2 5431   3.967   2.376   9.493 -0.0571  0.5025  0.2639
  363TMC3    C3 5432   3.941   2.450   9.605 -0.5558 -0.7454  0.1795
  363TMC3    C4 5433   3.831   2.546   9.376  0.5224 -0.4585 -0.3400
  363TMC3    C5 5434   3.811   2.617   9.491 -0.0553 -0.4010  0.1985
  363TMC3    C6 5435   3.858   2.565   9.612 -0.4957 -0.4574  0.0477
  363TMC3     C 5436   3.925   2.357   9.251 -0.5893  0.4905 -0.1863
  363TMC3     O 5437   3.825   2.349   9.182 -0.2924 -0.3363 -0.1519
  363TMC3     H 5438   4.024   2.284   9.501 -2.7632 -1.3770 -2.1063
  363TMC3    H1 5439   3.805   2.589   9.280  2.3945 -0.6029 -0.9088
  363TMC3    H2 5440   3.852   2.611   9.711 -0.1540 -0.9656  0.3035
  363TMC3    C7 5441   3.727   2.732   9.486 -0.1994  0.1966 -0.1153
  363TMC3    C8 5442   3.992   2.401   9.736  0.5715 -0.3702  0.1828
  363TMC3    O1 5443   3.713   2.795   9.380  0.6950  0.2209  0.4229
  363TMC3    O2 5444   3.928   2.430   9.836  0.0640  0.3301  0.2267
  364MPD2     C 5445   2.513   1.934  10.462  0.2855 -0.2139 -0.5168
  364MPD2    C1 5446   2.592   1.933  10.349  0.1530  0.6053 -0.0278
  364MPD2    C2 5447   2.683   1.833  10.330 -0.0751 -0.3522 -0.2452
  364MPD2    C3 5448   2.702   1.738  10.433 -0.2229  0.2784  0.0993
  364MPD2    C4 5449   2.616   1.735  10.541  0.6661  0.0933 -0.6268
  364MPD2    C5 5450   2.524   1.830  10.553 -0.4085  0.1703 -0.4602
  364MPD2     H 5451   2.742   1.835  10.239  0.4173  1.9463  0.1311
  364MPD2    H1 5452   2.624   1.652  10.611 -1.3383 -1.1308 -1.8563
  364MPD2    H2 5453   2.443   2.012  10.491 -0.2266 -1.5797  1.8816
  364MPD2    H3 5454   2.466   1.818  10.644  0.1047 -1.1574 -0.3083
  364MPD2     N 5455   2.812   1.655  10.431  0.0826 -0.5422  0.0534
  364MPD2    H5 5456   2.831   1.602  10.516 -1.2590  1.2572  1.4842
  364MPD2    N1 5457   2.585   2.043  10.263 -0.5310  0.0749  0.0215
  364MPD2    H7 5458   2.524   2.116  10.300 -1.3587 -0.0852 -1.0427
  365TMC3    C1 5459   2.632   2.202  10.100  0.1605  0.2676 -0.3155
  365TMC3    C2 5460   2.696   2.222   9.981  0.3387  0.5295  0.0882
  365TMC3    C3 5461   2.766   2.339   9.959  0.3018 -0.0978 -0.5380
  365TMC3    C4 5462   2.638   2.297  10.205  0.2270  0.3368 -0.3831
  365TMC3    C5 5463   2.705   2.417  10.173 -0.1557  0.0939  0.5579
  365TMC3    C6 5464   2.768   2.438  10.055  0.1437  0.3549  0.3743
  365TMC3     C 5465   2.638   2.064  10.143 -0.6323  0.2478  0.0089
  365TMC3     O 5466   2.692   1.977  10.072  0.3570 -0.5313  0.6598
  365TMC3     H 5467   2.696   2.150   9.900 -0.6002  0.6973 -0.0603
  365TMC3    H1 5468   2.570   2.294  10.289  1.6651  0.4337  0.7963
  365TMC3    H2 5469   2.824   2.528  10.035 -0.8742  1.0787  0.8006
  365TMC3    C7 5470   2.748   2.502  10.283  0.1383 -0.2058  0.5312
  365TMC3    C8 5471   2.864   2.347   9.855 -0.7046 -0.4910 -0.4047
  365TMC3    O1 5472   2.727   2.624  10.298  0.0354 -0.1301  0.5007
  365TMC3    O2 5473   2.936   2.446   9.851 -0.5400  0.2736  0.4759
  366MPD2     C 5474   0.578   3.394  15.269 -0.0852 -0.0836 -0.0170
  366MPD2    C1 5475   0.671   3.472  15.209 -0.2872 -0.3310 -0.2020
  366MPD2    C2 5476   0.746   3.422  15.103  0.9629  0.1033  0.5236
  366MPD2    C3 5477   0.737   3.288  15.072  0.0091  0.6882  0.7776
  366MPD2    C4 5478   0.639   3.216  15.126 -0.7495  0.5587  0.0489
  366MPD2    C5 5479   0.552   3.269  15.219 -0.2885  0.1344  0.0724
  366MPD2     H 5480   0.819   3.484  15.052  1.9046  0.3488  2.1662
  366MPD2    H1 5481   0.617   3.116  15.090  2.7635 -0.4211  0.6024
  366MPD2    H2 5482   0.520   3.435  15.351  0.4213 -2.5148  1.5448
  366MPD2    H3 5483   0.471   3.204  15.248 -0.3398 -0.1789 -0.7725
  366MPD2     N 5484   0.813   3.236  14.967  0.5270 -0.7015  0.2387
  366MPD2    H5 5485   0.862   3.303  14.907 -2.0237  0.5000 -0.4882
  366MPD2    N1 5486   0.704   3.605  15.245  0.0953  0.1759 -0.1659
  366MPD2    H7 5487   0.764   3.662  15.186  2.7878  1.0014  3.3705
  367TMC3    C1 5488   0.697   3.817  15.360 -0.2207 -0.6118 -1.4886
  367TMC3    C2 5489   0.832   3.832  15.364  0.2041  0.2958  0.3425
  367TMC3    C3 5490   0.888   3.954  15.370 -0.7503  0.0003  0.8289
  367TMC3    C4 5491   0.614   3.929  15.353 -0.8707  0.6066  0.1694
  367TMC3    C5 5492   0.671   4.052  15.349 -0.3915 -0.2866 -0.6376
  367TMC3    C6 5493   0.809   4.071  15.366  0.2365  0.4299  0.4463
  367TMC3     C 5494   0.643   3.676  15.345  0.7593  0.4932 -0.1960
  367TMC3     O 5495   0.535   3.657  15.397 -0.6075 -0.3488 -0.1283
  367TMC3     H 5496   0.896   3.745  15.372 -0.9449 -0.8919 -3.2949
  367TMC3    H1 5497   0.508   3.910  15.338 -0.9777 -0.1744  1.9036
  367TMC3    H2 5498   0.846   4.173  15.356  0.3679  0.2451 -0.8609
  367TMC3    C7 5499   0.600   4.148  15.266  0.2044  0.8146 -0.1042
  367TMC3    C8 5500   0.995   3.957  15.464  0.2274 -0.3246 -0.1605
  367TMC3    O1 5501   0.478   4.137  15.269  0.0708 -0.1512 -0.3041
  367TMC3    O2 5502   1.053   3.852  15.488 -0.5652 -0.0407 -0.2722
  368MPD2     C 5503   1.906   0.888  13.115 -0.4971 -0.1070 -0.2711
  368MPD2    C1 5504   1.959   0.898  12.990  0.6144 -0.2188 -0.1668
  368MPD2    C2 5505   2.084   0.845  12.965  0.5235  0.0780 -0.1964
  368MPD2    C3 5506   2.147   0.773  13.063  0.3547 -0.1458 -0.2302
  368MPD2    C4 5507   2.098   0.767  13.189 -0.2568 -0.2990  0.6057
  368MPD2    C5 5508   1.971   0.823  13.212  0.1357 -0.3655  0.3432
  368MPD2     H 5509   2.119   0.848  12.862 -1.1275 -0.9259 -0.7931
  368MPD2    H1 5510   2.149   0.709  13.264  1.7994 -0.7244 -1.1056
  368MPD2    H2 5511   1.808   0.930  13.134 -0.6466  0.4590 -2.2680
  368MPD2    H3 5512   1.933   0.818  13.314 -1.8868 -0.1911 -0.4198
  368MPD2     N 5513   2.259   0.702  13.033  0.2222 -0.3705 -0.7878
  368MPD2    H5 5514   2.284   0.625  13.094 -0.6371 -1.5194 -1.8830
  368MPD2    N1 5515   1.875   0.964  12.895  0.6116  0.0592  0.3317
  368MPD2    H7 5516   1.789   1.008  12.926 -0.0262  0.8014 -2.5485
  369TMC3    C1 5517   1.808   1.012  12.673  0.1070 -0.2674  0.4190
  369TMC3    C2 5518   1.841   1.048  12.549  0.6082 -0.3178 -0.4240
  369TMC3    C3 5519   1.747   1.033  12.446 -0.2726 -0.8193  0.3035
  369TMC3    C4 5520   1.690   0.938  12.701 -0.1959  0.7328 -0.1115
  369TMC3    C5 5521   1.597   0.933  12.595 -0.1333 -0.2080 -0.5838
  369TMC3    C6 5522   1.619   0.983  12.468  0.0477 -0.0374 -0.1145
  369TMC3     C 5523   1.921   1.009  12.771 -0.4606  0.1807  0.0867
  369TMC3     O 5524   2.034   1.026  12.731  0.0281 -0.0052 -0.3354
  369TMC3     H 5525   1.926   1.112  12.530  0.0317  0.2915 -0.9733
  369TMC3    H1 5526   1.658   0.902  12.798  0.3831 -1.0346 -0.5614
  369TMC3    H2 5527   1.557   0.962  12.381  1.5811 -0.0092 -1.2102
  369TMC3    C7 5528   1.465   0.888  12.636 -0.7215  0.7243  0.3855
  369TMC3    C8 5529   1.806   0.997  12.319  0.1593 -0.4955  0.1270
  369TMC3    O1 5530   1.443   0.862  12.755  0.5916 -0.3169 -0.0617
  369TMC3    O2 5531   1.731   0.976  12.223  0.5343  0.0239  0.2996
  370TMC3    C1 5532   1.418   0.954  15.913 -0.3277  0.2413 -0.6777
  370TMC3    C2 5533   1.411   0.884  16.034  0.2610  0.0917 -0.2537
  370TMC3    C3 5534   1.342   0.767  16.040  0.1895  0.2094  0.0016
  370TMC3    C4 5535   1.355   0.897  15.803 -0.3652  0.0873  0.3158
  370TMC3    C5 5536   1.295   0.775  15.814 -0.3674  0.2533 -0.0116
  370TMC3    C6 5537   1.291   0.708  15.929 -0.0601  0.5903 -0.6840
  370TMC3     C 5538   1.540   1.029  15.899 -0.2481  0.5675 -0.0962
  370TMC3     O 5539   1.635   1.001  15.975 -0.0701  0.1002 -0.4802
  370TMC3     H 5540   1.471   0.924  16.114 -1.9003  0.0258  1.3764
  370TMC3    H1 5541   1.376   0.932  15.703 -1.3107  0.9494  0.4100
  370TMC3    H2 5542   1.244   0.611  15.944 -1.4876  1.3381 -0.2774
  370TMC3    C7 5543   1.304   0.695  15.689 -0.2974  0.3208  0.3011
  370TMC3    C8 5544   1.350   0.703  16.168 -0.6058  0.0024 -0.1211
  370TMC3    O1 5545   1.296   0.757  15.583  0.0339  0.0871  0.2443
  370TMC3    O2 5546   1.315   0.587  16.169 -0.0992  0.6199 -0.2768
  371TMC3    C1 5547   2.533   3.630  15.640 -0.0005  0.4817 -0.2027
  371TMC3    C2 5548   2.401   3.641  15.688 -0.6336 -0.7392  0.2267
  371TMC3    C3 5549   2.347   3.767  15.679  0.4891  0.9477  0.5390
  371TMC3    C4 5550   2.601   3.722  15.567 -0.1947  0.3924  0.5248
  371TMC3    C5 5551   2.534   3.841  15.562  0.4395  0.3845 -0.1460
  371TMC3    C6 5552   2.410   3.870  15.612  0.7845  0.6213  0.1462
  371TMC3     C 5553   2.617   3.514  15.672  0.2127  0.3713 -0.2760
  371TMC3     O 5554   2.731   3.533  15.704  0.5064 -0.0387 -0.5241
  371TMC3     H 5555   2.345   3.556  15.726  1.8518 -2.0940  0.8538
  371TMC3    H1 5556   2.705   3.702  15.544 -0.4615  1.7745 -1.8732
  371TMC3    H2 5557   2.354   3.958  15.583 -0.2723  0.0617  0.4833
  371TMC3    C7 5558   2.596   3.953  15.496 -0.6050 -0.2564  0.2422
  371TMC3    C8 5559   2.203   3.756  15.684  0.7175 -0.8112 -0.5295
  371TMC3    O1 5560   2.538   4.062  15.506  0.1719 -0.1406 -0.0598
  371TMC3    O2 5561   2.154   3.649  15.719 -0.3182  1.1046 -0.2451
  372MPD2     C 5562   2.718   0.516  13.539  0.4408 -0.1601 -0.0132
  372MPD2    C1 5563   2.761   0.384  13.555  0.1676  0.5274  0.0236
  372MPD2    C2 5564   2.675   0.291  13.611  0.4597 -0.3577 -0.3118
  372MPD2    C3 5565   2.545   0.310  13.637 -0.3081  0.4223  0.0497
  372MPD2    C4 5566   2.504   0.438  13.615  0.4607 -0.3202  0.3650
  372MPD2    C5 5567   2.589   0.536  13.568  0.3684 -0.0027  0.2178
  372MPD2     H 5568   2.716   0.194  13.640 -1.5087 -0.6375  1.5337
  372MPD2    H1 5569   2.398   0.458  13.626  0.3778 -0.2320 -0.6069
  372MPD2    H2 5570   2.780   0.600  13.509  1.8382 -1.1532  0.0990
  372MPD2    H3 5571   2.547   0.635  13.551  1.4216  0.8773  2.7703
  372MPD2     N 5572   2.469   0.207  13.701  0.6725  0.4334 -0.3601
  372MPD2    H5 5573   2.519   0.120  13.716  0.6265  0.3856 -0.4807
  372MPD2    N1 5574   2.896   0.352  13.550  0.0020  0.0460 -0.2203
  372MPD2    H7 5575   2.923   0.264  13.592 -2.9823 -1.5134 -1.5803
  373TMC3    C1 5576   2.275   0.073  13.761 -0.2229  0.0269 -0.3193
  373TMC3    C2 5577   2.172   0.073  13.844  0.4578 -0.3233 -0.1988
  373TMC3    C3 5578   2.111   4.673  13.860  0.2961 -0.4227  0.0382
  373TMC3    C4 5579   2.330   4.682  13.709 -0.6136  0.1028 -1.3646
  373TMC3    C5 5580   2.277   4.559  13.734 -0.5365 -0.2073  0.2507
  373TMC3    C6 5581   2.159   4.554  13.804  0.0374  0.0970 -0.1184
  373TMC3     C 5582   2.337   0.206  13.743  0.2682  0.3353  0.7535
  373TMC3     O 5583   2.261   0.301  13.746 -0.0148  0.4990  0.5274
  373TMC3     H 5584   2.135   0.163  13.891 -1.2390 -1.0014 -0.2275
  373TMC3    H1 5585   2.420   4.681  13.648 -0.9423 -1.0959 -1.8321
  373TMC3    H2 5586   2.099   4.466  13.823 -0.1326  0.2705  0.1438
  373TMC3    C7 5587   2.366   4.444  13.727  0.1072  0.0272 -0.0353
  373TMC3    C8 5588   1.983   4.683  13.935  0.5725  0.9578  0.0050
  373TMC3    O1 5589   2.471   4.446  13.665  0.0214  0.2199 -0.3842
  373TMC3    O2 5590   1.912   0.054  13.910  0.0991  0.1021 -0.7826
  374TMC3    C1 5591   3.395   0.234   9.578 -0.4266  0.0745 -0.0289
  374TMC3    C2 5592   3.478   0.336   9.604 -0.4057 -0.1098  0.1279
  374TMC3    C3 5593   3.498   0.436   9.507  0.2853 -0.1799 -0.1068
  374TMC3    C4 5594   3.318   0.246   9.469  0.1697 -0.0527  0.3667
  374TMC3    C5 5595   3.332   0.346   9.373  0.1079 -0.0426  0.3363
  374TMC3    C6 5596   3.420   0.448   9.398 -0.6018 -0.6547  0.0283
  374TMC3     C 5597   3.382   0.124   9.674  0.0901  0.3209  0.5237
  374TMC3     O 5598   3.302   0.038   9.637  0.2823  0.1678 -0.0591
  374TMC3     H 5599   3.544   0.335   9.690  2.3594 -1.0001 -2.0156
  374TMC3    H1 5600   3.240   0.171   9.456  0.9235 -0.8157  0.2489
  374TMC3    H2 5601   3.449   0.522   9.324  0.7303 -1.0379  0.1680
  374TMC3    C7 5602   3.241   0.341   9.261  0.0583 -0.0461  0.1579
  374TMC3    C8 5603   3.612   0.526   9.514 -0.5312  0.2757  0.3414
  374TMC3    O1 5604   3.184   0.238   9.233  0.6477  0.1044  0.1448
  374TMC3    O2 5605   3.620   0.621   9.431  0.3445  0.0936  0.1660
  375MPD2     C 5606   3.083   1.787  16.509  0.3963 -0.7615 -0.0294
  375MPD2    C1 5607   2.951   1.751  16.477  0.4793  0.2549 -0.2512
  375MPD2    C2 5608   2.926   1.646  16.389 -0.1198  0.1736 -0.0835
  375MPD2    C3 5609   3.029   1.588  16.315 -0.0995  0.3380 -0.0785
  375MPD2    C4 5610   3.159   1.627  16.344  0.1866  0.8527  0.2026
  375MPD2    C5 5611   3.182   1.725  16.439 -0.2084 -0.0801 -0.2857
  375MPD2     H 5612   2.825   1.612  16.369 -0.4135  1.9529 -1.5877
  375MPD2    H1 5613   3.243   1.593  16.284  0.3881  0.8915  0.4671
  375MPD2    H2 5614   3.101   1.869  16.578  0.4474 -0.1533 -0.7567
  375MPD2    H3 5615   3.285   1.747  16.464 -0.2124  0.6963 -0.9566
  375MPD2     N 5616   3.010   1.496  16.214 -0.0967 -0.0976 -0.5047
  375MPD2    H5 5617   3.087   1.439  16.178 -0.4443 -1.0627  0.2735
  375MPD2    N1 5618   2.845   1.822  16.525 -0.1967  0.1852  0.0353
  375MPD2    H7 5619   2.753   1.801  16.488  0.7092 -1.1865 -1.4182
  376TMC3    C1 5620   2.889   1.336  16.123 -0.0357 -0.1319 -0.9262
  376TMC3    C2 5621   2.973   1.245  16.188  0.6488  0.2761 -0.1754
  376TMC3    C3 5622   2.975   1.122  16.125 -0.4256 -0.1801  1.1508
  376TMC3    C4 5623   2.805   1.310  16.016  0.6408  0.8261 -0.2314
  376TMC3    C5 5624   2.829   1.197  15.955  0.5053 -0.2071 -0.0290
  376TMC3    C6 5625   2.915   1.102  16.005  0.2983 -0.7203 -0.0303
  376TMC3     C 5626   2.885   1.467  16.178  0.1709 -0.4260  0.2720
  376TMC3     O 5627   2.781   1.534  16.163  0.1312  0.1675 -0.1516
  376TMC3     H 5628   3.013   1.272  16.286  1.1621 -2.2826  0.3211
  376TMC3    H1 5629   2.741   1.380  15.963 -2.6018 -2.4212 -0.6452
  376TMC3    H2 5630   2.937   1.007  15.957  2.0705 -0.5940  0.5324
  376TMC3    C7 5631   2.754   1.159  15.832  0.0739 -0.3667  0.3540
  376TMC3    C8 5632   3.090   1.047  16.155  0.1651  0.1709  0.6126
  376TMC3    O1 5633   2.689   1.247  15.779  0.0633  0.3761  0.6976
  376TMC3    O2 5634   3.151   0.991  16.062 -0.0438  0.1212  0.0242
  377MPD2     C 5635   1.143   0.840  11.935 -0.0459 -0.1962  0.5373
  377MPD2    C1 5636   1.167   0.775  12.052 -0.8218 -0.3798  0.4799
  377MPD2    C2 5637   1.058   0.713  12.111  0.1603 -0.5554  0.0957
  377MPD2    C3 5638   0.932   0.742  12.071  0.4825 -0.6704 -0.1508
  377MPD2    C4 5639   0.912   0.823  11.965  0.3510  0.4285  0.6986
  377MPD2    C5 5640   1.019   0.874  11.898  0.5379 -0.9552 -0.4489
  377MPD2     H 5641   1.068   0.659  12.204  1.9337  0.1754  0.3493
  377MPD2    H1 5642   0.809   0.837  11.933 -0.2281 -1.1154  1.9045
  377MPD2    H2 5643   1.225   0.879  11.877 -0.6800  1.6827  0.9045
  377MPD2    H3 5644   1.017   0.939  11.810  1.0796 -0.8106 -0.3540
  377MPD2     N 5645   0.816   0.709  12.143 -0.2424 -0.2067  0.7026
  377MPD2    H5 5646   0.735   0.751  12.098  1.1802 -0.6509 -2.3268
  377MPD2    N1 5647   1.302   0.744  12.080 -0.3975  0.0320 -0.4099
  377MPD2    H7 5648   1.362   0.771  12.003 -0.1045 -0.4759 -0.3562
  378TMC3    C1 5649   1.699   0.672  12.068  0.0665  0.6613 -0.8116
  378TMC3    C2 5650   1.566   0.682  12.069  0.1692  0.8892  0.0156
  378TMC3    C3 5651   1.499   0.671  12.186 -0.3650  0.3781 -0.2903
  378TMC3    C4 5652   1.757   0.637  12.188 -0.3896  0.1700 -0.5673
  378TMC3    C5 5653   1.692   0.649  12.310 -0.3446 -0.1107 -0.5144
  378TMC3    C6 5654   1.558   0.661  12.307 -0.5492 -0.4430  0.8976
  378TMC3     C 5655   1.756   0.646  11.933  0.7375 -0.0163  0.6037
  378TMC3     O 5656   1.696   0.695  11.839 -0.2665  0.5636 -0.1575
  378TMC3     H 5657   1.519   0.689  11.972  2.4930  0.8084 -1.1259
  378TMC3    H1 5658   1.866   0.634  12.187 -0.3518  1.5524  1.8721
  378TMC3    H2 5659   1.506   0.670  12.402  3.3748 -1.2224  3.1357
  378TMC3    C7 5660   1.758   0.647  12.441 -0.8533 -0.1272 -0.2117
  378TMC3    C8 5661   1.351   0.683  12.192  0.1196  0.2380  0.0147
  378TMC3    O1 5662   1.702   0.686  12.544  0.4611 -0.1617 -0.6188
  378TMC3    O2 5663   1.295   0.659  12.297 -0.3622  0.3868 -0.2096
  379MPD2     C 5664   2.028   3.802  16.050  0.2926 -0.2140  0.4367
  379MPD2    C1 5665   1.955   3.702  16.115 -0.0896 -0.5793  0.3485
  379MPD2    C2 5666   2.015   3.615  16.207  0.0835  0.5554  0.6112
  379MPD2    C3 5667   2.152   3.621  16.225 -0.2548 -0.2163 -0.2199
  379MPD2    C4 5668   2.228   3.716  16.153  0.0405  0.5986 -0.1358
  379MPD2    C5 5669   2.163   3.816  16.078  0.4433 -0.6184 -0.5032
  379MPD2     H 5670   1.966   3.539  16.267  0.4378  1.3085  1.8681
  379MPD2    H1 5671   2.331   3.738  16.180  0.6648  0.8783 -2.6863
  379MPD2    H2 5672   1.970   3.876  15.995 -0.5476 -0.6181  0.7744
  379MPD2    H3 5673   2.226   3.888  16.027 -0.0542 -0.3725 -0.7637
  379MPD2     N 5674   2.206   3.529  16.312  0.5623  0.0882  0.7569
  379MPD2    H5 5675   2.145   3.474  16.371 -0.9576 -1.8312 -2.6068
  379MPD2    N1 5676   1.816   3.691  16.082  0.5693  0.1585  0.1636
  379MPD2    H7 5677   1.763   3.768  16.043 -1.1114 -0.6174  0.9060
  380TMC3    C1 5678   1.619   3.581  16.036 -0.2537  0.1738 -0.4040
  380TMC3    C2 5679   1.604   3.499  15.929  0.0722 -0.1652 -0.7130
  380TMC3    C3 5680   1.526   3.541  15.825  1.1746 -0.7920 -0.0498
  380TMC3    C4 5681   1.546   3.700  16.047 -0.5746  0.1824 -0.2796
  380TMC3    C5 5682   1.454   3.726  15.948  0.5414  0.1015  0.3128
  380TMC3    C6 5683   1.443   3.651  15.835 -0.4423 -0.0801  0.1009
  380TMC3     C 5684   1.750   3.572  16.099  0.9605  0.4101 -0.1073
  380TMC3     O 5685   1.799   3.462  16.103 -0.1187  0.4872  0.0693
  380TMC3     H 5686   1.660   3.406  15.930  1.1319  0.4835  0.5418
  380TMC3    H1 5687   1.550   3.762  16.136  0.5890 -1.1677  0.6077
  380TMC3    H2 5688   1.367   3.674  15.761 -0.3007  1.9505  0.5940
  380TMC3    C7 5689   1.386   3.862  15.955  0.3609  0.0382  0.2083
  380TMC3    C8 5690   1.598   3.538  15.696  0.4831 -0.4470  0.0480
  380TMC3    O1 5691   1.382   3.914  16.068  0.1589 -0.4325  0.9628
  380TMC3    O2 5692   1.601   3.649  15.644  0.6295 -0.5661 -0.0195
  381TMC3    C1 5693   1.224   4.684  16.015  0.8021 -0.4944 -0.0286
  381TMC3    C2 5694   1.334   0.040  15.990 -0.8513 -0.0224  0.0309
  381TMC3    C3 5695   1.361   0.135  16.085  0.0246 -0.7453 -0.2382
  381TMC3    C4 5696   1.147   4.698  16.121 -0.3015 -0.9742  0.2287
  381TMC3    C5 5697   1.176   0.077  16.212  0.3609  0.9224  0.7890
  381TMC3    C6 5698   1.287   0.154  16.200  1.3048 -0.3381  0.4580
  381TMC3     C 5699   1.160   4.617  15.904 -0.1722  0.7213 -0.4721
  381TMC3     O 5700   1.054   4.556  15.927  0.1298  0.3080  0.4424
  381TMC3     H 5701   1.402   0.025  15.907 -1.0882  1.1718 -0.3790
  381TMC3    H1 5702   1.058   4.637  16.129 -1.3430  0.6158  0.7308
  381TMC3    H2 5703   1.292   0.242  16.263 -0.0333 -0.9451  1.4214
  381TMC3    C7 5704   1.113   0.060  16.343  0.4402 -0.3149 -0.0323
  381TMC3    C8 5705   1.488   0.203  16.070  0.5189 -0.6305 -0.3367
  381TMC3    O1 5706   1.056   4.677  16.368  0.1277  0.0411 -0.3548
  381TMC3    O2 5707   1.546   0.173  15.966  0.2489 -0.0888 -0.1112
  382MPD2     C 5708   0.855   2.176  17.217 -0.2728  0.6180 -0.0863
  382MPD2    C1 5709   0.826   2.253  17.330 -0.4440  0.7196 -0.0270
  382MPD2    C2 5710   0.698   2.250  17.373 -0.2695  0.3208  0.6702
  382MPD2    C3 5711   0.600   2.187  17.297  0.7445 -0.2468 -0.3251
  382MPD2    C4 5712   0.628   2.111  17.193 -0.3659  1.0784  0.3955
  382MPD2    C5 5713   0.760   2.106  17.154 -0.0678  0.3302 -0.9370
  382MPD2     H 5714   0.673   2.301  17.465 -1.5554  0.5797  0.1875
  382MPD2    H1 5715   0.560   2.066  17.122  0.1049 -0.2788  0.7933
  382MPD2    H2 5716   0.950   2.178  17.166 -0.9252 -0.4600 -1.3409
  382MPD2    H3 5717   0.786   2.071  17.054  2.1315  0.2486 -0.3372
  382MPD2     N 5718   0.462   2.201  17.313 -0.1227 -0.1694 -0.1128
  382MPD2    H5 5719   0.403   2.142  17.255 -1.1371  0.2035  0.5445
  382MPD2    N1 5720   0.920   2.336  17.401  0.0911 -0.4106 -0.1724
  382MPD2    H7 5721   0.898   2.374  17.493 -0.1335 -0.2660 -0.2873
  383TMC3    C1 5722   0.259   2.288  17.395 -0.0253 -0.2233  0.2348
  383TMC3    C2 5723   0.189   2.225  17.288  0.1200 -0.3993 -0.8857
  383TMC3    C3 5724   0.057   2.248  17.287  0.3620  0.1641  0.2825
  383TMC3    C4 5725   0.184   2.353  17.484  0.2742 -0.5858 -0.0245
  383TMC3    C5 5726   0.051   2.356  17.482 -0.4807  0.0093  0.0171
  383TMC3    C6 5727   4.700   2.309  17.377 -0.5621  0.3134  0.0708
  383TMC3     C 5728   0.405   2.274  17.414  0.0576  0.2053  0.1525
  383TMC3     O 5729   0.448   2.328  17.515 -0.2295 -0.1227  0.0265
  383TMC3     H 5730   0.237   2.159  17.217 -0.6832  0.7477 -2.4754
  383TMC3    H1 5731   0.241   2.409  17.557  1.7146  0.5778 -2.0401
  383TMC3    H2 5732   4.592   2.302  17.375 -0.5898  0.8921 -0.6467
  383TMC3    C7 5733   4.712   2.446  17.581  0.3982  0.3745  0.2135
  383TMC3    C8 5734   4.711   2.201  17.168  0.1106 -0.3007  0.0982
  383TMC3    O1 5735   0.048   2.476  17.683  0.6746 -0.0125 -0.0049
  383TMC3    O2 5736   4.618   2.276  17.141  0.2488 -0.1382 -0.2786
  384MPD2     C 5737   2.749   3.029  11.791  0.4912  0.6876 -0.6745
  384MPD2    C1 5738   2.744   2.971  11.913  0.5299  0.2335 -1.0958
  384MPD2    C2 5739   2.706   2.840  11.920  0.4902  0.8211  0.2527
  384MPD2    C3 5740   2.665   2.772  11.806  1.3462  0.4573  0.2493
  384MPD2    C4 5741   2.671   2.832  11.684  0.2844  0.1789 -0.7042
  384MPD2    C5 5742   2.717   2.959  11.674 -0.1159 -0.0803 -0.1264
  384MPD2     H 5743   2.696   2.787  12.014 -0.0384 -0.9579 -0.8103
  384MPD2    H1 5744   2.630   2.783  11.596 -0.5199  0.8533 -0.7065
  384MPD2    H2 5745   2.772   3.135  11.784  2.0516  0.3488 -0.7392
  384MPD2    H3 5746   2.727   3.008  11.578 -0.9092  1.4222  0.5659
  384MPD2     N 5747   2.618   2.638  11.836  0.0030  0.8802 -0.1048
  384MPD2    H5 5748   2.585   2.611  11.928 -0.3407  1.3869 -0.0785
  384MPD2    N1 5749   2.777   3.052  12.027  0.3507 -0.1572  0.3939
  384MPD2    H7 5750   2.793   3.151  12.011  2.8937 -0.4513  1.1101
  385TMC3    C1 5751   2.532   2.422  11.785  0.1159 -0.0331  1.2180
  385TMC3    C2 5752   2.614   2.317  11.752  0.2935  0.2569 -0.0819
  385TMC3    C3 5753   2.651   2.235  11.856  0.6911  0.6845  0.5682
  385TMC3    C4 5754   2.479   2.443  11.910  0.2677  0.3852  0.5028
  385TMC3    C5 5755   2.539   2.366  12.008  0.1221  0.4731 -0.0860
  385TMC3    C6 5756   2.615   2.254  11.980 -0.2261 -0.0723 -0.3224
  385TMC3     C 5757   2.582   2.556  11.732  0.2534 -0.0498 -0.0953
  385TMC3     O 5758   2.607   2.552  11.614 -0.0342 -0.1470 -0.1501
  385TMC3     H 5759   2.658   2.302  11.654  0.9569 -1.5263  0.4983
  385TMC3    H1 5760   2.412   2.526  11.930  2.8622  2.6875 -0.4534
  385TMC3    H2 5761   2.644   2.177  12.051 -1.5683 -2.7980 -2.7073
  385TMC3    C7 5762   2.569   2.436  12.129 -0.4129 -0.8528 -0.1194
  385TMC3    C8 5763   2.739   2.121  11.836 -0.3712 -0.7466 -0.3291
  385TMC3    O1 5764   2.516   2.547  12.135 -0.5898  0.0200 -0.0252
  385TMC3    O2 5765   2.790   2.073  11.930 -0.2921  0.5816  0.7629
  386TMC3    C1 5766   2.722   0.298  11.151  0.3876 -0.7292 -0.1780
  386TMC3    C2 5767   2.846   0.315  11.097 -0.3471 -0.1075  0.0852
  386TMC3    C3 5768   2.885   0.435  11.052  0.4977  0.0781 -0.0200
  386TMC3    C4 5769   2.629   0.398  11.159  0.7452  0.1353 -0.6627
  386TMC3    C5 5770   2.666   0.529  11.114  0.7029  0.1430 -0.1802
  386TMC3    C6 5771   2.797   0.541  11.063 -0.5548  0.2284 -0.0032
  386TMC3     C 5772   2.685   0.163  11.187 -0.3721  0.0038 -0.2592
  386TMC3     O 5773   2.562   0.155  11.200  0.0382 -0.0564  0.5118
  386TMC3     H 5774   2.914   0.232  11.083 -0.0486 -0.2613  2.5287
  386TMC3    H1 5775   2.526   0.381  11.188 -0.0442  1.3681 -2.7241
  386TMC3    H2 5776   2.841   0.631  11.022  0.5463  0.9290  2.6933
  386TMC3    C7 5777   2.589   0.648  11.150  0.5375  0.0451  0.7278
  386TMC3    C8 5778   2.950   0.450  10.924 -0.1922  0.2651  0.2793
  386TMC3    O1 5779   2.519   0.634  11.253 -0.7003  0.7538  0.4720
  386TMC3    O2 5780   2.888   0.430  10.821 -0.6789 -0.2227  0.2727
  387MPD2     C 5781   0.274   1.457   9.557  0.4533  0.5272 -0.3970
  387MPD2    C1 5782   0.399   1.401   9.547  0.4835 -0.0693  0.4359
  387MPD2    C2 5783   0.417   1.268   9.522 -0.1353  0.1296 -0.2082
  387MPD2    C3 5784   0.310   1.178   9.507 -0.4298 -0.4451 -0.2855
  387MPD2    C4 5785   0.182   1.225   9.514 -0.5434 -0.5955  0.3375
  387MPD2    C5 5786   0.167   1.363   9.532  0.4531 -0.3534 -0.7434
  387MPD2     H 5787   0.519   1.230   9.514 -0.3326 -0.5778  0.6665
  387MPD2    H1 5788   0.101   1.157   9.491 -1.0840  0.7850 -1.8478
  387MPD2    H2 5789   0.250   1.558   9.589  0.5066 -0.5971  3.2116
  387MPD2    H3 5790   0.062   1.390   9.534  1.0534  1.9055 -0.0856
  387MPD2     N 5791   0.344   1.036   9.514 -1.2683 -0.6433  0.1828
  387MPD2    H5 5792   0.441   1.008   9.512 -0.4870  1.9057  2.6688
  387MPD2    N1 5793   0.514   1.471   9.583  0.0471 -0.0915 -0.2271
  387MPD2    H7 5794   0.600   1.419   9.574 -0.3607 -0.7519 -0.2937
  388TMC3    C1 5795   0.648   1.624   9.692  0.0506 -0.1158 -1.0173
  388TMC3    C2 5796   0.699   1.752   9.707  0.9029 -0.3510 -0.3488
  388TMC3    C3 5797   0.829   1.769   9.753 -0.5392  0.0662 -0.1947
  388TMC3    C4 5798   0.720   1.512   9.726 -0.2792 -0.4618 -0.6944
  388TMC3    C5 5799   0.844   1.528   9.779 -0.2550 -0.2319 -0.5208
  388TMC3    C6 5800   0.891   1.655   9.804  0.5998 -0.8412 -0.3360
  388TMC3     C 5801   0.520   1.598   9.632  0.0898 -0.0464 -0.4334
  388TMC3     O 5802   0.433   1.685   9.629 -0.7080  0.3128 -0.5585
  388TMC3     H 5803   0.636   1.839   9.696  0.6040 -0.5544 -0.2537
  388TMC3    H1 5804   0.664   1.422   9.745  0.0115 -0.4046  0.4578
  388TMC3    H2 5805   0.988   1.662   9.851  1.6787  1.2726 -2.8661
  388TMC3    C7 5806   0.922   1.416   9.833  0.3333 -0.2634  0.4375
  388TMC3    C8 5807   0.855   1.894   9.822  0.1277 -0.0497  0.0584
  388TMC3    O1 5808   0.999   1.427   9.932  0.3026  0.0571  0.1632
  388TMC3    O2 5809   0.921   1.887   9.927  0.8412  0.4104 -0.2164
  389MPD2     C 5810   4.663   3.901  11.528 -0.9145  0.2326  0.4526
  389MPD2    C1 5811   4.555   3.894  11.441 -0.8007 -0.3920 -0.0430
  389MPD2    C2 5812   4.453   3.811  11.478  0.2287  0.3957 -0.2049
  389MPD2    C3 5813   4.440   3.751  11.602  0.6152 -0.3490 -0.3246
  389MPD2    C4 5814   4.549   3.769  11.693 -0.3521  0.6259  0.1557
  389MPD2    C5 5815   4.654   3.848  11.655  0.0721  0.3813  0.2297
  389MPD2     H 5816   4.374   3.786  11.407  0.0173  1.0229 -0.1924
  389MPD2    H1 5817   4.541   3.728  11.793  2.2826  1.3598  0.6449
  389MPD2    H2 5818   0.017   3.977  11.515  1.1302 -1.6555  1.4281
  389MPD2    H3 5819   0.006   3.873  11.730 -1.0182  2.8619  0.4916
  389MPD2     N 5820   4.337   3.671  11.663  0.3109 -0.0377 -0.0274
  389MPD2    H5 5821   4.331   3.668  11.764  1.0140  2.4136  0.0798
  389MPD2    N1 5822   4.567   3.971  11.324 -0.1550 -0.2542  0.0239
  389MPD2    H7 5823   4.648   4.030  11.310 -0.5283  1.2475  4.2121
  390TMC3    C1 5824   4.172   3.521  11.684  0.9636  0.2323  0.2976
  390TMC3    C2 5825   4.157   3.391  11.639  0.3918 -0.4235  0.2353
  390TMC3    C3 5826   4.090   3.307  11.720 -0.2144  0.2634 -0.0732
  390TMC3    C4 5827   4.117   3.561  11.802 -0.1615  0.0931 -0.6540
  390TMC3    C5 5828   4.033   3.477  11.867 -0.0176  0.1865 -0.2248
  390TMC3    C6 5829   4.042   3.345  11.841 -0.0952  0.1879  0.3330
  390TMC3     C 5830   4.240   3.605  11.598  0.4044 -0.3002  0.3512
  390TMC3     O 5831   4.243   3.584  11.479 -0.0724  0.0229 -0.1012
  390TMC3     H 5832   4.209   3.352  11.553  1.1408 -2.0387  1.4196
  390TMC3    H1 5833   4.115   3.669  11.818 -0.4659 -0.1616  1.0685
  390TMC3    H2 5834   3.987   3.271  11.898 -1.1960 -0.4590 -1.5587
  390TMC3    C7 5835   3.895   3.515  11.837  0.2630 -0.3279 -0.2959
  390TMC3    C8 5836   4.067   3.173  11.668 -0.0448 -0.7103  0.3735
  390TMC3    O1 5837   3.876   3.611  11.760 -0.0757  0.0708 -0.0118
  390TMC3    O2 5838   4.054   3.164  11.549 -0.3412  0.4621 -0.2410
  391MPD2     C 5839   3.550   0.480  10.860 -0.0212 -0.5985  0.1479
  391MPD2    C1 5840   3.678   0.534  10.885  0.3079 -0.6842  0.3601
  391MPD2    C2 5841   3.766   0.545  10.779 -0.1345  0.2315 -0.0927
  391MPD2    C3 5842   3.735   0.508  10.656 -0.2873  0.1311 -0.3837
  391MPD2    C4 5843   3.607   0.462  10.632  0.1821 -0.1992 -0.1010
  391MPD2    C5 5844   3.514   0.442  10.734 -0.1386  0.0163  0.1941
  391MPD2     H 5845   3.864   0.589  10.795 -0.6114  2.4232 -3.1961
  391MPD2    H1 5846   3.571   0.433  10.535  0.5691 -3.3865  0.7132
  391MPD2    H2 5847   3.471   0.481  10.935 -0.4421  3.8917 -0.3681
  391MPD2    H3 5848   3.419   0.394  10.714 -0.0550 -1.7212  3.8484
  391MPD2     N 5849   3.836   0.512  10.559 -0.0901  0.2763 -0.2934
  391MPD2    H5 5850   3.929   0.540  10.589 -0.5457  0.7176  0.7383
  391MPD2    N1 5851   3.701   0.581  11.015 -0.7992 -0.2343 -0.6740
  391MPD2    H7 5852   3.642   0.556  11.094  0.5896 -2.0548 -0.2084
  392TMC3    C1 5853   3.957   0.493  10.351 -0.4627 -0.8158 -0.4845
  392TMC3    C2 5854   3.969   0.416  10.241 -0.3969 -0.5904  0.2130
  392TMC3    C3 5855   4.072   0.435  10.155 -0.0995 -0.0191 -0.2757
  392TMC3    C4 5856   4.049   0.588  10.391 -0.5556 -0.5666  0.0190
  392TMC3    C5 5857   4.162   0.601  10.309 -0.7077 -0.6168 -0.5254
  392TMC3    C6 5858   4.167   0.530  10.186  0.2864 -0.7678  0.0412
  392TMC3     C 5859   3.836   0.477  10.425  0.7960 -0.1817  0.0515
  392TMC3     O 5860   3.743   0.435  10.360  0.1176 -0.4193 -0.4199
  392TMC3     H 5861   3.897   0.341  10.208 -1.3963 -0.0840  1.2846
  392TMC3    H1 5862   4.050   0.631  10.490 -0.5234  1.4325 -0.8423
  392TMC3    H2 5863   4.245   0.544  10.112  0.5235  1.0557  0.6493
  392TMC3    C7 5864   4.266   0.680  10.359  0.1054  0.2015 -0.4129
  392TMC3    C8 5865   4.031   0.424  10.020 -0.1640 -0.0617  0.2757
  392TMC3    O1 5866   4.241   0.756  10.452 -0.0334  0.1963 -0.0251
  392TMC3    O2 5867   3.957   0.327   9.996  0.0583 -0.7734  0.4185
  393TMC3    C1 5868   3.101   3.630  10.703  0.3851  0.3204 -0.1844
  393TMC3    C2 5869   2.998   3.558  10.768  0.0767 -0.3447  0.2635
  393TMC3    C3 5870   2.992   3.432  10.735  0.3573  0.1482 -0.0512
  393TMC3    C4 5871   3.183   3.572  10.605  0.1798 -0.4798 -0.7490
  393TMC3    C5 5872   3.155   3.443  10.559  0.2155 -1.2386 -0.4402
  393TMC3    C6 5873   3.055   3.375  10.626 -0.3401  0.6563 -0.4913
  393TMC3     C 5874   3.095   3.776  10.723 -0.5144 -0.5444  0.1244
  393TMC3     O 5875   3.039   3.802  10.831  0.3887  1.2766  0.1552
  393TMC3     H 5876   2.938   3.605  10.845  0.2971  1.3046 -0.5673
  393TMC3    H1 5877   3.267   3.633  10.573 -0.2759 -0.0630 -1.1379
  393TMC3    H2 5878   3.035   3.273  10.596  1.1635  0.8137 -2.0474
  393TMC3    C7 5879   3.198   3.388  10.438 -0.4513  0.7239 -0.1213
  393TMC3    C8 5880   2.879   3.356  10.791 -0.2889  0.7350 -0.2593
  393TMC3    O1 5881   3.129   3.291  10.401  0.1597 -0.5940 -0.7672
  393TMC3    O2 5882   2.788   3.411  10.845 -0.3305  0.0042 -0.3581
  394TMC3    C1 5883   4.526   4.034  11.098 -0.6627  0.0376  0.1721
  394TMC3    C2 5884   4.425   4.065  11.009  0.1215  0.2671  0.1076
  394TMC3    C3 5885   4.458   4.144  10.899 -0.1693 -0.0932 -0.6735
  394TMC3    C4 5886   4.656   4.070  11.081  0.0495  0.1145 -0.1075
  394TMC3    C5 5887   4.678   4.145  10.970 -0.4231 -0.2175 -0.1149
  394TMC3    C6 5888   4.584   4.182  10.876  0.6782  0.6057 -0.6585
  394TMC3     C 5889   4.482   3.964  11.215 -0.2066 -0.0611 -0.5015
  394TMC3     O 5890   4.379   3.899  11.202  0.2992 -0.4697 -0.1310
  394TMC3     H 5891   4.325   4.027  11.023 -0.2689  0.6943 -1.5018
  394TMC3    H1 5892   0.013   4.026  11.140 -1.0462 -1.6154  0.0703
  394TMC3    H2 5893   4.610   4.242  10.789  0.8231  2.2187  0.4945
  394TMC3    C7 5894   0.089   4.183  10.935 -0.7302 -0.1117 -0.4089
  394TMC3    C8 5895   4.388   4.140  10.774  0.2145  0.4685  0.6721
  394TMC3    O1 5896   0.114   4.214  10.817  0.3650  0.2361  0.1258
  394TMC3    O2 5897   4.454   4.142  10.669  0.0868 -0.2613 -0.6114
  395TMC3    C1 5898   3.143   1.204  14.179 -0.2537  0.4153 -0.4537
  395TMC3    C2 5899   3.037   1.162  14.246  0.1615 -0.0533 -0.2581
  395TMC3    C3 5900   3.000   1.213  14.366  0.2551  1.0770  0.3778
  395TMC3    C4 5901   3.228   1.301  14.234 -0.5524  0.4530 -0.0400
  395TMC3    C5 5902   3.199   1.336  14.363  0.8200 -0.2665 -0.5250
  395TMC3    C6 5903   3.086   1.297  14.428 -0.2386 -0.0742  0.1674
  395TMC3     C 5904   3.218   1.088  14.149  1.1257 -0.8753  0.9176
  395TMC3     O 5905   3.191   0.993  14.226  0.5401 -0.2837 -0.2788
  395TMC3     H 5906   2.984   1.079  14.202  1.3645 -1.1283  0.3056
  395TMC3    H1 5907   3.310   1.350  14.183 -1.2675 -1.1873 -2.7589
  395TMC3    H2 5908   3.070   1.324  14.531  1.7003  0.2276  0.3838
  395TMC3    C7 5909   3.308   1.373  14.450 -0.6084  0.3367  0.0635
  395TMC3    C8 5910   2.954   1.124  14.463 -0.5321  0.2236  0.0931
  395TMC3    O1 5911   3.290   1.451  14.540  0.3605  0.2445  0.6024
  395TMC3    O2 5912   2.882   1.162  14.555  0.1020 -0.1623 -0.1545
  396MPD2     C 5913   4.002   2.426  17.592  0.5244  0.0886 -0.0717
  396MPD2    C1 5914   3.963   2.435  17.460  0.0876  0.7204  1.0710
  396MPD2    C2 5915   3.927   2.563  17.407 -0.3662  0.0871  0.7642
  396MPD2    C3 5916   3.940   2.674  17.487 -1.1747  0.3972  0.0043
  396MPD2    C4 5917   3.964   2.660  17.621  0.1264 -0.6782  0.1358
  396MPD2    C5 5918   4.003   2.541  17.673  0.5434  0.3448  0.0355
  396MPD2     H 5919   3.915   2.583  17.301 -0.0797 -0.9701  0.5298
  396MPD2    H1 5920   3.959   2.742  17.692 -0.4511 -3.2069  2.9825
  396MPD2    H2 5921   4.029   2.329  17.632 -0.0196  0.2103  0.5868
  396MPD2    H3 5922   4.020   2.538   0.088 -2.5621  0.3383  0.5445
  396MPD2     N 5923   3.901   2.797  17.436 -0.6119 -0.6218 -0.0166
  396MPD2    H5 5924   3.880   2.805  17.337 -0.3293 -3.9866 -0.3305
  396MPD2    N1 5925   3.943   2.309  17.393  0.4989 -0.8976  0.0758
  396MPD2    H7 5926   3.976   2.221  17.431  1.5478 -0.4232  0.2756
  397TMC3    C1 5927   3.904   2.158  17.216  0.2235 -0.1742  0.5402
  397TMC3    C2 5928   3.882   2.144  17.082 -0.2181  0.0723 -0.0219
  397TMC3    C3 5929   3.828   2.030  17.026  0.3518  0.2030  0.1690
  397TMC3    C4 5930   3.839   2.070  17.299  0.3646 -0.0886 -0.6775
  397TMC3    C5 5931   3.784   1.958  17.246 -0.8787  0.4415  0.2752
  397TMC3    C6 5932   3.773   1.934  17.112  0.0143  0.5878  0.3359
  397TMC3     C 5933   3.902   2.296  17.265 -0.5983 -0.3932 -0.1104
  397TMC3     O 5934   3.854   2.375  17.185  0.5127 -0.3863 -0.1026
  397TMC3     H 5935   3.932   2.213  17.014 -1.5954  0.1789 -0.9297
  397TMC3    H1 5936   3.833   2.088  17.405 -1.1066 -0.5819 -0.6820
  397TMC3    H2 5937   3.743   1.839  17.070  3.4253 -1.9001  3.4905
  397TMC3    C7 5938   3.728   1.853  17.333  0.3206  0.2882 -0.2995
  397TMC3    C8 5939   3.769   2.029  16.897  0.1820  0.8287  0.3662
  397TMC3    O1 5940   3.653   1.778  17.272  0.1406  0.0083  0.6201
  397TMC3    O2 5941   3.749   1.921  16.840  0.5345 -0.1429 -0.0707
  398MPD2     C 5942   1.669   2.774  17.571  0.3245  0.2584 -0.4261
  398MPD2    C1 5943   1.718   2.707  17.686 -0.1302  0.3805  0.6336
  398MPD2    C2 5944   1.834   2.757   0.047  0.6887 -0.2683 -0.5333
  398MPD2    C3 5945   1.898   2.871  17.686 -0.7649  0.5836 -0.3293
  398MPD2    C4 5946   1.842   2.933  17.580 -0.1668  0.0949  0.4660
  398MPD2    C5 5947   1.734   2.885  17.521 -0.2151  0.2596 -0.0151
  398MPD2     H 5948   1.872   2.706   0.135 -0.7593 -0.1028  0.1900
  398MPD2    H1 5949   1.889   3.018  17.532  1.5200 -1.6175 -0.8772
  398MPD2    H2 5950   1.585   2.737  17.513  0.3656  2.2384 -1.7552
  398MPD2    H3 5951   1.695   2.933  17.432 -1.8098 -1.9690 -0.5363
  398MPD2     N 5952   2.022   2.895   0.048  0.1008  0.2078  0.1553
  398MPD2    H5 5953   2.045   2.847   0.134 -0.4810  1.3427  0.9411
  398MPD2    N1 5954   1.651   2.597   0.061  0.2863  0.0992  0.0990
  398MPD2    H7 5955   1.679   2.565   0.153 -0.1343 -0.1209  0.1528
  399TMC3    C1 5956   1.503   2.409   0.077 -0.2946  0.2850  0.4632
  399TMC3    C2 5957   1.506   2.401   0.216  0.1725  0.0546  0.3025
  399TMC3    C3 5958   1.432   2.300   0.268  0.6837 -0.0698 -0.1677
  399TMC3    C4 5959   1.436   2.315   0.002  0.5548 -0.1994  0.5071
  399TMC3    C5 5960   1.382   2.201   0.061 -0.4084  0.0365 -0.4433
  399TMC3    C6 5961   1.378   2.195   0.200 -0.0062 -0.5326  1.0388
  399TMC3     C 5962   1.555   2.521  17.689 -0.0444  0.6515  0.2574
  399TMC3     O 5963   1.514   2.527  17.571  0.4126  0.1411  0.0717
  399TMC3     H 5964   1.556   2.482   0.267  1.8449  1.2249 -3.1895
  399TMC3    H1 5965   1.453   2.312  17.587 -2.5400  0.8989 -0.0132
  399TMC3    H2 5966   1.330   2.106   0.240 -1.0090 -0.0666  0.8612
  399TMC3    C7 5967   1.276   2.119  17.684  0.2278  0.7164 -0.6007
  399TMC3    C8 5968   1.415   2.298   0.409  0.2228 -0.0072 -0.3348
  399TMC3    O1 5969   1.199   2.046   0.062 -0.0231 -0.0809  0.1921
  399TMC3    O2 5970   1.397   2.187   0.459 -1.1319  0.0478 -0.5098
  400TMC3    C1 5971   0.215   1.459  16.524  0.5335 -0.1297  0.8080
  400TMC3    C2 5972   0.089   1.413  16.548  0.5488 -0.4965 -0.2013
  400TMC3    C3 5973   4.709   1.499  16.581 -0.2350 -0.5231  0.8323
  400TMC3    C4 5974   0.243   1.592  16.535  0.2895 -0.1196  0.0448
  400TMC3    C5 5975   0.141   1.677  16.572 -0.1600  0.2174  0.2025
  400TMC3    C6 5976   0.014   1.635  16.598 -0.4646 -0.3545 -0.1668
  400TMC3     C 5977   0.323   1.361  16.525  0.2651 -0.0356 -0.1350
  400TMC3     O 5978   0.300   1.244  16.508  0.5325  0.3745 -0.3240
  400TMC3     H 5979   0.071   1.309  16.524 -0.1566 -0.4304  0.0550
  400TMC3    H1 5980   0.339   1.637  16.513  0.5907 -2.3422 -3.1010
  400TMC3    H2 5981   4.655   1.697  16.632 -0.2956 -0.9947  1.4288
  400TMC3    C7 5982   0.187   1.809  16.616 -0.0260 -0.1590 -0.1866
  400TMC3    C8 5983   4.568   1.467  16.569  0.1640  0.0343  0.0051
  400TMC3    O1 5984   0.306   1.821  16.648 -0.5022 -0.0573 -0.1027
  400TMC3    O2 5985   4.499   1.519  16.653 -0.4840 -0.0971 -1.4455
  401MPD2     C 5986   3.206   0.418   0.584  0.0563 -0.1405 -0.9206
  401MPD2    C1 5987   3.322   0.433   0.661 -0.6101 -0.0177 -0.5995
  401MPD2    C2 5988   3.409   0.328   0.672 -0.3563 -0.4637  0.5012
  401MPD2    C3 5989   3.390   0.217   0.589  0.0187  0.8513  0.1574
  401MPD2    C4 5990   3.269   0.203   0.513  1.2719 -0.7615 -0.3672
  401MPD2    C5 5991   3.186   0.312   0.509  0.4944 -0.0162 -0.0445
  401MPD2     H 5992   3.503   0.342   0.724  0.0673  1.6580 -0.8360
  401MPD2    H1 5993   3.243   0.119   0.450  0.4243  0.7971 -2.1122
  401MPD2    H2 5994   3.125   0.489   0.579  0.5571  0.4197 -1.0972
  401MPD2    H3 5995   3.090   0.313   0.460  0.5456 -0.5569 -0.1563
  401MPD2     N 5996   3.488   0.118   0.600  0.3825  0.0938  0.1756
  401MPD2    H5 5997   3.571   0.134   0.657 -0.4370  0.1100  1.3713
  401MPD2    N1 5998   3.356   0.557   0.723 -0.2176  0.1334  0.5210
  401MPD2    H7 5999   3.442   0.550   0.776  0.3684  0.1840 -0.4417
  402TMC3    C1 6000   3.596   4.648   0.562  0.0764 -0.5171 -0.8275
  402TMC3    C2 6001   3.618   4.639   0.696  0.2484  0.2335  0.3151
  402TMC3    C3 6002   3.710   4.549   0.749  0.0725  0.0928 -0.1305
  402TMC3    C4 6003   3.685   4.590   0.468 -1.0320 -0.1173  0.4120
  402TMC3    C5 6004   3.770   4.494   0.520  0.6491 -0.0974 -0.2338
  402TMC3    C6 6005   3.785   4.477   0.657 -0.6457  0.0509  0.6127
  402TMC3     C 6006   3.498   0.016   0.510  0.0966 -0.0831 -0.0354
  402TMC3     O 6007   3.444   4.716   0.403  0.0210  0.2414  0.3768
  402TMC3     H 6008   3.558   4.699   0.765  2.2982 -0.2536  2.5349
  402TMC3    H1 6009   3.653   4.599   0.365  1.3855  0.7995 -0.2540
  402TMC3    H2 6010   3.860   4.411   0.700  0.1446 -0.8806 -2.1613
  402TMC3    C7 6011   3.848   4.410   0.430  0.6737 -0.3868  1.0999
  402TMC3    C8 6012   3.736   4.534   0.896  0.8840 -0.5598  0.3388
  402TMC3    O1 6013   3.918   4.325   0.484 -0.0180  0.1093 -0.1125
  402TMC3    O2 6014   3.786   4.430   0.928 -0.5782 -0.6948 -0.1126
  403MPD2     C 6015   2.085   3.446  13.127  0.7402 -0.1170 -0.0730
  403MPD2    C1 6016   2.032   3.336  13.189  0.3713 -0.0125 -0.6220
  403MPD2    C2 6017   2.087   3.299  13.315  0.1072 -0.4492 -0.0595
  403MPD2    C3 6018   2.178   3.384  13.380 -0.3945 -0.3514  0.1659
  403MPD2    C4 6019   2.228   3.491  13.312 -0.1718  0.7261 -0.1520
  403MPD2    C5 6020   2.182   3.515  13.189  0.5742  1.2741  0.3039
  403MPD2     H 6021   2.072   3.215  13.381 -1.5710 -1.5269 -1.8021
  403MPD2    H1 6022   2.299   3.560  13.356 -1.5454  1.3049  1.1701
  403MPD2    H2 6023   2.050   3.485  13.032  3.3188 -0.8529 -1.3074
  403MPD2    H3 6024   2.221   3.604  13.141  2.1444  0.8467  0.7902
  403MPD2     N 6025   2.216   3.348  13.505  0.4542 -0.8424 -0.2940
  403MPD2    H5 6026   2.190   3.253  13.528  0.6749 -0.4693  1.5185
  403MPD2    N1 6027   1.956   3.249  13.105  0.5181 -0.2304 -0.2188
  403MPD2    H7 6028   1.929   3.296  13.019 -0.1889 -0.7042 -0.2540
  404TMC3    C1 6029   1.830   3.079  13.017 -0.4283  0.2455  0.3606
  404TMC3    C2 6030   1.716   3.012  13.046  0.5657 -0.0768 -0.2221
  404TMC3    C3 6031   1.687   2.901  12.962 -0.2763 -0.5361  0.2406
  404TMC3    C4 6032   1.905   3.058  12.894  0.4422 -0.6653 -0.1632
  404TMC3    C5 6033   1.866   2.957  12.813 -0.0764  0.0412 -0.8200
  404TMC3    C6 6034   1.765   2.869  12.857 -0.0803 -0.3119 -0.0024
  404TMC3     C 6035   1.896   3.128  13.139  0.1216 -0.9181  0.4156
  404TMC3     O 6036   1.903   3.068  13.244  0.4875  0.1604 -0.6958
  404TMC3     H 6037   1.670   3.032  13.142 -0.8619 -0.6332 -0.7781
  404TMC3    H1 6038   1.978   3.128  12.856  1.2537 -0.0383  2.5143
  404TMC3    H2 6039   1.742   2.783  12.795 -0.2993  0.2791 -0.7406
  404TMC3    C7 6040   1.900   2.967  12.672  0.2492  0.8949  0.4133
  404TMC3    C8 6041   1.640   2.783  13.035  0.0955 -0.1573  0.0247
  404TMC3    O1 6042   1.997   3.036  12.636 -0.4488 -0.5594 -0.4866
  404TMC3    O2 6043   1.659   2.671  12.998 -0.0300  0.2784  0.1446
  405MPD2     C 6044   2.073   3.774  14.432  0.2490  0.4250  0.3331
  405MPD2    C1 6045   2.007   3.669  14.374  0.1401 -0.5928 -0.6692
  405MPD2    C2 6046   1.946   3.690  14.247  0.5292  0.1374  0.2455
  405MPD2    C3 6047   1.944   3.812  14.189 -0.1232  0.5115 -0.5512
  405MPD2    C4 6048   1.993   3.922  14.258  0.2074 -1.1470 -0.3218
  405MPD2    C5 6049   2.056   3.902  14.383 -0.3240 -0.3676  0.1904
  405MPD2     H 6050   1.903   3.603  14.199  1.9698 -0.8959  0.8096
  405MPD2    H1 6051   2.005   4.019  14.210 -2.2564 -1.1651 -0.9793
  405MPD2    H2 6052   2.108   3.760  14.533  1.5171 -2.4635 -0.5185
  405MPD2    H3 6053   2.099   3.980  14.444  0.6370  0.1782 -1.1821
  405MPD2     N 6054   1.879   3.816  14.067 -0.3501  0.5027  0.1088
  405MPD2    H5 6055   1.843   3.726  14.040 -0.6320  0.5890  0.2032
  405MPD2    N1 6056   2.006   3.548  14.456 -0.6207  0.5928  0.2578
  405MPD2    H7 6057   2.023   3.568  14.554 -2.9760 -1.3678  1.0851
  406TMC3    C1 6058   1.567   4.047  13.857 -0.4256  0.4182  0.9483
  406TMC3    C2 6059   1.502   3.924  13.844  0.0604 -0.3755  0.5918
  406TMC3    C3 6060   1.574   3.814  13.841 -0.4174  0.4010 -0.3732
  406TMC3    C4 6061   1.701   4.047  13.855  0.4075 -0.0128 -0.2417
  406TMC3    C5 6062   1.769   3.930  13.875  0.3812 -0.4448 -0.6701
  406TMC3    C6 6063   1.711   3.805  13.867 -0.5313 -0.1619 -0.4828
  406TMC3     C 6064   1.500   4.164  13.905 -0.1321 -0.3510  0.1497
  406TMC3     O 6065   1.557   4.272  13.890  0.1409 -0.1047  0.1459
  406TMC3     H 6066   1.393   3.924  13.840 -0.0363  0.9961  3.1511
  406TMC3    H1 6067   1.761   4.136  13.868 -2.1705  2.0722 -2.8738
  406TMC3    H2 6068   1.773   3.718  13.850 -0.5763 -0.6685  1.9751
  406TMC3    C7 6069   1.868   3.932  13.983  0.3032  0.3136 -0.7296
  406TMC3    C8 6070   1.491   3.691  13.855  0.3985  0.9418 -0.5249
  406TMC3    O1 6071   1.918   4.040  14.007  0.4871  0.4324 -0.3433
  406TMC3    O2 6072   1.373   3.706  13.828  0.2270  0.1988  0.1687
  407MPD2     C 6073   4.722   0.274   9.782 -0.6309 -0.7802  0.4976
  407MPD2    C1 6074   4.708   0.399   9.723 -0.0626 -0.0591 -0.8481
  407MPD2    C2 6075   0.037   0.512   9.788  0.5598  0.3380 -0.3400
  407MPD2    C3 6076   0.121   0.499   9.896  0.4817 -0.4918  0.9021
  407MPD2    C4 6077   0.127   0.377   9.961  0.1958  0.9257  0.0433
  407MPD2    C5 6078   0.061   0.274   9.906 -0.0813 -0.0722  0.4253
  407MPD2     H 6079   0.022   0.612   9.751  0.2681  0.4932  0.1989
  407MPD2    H1 6080   0.180   0.359  10.054  1.3985  0.4276 -0.7364
  407MPD2    H2 6081   4.690   0.185   9.728 -2.4483  1.9305 -2.8509
  407MPD2    H3 6082   0.069   0.178   9.955  0.9161 -0.8165 -1.1812
  407MPD2     N 6083   0.201   0.597   9.958  0.2952 -0.1888 -0.6296
  407MPD2    H5 6084   0.262   0.560  10.031  1.0472  2.1762 -0.0566
  407MPD2    N1 6085   4.642   0.419   9.596  0.0725  0.0050 -0.5773
  407MPD2    H7 6086   4.656   0.512   9.559  1.5032 -0.1012 -0.3173
  408TMC3    C1 6087   4.608   0.360   9.366  0.6811  0.2750  0.4320
  408TMC3    C2 6088   4.633   0.256   9.278  0.1656  0.5653 -0.8461
  408TMC3    C3 6089   4.716   0.271   9.176  0.1453  0.2585  0.3042
  408TMC3    C4 6090   4.654   0.491   9.333 -0.2938 -0.2725  0.7981
  408TMC3    C5 6091   0.018   0.503   9.229  0.0117  0.5277 -0.4286
  408TMC3    C6 6092   0.051   0.399   9.150 -0.1221  0.7698 -0.3382
  408TMC3     C 6093   4.607   0.319   9.506 -0.7189 -0.1749  0.0093
  408TMC3     O 6094   4.584   0.203   9.530 -0.2867  0.0182  0.3949
  408TMC3     H 6095   4.585   0.161   9.296  0.0129  1.1195  1.7281
  408TMC3    H1 6096   4.623   0.573   9.396  0.9011  0.3357  0.6032
  408TMC3    H2 6097   0.123   0.414   9.070  1.1959 -0.3125  0.6354
  408TMC3    C7 6098   0.054   0.637   9.193 -0.0040  0.5877  0.2773
  408TMC3    C8 6099   0.075   0.151   9.161  0.3293 -0.8002 -0.2209
  408TMC3    O1 6100   4.698   0.725   9.229  0.2134 -0.1537 -0.4206
  408TMC3    O2 6101   0.027   0.040   9.138 -0.1090  0.0706  0.0956
  409MPD2     C 6102   3.753   1.269  16.594  0.3924  0.0483  1.2223
  409MPD2    C1 6103   3.852   1.280  16.680 -0.5827 -0.2067  0.3039
  409MPD2    C2 6104   3.918   1.403  16.689 -0.3946 -0.9496  0.4375
  409MPD2    C3 6105   3.858   1.510  16.622 -0.6845  0.0711  0.1800
  409MPD2    C4 6106   3.743   1.494  16.554  0.5060  0.0441 -0.4728
  409MPD2    C5 6107   3.688   1.375  16.540 -0.1080 -0.7506  0.1762
  409MPD2     H 6108   3.992   1.425  16.765 -1.3728  3.5363  0.1286
  409MPD2    H1 6109   3.706   1.571  16.486 -0.8977 -0.7463 -0.6028
  409MPD2    H2 6110   3.718   1.171  16.561 -2.3950  1.2669  0.5956
  409MPD2    H3 6111   3.605   1.360  16.473 -0.3449  0.4075  0.2170
  409MPD2     N 6112   3.909   1.645  16.634  0.0048 -0.0776 -0.1351
  409MPD2    H5 6113   3.879   1.718  16.571  0.8845  0.7925  0.4519
  409MPD2    N1 6114   3.910   1.168  16.743  0.1643  0.6335  0.2328
  409MPD2    H7 6115   3.995   1.184  16.796 -0.3867 -1.9867  1.8747
  410TMC3    C1 6116   4.030   1.825  16.704 -0.4575 -0.1666 -0.2783
  410TMC3    C2 6117   4.094   1.897  16.805 -0.0926 -0.1961 -0.1104
  410TMC3    C3 6118   4.149   2.022  16.782 -0.1326  0.5666 -0.5650
  410TMC3    C4 6119   4.027   1.877  16.577 -0.3610  0.3811  0.0518
  410TMC3    C5 6120   4.094   1.989  16.554 -0.2178 -0.7456  0.5180
  410TMC3    C6 6121   4.148   2.072  16.651 -0.2000 -0.6513  0.1064
  410TMC3     C 6122   3.996   1.688  16.727 -0.0257 -0.6577  0.3022
  410TMC3     O 6123   4.060   1.629  16.812  0.4622  0.3216 -0.0625
  410TMC3     H 6124   4.095   1.858  16.906 -0.5940  2.0972  0.7802
  410TMC3    H1 6125   3.994   1.814  16.495  0.4999  2.2980 -1.7621
  410TMC3    H2 6126   4.199   2.163  16.623 -0.0836 -0.8471 -0.3083
  410TMC3    C7 6127   4.120   2.025  16.414  0.4135  0.3383 -0.3669
  410TMC3    C8 6128   4.273   2.047  16.858  0.0606  0.8350  0.3926
  410TMC3    O1 6129   4.143   1.927  16.340 -0.7302  0.3812 -0.1168
  410TMC3    O2 6130   4.263   2.142  16.935  0.2071 -0.3345 -0.0646
  411MPD2     C 6131   4.241   1.969  14.576 -0.2275  0.5028 -0.8178
  411MPD2    C1 6132   4.134   2.016  14.506  0.3902 -0.0334 -0.1361
  411MPD2    C2 6133   4.033   1.924  14.483  0.8695 -0.3958  0.0763
  411MPD2    C3 6134   4.050   1.783  14.497 -0.2916  0.6015  0.9175
  411MPD2    C4 6135   4.177   1.741  14.539  0.3338 -0.0484 -0.0343
  411MPD2    C5 6136   4.266   1.832  14.588 -0.0166  0.0182  0.1629
  411MPD2     H 6137   3.943   1.951  14.430  1.0642  2.2016  1.1099
  411MPD2    H1 6138   4.194   1.635  14.558 -0.1465 -0.2592 -0.8183
  411MPD2    H2 6139   4.325   2.033  14.600  1.4855 -2.6015  1.4626
  411MPD2    H3 6140   4.363   1.796  14.621 -0.3829 -1.9744 -0.9613
  411MPD2     N 6141   3.961   1.681  14.442  0.1040 -0.5314  0.3566
  411MPD2    H5 6142   3.999   1.587  14.437 -2.9389 -1.7833  0.7507
  411MPD2    N1 6143   4.121   2.156  14.474 -0.2466  0.0345  0.4634
  411MPD2    H7 6144   4.183   2.217  14.526 -2.5058  1.2343  1.7579
  412TMC3    C1 6145   3.763   1.603  14.339  0.1198 -0.3724  0.1111
  412TMC3    C2 6146   3.631   1.623  14.307  0.9245  0.0951 -0.4021
  412TMC3    C3 6147   3.569   1.534  14.223 -0.1621 -0.0749  1.1625
  412TMC3    C4 6148   3.838   1.508  14.276 -0.2984 -0.2297  0.1358
  412TMC3    C5 6149   3.776   1.427  14.184  0.0149 -0.5391  0.2960
  412TMC3    C6 6150   3.636   1.436  14.160 -0.3524 -0.3514  0.8062
  412TMC3     C 6151   3.828   1.703  14.424 -0.3165 -0.3267 -0.5787
  412TMC3     O 6152   3.759   1.796  14.460  0.1230 -0.1020  0.2121
  412TMC3     H 6153   3.575   1.700  14.358 -0.2496 -1.6483  0.9720
  412TMC3    H1 6154   3.946   1.508  14.286 -0.5467  2.0593  2.9248
  412TMC3    H2 6155   3.594   1.357  14.099  1.3883 -0.4466 -0.2617
  412TMC3    C7 6156   3.860   1.408  14.062 -0.3375 -0.0305 -0.0409
  412TMC3    C8 6157   3.507   1.607  14.115 -0.2671 -0.1552  0.2877
  412TMC3    O1 6158   3.973   1.366  14.070 -0.2542 -0.4219 -0.3419
  412TMC3    O2 6159   3.570   1.585  14.012 -0.4909  0.0912 -0.0099
  413MPD2     C 6160   1.237   0.562  14.965  0.4654  0.0520 -0.1149
  413MPD2    C1 6161   1.134   0.482  15.014 -0.3977  0.3206  0.9488
  413MPD2    C2 6162   1.166   0.356  15.059 -0.3047  0.0241 -0.3389
  413MPD2    C3 6163   1.293   0.307  15.051  0.5906 -0.2009 -0.0747
  413MPD2    C4 6164   1.389   0.381  14.986 -0.6019 -0.1702  0.3321
  413MPD2    C5 6165   1.360   0.514  14.946  0.7988  0.2301  0.0184
  413MPD2     H 6166   1.091   0.288  15.097  0.3087  0.4579  1.6337
  413MPD2    H1 6167   1.490   0.348  14.965 -0.5205  0.1895  0.1441
  413MPD2    H2 6168   1.214   0.662  14.928 -0.0650 -1.1426 -3.0058
  413MPD2    H3 6169   1.438   0.556  14.884  0.1157  1.6255  0.0945
  413MPD2     N 6170   1.315   0.180  15.105 -0.0301  0.5901  0.1114
  413MPD2    H5 6171   1.240   0.120  15.136 -0.2098  0.9926  0.4555
  413MPD2    N1 6172   1.004   0.536  15.038 -0.4771  0.5082  0.2587
  413MPD2    H7 6173   0.982   0.623  14.992 -0.6078  1.1644  1.5646
  414TMC3    C1 6174   1.441   4.701  15.158 -0.4196  0.1735  0.4225
  414TMC3    C2 6175   1.528   4.638  15.248 -0.0006 -0.6885  0.1035
  414TMC3    C3 6176   1.510   4.510  15.286 -0.6099 -0.1358  0.0188
  414TMC3    C4 6177   1.337   4.635  15.097  0.1671  0.6957  0.2050
  414TMC3    C5 6178   1.338   4.501  15.127 -0.1506  0.0529 -0.3202
  414TMC3    C6 6179   1.415   4.442  15.221 -0.6132  0.3923  0.3365
  414TMC3     C 6180   1.440   0.126  15.145 -0.0346 -0.2755  0.2858
  414TMC3     O 6181   1.542   0.190  15.153 -0.5036  0.6287 -0.1004
  414TMC3     H 6182   1.589   4.705  15.307  1.3266 -1.1509 -0.7266
  414TMC3    H1 6183   1.271   4.682  15.025 -2.1594 -2.1882  0.4480
  414TMC3    H2 6184   1.408   4.335  15.240  0.3630  0.3103  0.2103
  414TMC3    C7 6185   1.246   4.414  15.061  0.1425 -0.3156 -0.4294
  414TMC3    C8 6186   1.620   4.423  15.326  0.2402  0.2513 -0.2434
  414TMC3    O1 6187   1.133   4.456  15.073 -0.2128  0.2835 -0.2188
  414TMC3    O2 6188   1.607   4.302  15.316 -0.4264 -0.3969 -0.1994
  415TMC3    C1 6189   1.843   3.094   9.731 -0.4220 -0.2727  0.1667
  415TMC3    C2 6190   1.921   3.182   9.662 -0.5168 -1.0619  0.2083
  415TMC3    C3 6191   1.867   3.230   9.547  0.3206 -0.0933  0.2089
  415TMC3    C4 6192   1.726   3.049   9.682  0.6166  0.1164 -0.7948
  415TMC3    C5 6193   1.691   3.087   9.553 -0.2510  0.0915 -0.4495
  415TMC3    C6 6194   1.754   3.192   9.489 -0.1828 -0.3876  0.4329
  415TMC3     C 6195   1.881   3.055   9.870  0.0665  0.0584  0.0331
  415TMC3     O 6196   1.816   2.968   9.924  0.1909  0.0268 -0.6212
  415TMC3     H 6197   2.019   3.204   9.702 -0.9939  2.9922 -0.8422
  415TMC3    H1 6198   1.676   2.967   9.732 -0.6655 -0.1798 -2.5768
  415TMC3    H2 6199   1.715   3.237   9.398  1.4477  0.2454  0.0545
  415TMC3    C7 6200   1.554   3.063   9.504 -0.3291 -0.3749  0.3794
  415TMC3    C8 6201   1.959   3.300   9.464 -0.0348 -0.5924  0.3639
  415TMC3    O1 6202   1.532   3.092   9.386  0.9448  0.0245 -0.1533
  415TMC3    O2 6203   1.932   3.320   9.346 -0.2028 -0.2645  0.1281
  416MPD2     C 6204   3.803   1.849  11.603 -0.5536 -1.2076  0.1140
  416MPD2    C1 6205   3.711   1.827  11.501  0.0301 -0.0859  0.2900
  416MPD2    C2 6206   3.749   1.742  11.398  0.7055  0.2243 -0.4284
  416MPD2    C3 6207   3.879   1.684  11.381  0.4716  0.6954  0.0436
  416MPD2    C4 6208   3.962   1.712  11.485  0.1209  0.2036  0.2027
  416MPD2    C5 6209   3.925   1.794  11.588  0.5136 -0.6481  0.3341
  416MPD2     H 6210   3.668   1.722  11.328 -0.7175 -0.4328  1.3917
  416MPD2    H1 6211   4.061   1.669  11.480  0.6781  1.7808 -1.9226
  416MPD2    H2 6212   3.790   1.909  11.692 -0.7059 -2.9104  1.2590
  416MPD2    H3 6213   4.002   1.813  11.662  0.2416  1.1291  0.1657
  416MPD2     N 6214   3.913   1.602  11.269 -0.0780  0.2542  0.0244
  416MPD2    H5 6215   3.991   1.539  11.287 -0.5201  0.4589  2.6939
  416MPD2    N1 6216   3.579   1.870  11.509 -0.5179 -0.1518 -0.0010
  416MPD2    H7 6217   3.513   1.844  11.437 -0.4045 -1.2750  0.2956
  417TMC3    C1 6218   3.387   1.977  11.602 -0.7175  0.0787 -0.3389
  417TMC3    C2 6219   3.309   2.009  11.710 -0.0436  0.5353 -1.3369
  417TMC3    C3 6220   3.190   2.077  11.687 -0.4669 -0.5497 -0.3326
  417TMC3    C4 6221   3.343   2.005  11.474 -0.3136  0.6348  0.1312
  417TMC3    C5 6222   3.220   2.062  11.454  0.4386  0.4254  0.9419
  417TMC3    C6 6223   3.147   2.111  11.559 -0.4395 -0.1912  0.5860
  417TMC3     C 6224   3.521   1.930  11.623  0.0015  0.1550  0.2148
  417TMC3     O 6225   3.573   1.957  11.728  0.1440 -0.2751  0.4016
  417TMC3     H 6226   3.360   2.001  11.805  0.9487  1.9177 -1.7503
  417TMC3    H1 6227   3.408   1.987  11.388  0.6977  0.5855  0.9094
  417TMC3    H2 6228   3.058   2.171  11.543  0.8425  0.6571 -3.3727
  417TMC3    C7 6229   3.185   2.090  11.314  0.0652 -0.1456  0.2470
  417TMC3    C8 6230   3.147   2.146  11.808  0.1165  0.5664 -0.2375
  417TMC3    O1 6231   3.142   2.199  11.285  0.2307 -0.4951 -0.0626
  417TMC3    O2 6232   3.192   2.102  11.915 -0.4843  0.2538 -0.3166
  418TMC3    C1 6233   2.468   3.033   0.081  0.7019  1.0440  0.5806
  418TMC3    C2 6234   2.354   3.013   0.002 -0.4566  0.0007  0.4667
  418TMC3    C3 6235   2.240   2.993   0.071 -0.3240  0.1805  0.3228
  418TMC3    C4 6236   2.463   3.046   0.216  0.2869 -0.0869 -0.4209
  418TMC3    C5 6237   2.347   3.031   0.278  0.1788  0.3167  0.3498
  418TMC3    C6 6238   2.228   3.002   0.209 -0.2183 -0.2372  0.1891
  418TMC3     C 6239   2.597   3.008   0.018  0.3776  0.0117 -0.1066
  418TMC3     O 6240   2.598   3.016  17.585 -0.1082  0.0259 -0.2003
  418TMC3     H 6241   2.362   2.995  17.587 -1.1178 -0.9640  0.5852
  418TMC3    H1 6242   2.547   3.069   0.281  1.2613 -2.2030 -0.9626
  418TMC3    H2 6243   2.129   3.002   0.253  0.3037 -2.0695  1.4003
  418TMC3    C7 6244   2.343   3.032   0.425  0.8897 -0.9280 -0.4218
  418TMC3    C8 6245   2.124   2.971  17.678  0.4412 -0.1788  0.2825
  418TMC3    O1 6246   2.255   2.965   0.480 -0.3045  0.3880  0.1882
  418TMC3    O2 6247   2.131   2.999  17.559  1.0020 -0.0046  0.5302
  419MPD2     C 6248   1.396   1.623  12.380  0.1990  0.5924 -0.3878
  419MPD2    C1 6249   1.267   1.656  12.331  0.1408  0.3879 -0.2835
  419MPD2    C2 6250   1.167   1.685  12.418  0.2150 -0.2967 -0.4547
  419MPD2    C3 6251   1.188   1.652  12.555  0.3801 -0.7435  0.4770
  419MPD2    C4 6252   1.318   1.616  12.594  0.0056  0.1044 -0.8594
  419MPD2    C5 6253   1.421   1.612  12.511  0.2421  0.5020 -0.5123
  419MPD2     H 6254   1.068   1.693  12.377 -0.0424 -0.3059  0.1582
  419MPD2    H1 6255   1.344   1.611  12.700  2.4948 -0.1892 -1.4872
  419MPD2    H2 6256   1.486   1.600  12.324  0.7505  0.7264  0.4563
  419MPD2    H3 6257   1.522   1.594  12.548 -1.3384  0.3194  3.7399
  419MPD2     N 6258   1.083   1.671  12.649 -0.7584  0.1203  0.0263
  419MPD2    H5 6259   0.994   1.697  12.607  0.9663  1.9786 -2.5614
  419MPD2    N1 6260   1.240   1.684  12.199  0.0192  0.0537  0.5672
  419MPD2    H7 6261   1.149   1.728  12.193 -1.0472 -2.2611 -0.4894
  420TMC3    C1 6262   0.965   1.669  12.859  0.1341 -0.1362  0.4028
  420TMC3    C2 6263   0.873   1.765  12.809 -0.3121  0.3999 -1.1900
  420TMC3    C3 6264   0.795   1.826  12.895 -0.4584  0.2031  0.3389
  420TMC3    C4 6265   0.961   1.628  12.991  0.2034  0.4545  0.3301
  420TMC3    C5 6266   0.869   1.690  13.068  0.2267 -0.1037  0.3059
  420TMC3    C6 6267   0.777   1.780  13.021  0.0221 -0.0093  0.3363
  420TMC3     C 6268   1.087   1.637  12.786  0.0664  0.5837  0.8046
  420TMC3     O 6269   1.172   1.574  12.847 -0.5173 -0.1632  0.1812
  420TMC3     H 6270   0.888   1.793  12.705 -0.3436 -1.2457 -1.6437
  420TMC3    H1 6271   1.020   1.543  13.022 -2.2419 -1.8805 -1.4462
  420TMC3    H2 6272   0.713   1.834  13.092 -0.5634 -0.4610  0.1513
  420TMC3    C7 6273   0.879   1.669  13.211  0.2750  0.3994 -0.7302
  420TMC3    C8 6274   0.711   1.932  12.842 -0.3978  0.3567 -0.3185
  420TMC3    O1 6275   0.818   1.752  13.275 -0.6755  0.0752 -0.0457
  420TMC3    O2 6276   0.709   1.942  12.722  0.0010  0.6197  0.0463
  421TMC3    C1 6277   2.333   3.352  13.704 -0.2692  0.0468  0.1042
  421TMC3    C2 6278   2.356   3.428  13.816 -0.1066 -0.6574 -0.3108
  421TMC3    C3 6279   2.447   3.378  13.900  0.5538  0.7646  0.4630
  421TMC3    C4 6280   2.404   3.231  13.671  0.1092  0.3129 -0.2384
  421TMC3    C5 6281   2.493   3.185  13.763 -0.3095  0.2121 -0.0869
  421TMC3    C6 6282   2.517   3.263  13.877 -0.0079 -0.5860  0.5458
  421TMC3     C 6283   2.286   3.427  13.592 -0.0369  0.0361  0.5804
  421TMC3     O 6284   2.322   3.547  13.587 -0.1014 -0.2225 -0.1177
  421TMC3     H 6285   2.302   3.520  13.837  1.0934 -0.3783  1.6085
  421TMC3    H1 6286   2.388   3.174  13.580  0.5465 -0.8563  0.4173
  421TMC3    H2 6287   2.587   3.224  13.950  1.1443  0.8785  0.2244
  421TMC3    C7 6288   2.598   3.088  13.719 -0.3001  0.1667 -0.0721
  421TMC3    C8 6289   2.488   3.461  14.010 -0.4975 -0.0394 -0.0010
  421TMC3    O1 6290   2.695   3.094  13.791 -0.0625 -0.0390  0.0802
  421TMC3    O2 6291   2.603   3.434  14.051  0.1162  0.3426  0.8908
  422TMC3    C1 6292   0.037   4.606  12.404 -0.4065  0.2932  0.7579
  422TMC3    C2 6293   4.713   0.009  12.389 -0.1293  0.6852 -0.5298
  422TMC3    C3 6294   4.583   0.035  12.425  0.0853 -0.4367 -0.2649
  422TMC3    C4 6295   4.674   4.497  12.430  0.1399  0.3767  0.1015
  422TMC3    C5 6296   4.543   4.527  12.445  0.1376  0.0854  0.1053
  422TMC3    C6 6297   4.497   4.657  12.444 -0.5795 -0.2387  0.5898
  422TMC3     C 6298   0.177   4.579  12.371 -0.3939  0.4650  0.2678
  422TMC3     O 6299   0.221   4.664  12.299  0.1823  0.2005 -0.7425
  422TMC3     H 6300   0.054   0.093  12.363  0.3526  1.1062  2.0680
  422TMC3    H1 6301   4.708   4.395  12.420 -0.7449 -0.2038  3.0406
  422TMC3    H2 6302   4.390   4.673  12.441 -0.5691 -0.5307 -1.2586
  422TMC3    C7 6303   4.453   4.419  12.399 -0.1040  0.2286 -0.0893
  422TMC3    C8 6304   4.537   0.173  12.410 -0.6103  0.1242 -0.0634
  422TMC3    O1 6305   4.506   4.328  12.337  0.6076 -0.2685  0.6959
  422TMC3    O2 6306   4.612   0.256  12.447  0.0507 -0.2132  0.4856
  423MPD2     C 6307   1.157   0.758   0.499  0.6429  0.5787 -0.3169
  423MPD2    C1 6308   1.037   0.786   0.432 -0.2367 -0.4837 -0.1082
  423MPD2    C2 6309   1.033   0.771   0.298 -0.5037  0.6526 -0.1735
  423MPD2    C3 6310   1.144   0.736   0.219 -0.6998 -0.1914 -0.4727
  423MPD2    C4 6311   1.261   0.715   0.289  0.1029 -0.2401  0.4203
  423MPD2    C5 6312   1.266   0.713   0.424 -0.1293 -0.2871  0.2899
  423MPD2     H 6313   0.937   0.782   0.249 -0.6424  2.5459  0.5451
  423MPD2    H1 6314   1.340   0.667   0.233 -0.9041  0.1581 -1.3515
  423MPD2    H2 6315   1.158   0.731   0.604 -2.1063  0.8551 -0.2207
  423MPD2    H3 6316   1.349   0.664   0.472  0.6807  2.0887  1.2788
  423MPD2     N 6317   1.133   0.700   0.083 -0.3296 -0.2601  0.3026
  423MPD2    H5 6318   1.215   0.692   0.024  0.5490 -0.9401  1.6205
  423MPD2    N1 6319   0.927   0.827   0.508  0.6353  0.0893  0.2627
  423MPD2    H7 6320   0.941   0.826   0.609  1.4528  2.3960  0.1603
  424TMC3    C1 6321   0.709   0.891   0.559 -0.3661 -1.2242 -0.8710
  424TMC3    C2 6322   0.725   0.810   0.666 -0.8011 -0.7575  0.1123
  424TMC3    C3 6323   0.616   0.790   0.744 -0.2014  0.1083  0.2555
  424TMC3    C4 6324   0.584   0.942   0.525  0.1967 -0.0919 -0.3131
  424TMC3    C5 6325   0.474   0.912   0.603 -0.1515 -0.2980  0.2613
  424TMC3    C6 6326   0.486   0.836   0.717 -0.5197 -0.3467  1.0248
  424TMC3     C 6327   0.816   0.890   0.457 -0.1133 -0.7295 -0.8858
  424TMC3     O 6328   0.778   0.921   0.346  0.6683 -0.2439  0.0501
  424TMC3     H 6329   0.818   0.767   0.701 -2.3205 -1.6741  2.9941
  424TMC3    H1 6330   0.576   1.012   0.443  4.3610  0.2275 -0.4260
  424TMC3    H2 6331   0.408   0.820   0.792 -0.6215  0.5133  1.1017
  424TMC3    C7 6332   0.347   0.983   0.578  0.0191 -0.5075  0.3361
  424TMC3    C8 6333   0.636   0.695   0.851 -0.5225  0.0839 -0.1121
  424TMC3    O1 6334   0.341   1.054   0.484 -0.3472 -0.4539  0.1858
  424TMC3    O2 6335   0.742   0.689   0.910 -0.1754 -0.2038  0.0256
  425MPD2     C 6336   0.282   0.240  17.489  0.3313 -0.7881  0.4744
  425MPD2    C1 6337   0.286   0.178  17.368 -0.3617  0.4758  0.0211
  425MPD2    C2 6338   0.173   0.182  17.286  0.8621 -0.0778  0.2400
  425MPD2    C3 6339   0.053   0.230  17.335  0.0456 -0.0817  0.5339
  425MPD2    C4 6340   0.046   0.286  17.461 -0.0553 -0.1622 -0.2823
  425MPD2    C5 6341   0.159   0.290  17.537  0.1477 -0.6627 -0.4665
  425MPD2     H 6342   0.174   0.117  17.200 -0.5633  1.3018 -0.8211
  425MPD2    H1 6343   4.685   0.343  17.499  1.6192  0.3632  2.6161
  425MPD2    H2 6344   0.376   0.242  17.544  0.9725  1.3287 -0.6859
  425MPD2    H3 6345   0.162   0.353  17.624  1.7203 -0.9540 -0.3125
  425MPD2     N 6346   4.667   0.234  17.248 -0.3261 -0.0845 -0.2983
  425MPD2    H5 6347   4.682   0.197  17.155 -0.4527  0.1348 -0.4043
  425MPD2    N1 6348   0.408   0.115  17.324  0.1266  0.4752 -0.3123
  425MPD2    H7 6349   0.481   0.092  17.391 -0.2004  3.3049  1.0293
  426TMC3    C1 6350   0.502   4.663  17.199  0.5443 -0.0999  0.1126
  426TMC3    C2 6351   0.454   4.580  17.096  0.6310 -0.2926 -0.0100
  426TMC3    C3 6352   0.462   4.442  17.115  0.2560 -0.2116  0.5114
  426TMC3    C4 6353   0.545   4.608  17.318 -0.4249 -0.4571  0.3826
  426TMC3    C5 6354   0.558   4.471  17.328 -0.1810  0.4286 -0.0083
  426TMC3    C6 6355   0.510   4.385  17.229 -0.2902  0.1876 -0.0724
  426TMC3     C 6356   0.429   0.066  17.196  0.3825 -0.3408  0.0736
  426TMC3     O 6357   0.380   0.103  17.090 -0.2790  0.0358  0.0321
  426TMC3     H 6358   0.421   4.622  17.002 -1.7721 -1.7027  0.1817
  426TMC3    H1 6359   0.578   4.668  17.402  0.1424 -0.5448  0.2205
  426TMC3    H2 6360   0.491   4.281  17.249 -0.8864  0.7463  2.2100
  426TMC3    C7 6361   0.585   4.404  17.459 -1.0375  0.9852  0.2752
  426TMC3    C8 6362   0.415   4.357  17.009  0.0347  0.0400 -0.4704
  426TMC3    O1 6363   0.667   4.315  17.445  0.0547  0.9940 -0.1578
  426TMC3    O2 6364   0.457   4.243  17.003 -0.4906  0.1036  0.5147
  427MPD2     C 6365   3.142   2.042  14.495  0.4688 -0.1210 -0.1466
  427MPD2    C1 6366   3.113   2.021  14.632 -0.5478  0.1209  0.3242
  427MPD2    C2 6367   2.987   2.031  14.671  0.5014 -0.1154  0.5298
  427MPD2    C3 6368   2.889   2.067  14.583 -0.1254  0.3312 -0.0300
  427MPD2    C4 6369   2.913   2.085  14.451 -0.1174  0.4006 -0.3619
  427MPD2    C5 6370   3.039   2.074  14.404 -0.2019 -0.1002 -0.6507
  427MPD2     H 6371   2.956   2.018  14.774  0.8680 -1.4870  0.4704
  427MPD2    H1 6372   2.844   2.132  14.382 -2.1078  0.8252  1.9106
  427MPD2    H2 6373   3.243   2.044  14.455  0.3767  1.1405 -0.3246
  427MPD2    H3 6374   3.049   2.099  14.299 -0.4461  1.5156 -0.2821
  427MPD2     N 6375   2.759   2.096  14.626 -0.4666 -0.0381  0.4200
  427MPD2    H5 6376   2.695   2.132  14.556  1.9503  1.6043 -0.9580
  427MPD2    N1 6377   3.216   1.999  14.730 -0.3393 -0.1332 -0.0384
  427MPD2    H7 6378   3.192   1.984  14.827  0.4859 -1.1702  0.0083
  428TMC3    C1 6379   3.419   1.929  14.811  0.1787  0.4082  0.4578
  428TMC3    C2 6380   3.363   1.818  14.863 -0.6458 -0.0512  0.3226
  428TMC3    C3 6381   3.443   1.746  14.952  0.1455 -0.7183 -0.0849
  428TMC3    C4 6382   3.550   1.961  14.830 -0.0097 -0.4835 -0.2956
  428TMC3    C5 6383   3.625   1.888  14.925  0.3398  0.7129  0.0755
  428TMC3    C6 6384   3.566   1.785  14.993  0.5459 -0.4681  0.6139
  428TMC3     C 6385   3.344   1.983  14.697  0.7318  0.1957  1.1675
  428TMC3     O 6386   3.409   2.019  14.597 -0.3361 -0.0643  0.1354
  428TMC3     H 6387   3.272   1.774  14.824  0.5202 -1.1601 -1.1677
  428TMC3    H1 6388   3.591   2.053  14.788 -0.6413 -0.0290  0.0959
  428TMC3    H2 6389   3.622   1.725  15.063 -0.5072 -2.2808 -0.0809
  428TMC3    C7 6390   3.746   1.936  14.980 -0.1863 -0.0223  0.2543
  428TMC3    C8 6391   3.442   1.602  14.920 -0.5064  0.0950 -0.2659
  428TMC3    O1 6392   3.771   1.916  15.099  0.1493  0.4933 -0.4635
  428TMC3    O2 6393   3.557   1.561  14.903  0.5638  0.1512  0.0562
  429MPD2     C 6394   4.341   2.179  17.527 -0.4416 -0.0003 -0.3086
  429MPD2    C1 6395   4.376   2.099  17.414 -0.1744 -0.1871  0.8575
  429MPD2    C2 6396   4.347   2.150  17.293 -0.0642 -0.0792 -0.3865
  429MPD2    C3 6397   4.320   2.283  17.271 -0.7474 -0.6126 -0.4266
  429MPD2    C4 6398   4.307   2.369  17.389 -0.1855 -0.0583 -0.0437
  429MPD2    C5 6399   4.307   2.311  17.515 -0.2409 -0.0549 -0.4538
  429MPD2     H 6400   4.370   2.088  17.207 -0.7918 -1.1382  0.1881
  429MPD2    H1 6401   4.285   2.475  17.383  2.1579  0.2631 -2.5767
  429MPD2    H2 6402   4.356   2.145  17.628 -0.1464  0.9753 -0.0259
  429MPD2    H3 6403   4.275   2.370  17.600  0.5465 -0.3167  0.0207
  429MPD2     N 6404   4.307   2.325  17.137  0.2784  0.0052  0.2507
  429MPD2    H5 6405   4.328   2.254  17.067 -0.0853  0.5909 -0.4627
  429MPD2    N1 6406   4.418   1.968  17.422  0.1983  0.0812  0.5782
  429MPD2    H7 6407   4.386   1.907  17.347  1.2193 -0.1352  0.3240
  430TMC3    C1 6408   4.272   2.456  16.944  0.0317 -0.0454  0.0778
  430TMC3    C2 6409   4.161   2.498  16.880 -0.3068  0.0470  0.2230
  430TMC3    C3 6410   4.161   2.474  16.741 -0.4293 -0.9954  0.0616
  430TMC3    C4 6411   4.383   2.406  16.885 -0.6269 -0.0379  0.0309
  430TMC3    C5 6412   4.385   2.397  16.754 -0.2497 -0.4003 -0.9691
  430TMC3    C6 6413   4.275   2.426  16.674 -0.1403  0.6826  0.3507
  430TMC3     C 6414   4.255   2.448  17.090 -0.6089 -0.0442  0.5179
  430TMC3     O 6415   4.197   2.533  17.157 -0.0920 -0.1758 -0.0273
  430TMC3     H 6416   4.084   2.542  16.942 -0.2179 -1.5473  1.4750
  430TMC3    H1 6417   4.469   2.369  16.941 -0.1442  0.9842 -0.0376
  430TMC3    H2 6418   4.275   2.394  16.571 -0.7139 -2.4696  1.3234
  430TMC3    C7 6419   4.491   2.307  16.703  0.0064  0.2440 -0.1300
  430TMC3    C8 6420   4.052   2.510  16.657  0.5917  0.4465  0.2385
  430TMC3    O1 6421   4.460   2.238  16.606  0.4009  0.1980  0.0205
  430TMC3    O2 6422   4.060   2.477  16.541  0.6685  0.0145  0.7467
  431MPD2     C 6423   0.906   2.391  12.071  0.1826  0.1857  0.0077
  431MPD2    C1 6424   0.999   2.395  11.970  0.3069 -0.5795  0.4195
  431MPD2    C2 6425   1.048   2.279  11.916 -0.1465 -0.3153  0.1454
  431MPD2    C3 6426   0.990   2.160  11.955  0.0576 -0.8011 -0.4271
  431MPD2    C4 6427   0.880   2.161  12.038 -0.4087 -0.9085 -0.7613
  431MPD2    C5 6428   0.837   2.278  12.098  0.4153 -0.2519 -0.2939
  431MPD2     H 6429   1.133   2.287  11.850 -0.2510  1.5611  0.2236
  431MPD2    H1 6430   0.829   2.066  12.048 -0.5945 -0.8845 -1.4583
  431MPD2    H2 6431   0.871   2.480  12.122 -0.7534  0.6092 -1.3878
  431MPD2    H3 6432   0.760   2.286  12.174  1.2610  0.2552  0.5034
  431MPD2     N 6433   1.035   2.030  11.913  0.0780  0.1109 -0.0567
  431MPD2    H5 6434   0.980   1.962  11.963  2.2617 -1.7043 -0.0984
  431MPD2    N1 6435   1.081   2.515  11.948 -0.4452  0.4872 -0.3000
  431MPD2    H7 6436   1.169   2.504  11.899  1.2412 -0.2919  2.8901
  432TMC3    C1 6437   1.186   1.873  11.834 -0.9077 -0.0192 -0.8292
  432TMC3    C2 6438   1.244   1.826  11.720  0.8986  0.7553  0.6255
  432TMC3    C3 6439   1.307   1.707  11.726 -0.4936 -0.0653 -0.3673
  432TMC3    C4 6440   1.190   1.808  11.954  0.2979 -0.7010 -0.1141
  432TMC3    C5 6441   1.263   1.694  11.959 -0.7904  0.1084  0.0678
  432TMC3    C6 6442   1.318   1.643  11.847  0.5489  0.1607 -0.3599
  432TMC3     C 6443   1.145   2.006  11.834 -0.5050 -0.3389 -0.9973
  432TMC3     O 6444   1.194   2.085  11.754  0.0172  0.6678  0.8120
  432TMC3     H 6445   1.242   1.894  11.635 -0.2247 -0.4740 -0.3219
  432TMC3    H1 6446   1.164   1.865  12.042 -1.0719 -0.3542 -0.7369
  432TMC3    H2 6447   1.367   1.547  11.848  0.1942 -0.0272 -1.0734
  432TMC3    C7 6448   1.320   1.651  12.088 -0.5153  0.4303  0.4706
  432TMC3    C8 6449   1.366   1.636  11.612  0.1613 -0.1101  0.0213
  432TMC3    O1 6450   1.414   1.577  12.092 -0.1587 -0.7712  0.2614
  432TMC3    O2 6451   1.395   1.518  11.623  0.6173  0.6084 -0.3041
  433MPD2     C 6452   4.556   0.545  10.612 -0.8425  0.0256  0.2761
  433MPD2    C1 6453   4.658   0.633  10.653  0.0506 -0.6864  0.1726
  433MPD2    C2 6454   4.634   0.703  10.774  0.1120 -0.0689  0.2767
  433MPD2    C3 6455   4.524   0.677  10.853  0.1023  0.3957 -0.5647
  433MPD2    C4 6456   4.427   0.589  10.813 -0.0798 -1.1334  0.6671
  433MPD2    C5 6457   4.446   0.521  10.693  0.5615 -0.6131 -0.3291
  433MPD2     H 6458   4.706   0.775  10.810  1.7294 -0.4316 -2.2231
  433MPD2    H1 6459   4.342   0.560  10.873  1.8906 -1.3408  3.3982
  433MPD2    H2 6460   4.551   0.491  10.518  3.0811 -0.0590  0.0931
  433MPD2    H3 6461   4.375   0.444  10.663 -1.7036  1.2255  0.2671
  433MPD2     N 6462   4.529   0.745  10.973  0.3088  0.5219  0.3294
  433MPD2    H5 6463   4.617   0.792  10.991 -0.1892  1.5222  0.1367
  433MPD2    N1 6464   0.055   0.645  10.583  0.3936 -0.0219  0.4898
  433MPD2    H7 6465   0.071   0.580  10.506  2.2819 -0.0692  0.9239
  434TMC3    C1 6466   0.277   0.686  10.561 -0.2648 -0.3386  0.3544
  434TMC3    C2 6467   0.375   0.672  10.658 -0.3355 -0.1719 -0.2693
  434TMC3    C3 6468   0.484   0.594  10.632 -0.2303  0.1491  0.5837
  434TMC3    C4 6469   0.297   0.636  10.438  0.4960 -0.0054  0.1688
  434TMC3    C5 6470   0.406   0.561  10.405  0.3244  0.3455 -0.9820
  434TMC3    C6 6471   0.498   0.543  10.503 -0.6694  0.4185  0.0904
  434TMC3     C 6472   0.152   0.730  10.613  0.8983  0.1783 -0.2219
  434TMC3     O 6473   0.156   0.832  10.683 -0.0470  0.1861 -0.4624
  434TMC3     H 6474   0.339   0.692  10.758 -1.3482  0.9823 -0.8766
  434TMC3    H1 6475   0.217   0.662  10.370  1.8730  1.0284 -1.0592
  434TMC3    H2 6476   0.588   0.496  10.466 -1.4268 -0.0934 -1.0851
  434TMC3    C7 6477   0.366   0.433  10.344 -0.1275  0.3577  0.6491
  434TMC3    C8 6478   0.553   0.537  10.752 -0.1509  0.6879  1.1691
  434TMC3    O1 6479   0.281   0.432  10.257  0.3971  0.6928  0.1192
  434TMC3    O2 6480   0.506   0.546  10.865 -0.1933 -0.0497 -0.2686
  435MPD2     C 6481   1.400   0.822  15.087  0.6501 -0.8219 -0.0636
  435MPD2    C1 6482   1.373   0.810  15.222 -0.6153 -0.1931  0.7373
  435MPD2    C2 6483   1.477   0.798  15.311 -0.2745 -0.1893 -0.2183
  435MPD2    C3 6484   1.606   0.783  15.268  0.0863  0.4146  0.5449
  435MPD2    C4 6485   1.628   0.780  15.132 -0.5685  0.2420  0.8338
  435MPD2    C5 6486   1.526   0.808  15.043  0.5189 -0.4744  0.3105
  435MPD2     H 6487   1.461   0.796  15.419 -1.8675 -0.5894 -0.4568
  435MPD2    H1 6488   1.729   0.778  15.092 -1.4638  0.7030 -1.4240
  435MPD2    H2 6489   1.324   0.836  15.011 -0.2115 -1.9970  0.5921
  435MPD2    H3 6490   1.549   0.821  14.938 -0.0718 -0.8043  0.1399
  435MPD2     N 6491   1.704   0.749  15.356  0.2011 -0.4295  0.6590
  435MPD2    H5 6492   1.666   0.739  15.450 -1.6522  0.5245  0.0240
  435MPD2    N1 6493   1.244   0.817  15.276 -0.6600 -0.3943  0.2541
  435MPD2    H7 6494   1.242   0.825  15.378 -2.0332 -0.7277  0.2537
  436TMC3    C1 6495   0.901   0.834  15.503  0.1509  0.1939 -0.1304
  436TMC3    C2 6496   1.005   0.791  15.419  0.4904  0.0797 -0.3851
  436TMC3    C3 6497   1.005   0.833  15.292  0.6577  0.0228  0.1996
  436TMC3    C4 6498   0.796   0.905  15.462  0.2713 -0.2091  0.0062
  436TMC3    C5 6499   0.793   0.923  15.324 -0.2629  0.5784  0.1986
  436TMC3    C6 6500   0.895   0.896  15.244  0.5445 -0.2344  0.6435
  436TMC3     C 6501   0.922   0.806  15.645  0.9081 -0.1506  0.1351
  436TMC3     O 6502   0.974   0.696  15.668 -0.1817  0.4039  0.2878
  436TMC3     H 6503   1.081   0.725  15.458 -0.0267  0.1941  0.8233
  436TMC3    H1 6504   0.719   0.942  15.529 -0.1830 -2.5953  0.7994
  436TMC3    H2 6505   0.895   0.921  15.138  1.3760 -0.9349  0.4704
  436TMC3    C7 6506   0.708   1.037  15.280 -0.2116 -0.3196  0.3650
  436TMC3    C8 6507   1.123   0.822  15.209  0.5144  0.5238  0.5420
  436TMC3    O1 6508   0.587   1.016  15.265 -0.3955  0.2904 -0.1149
  436TMC3    O2 6509   1.089   0.821  15.094  0.3400  0.3742 -0.1617
  437TMC3    C1 6510   0.685   2.854  12.513 -0.2423 -0.2101  0.7877
  437TMC3    C2 6511   0.566   2.788  12.474  0.1457 -0.6165  0.3212
  437TMC3    C3 6512   0.547   2.781  12.338 -0.6389 -0.2271 -0.0441
  437TMC3    C4 6513   0.774   2.904  12.417  0.7355 -0.7684 -0.3018
  437TMC3    C5 6514   0.743   2.894  12.284  0.0863  0.8490  0.1018
  437TMC3    C6 6515   0.626   2.844  12.242 -0.2627 -0.9866  0.3331
  437TMC3     C 6516   0.732   2.858  12.647 -0.2578 -0.5050  0.6917
  437TMC3     O 6517   0.821   2.937  12.674  0.3135  0.1897 -0.0858
  437TMC3     H 6518   0.513   2.721  12.540 -3.6700  0.3032 -1.8216
  437TMC3    H1 6519   0.865   2.953  12.451  2.0011 -2.9160 -0.6099
  437TMC3    H2 6520   0.604   2.821  12.138  3.8636 -0.7219 -0.5961
  437TMC3    C7 6521   0.823   2.960  12.187  0.7271 -0.0760  0.3092
  437TMC3    C8 6522   0.426   2.716  12.285  0.4301 -0.2655 -0.0750
  437TMC3    O1 6523   0.773   2.997  12.081  0.0956  0.5295 -0.2714
  437TMC3    O2 6524   0.415   2.700  12.167  0.3022  0.3099 -0.2546
  438MPD2     C 6525   2.370   3.546  17.486  0.0195  0.3681  0.0543
  438MPD2    C1 6526   2.495   3.577  17.430  0.5773  0.0891 -0.5173
  438MPD2    C2 6527   2.600   3.507  17.476 -0.1914 -0.4668 -0.0992
  438MPD2    C3 6528   2.581   3.408  17.573  0.8163  0.4210 -0.3217
  438MPD2    C4 6529   2.458   3.379  17.629 -0.0337 -0.0197  0.1458
  438MPD2    C5 6530   2.355   3.452  17.582 -0.6375 -0.3634  0.3423
  438MPD2     H 6531   2.697   3.539  17.441 -0.2689 -0.5798 -0.4157
  438MPD2    H1 6532   2.434   3.303   0.011  0.7108  0.6658  1.0886
  438MPD2    H2 6533   2.282   3.596  17.447 -0.7134 -1.0813 -0.1595
  438MPD2    H3 6534   2.264   3.433  17.638 -2.3414  1.4440 -1.7996
  438MPD2     N 6535   2.694   3.350  17.642 -0.1534 -0.1719  0.2616
  438MPD2    H5 6536   2.675   3.291   0.029 -1.0321  0.2769  0.3849
  438MPD2    N1 6537   2.518   3.677  17.328  0.6054 -0.6008  0.5086
  438MPD2    H7 6538   2.608   3.672  17.282 -0.0347 -1.7692 -0.6016
  439TMC3    C1 6539   2.482   3.869  17.196 -0.1261  0.6081  0.2047
  439TMC3    C2 6540   2.401   3.884  17.082 -0.6544  0.5582 -0.7242
  439TMC3    C3 6541   2.465   3.924  16.972  0.2196  0.0722  0.0422
  439TMC3    C4 6542   2.615   3.894  17.199 -0.1437 -0.5989  0.2262
  439TMC3    C5 6543   2.671   3.948  17.083  0.2445  0.3847 -0.2525
  439TMC3    C6 6544   2.594   3.969  16.971  0.0997 -0.7114 -0.1984
  439TMC3     C 6545   2.431   3.776  17.291  0.1385 -0.4700 -0.6199
  439TMC3     O 6546   2.315   3.793  17.328 -0.7917 -0.0199  0.0701
  439TMC3     H 6547   2.299   3.847  17.075 -1.0412  1.9518 -2.2112
  439TMC3    H1 6548   2.676   3.888  17.288 -0.8486 -0.8836  0.6896
  439TMC3    H2 6549   2.631   4.020  16.883  1.2849  0.0478  0.7335
  439TMC3    C7 6550   2.810   3.952  17.088  0.3159  0.0017 -0.1937
  439TMC3    C8 6551   2.434   3.866  16.848  0.2196 -0.1120  0.4436
  439TMC3    O1 6552   2.866   3.892  17.181  0.2358  0.2744  0.1191
  439TMC3    O2 6553   2.349   3.918  16.773  0.3255  0.5135  0.0864
  440MPD2     C 6554   1.699   3.867  14.452  0.1541  0.2281 -0.5146
  440MPD2    C1 6555   1.753   3.983  14.503 -0.0555 -0.4970  0.0306
  440MPD2    C2 6556   1.828   3.981  14.628  0.5263 -0.2850 -0.7738
  440MPD2    C3 6557   1.848   3.866  14.689  0.5969  0.1357 -0.0866
  440MPD2    C4 6558   1.800   3.753  14.631 -0.3036 -0.0320 -0.7432
  440MPD2    C5 6559   1.717   3.751  14.521 -0.2200  0.0154 -0.3357
  440MPD2     H 6560   1.858   4.074  14.675  1.6241 -0.2834 -1.4832
  440MPD2    H1 6561   1.817   3.655  14.673 -0.9868  0.6007  1.0177
  440MPD2    H2 6562   1.631   3.873  14.367  0.7577 -0.8806 -1.0637
  440MPD2    H3 6563   1.666   3.658  14.498 -0.9779 -0.0668  1.6135
  440MPD2     N 6564   1.917   3.833  14.808  0.4480 -0.1861  0.4430
  440MPD2    H5 6565   1.913   3.737  14.838 -0.0126 -0.0845  0.7061
  440MPD2    N1 6566   1.729   4.109  14.445 -0.2321  0.2281 -0.0401
  440MPD2    H7 6567   1.742   4.192  14.503  0.5035  0.4561 -0.5361
  441TMC3    C1 6568   2.056   3.871  15.000 -0.3402  0.3205  0.1334
  441TMC3    C2 6569   2.091   3.962  15.097 -0.5145 -0.5516 -0.1152
  441TMC3    C3 6570   2.115   3.918  15.225 -0.3133  0.8858 -0.2188
  441TMC3    C4 6571   2.056   3.740  15.034 -0.3088 -0.4147 -0.2202
  441TMC3    C5 6572   2.087   3.699  15.165 -0.5366 -0.6187  0.3133
  441TMC3    C6 6573   2.113   3.790  15.267  0.1469 -0.1601 -0.1533
  441TMC3     C 6574   1.992   3.930  14.882 -0.0252 -0.8951  0.8070
  441TMC3     O 6575   1.992   4.053  14.869 -0.5996 -0.6897  0.5566
  441TMC3     H 6576   2.096   4.067  15.070  0.3737 -0.6543 -0.3507
  441TMC3    H1 6577   2.023   3.668  14.960 -0.5899 -1.2346  0.7069
  441TMC3    H2 6578   2.121   3.756  15.369  0.1632  0.0620 -0.0809
  441TMC3    C7 6579   2.038   3.568  15.201  0.1436  0.3419 -0.5006
  441TMC3    C8 6580   2.122   4.024  15.324  0.1986  1.1741 -0.0023
  441TMC3    O1 6581   2.067   3.475  15.125  0.9911  0.1614  0.3119
  441TMC3    O2 6582   2.211   4.018  15.406 -0.2380  0.0349  0.3861
  442MPD2     C 6583   4.219   4.699  16.061  0.1693  0.5655 -0.2992
  442MPD2    C1 6584   4.125   4.635  16.136 -0.1836 -0.7342  0.7098
  442MPD2    C2 6585   4.157   4.506  16.185 -0.2640 -0.2924  0.3181
  442MPD2    C3 6586   4.270   4.437  16.142 -0.9619  0.4240  0.9386
  442MPD2    C4 6587   4.357   4.501  16.061 -0.4530 -0.5059 -0.1983
  442MPD2    C5 6588   4.331   4.630  16.028 -0.1920 -0.2622  0.5800
  442MPD2     H 6589   4.093   4.455  16.256 -0.4794 -0.2927  0.1225
  442MPD2    H1 6590   4.443   4.449  16.023 -0.4739 -0.7467  0.0812
  442MPD2    H2 6591   4.216   0.076  16.020  0.4731  0.2173 -1.1665
  442MPD2    H3 6592   4.407   4.669  15.962 -0.6779 -0.0159  0.1708
  442MPD2     N 6593   4.298   4.296  16.161 -0.8383  0.0611 -0.1459
  442MPD2    H5 6594   4.393   4.272  16.133 -0.7523  0.8929 -0.5599
  442MPD2    N1 6595   3.997   4.690  16.167  0.3584 -0.0326  0.0818
  442MPD2    H7 6596   3.936   4.642  16.232 -1.5014  0.1928 -1.4930
  443TMC3    C1 6597   3.816   0.119  16.159  0.2584  0.2742 -0.5025
  443TMC3    C2 6598   3.735   0.186  16.079 -0.1416 -0.3137  0.3907
  443TMC3    C3 6599   3.600   0.204  16.115 -0.0122 -0.7843 -0.2278
  443TMC3    C4 6600   3.776   0.083  16.286  0.0069 -0.0751  0.3443
  443TMC3    C5 6601   3.649   0.116  16.323  0.1029 -0.5583  1.0056
  443TMC3    C6 6602   3.552   0.169  16.234  0.2663  0.1688 -0.5638
  443TMC3     C 6603   3.948   0.087  16.116 -0.7386 -0.4775 -0.3373
  443TMC3     O 6604   3.992   0.169  16.034 -0.1829 -0.1572  0.2516
  443TMC3     H 6605   3.766   0.192  15.976  0.9345 -3.4222  0.5342
  443TMC3    H1 6606   3.839   0.036  16.361  0.3365  2.9005  1.9469
  443TMC3    H2 6607   3.451   0.195  16.264  1.3178  2.0634  1.3042
  443TMC3    C7 6608   3.604   0.076  16.453 -0.5088 -0.3416  0.3132
  443TMC3    C8 6609   3.485   0.254  16.026  0.2272  0.1078  0.4274
  443TMC3    O1 6610   3.679   0.082  16.549 -0.2378  0.2501  0.2558
  443TMC3    O2 6611   3.395   0.321  16.074  0.2813  0.1115 -1.0207
  444MPD2     C 6612   0.129   3.593  16.720  0.7215 -0.6776  0.1074
  444MPD2    C1 6613   0.056   3.577  16.601  0.2741 -0.0070 -0.0774
  444MPD2    C2 6614   0.083   3.464  16.526  0.2844  0.2284  0.1246
  444MPD2    C3 6615   0.182   3.375  16.565  0.1897 -0.8484  0.4848
  444MPD2    C4 6616   0.248   3.391  16.686 -0.4585  0.0310  0.1679
  444MPD2    C5 6617   0.215   3.499  16.763  0.3816 -0.5986  0.0213
  444MPD2     H 6618   0.028   3.454  16.433  1.9167 -1.7560 -0.6176
  444MPD2    H1 6619   0.323   3.322  16.721 -0.2488  1.2752  2.1607
  444MPD2    H2 6620   0.109   3.683  16.777 -1.4924 -0.1459 -1.5062
  444MPD2    H3 6621   0.259   3.516  16.861 -1.1290 -0.5771  0.6931
  444MPD2     N 6622   0.213   3.271  16.476  0.2374  0.3524 -0.2338
  444MPD2    H5 6623   0.158   3.261  16.391  2.3518  0.5566 -1.6413
  444MPD2    N1 6624   4.685   3.663  16.548  0.1757  0.9408 -0.2005
  444MPD2    H7 6625   4.612   3.619  16.492 -1.4554  0.3155  2.4043
  445TMC3    C1 6626   0.325   3.073  16.381  0.0625  0.0098 -0.6295
  445TMC3    C2 6627   0.216   3.052  16.303 -0.2749  0.0919 -0.1517
  445TMC3    C3 6628   0.241   2.978  16.190  0.1682 -0.1064 -0.6007
  445TMC3    C4 6629   0.443   3.012  16.364 -0.5092 -0.5753  0.3069
  445TMC3    C5 6630   0.461   2.927  16.258  0.4094 -0.5981  0.4833
  445TMC3    C6 6631   0.360   2.914  16.163  0.3709  0.2807  0.0306
  445TMC3     C 6632   0.317   3.175  16.486 -0.1232  0.4296  0.8481
  445TMC3     O 6633   0.402   3.173  16.568 -0.0911  0.1981  1.1536
  445TMC3     H 6634   0.119   3.100  16.311 -0.6470 -0.7733  0.5045
  445TMC3    H1 6635   0.519   3.024  16.441  0.4327  2.1169 -1.0437
  445TMC3    H2 6636   0.375   2.842  16.084  0.8927  0.5508 -0.1118
  445TMC3    C7 6637   0.601   2.894  16.218 -0.2807  0.0387  0.2984
  445TMC3    C8 6638   0.140   2.980  16.084  0.0419 -0.4758 -0.1404
  445TMC3    O1 6639   0.623   2.919  16.099 -0.1124  1.1917 -0.6186
  445TMC3    O2 6640   0.046   3.062  16.096 -0.3574 -0.5790 -0.5566
  446MPD2     C 6641   0.236   0.249  11.298  0.1386 -0.1512  0.3940
  446MPD2    C1 6642   0.157   0.316  11.208 -1.1913  0.5162  0.0245
  446MPD2    C2 6643   0.207   0.438  11.159 -0.5142 -0.1562 -0.0232
  446MPD2    C3 6644   0.322   0.497  11.205  1.0010 -0.1563 -0.2326
  446MPD2    C4 6645   0.402   0.426  11.295 -0.0745  0.2885 -0.3223
  446MPD2    C5 6646   0.364   0.296  11.328 -0.1455 -0.0084 -0.1636
  446MPD2     H 6647   0.152   0.495  11.085  1.8201  1.9065 -0.1977
  446MPD2    H1 6648   0.497   0.452  11.339  0.2206  0.6772 -1.1839
  446MPD2    H2 6649   0.207   0.153  11.340  2.4868 -0.4851  1.2505
  446MPD2    H3 6650   0.428   0.247  11.400  0.1341 -2.1468 -1.8719
  446MPD2     N 6651   0.367   0.623  11.154  0.1252 -0.6191 -1.0783
  446MPD2    H5 6652   0.304   0.670  11.090 -2.3754  0.4189  2.1020
  446MPD2    N1 6653   0.030   0.272  11.159  0.1391 -0.3408 -0.7163
  446MPD2    H7 6654   4.717   0.316  11.075  0.5193 -0.8331 -1.1408
  447TMC3    C1 6655   0.488   0.824  11.137  0.8550  0.2587  0.2862
  447TMC3    C2 6656   0.460   0.846  11.007  0.3583 -0.3341 -0.2052
  447TMC3    C3 6657   0.528   0.943  10.929 -0.2067  0.2413 -0.6404
  447TMC3    C4 6658   0.586   0.907  11.192  0.3928 -0.5780  0.1264
  447TMC3    C5 6659   0.656   0.996  11.115 -0.1092 -0.2059  0.0358
  447TMC3    C6 6660   0.628   1.022  10.983  0.1493  0.0178  0.0184
  447TMC3     C 6661   0.482   0.684  11.185 -0.1740 -0.1526 -0.0685
  447TMC3     O 6662   0.573   0.660  11.266  0.2657 -0.2199  0.4677
  447TMC3     H 6663   0.384   0.782  10.963 -0.7475  0.2893  0.7709
  447TMC3    H1 6664   0.622   0.876  11.290 -0.5042  1.9577  1.2650
  447TMC3    H2 6665   0.691   1.085  10.921 -2.3211  2.1298 -0.3087
  447TMC3    C7 6666   0.801   0.971  11.120 -0.5783 -0.0705  0.3080
  447TMC3    C8 6667   0.525   0.929  10.791 -0.5303  0.8018  0.0540
  447TMC3    O1 6668   0.871   0.927  11.032 -0.4832  0.6774  0.1428
  447TMC3    O2 6669   0.437   0.980  10.722  0.1322  0.4503  0.0580
  448TMC3    C1 6670   2.720   0.646  16.781  0.7843 -0.3459 -0.5132
  448TMC3    C2 6671   2.629   0.547  16.758  0.5904 -0.4023  0.1291
  448TMC3    C3 6672   2.676   0.421  16.768  0.1007  0.4871 -0.3101
  448TMC3    C4 6673   2.853   0.619  16.812  0.5545  0.0412  0.3936
  448TMC3    C5 6674   2.888   0.493  16.835  0.1688  0.2656 -0.7868
  448TMC3    C6 6675   2.803   0.390  16.820  0.2764  0.1144  0.0506
  448TMC3     C 6676   2.690   0.787  16.766 -0.1170 -0.0422  0.6639
  448TMC3     O 6677   2.751   0.864  16.841  0.0953  0.1917  0.2792
  448TMC3     H 6678   2.524   0.570  16.747  0.3949 -0.9974  0.7365
  448TMC3    H1 6679   2.915   0.707  16.828  0.1987  0.7928 -2.5101
  448TMC3    H2 6680   2.832   0.286  16.807 -2.1314 -0.4351 -1.1165
  448TMC3    C7 6681   3.029   0.470  16.866 -0.0926 -0.1284 -0.2997
  448TMC3    C8 6682   2.595   0.315  16.712  0.0507 -0.5126  0.1242
  448TMC3    O1 6683   3.117   0.543  16.827 -0.5900  0.0918  0.2288
  448TMC3    O2 6684   2.624   0.200  16.752 -0.2398 -0.0344 -0.0633
  449MPD2     C 6685   4.483   3.471  13.769  0.0639  0.3212  0.4600
  449MPD2    C1 6686   4.373   3.485  13.690  0.5631  0.1516 -0.4955
  449MPD2    C2 6687   4.242   3.433  13.726 -0.1149 -0.0029  1.2743
  449MPD2    C3 6688   4.232   3.352  13.840  0.0131  0.5317  0.2153
  449MPD2    C4 6689   4.337   3.357  13.933 -0.6583 -0.1867  0.7866
  449MPD2    C5 6690   4.463   3.411  13.896 -0.3980  0.6067 -0.2331
  449MPD2     H 6691   4.164   3.430  13.651 -0.8458 -0.0938  2.0357
  449MPD2    H1 6692   4.326   3.316  14.033  1.1406 -1.6327  0.3937
  449MPD2    H2 6693   4.568   3.532  13.743 -0.7188  0.8359 -0.9072
  449MPD2    H3 6694   4.532   3.428  13.977  1.3663  1.3539 -1.8818
  449MPD2     N 6695   4.102   3.303  13.872  0.5677  0.5828 -0.0122
  449MPD2    H5 6696   4.030   3.318  13.802  0.0343 -0.0864  0.4041
  449MPD2    N1 6697   4.371   3.550  13.563 -0.1414 -0.0394  0.4704
  449MPD2    H7 6698   4.278   3.556  13.523 -0.6142 -0.8878  1.4225
  450TMC3    C1 6699   4.427   3.652  13.368 -0.1831  1.4063  0.0936
  450TMC3    C2 6700   4.458   3.584  13.252 -0.2322  0.0472 -0.1524
  450TMC3    C3 6701   4.358   3.582  13.155  0.0597 -0.2477 -0.0921
  450TMC3    C4 6702   4.298   3.706  13.382 -0.0811 -0.5642 -0.0843
  450TMC3    C5 6703   4.202   3.694  13.285 -0.8299  0.4517  0.2455
  450TMC3    C6 6704   4.235   3.641  13.160  0.0822 -0.1629  0.6250
  450TMC3     C 6705   4.479   3.595  13.491  0.1879  0.3873  0.2297
  450TMC3     O 6706   4.598   3.570  13.504  0.2641 -0.4660  0.1914
  450TMC3     H 6707   4.542   3.516  13.255  0.4082  0.8428 -0.1544
  450TMC3    H1 6708   4.264   3.743  13.478  1.9070  1.3109 -0.1135
  450TMC3    H2 6709   4.166   3.613  13.081 -0.1440  2.1764 -0.0024
  450TMC3    C7 6710   4.076   3.656  13.345 -0.9603 -0.4657 -0.4806
  450TMC3    C8 6711   4.402   3.566  13.016 -0.0176  0.2993 -0.0059
  450TMC3    O1 6712   4.095   3.609  13.455 -0.0607  0.3360  0.2993
  450TMC3    O2 6713   4.349   3.619  12.920  0.2229 -0.0537 -0.2297
  451MPD2     C 6714   0.024   2.577   1.011 -0.6322 -0.2631  0.3230
  451MPD2    C1 6715   0.152   2.563   1.071  0.2378 -0.4388  1.0656
  451MPD2    C2 6716   0.224   2.448   1.049 -0.0405 -0.6017  0.6475
  451MPD2    C3 6717   0.156   2.343   0.983 -0.1729  0.2169  0.6372
  451MPD2    C4 6718   0.029   2.360   0.924  0.6851  0.8294 -0.4000
  451MPD2    C5 6719   4.686   2.475   0.942 -0.7665 -0.1067 -0.3165
  451MPD2     H 6720   0.325   2.445   1.088 -0.2727  0.2886  1.3134
  451MPD2    H1 6721   4.693   2.286   0.870  0.2967 -0.2506  1.5049
  451MPD2    H2 6722   4.698   2.674   1.021 -0.2125 -0.0799  0.5928
  451MPD2    H3 6723   4.590   2.500   0.899 -0.4136  0.1567 -0.9510
  451MPD2     N 6724   0.210   2.219   0.952  0.6591 -0.4562  0.2986
  451MPD2    H5 6725   0.145   2.158   0.905  0.1556  1.2240 -1.2021
  451MPD2    N1 6726   0.200   2.674   1.149 -0.6218  0.1831 -0.0967
  451MPD2    H7 6727   0.143   2.757   1.162 -0.7138  0.2478 -0.9418
  452TMC3    C1 6728   0.344   2.019   0.984 -0.4152 -0.2187 -0.4684
  452TMC3    C2 6729   0.391   1.940   1.085 -0.2497  0.0351 -1.2061
  452TMC3    C3 6730   0.398   1.802   1.057 -0.0514 -0.4643  0.3092
  452TMC3    C4 6731   0.323   1.976   0.855 -0.2586  0.6557 -0.2179
  452TMC3    C5 6732   0.338   1.841   0.832  0.0254 -0.3663  0.2940
  452TMC3    C6 6733   0.367   1.754   0.932 -0.0741 -0.3330 -0.0667
  452TMC3     C 6734   0.318   2.162   1.017  1.1302 -0.8550 -0.3865
  452TMC3     O 6735   0.398   2.216   1.096  0.4336 -0.1028 -0.0817
  452TMC3     H 6736   0.403   1.989   1.180 -1.5188 -2.6654  0.3519
  452TMC3    H1 6737   0.279   2.048   0.787 -1.6241  0.3802  0.3642
  452TMC3    H2 6738   0.377   1.647   0.919 -0.3748 -0.2983 -0.5769
  452TMC3    C7 6739   0.342   1.802   0.692 -0.2297  0.2546 -0.1233
  452TMC3    C8 6740   0.455   1.717   1.157  0.6456  0.2456  0.4098
  452TMC3    O1 6741   0.330   1.892   0.603  0.5440 -0.4158 -0.1821
  452TMC3    O2 6742   0.418   1.599   1.161 -0.5486  0.1713 -0.1166
  453TMC3    C1 6743   1.921   3.952  11.734 -0.9422  0.3308  0.0166
  453TMC3    C2 6744   1.841   3.852  11.697  0.1596 -0.3075 -0.5012
  453TMC3    C3 6745   1.789   3.857  11.568  0.1384 -0.9785 -0.0397
  453TMC3    C4 6746   1.967   4.047  11.648 -0.1239  0.7902 -0.0953
  453TMC3    C5 6747   1.916   4.051  11.520 -0.5323 -0.4803  0.0814
  453TMC3    C6 6748   1.818   3.961  11.477  0.4196 -0.1429  0.0796
  453TMC3     C 6749   1.994   3.932  11.860 -0.3924 -0.3651  0.2024
  453TMC3     O 6750   2.108   3.973  11.853  0.7442 -0.3389 -0.0764
  453TMC3     H 6751   1.811   3.775  11.768 -2.1928  1.5017  0.4897
  453TMC3    H1 6752   2.032   4.129  11.677  0.2559  0.9343 -1.3381
  453TMC3    H2 6753   1.771   3.975  11.381 -1.7992  0.0287  1.1854
  453TMC3    C7 6754   1.995   4.113  11.406  0.0367 -0.7379 -0.2708
  453TMC3    C8 6755   1.710   3.743  11.516  0.1378  0.3286 -0.3490
  453TMC3    O1 6756   1.940   4.110  11.296 -0.4319 -0.6672 -0.3910
  453TMC3    O2 6757   1.633   3.775  11.425 -0.3815  0.0290 -0.0051
  454MPD2     C 6758   0.804   3.430  16.317  0.5115  0.2169  0.5154
  454MPD2    C1 6759   0.743   3.554  16.300 -0.1216  0.1765  0.1802
  454MPD2    C2 6760   0.695   3.624  16.411  0.8094  0.4487 -0.1725
  454MPD2    C3 6761   0.680   3.559  16.530 -0.0579  0.3100  0.1356
  454MPD2    C4 6762   0.738   3.436  16.548 -0.4429  0.0889 -0.0017
  454MPD2    C5 6763   0.796   3.376  16.441  0.3460  0.2361  0.0674
  454MPD2     H 6764   0.644   3.719  16.398 -1.1046 -0.4827  0.5192
  454MPD2    H1 6765   0.737   3.387  16.644 -0.5206 -1.6400 -0.8862
  454MPD2    H2 6766   0.844   3.363  16.241 -0.8396 -0.7867  0.6907
  454MPD2    H3 6767   0.843   3.279  16.454 -1.2737 -0.5644 -0.1285
  454MPD2     N 6768   0.619   3.604  16.646 -0.1753 -0.3939 -0.4309
  454MPD2    H5 6769   0.646   3.554  16.730 -1.9686 -1.9101 -0.7690
  454MPD2    N1 6770   0.709   3.590  16.168  0.0080  0.3614 -0.0056
  454MPD2    H7 6771   0.651   3.673  16.160 -1.2977 -0.6807 -1.2180
  455TMC3    C1 6772   0.448   3.745  16.534  0.0190 -0.1377  0.0106
  455TMC3    C2 6773   0.391   3.868  16.540 -0.0026  0.1679  0.2498
  455TMC3    C3 6774   0.291   3.906  16.451 -0.1991 -0.0430  0.2452
  455TMC3    C4 6775   0.393   3.647  16.457  0.7367 -0.0806 -0.3143
  455TMC3    C5 6776   0.304   3.685  16.366 -0.0868 -0.3093  0.0306
  455TMC3    C6 6777   0.244   3.811  16.364 -0.6244  0.3107  0.4793
  455TMC3     C 6778   0.526   3.705  16.657 -0.2956  0.1947  0.2186
  455TMC3     O 6779   0.495   3.770  16.752 -0.4401 -0.2366  0.2358
  455TMC3     H 6780   0.448   3.945  16.591 -0.4017 -0.2157  1.2817
  455TMC3    H1 6781   0.405   3.541  16.476  2.0828 -0.2126 -1.9051
  455TMC3    H2 6782   0.171   3.839  16.290  0.4781  1.2163 -0.2642
  455TMC3    C7 6783   0.286   3.599  16.253 -0.2609 -0.0510 -0.6652
  455TMC3    C8 6784   0.220   4.033  16.471 -0.3933 -0.2002  0.3839
  455TMC3    O1 6785   0.193   3.624  16.173 -0.0198  0.0973  0.2458
  455TMC3    O2 6786   0.145   4.071  16.378  0.2934  0.1071  0.3679
  456MPD2     C 6787   2.681   3.775  16.072 -1.0966  0.1976  0.7165
  456MPD2    C1 6788   2.778   3.812  16.156  0.5124 -0.3059  0.1292
  456MPD2    C2 6789   2.744   3.918  16.247 -0.6654 -0.4458  0.2399
  456MPD2    C3 6790   2.627   3.984  16.244 -0.7947 -0.2513 -0.7880
  456MPD2    C4 6791   2.534   3.955  16.147  0.0539 -0.0930  0.2086
  456MPD2    C5 6792   2.566   3.843  16.069 -0.0622  0.4375  0.3280
  456MPD2     H 6793   2.816   3.934  16.326 -0.1820 -0.5189 -0.1893
  456MPD2    H1 6794   2.433   3.996  16.151  0.1086  0.1983 -1.3803
  456MPD2    H2 6795   2.687   3.690  16.005  3.5318  1.2168 -0.1595
  456MPD2    H3 6796   2.485   3.811  16.005 -2.2945  0.4202  3.1886
  456MPD2     N 6797   2.602   4.080  16.349  0.4814 -0.1608 -0.0849
  456MPD2    H5 6798   2.673   4.089  16.422 -0.0957 -1.1622  0.5987
  456MPD2    N1 6799   2.896   3.742  16.145  0.1591 -0.3014  0.3285
  456MPD2    H7 6800   2.890   3.670  16.074 -3.1482  0.5303 -0.2222
  457TMC3    C1 6801   2.488   4.244  16.481 -0.9130  0.2193 -0.1738
  457TMC3    C2 6802   2.397   4.351  16.473  0.4027  0.3973  0.1866
  457TMC3    C3 6803   2.377   4.409  16.596  0.4276  0.0793  0.1985
  457TMC3    C4 6804   2.548   4.189  16.595 -0.2149 -0.4040 -0.0317
  457TMC3    C5 6805   2.523   4.260  16.708 -0.0597  0.4311 -0.6701
  457TMC3    C6 6806   2.431   4.362  16.710 -0.7039  0.8117  0.1612
  457TMC3     C 6807   2.496   4.168  16.358 -0.3363 -0.1286 -0.1981
  457TMC3     O 6808   2.399   4.171  16.284 -0.0252  0.1023  0.7319
  457TMC3     H 6809   2.355   4.387  16.380 -0.4548  0.2093  0.5079
  457TMC3    H1 6810   2.579   4.086  16.606 -1.1834 -0.6650  0.3081
  457TMC3    H2 6811   2.410   4.419  16.800 -1.4639 -1.2329  1.2527
  457TMC3    C7 6812   2.644   4.289  16.789  0.4911  0.7396 -0.0880
  457TMC3    C8 6813   2.403   4.554  16.595  0.3935  0.1471 -0.1922
  457TMC3    O1 6814   2.722   4.194  16.781  0.5655  0.0793  0.1139
  457TMC3    O2 6815   2.504   4.578  16.663  0.8679 -0.2581  0.5850
  458MPD2     C 6816   1.282   3.164  12.045 -0.0462  0.6076 -0.3617
  458MPD2    C1 6817   1.286   3.126  12.179  0.1556  0.4194 -0.0217
  458MPD2    C2 6818   1.178   3.064  12.233  0.5440 -0.3725  0.1177
  458MPD2    C3 6819   1.070   3.027  12.161 -0.6506 -0.5673 -0.4375
  458MPD2    C4 6820   1.061   3.067  12.030  0.2994 -1.1323  0.4759
  458MPD2    C5 6821   1.171   3.127  11.973 -0.3944  0.4163 -0.8069
  458MPD2     H 6822   1.166   3.041  12.338 -1.3997  1.9719  0.4198
  458MPD2    H1 6823   0.973   3.048  11.970  0.3322 -0.7313  0.2955
  458MPD2    H2 6824   1.364   3.212  11.994  0.2153 -1.0960 -1.5415
  458MPD2    H3 6825   1.175   3.153  11.867 -1.9703  1.0751 -0.6980
  458MPD2     N 6826   0.959   2.970  12.228 -0.1066  0.0067 -0.0332
  458MPD2    H5 6827   0.982   2.934  12.320  1.8811  0.7192 -0.2383
  458MPD2    N1 6828   1.397   3.160  12.260  0.5525 -0.3184  0.0082
  458MPD2    H7 6829   1.390   3.129  12.357 -2.4913 -1.9353 -0.7132
  459TMC3    C1 6830   1.603   3.244  12.324 -0.2819  0.1788  0.3159
  459TMC3    C2 6831   1.725   3.288  12.287  0.0328  0.4309  0.3707
  459TMC3    C3 6832   1.816   3.296  12.391 -0.4015  0.6716  0.1301
  459TMC3    C4 6833   1.559   3.240  12.455 -0.6089 -0.3856  0.1608
  459TMC3    C5 6834   1.659   3.251  12.550  0.4045  0.1205  0.2190
  459TMC3    C6 6835   1.785   3.282  12.521 -0.0453 -0.2346  0.1136
  459TMC3     C 6836   1.513   3.225  12.216 -1.1065  0.7532 -0.1211
  459TMC3     O 6837   1.553   3.244  12.104  0.2477  0.2061  0.4223
  459TMC3     H 6838   1.756   3.280  12.184  2.2429 -2.4187  1.2562
  459TMC3    H1 6839   1.458   3.259  12.489 -0.9103 -0.3945 -0.7241
  459TMC3    H2 6840   1.856   3.297  12.601 -2.5442 -1.4363  2.5401
  459TMC3    C7 6841   1.630   3.248  12.690  0.4786 -0.8856 -0.3348
  459TMC3    C8 6842   1.957   3.319  12.360  0.2972  0.1229  0.2858
  459TMC3    O1 6843   1.704   3.319  12.755 -0.0724  0.2449  0.1513
  459TMC3    O2 6844   2.039   3.278  12.441 -0.2476 -0.5853  0.1064
  460MPD2     C 6845   0.817   0.770  10.627 -0.5841 -0.0960  0.2788
  460MPD2    C1 6846   0.704   0.854  10.628 -0.4929 -0.6116  0.1641
  460MPD2    C2 6847   0.647   0.895  10.503 -0.6603  0.1069 -0.9517
  460MPD2    C3 6848   0.683   0.830  10.386  0.2881 -0.1822  0.6661
  460MPD2    C4 6849   0.797   0.748  10.391  0.2752 -0.0526 -0.2341
  460MPD2    C5 6850   0.863   0.712  10.510 -0.3397 -0.8807  0.6437
  460MPD2     H 6851   0.558   0.957  10.497  0.9890  2.6204  0.4256
  460MPD2    H1 6852   0.842   0.707  10.302  0.2558  1.2535 -0.8482
  460MPD2    H2 6853   0.871   0.761  10.720 -1.4194 -0.4591  0.7276
  460MPD2    H3 6854   0.950   0.647  10.505  0.3516 -0.0303  1.6281
  460MPD2     N 6855   0.610   0.860  10.272 -0.4039 -0.0460  0.5104
  460MPD2    H5 6856   0.548   0.940  10.270 -0.3326 -0.0215 -0.8504
  460MPD2    N1 6857   0.652   0.882  10.755  0.1392  0.3163  0.1725
  460MPD2    H7 6858   0.704   0.847  10.835 -0.0775 -1.2127 -0.3716
  461TMC3    C1 6859   0.532   0.821  10.053 -0.4771  0.2807  0.0178
  461TMC3    C2 6860   0.425   0.741  10.027 -0.4314 -1.0234  0.0991
  461TMC3    C3 6861   0.310   0.808   9.978 -1.1537  0.2530 -0.4401
  461TMC3    C4 6862   0.536   0.955  10.028  0.6939 -0.1521 -0.2949
  461TMC3    C5 6863   0.431   1.018   9.967 -0.5995 -0.1385 -0.7293
  461TMC3    C6 6864   0.315   0.942   9.948  0.1197  0.2883 -0.6781
  461TMC3     C 6865   0.619   0.780  10.159  0.3178  0.4172 -0.2863
  461TMC3     O 6866   0.670   0.669  10.139 -0.4223  0.1537  0.1955
  461TMC3     H 6867   0.438   0.635  10.049  2.2879 -1.0398 -1.5489
  461TMC3    H1 6868   0.625   1.008  10.061 -0.8840  0.6211  2.7014
  461TMC3    H2 6869   0.230   0.979   9.892 -1.2454 -0.0897  1.1762
  461TMC3    C7 6870   0.405   1.163   9.963 -0.1429 -0.5711 -0.0869
  461TMC3    C8 6871   0.204   0.729   9.914  0.6266  0.0548  0.0527
  461TMC3    O1 6872   0.293   1.202   9.924  0.1561  0.2934  0.5877
  461TMC3    O2 6873   0.137   0.779   9.822 -0.3105  0.3776 -0.3509
  462TMC3    C1 6874   0.439   1.066  17.495 -0.4260  0.2224 -0.2271
  462TMC3    C2 6875   0.442   0.966  17.403  0.1871  0.2642  0.4075
  462TMC3    C3 6876   0.354   0.861  17.407 -0.2984  0.0605 -0.4446
  462TMC3    C4 6877   0.338   1.079  17.586 -0.6942 -0.2666  0.4297
  462TMC3    C5 6878   0.244   0.973  17.588  0.2568  0.1914  0.2992
  462TMC3    C6 6879   0.260   0.862  17.503 -0.1362 -0.6314  0.7353
  462TMC3     C 6880   0.535   1.173  17.463 -0.1058 -0.1370  0.3126
  462TMC3     O 6881   0.599   1.173  17.355  0.3366  0.3155  0.1348
  462TMC3     H 6882   0.524   0.952  17.333 -0.3226 -0.1566 -0.1038
  462TMC3    H1 6883   0.319   1.171  17.640 -3.1873 -0.9971  0.8079
  462TMC3    H2 6884   0.199   0.774  17.516  0.8529 -1.7104 -1.8266
  462TMC3    C7 6885   0.113   0.995  17.653  0.0448 -0.1302  0.1511
  462TMC3    C8 6886   0.387   0.738  17.341  0.5890 -0.5939  0.5560
  462TMC3    O1 6887   0.021   0.931  17.604  0.4055  0.1368 -0.1723
  462TMC3    O2 6888   0.346   0.642  17.404 -0.3360 -0.3153 -0.0455
  463MPD2     C 6889   0.854   1.269   1.450  0.7161  0.8035 -0.0025
  463MPD2    C1 6890   0.791   1.196   1.361  0.0526  0.5642 -0.8837
  463MPD2    C2 6891   0.769   1.252   1.233 -0.3739 -0.0363  0.2220
  463MPD2    C3 6892   0.804   1.385   1.206 -0.2752  0.0678 -0.3620
  463MPD2    C4 6893   0.886   1.452   1.294  0.2656  0.6780 -0.1500
  463MPD2    C5 6894   0.918   1.388   1.412 -0.0431  0.2891 -0.7386
  463MPD2     H 6895   0.720   1.191   1.158 -0.6542  1.0157 -0.4488
  463MPD2    H1 6896   0.930   1.548   1.270  0.3444  0.9869  1.2445
  463MPD2    H2 6897   0.881   1.231   1.548  0.8551 -1.7840 -1.0565
  463MPD2    H3 6898   0.986   1.439   1.479  0.9749 -1.7586 -0.1977
  463MPD2     N 6899   0.767   1.445   1.085 -0.0523 -0.3386  0.4935
  463MPD2    H5 6900   0.789   1.543   1.075  0.4953 -0.5373 -0.2708
  463MPD2    N1 6901   0.747   1.067   1.390 -0.4485  0.1135 -0.3086
  463MPD2    H7 6902   0.709   1.011   1.314  1.3955 -0.6581 -0.6812
  464TMC3    C1 6903   0.700   0.874   1.510 -0.0922 -0.8082 -0.1629
  464TMC3    C2 6904   0.575   0.872   1.455 -0.5268  0.0157  0.3358
  464TMC3    C3 6905   0.502   0.758   1.472  0.0267  1.0268 -0.1428
  464TMC3    C4 6906   0.757   0.768   1.570  0.4589  0.5203  0.2872
  464TMC3    C5 6907   0.684   0.650   1.569 -0.5545  0.8680  0.4847
  464TMC3    C6 6908   0.556   0.646   1.523  0.1463 -0.2156  0.5742
  464TMC3     C 6909   0.774   0.996   1.503 -0.0071 -0.2809 -0.1323
  464TMC3     O 6910   0.855   1.010   1.590  0.3263 -0.3524 -0.3393
  464TMC3     H 6911   0.522   0.959   1.420  0.6166  0.8645  0.7283
  464TMC3    H1 6912   0.858   0.786   1.605 -0.0537 -0.1407  2.0628
  464TMC3    H2 6913   0.504   0.550   1.527  1.5027 -1.0196 -1.0292
  464TMC3    C7 6914   0.763   0.531   1.590 -0.7280 -0.2557  0.3554
  464TMC3    C8 6915   0.361   0.751   1.428  0.2030  0.5142  0.1476
  464TMC3    O1 6916   0.865   0.544   1.658  0.2460  0.3054 -0.3680
  464TMC3    O2 6917   0.327   0.822   1.338  0.2504 -0.0038 -0.1664
  465MPD2     C 6918   2.020   3.813  16.747 -0.0688  0.1753  0.4411
  465MPD2    C1 6919   1.915   3.813  16.831  0.7799 -0.4508 -0.6659
  465MPD2    C2 6920   1.787   3.806  16.781 -1.0300 -0.6238  0.0852
  465MPD2    C3 6921   1.769   3.796  16.640  0.4163 -0.6456 -0.7201
  465MPD2    C4 6922   1.878   3.791  16.555 -0.2454 -0.5977 -0.1842
  465MPD2    C5 6923   2.000   3.804  16.613  0.3878  0.3351 -0.4053
  465MPD2     H 6924   1.698   3.820  16.841  0.1300  2.4711  1.0495
  465MPD2    H1 6925   1.860   3.781  16.449 -0.2046 -1.3779 -0.1167
  465MPD2    H2 6926   2.120   3.820  16.789  0.3818 -0.3081 -0.5399
  465MPD2    H3 6927   2.085   3.819  16.548  0.9699 -1.3170 -0.0122
  465MPD2     N 6928   1.635   3.784  16.593 -0.3640  0.2213  0.5306
  465MPD2    H5 6929   1.561   3.783  16.663  1.3496  1.2840  2.3252
  465MPD2    N1 6930   1.935   3.829  16.967  0.3494 -1.2362 -0.5325
  465MPD2    H7 6931   1.856   3.818  17.030 -1.2407  1.4052 -2.0613
  466TMC3    C1 6932   1.269   3.837  16.588  0.9133 -0.6098 -0.1013
  466TMC3    C2 6933   1.215   3.920  16.490  0.8580  0.1733 -0.2018
  466TMC3    C3 6934   1.284   3.947  16.381  0.9805 -0.5066  0.2239
  466TMC3    C4 6935   1.380   3.763  16.553 -0.8898  0.0029 -0.3307
  466TMC3    C5 6936   1.446   3.791  16.441 -0.0547 -0.4167 -0.4102
  466TMC3    C6 6937   1.405   3.883  16.351  0.8608 -0.3355  0.0819
  466TMC3     C 6938   1.313   3.918  16.699  0.4014  0.0090  0.0509
  466TMC3     O 6939   1.410   3.875  16.760  0.4646 -0.5764  0.1225
  466TMC3     H 6940   1.119   3.963  16.515  0.4924 -0.5153 -0.4231
  466TMC3    H1 6941   1.412   3.689  16.625  2.3153 -1.1448 -2.9880
  466TMC3    H2 6942   1.468   3.915  16.269 -1.0700 -1.5901 -1.8810
  466TMC3    C7 6943   1.593   3.791  16.455 -0.5376  0.4231 -0.0303
  466TMC3    C8 6944   1.291   4.093  16.369 -0.2815  0.0893  0.6923
  466TMC3    O1 6945   1.644   3.811  16.346  0.5254  0.0639 -0.1819
  466TMC3    O2 6946   1.223   4.159  16.447  0.1772 -0.3107 -0.2875
  467TMC3    C1 6947   2.865   2.441  13.569  0.0975  0.7276 -0.5609
  467TMC3    C2 6948   2.829   2.369  13.454  0.7255 -0.2023 -0.0806
  467TMC3    C3 6949   2.701   2.348  13.436  0.1777 -0.4640  0.3958
  467TMC3    C4 6950   2.773   2.475  13.666  0.7281  0.3920 -0.2266
  467TMC3    C5 6951   2.643   2.436  13.643 -0.0326 -0.1370  0.0719
  467TMC3    C6 6952   2.607   2.388  13.518  0.1767  0.3418 -0.1022
  467TMC3     C 6953   3.005   2.457  13.604 -0.3232 -0.1090  0.2026
  467TMC3     O 6954   3.043   2.527  13.700 -0.0470 -0.0078 -0.2919
  467TMC3     H 6955   2.903   2.355  13.376 -0.5410 -1.3256 -1.0878
  467TMC3    H1 6956   2.802   2.520  13.761 -1.1108  2.7025 -0.7324
  467TMC3    H2 6957   2.504   2.370  13.491 -0.1243  1.9253 -0.0327
  467TMC3    C7 6958   2.567   2.408  13.765 -0.1001 -0.4209  0.3674
  467TMC3    C8 6959   2.663   2.364  13.300 -0.4170  0.2842  0.5044
  467TMC3    O1 6960   2.633   2.406  13.865  0.2043  0.3399 -0.0398
  467TMC3    O2 6961   2.596   2.465  13.279 -0.7308 -0.4552 -0.2052
  468MPD2     C 6962   2.364   0.954  10.561  0.0665 -0.0256  0.2294
  468MPD2    C1 6963   2.479   0.878  10.573  0.0362 -0.6848  1.0510
  468MPD2    C2 6964   2.477   0.759  10.645  0.2158 -0.8750 -0.1479
  468MPD2    C3 6965   2.370   0.708  10.713 -0.5728 -0.0854  0.4455
  468MPD2    C4 6966   2.253   0.779  10.694  0.0227 -0.3121  0.0988
  468MPD2    C5 6967   2.257   0.904  10.628 -0.2416  1.1529 -0.3831
  468MPD2     H 6968   2.571   0.704  10.649 -0.7391 -2.3163  2.3800
  468MPD2    H1 6969   2.164   0.745  10.745  0.3478 -0.7292  0.3881
  468MPD2    H2 6970   2.354   1.048  10.508 -1.5982 -0.3505 -0.0339
  468MPD2    H3 6971   2.161   0.954  10.632 -0.3552  0.9716 -0.8763
  468MPD2     N 6972   2.368   0.586  10.794 -0.1405  1.1269 -0.1799
  468MPD2    H5 6973   2.284   0.556  10.842  1.1056 -1.8395  0.1833
  468MPD2    N1 6974   2.597   0.901  10.497  0.0254 -0.1400  0.2972
  468MPD2    H7 6975   2.672   0.833  10.508 -1.0427 -1.0399  1.9957
  469TMC3    C1 6976   2.754   1.023  10.372  0.7222 -0.2384 -0.1390
  469TMC3    C2 6977   2.863   0.967  10.446  0.0414  0.4886  0.2694
  469TMC3    C3 6978   2.985   0.974  10.397 -0.2075 -0.1491  0.0756
  469TMC3    C4 6979   2.779   1.103  10.266 -0.7416 -0.3661 -0.1727
  469TMC3    C5 6980   2.908   1.110  10.227 -0.2655  0.3732 -0.4326
  469TMC3    C6 6981   3.016   1.054  10.289 -0.1272  0.2676  0.1401
  469TMC3     C 6982   2.626   1.018  10.429 -0.1813  0.1140 -0.9634
  469TMC3     O 6983   2.559   1.117  10.411 -0.4140 -0.0950  0.0035
  469TMC3     H 6984   2.846   0.932  10.547  3.0762 -1.0340  0.2291
  469TMC3    H1 6985   2.697   1.122  10.197  1.0828  0.6898 -2.0414
  469TMC3    H2 6986   3.115   1.074  10.250  1.2526 -4.2614  1.3832
  469TMC3    C7 6987   2.929   1.216  10.133  0.5106  0.6886 -0.3015
  469TMC3    C8 6988   3.095   0.906  10.464  0.4689 -0.3085 -0.8531
  469TMC3    O1 6989   3.043   1.242  10.097  0.6332 -0.0906  0.1420
  469TMC3    O2 6990   3.201   0.961  10.446 -0.0685 -0.7322 -0.2865
  470TMC3    C1 6991   0.035   1.814   1.193 -0.4017 -0.0618  0.6948
  470TMC3    C2 6992   0.017   1.945   1.163  0.3352  0.6803 -0.3303
  470TMC3    C3 6993   0.085   2.039   1.234  0.0787  0.1232  0.4461
  470TMC3    C4 6994   0.128   1.772   1.287 -0.4314 -0.2875  0.4022
  470TMC3    C5 6995   0.198   1.868   1.359 -0.0243 -0.1750 -0.1532
  470TMC3    C6 6996   0.173   2.003   1.333  0.4298 -0.5479 -0.0121
  470TMC3     C 6997   0.019   1.728   1.085 -0.0488 -0.7652 -0.1282
  470TMC3     O 6998   4.685   1.779   0.993  0.2980 -0.6483 -0.3645
  470TMC3     H 6999   4.668   1.981   1.090  0.0707  0.0286 -0.3968
  470TMC3    H1 7000   0.130   1.667   1.311 -1.5166 -0.1731  1.0135
  470TMC3    H2 7001   0.223   2.081   1.389  0.8763  0.1317 -1.3813
  470TMC3    C7 7002   0.278   1.830   1.476 -0.0621 -0.3291 -0.5728
  470TMC3    C8 7003   0.012   2.165   1.258 -0.1173  0.0989 -1.1890
  470TMC3    O1 7004   0.338   1.924   1.523 -0.0563  0.1180 -0.0371
  470TMC3    O2 7005   4.621   2.174   1.218 -0.5090  0.8589 -0.4402
  471MPD2     C 7006   3.659   2.810  16.552  0.5707 -0.0651 -0.0773
  471MPD2    C1 7007   3.772   2.779  16.478 -0.0904  0.0372  0.6246
  471MPD2    C2 7008   3.865   2.695  16.543 -0.4739 -0.4378  0.2685
  471MPD2    C3 7009   3.853   2.652  16.672 -0.7415  0.0335 -0.0394
  471MPD2    C4 7010   3.737   2.689  16.738  0.3533  0.2911 -0.3046
  471MPD2    C5 7011   3.640   2.773  16.680 -0.4552 -0.4770  0.1879
  471MPD2     H 7012   3.946   2.658  16.481  1.0899  1.8872  0.9503
  471MPD2    H1 7013   3.719   2.664  16.842 -0.0974  2.6304  0.1935
  471MPD2    H2 7014   3.581   2.873  16.512  0.1011 -1.8669 -2.0051
  471MPD2    H3 7015   3.550   2.805  16.732 -1.1530 -1.4756 -0.4062
  471MPD2     N 7016   3.954   2.571  16.726  0.6361 -0.0749 -0.4235
  471MPD2    H5 7017   3.950   2.554  16.826 -1.5144 -0.6840 -0.6183
  471MPD2    N1 7018   3.799   2.826  16.347 -0.2158 -0.2364 -0.3622
  471MPD2    H7 7019   3.878   2.777  16.306 -0.9440  0.6582 -2.8213
  472TMC3    C1 7020   3.781   2.889  16.135 -0.2687 -0.0693  1.0957
  472TMC3    C2 7021   3.687   2.859  16.036 -0.0436  0.3202 -0.2141
  472TMC3    C3 7022   3.716   2.762  15.945 -0.3465 -0.5616  0.1188
  472TMC3    C4 7023   3.905   2.824  16.138  0.6084 -0.0080 -0.0964
  472TMC3    C5 7024   3.923   2.716  16.064  0.0921  0.1905 -0.1275
  472TMC3    C6 7025   3.830   2.684  15.965 -0.7275  0.0644 -0.2827
  472TMC3     C 7026   3.737   2.914  16.265 -0.5202  0.0897 -0.3796
  472TMC3     O 7027   3.630   2.966  16.291 -0.1622  0.4232 -0.2213
  472TMC3     H 7028   3.589   2.905  16.046 -0.6019 -0.2502 -2.9451
  472TMC3    H1 7029   3.978   2.856  16.212  2.1492 -1.1136 -1.1255
  472TMC3    H2 7030   3.843   2.602  15.895  0.0025  0.0597 -0.1405
  472TMC3    C7 7031   3.989   2.615  16.139  0.1701 -0.5340 -0.0982
  472TMC3    C8 7032   3.597   2.691  15.887 -0.7424  0.2058 -0.3068
  472TMC3    O1 7033   3.981   2.632  16.259 -0.1082 -0.3556 -0.0505
  472TMC3    O2 7034   3.493   2.750  15.867  0.1123  0.2708  0.2409
  473MPD2     C 7035   4.515   0.175  13.911 -0.5558 -0.1847 -0.0703
  473MPD2    C1 7036   4.546   0.306  13.885 -0.0397 -0.8247  0.8945
  473MPD2    C2 7037   4.576   0.387  13.986  0.6840 -0.3783 -0.8700
  473MPD2    C3 7038   4.572   0.336  14.117 -1.1160  0.1441 -0.2443
  473MPD2    C4 7039   4.556   0.199  14.138  0.4820 -0.6903 -0.6093
  473MPD2    C5 7040   4.522   0.123  14.032 -0.1892 -0.5045 -0.0203
  473MPD2     H 7041   4.598   0.491  13.967 -0.4486 -0.5455 -3.0632
  473MPD2    H1 7042   4.558   0.153  14.236  0.5501  0.2676 -0.1506
  473MPD2    H2 7043   4.482   0.115  13.827 -2.0521  3.3656 -2.0300
  473MPD2    H3 7044   4.493   0.020  14.050 -0.5791 -0.3256  0.3689
  473MPD2     N 7045   4.577   0.415  14.227  0.0011  0.0560  0.2387
  473MPD2    H5 7046   4.536   0.379  14.313 -1.4004  1.2361  0.0693
  473MPD2    N1 7047   4.526   0.369  13.759 -0.2601 -0.0584 -0.2155
  473MPD2    H7 7048   4.542   0.469  13.758  1.3160 -0.2859  1.1259
  474TMC3    C1 7049   4.647   0.586  14.366 -0.1865  0.3443  0.2137
  474TMC3    C2 7050   4.529   0.623  14.413  1.2067  0.0632 -0.0589
  474TMC3    C3 7051   4.533   0.684  14.535 -0.2119  0.1268  0.2630
  474TMC3    C4 7052   0.045   0.613  14.418 -0.2512 -0.3519  0.5665
  474TMC3    C5 7053   0.038   0.677  14.538  0.6752 -0.1059 -0.2786
  474TMC3    C6 7054   4.644   0.714  14.605  0.6340 -0.4071  0.4214
  474TMC3     C 7055   4.653   0.531  14.233  0.1374  0.1730  0.1857
  474TMC3     O 7056   0.028   0.557  14.162 -0.0193  0.2201  0.2233
  474TMC3     H 7057   4.436   0.601  14.363  0.1005 -0.1085  2.0858
  474TMC3    H1 7058   0.142   0.597  14.372 -1.2187  0.3371 -1.7136
  474TMC3    H2 7059   4.628   0.774  14.694  1.9654  0.6079 -0.0467
  474TMC3    C7 7060   0.163   0.727  14.581 -1.4368  0.1741 -0.0382
  474TMC3    C8 7061   4.424   0.763  14.568  0.6793 -0.6632 -0.7574
  474TMC3    O1 7062   0.257   0.725  14.502  0.9058 -0.2959  0.2685
  474TMC3    O2 7063   4.401   0.769  14.685 -0.5989 -0.4078  0.4862
  475MPD2     C 7064   3.398   3.434   9.965 -0.0296 -0.6121  0.1347
  475MPD2    C1 7065   3.449   3.531  10.042 -0.6419 -0.5756 -0.9672
  475MPD2    C2 7066   3.415   3.535  10.173 -0.3670 -0.0683  0.4434
  475MPD2    C3 7067   3.327   3.442  10.232  0.1449  0.3127 -0.2831
  475MPD2    C4 7068   3.273   3.345  10.154  0.2520  0.2175  0.4141
  475MPD2    C5 7069   3.294   3.362  10.017  0.1682 -0.2014  0.2514
  475MPD2     H 7070   3.468   3.606  10.236 -0.4842 -0.9787  1.5755
  475MPD2    H1 7071   3.191   3.280  10.183  1.6472 -0.6344  2.4089
  475MPD2    H2 7072   3.411   3.422   9.859  0.7060 -0.1003  0.1687
  475MPD2    H3 7073   3.254   3.286   9.951 -2.3375  0.9693  0.4470
  475MPD2     N 7074   3.294   3.458  10.367 -0.5672  0.0402  0.0303
  475MPD2    H5 7075   3.328   3.547  10.402  0.5964 -0.6498  0.6489
  475MPD2    N1 7076   3.543   3.616   9.977  0.4078  0.0025 -0.6774
  475MPD2    H7 7077   3.587   3.577   9.894  2.6526  1.0888  0.0001
  476TMC3    C1 7078   3.542   3.818  10.116  0.2995  0.1898 -0.6839
  476TMC3    C2 7079   3.413   3.852  10.108  0.4875 -0.0240  0.1213
  476TMC3    C3 7080   3.353   3.890  10.220 -1.3407 -0.3005  0.5206
  476TMC3    C4 7081   3.630   3.860  10.218 -0.0482  0.0862 -0.0324
  476TMC3    C5 7082   3.566   3.918  10.321 -0.4772 -0.0740 -0.5026
  476TMC3    C6 7083   3.426   3.931  10.332 -0.4583 -0.5572  0.1031
  476TMC3     C 7084   3.605   3.735  10.018  0.4977  0.2936 -0.2123
  476TMC3     O 7085   3.699   3.785   9.963 -0.4423  0.4251  0.1174
  476TMC3     H 7086   3.357   3.807  10.027 -1.3445  2.1883  0.1451
  476TMC3    H1 7087   3.736   3.837  10.212  0.1543  1.4637 -1.6542
  476TMC3    H2 7088   3.373   3.946  10.426 -0.5470 -2.4150  0.3379
  476TMC3    C7 7089   3.648   3.902  10.437 -0.2475 -0.4022 -0.2516
  476TMC3    C8 7090   3.244   3.803  10.247 -0.0184 -0.2052  0.4765
  476TMC3    O1 7091   3.744   3.829  10.432 -0.0939 -0.6786 -0.4451
  476TMC3    O2 7092   3.227   3.755  10.364  0.0746 -0.2046 -0.2216
  477MPD2     C 7093   1.138   0.104  11.644  0.0177  0.1465  0.4038
  477MPD2    C1 7094   1.099   0.216  11.727 -0.2878 -0.3947  0.8902
  477MPD2    C2 7095   1.107   0.203  11.867  0.1198  0.2408  0.1903
  477MPD2    C3 7096   1.171   0.088  11.920 -0.2375 -0.0401  0.2607
  477MPD2    C4 7097   1.203   4.701  11.846  0.6321 -0.7078 -0.6640
  477MPD2    C5 7098   1.182   4.718  11.709  0.2318  0.1284 -0.1970
  477MPD2     H 7099   1.082   0.289  11.928  1.2819  0.9392 -0.3141
  477MPD2    H1 7100   1.244   4.609  11.886  0.8625 -0.3590 -0.1153
  477MPD2    H2 7101   1.124   0.103  11.537  1.1277 -1.2397  0.2773
  477MPD2    H3 7102   1.215   4.633  11.651 -1.0819  1.1396 -2.4265
  477MPD2     N 7103   1.198   0.084  12.067 -0.1574  0.4250 -0.1567
  477MPD2    H5 7104   1.159   0.154  12.129  1.2914  2.2462 -1.2778
  477MPD2    N1 7105   1.054   0.334  11.659  0.2063 -0.0283  0.4068
  477MPD2    H7 7106   1.069   0.319  11.560  1.6751 -1.7482  0.8932
  478TMC3    C1 7107   0.980   0.546  11.610 -0.4160 -0.4776  0.3472
  478TMC3    C2 7108   0.882   0.635  11.647  0.7974  0.4368 -0.7922
  478TMC3    C3 7109   0.806   0.684  11.547 -0.2461  0.5064  0.2528
  478TMC3    C4 7110   1.007   0.500  11.486  0.2619 -0.7172  0.1371
  478TMC3    C5 7111   0.925   0.552  11.391  0.2067  0.0343 -1.3159
  478TMC3    C6 7112   0.817   0.638  11.416 -0.1871 -0.0511  0.3068
  478TMC3     C 7113   1.012   0.453  11.712 -0.8078  0.6038 -0.1098
  478TMC3     O 7114   0.980   0.486  11.825 -0.7289 -0.7582 -0.0947
  478TMC3     H 7115   0.851   0.654  11.749  0.4081 -1.0905 -0.6229
  478TMC3    H1 7116   1.105   0.466  11.455 -0.1822 -0.2056 -1.8090
  478TMC3    H2 7117   0.769   0.698  11.340 -1.7500 -2.9244 -0.9875
  478TMC3    C7 7118   0.954   0.506  11.257  0.6218 -0.5243  0.3420
  478TMC3    C8 7119   0.719   0.790  11.590 -0.0623  0.0225  0.4541
  478TMC3    O1 7120   1.073   0.468  11.237 -0.5366 -0.5315  0.5260
  478TMC3    O2 7121   0.760   0.868  11.677  0.1062  0.1897 -0.5796
  479MPD2     C 7122   4.001   2.149  14.827  0.2757  0.8383  0.1232
  479MPD2    C1 7123   3.944   2.082  14.926  0.1703  0.2422  0.1577
  479MPD2    C2 7124   3.990   2.097  15.061  0.3002  0.2589  0.3504
  479MPD2    C3 7125   4.107   2.171  15.080 -0.4155  0.7540 -0.2536
  479MPD2    C4 7126   4.170   2.233  14.979  0.7852 -0.0702 -0.0373
  479MPD2    C5 7127   4.114   2.220  14.854 -0.1861 -0.3475 -0.2833
  479MPD2     H 7128   3.941   2.045  15.142  0.5190  3.1009  2.3083
  479MPD2    H1 7129   4.254   2.301  14.989  1.5406 -0.9241 -0.5664
  479MPD2    H2 7130   3.958   2.150  14.728  2.7786 -0.2366 -0.9700
  479MPD2    H3 7131   4.163   2.278  14.777 -1.4750  1.2155  0.0828
  479MPD2     N 7132   4.171   2.178  15.209 -0.8180  0.7649  0.6393
  479MPD2    H5 7133   4.260   2.228  15.211 -0.0715 -0.4914 -1.0815
  479MPD2    N1 7134   3.825   2.007  14.888 -0.1156 -0.6444  0.2072
  479MPD2    H7 7135   3.786   2.012  14.795  0.3177  1.1736  0.1150
  480TMC3    C1 7136   3.848   1.989  15.508 -0.2662 -0.1937  0.0958
  480TMC3    C2 7137   3.739   2.057  15.467  0.7773 -0.4826  0.4240
  480TMC3    C3 7138   3.763   2.153  15.370  0.5588  0.4527 -0.0745
  480TMC3    C4 7139   3.972   2.014  15.467 -0.1796  0.0521  0.3294
  480TMC3    C5 7140   3.992   2.108  15.366 -0.4514  0.4634  0.2728
  480TMC3    C6 7141   3.890   2.190  15.329 -0.3848 -0.4672 -0.9515
  480TMC3     C 7142   3.830   1.898  15.620 -0.0402 -0.0357  0.2006
  480TMC3     O 7143   3.722   1.841  15.630  0.0882  0.0476  0.2378
  480TMC3     H 7144   3.641   2.016  15.491  1.0917 -1.3372  0.2704
  480TMC3    H1 7145   4.041   1.933  15.485 -0.5999 -0.4935 -0.5133
  480TMC3    H2 7146   3.914   2.273  15.263  0.6215 -0.5687 -0.7124
  480TMC3    C7 7147   4.131   2.133  15.338  0.3959  0.5232  0.2590
  480TMC3    C8 7148   3.654   2.200  15.281 -0.2291  0.2719  0.3493
  480TMC3    O1 7149   4.214   2.122  15.430 -0.1923  0.3325 -0.2272
  480TMC3    O2 7150   3.540   2.176  15.312 -0.5315  0.2505  0.3688
  481MPD2     C 7151   1.027   1.914  14.379  0.4938 -0.1229  0.4688
  481MPD2    C1 7152   0.920   1.824  14.401 -0.3851  0.4412 -0.0023
  481MPD2    C2 7153   0.861   1.817  14.525 -0.2545 -0.0870  0.8197
  481MPD2    C3 7154   0.877   1.917  14.620  0.1127  0.4413 -0.4594
  481MPD2    C4 7155   0.976   2.009  14.592  0.0338  0.0778  0.1428
  481MPD2    C5 7156   1.049   2.008  14.480 -0.1628  0.0946  0.4023
  481MPD2     H 7157   0.796   1.734  14.550 -0.0030 -1.3732 -2.8210
  481MPD2    H1 7158   0.995   2.087  14.664 -1.1451  1.5185 -1.1100
  481MPD2    H2 7159   1.085   1.921  14.287 -1.5408 -0.1041 -0.8125
  481MPD2    H3 7160   1.114   2.095  14.472  0.8302 -0.8327 -1.7297
  481MPD2     N 7161   0.804   1.930  14.740 -0.5543 -0.0328  0.1242
  481MPD2    H5 7162   0.832   2.004  14.804  0.1434 -1.0719  1.0228
  481MPD2    N1 7163   0.888   1.734  14.294 -1.0950  0.1299 -0.0534
  481MPD2    H7 7164   0.943   1.738  14.209  1.1728  1.3400  1.4692
  482TMC3    C1 7165   0.758   1.602  14.163 -0.2552  0.1861 -0.4399
  482TMC3    C2 7166   0.623   1.593  14.123 -0.3533 -0.4035  0.1188
  482TMC3    C3 7167   0.601   1.592  13.988 -0.0948 -0.1003  0.3051
  482TMC3    C4 7168   0.858   1.615  14.071  0.1493  0.2977  0.6759
  482TMC3    C5 7169   0.824   1.603  13.940 -0.6263 -0.5350 -0.5840
  482TMC3    C6 7170   0.697   1.595  13.900  0.5481  0.8088 -0.1863
  482TMC3     C 7171   0.782   1.645  14.295 -0.1166  0.0072  0.1288
  482TMC3     O 7172   0.692   1.613  14.370 -0.1293 -0.6615  0.4874
  482TMC3     H 7173   0.546   1.565  14.193 -0.4103  0.5232  0.4213
  482TMC3    H1 7174   0.964   1.611  14.095  0.5562  1.2103 -0.9446
  482TMC3    H2 7175   0.676   1.562  13.799 -0.1485 -1.5208  0.7171
  482TMC3    C7 7176   0.935   1.555  13.854  1.0216 -0.3992 -0.0202
  482TMC3    C8 7177   0.483   1.529  13.943  0.4987 -0.0985 -0.5107
  482TMC3    O1 7178   1.036   1.506  13.908 -0.8012  0.0958  0.3027
  482TMC3    O2 7179   0.495   1.407  13.943  0.2299  0.4350  0.4650
  483TMC3    C1 7180   3.388   0.779   0.778 -0.0777  0.1921  0.1478
  483TMC3    C2 7181   3.422   0.870   0.681 -0.6810 -0.3833 -0.5975
  483TMC3    C3 7182   3.536   0.948   0.707  0.2732  0.3813 -0.7147
  483TMC3    C4 7183   3.467   0.741   0.887  0.0004 -0.2695  0.0159
  483TMC3    C5 7184   3.571   0.831   0.909 -0.3276 -0.6357  0.3928
  483TMC3    C6 7185   3.613   0.922   0.817  0.1522  0.5002  0.5142
  483TMC3     C 7186   3.300   0.680   0.721 -0.1586 -0.7071 -0.5047
  483TMC3     O 7187   3.216   0.721   0.640 -0.0413  0.8130  0.6667
  483TMC3     H 7188   3.364   0.893   0.593 -0.5604 -0.5799 -0.7277
  483TMC3    H1 7189   3.443   0.654   0.948  0.1295 -1.0876 -1.0845
  483TMC3    H2 7190   3.705   0.979   0.832 -0.2742  1.5294 -0.7643
  483TMC3    C7 7191   3.654   0.799   1.018  0.2824 -0.2474  0.2257
  483TMC3    C8 7192   3.588   1.032   0.601 -0.2420  0.1884  0.3113
  483TMC3    O1 7193   3.773   0.815   1.009 -0.1950  0.0564 -0.6267
  483TMC3    O2 7194   3.695   1.086   0.625 -0.2950  0.3639  0.0690
  484MPD2     C 7195   2.105   3.498  12.068  0.0707  0.0426  0.2024
  484MPD2    C1 7196   2.100   3.403  12.175 -0.4947  0.4340 -0.4246
  484MPD2    C2 7197   2.215   3.344  12.216 -0.1642 -0.5623 -0.0400
  484MPD2    C3 7198   2.338   3.377  12.165 -0.2125  0.6563  0.2659
  484MPD2    C4 7199   2.339   3.458  12.056 -0.1033 -0.6823  0.5560
  484MPD2    C5 7200   2.224   3.519  12.009 -0.4480 -0.2603  0.3171
  484MPD2     H 7201   2.207   3.270  12.295 -0.6260 -0.0344  0.4085
  484MPD2    H1 7202   2.432   3.466  12.000 -0.5335 -0.4496 -0.1135
  484MPD2    H2 7203   2.021   3.559  12.039  0.3553  0.3138 -0.0502
  484MPD2    H3 7204   2.234   3.583  11.922 -0.5160  1.8484  1.8707
  484MPD2     N 7205   2.457   3.323  12.224 -0.6817  0.5739 -0.1632
  484MPD2    H5 7206   2.541   3.366  12.186  0.1037 -0.8091 -0.0209
  484MPD2    N1 7207   1.979   3.382  12.241  0.4807  0.2326 -0.3937
  484MPD2    H7 7208   1.897   3.420  12.194  0.4363  0.3660 -0.2067
  485TMC3    C1 7209   2.584   3.161  12.337  0.3152 -0.5170  0.3038
  485TMC3    C2 7210   2.595   3.072  12.442  0.2531  0.8504 -0.9102
  485TMC3    C3 7211   2.706   2.991  12.448 -0.0017 -0.2971 -0.5805
  485TMC3    C4 7212   2.679   3.171  12.236 -0.0318 -0.5541 -0.7619
  485TMC3    C5 7213   2.791   3.087  12.254 -0.2085 -0.8086  0.4085
  485TMC3    C6 7214   2.813   3.012  12.363 -0.5249 -0.0581 -0.5417
  485TMC3     C 7215   2.464   3.239  12.334 -0.6237 -0.1835 -0.3354
  485TMC3     O 7216   2.376   3.206  12.414 -0.0876 -0.3404  0.1073
  485TMC3     H 7217   2.525   3.059  12.524  0.7715 -0.3903 -0.6529
  485TMC3    H1 7218   2.671   3.231  12.145  1.1113  0.3912 -0.2434
  485TMC3    H2 7219   2.905   2.955  12.368  0.2009  1.0329 -1.6998
  485TMC3    C7 7220   2.809   2.997  12.148 -0.3871  0.1560 -0.5815
  485TMC3    C8 7221   2.669   2.850  12.456 -0.1152  0.3384  0.5172
  485TMC3    O1 7222   2.837   2.883  12.166 -0.2989  0.0238  0.5404
  485TMC3    O2 7223   2.553   2.827  12.420  0.7086  0.1793 -1.0001
  486MPD2     C 7224   3.781   2.038  12.853  0.5693 -0.8011  0.0299
  486MPD2    C1 7225   3.770   2.078  12.719  0.0040 -0.7862  0.6807
  486MPD2    C2 7226   3.790   2.213  12.690 -0.4804 -0.2962  0.8621
  486MPD2    C3 7227   3.825   2.303  12.790 -0.3278  0.6053  0.2041
  486MPD2    C4 7228   3.845   2.256  12.918 -0.3447  0.5145 -0.3103
  486MPD2    C5 7229   3.822   2.124  12.954 -0.4648 -0.3666 -0.2517
  486MPD2     H 7230   3.770   2.248  12.589 -0.4092  0.7786  1.2228
  486MPD2    H1 7231   3.863   2.323  13.001  1.0598 -0.9846  0.5986
  486MPD2    H2 7232   3.751   1.937  12.879 -4.4894  0.7420  0.1076
  486MPD2    H3 7233   3.836   2.101  13.059  2.1586  1.3562 -0.2118
  486MPD2     N 7234   3.851   2.444  12.761 -0.4361 -0.2884  0.2014
  486MPD2    H5 7235   3.841   2.467  12.663  1.1460  1.8419  0.5426
  486MPD2    N1 7236   3.724   1.981  12.623 -0.0652  0.9360 -0.4092
  486MPD2    H7 7237   3.705   1.886  12.654 -0.8385  0.7973 -1.3377
  487TMC3    C1 7238   3.660   1.889  12.417 -0.7496  0.2105  0.1481
  487TMC3    C2 7239   3.543   1.931  12.355 -0.7740  0.4784  0.1885
  487TMC3    C3 7240   3.449   1.829  12.351  0.1573 -0.1601 -0.5180
  487TMC3    C4 7241   3.693   1.760  12.462 -0.2242  1.1044 -0.1873
  487TMC3    C5 7242   3.588   1.671  12.459 -0.0621 -0.2538 -0.0050
  487TMC3    C6 7243   3.479   1.703  12.381 -0.1233  0.4717  0.0812
  487TMC3     C 7244   3.712   2.004  12.487  0.4319 -0.0454 -0.3187
  487TMC3     O 7245   3.715   2.115  12.424  1.3327  0.5359  0.4309
  487TMC3     H 7246   3.515   2.032  12.325 -0.7254  0.4331 -0.0108
  487TMC3    H1 7247   3.784   1.743  12.517 -0.3831  0.5811 -0.0829
  487TMC3    H2 7248   3.410   1.620  12.379 -0.1212  0.4540  1.3015
  487TMC3    C7 7249   3.560   1.625  12.594  0.0634  0.2538 -0.7071
  487TMC3    C8 7250   3.330   1.868  12.421 -0.5629 -0.9622  0.4361
  487TMC3    O1 7251   3.642   1.661  12.681 -0.0575 -0.6100  0.5098
  487TMC3    O2 7252   3.329   1.949  12.513 -0.0534  0.6345 -0.9339
  488MPD2     C 7253   3.849   3.999  16.510 -0.2013  0.6273 -0.3273
  488MPD2    C1 7254   3.807   4.124  16.478  0.0630 -0.4284  0.2086
  488MPD2    C2 7255   3.776   4.214  16.581 -0.4360 -0.6628 -0.2665
  488MPD2    C3 7256   3.810   4.179  16.709  0.1386  0.3129  0.0499
  488MPD2    C4 7257   3.848   4.052  16.735 -0.0923  0.4709  0.2868
  488MPD2    C5 7258   3.869   3.961  16.639  0.6108 -0.1391  0.2875
  488MPD2     H 7259   3.742   4.315  16.561 -4.3532 -1.7957  0.7093
  488MPD2    H1 7260   3.857   4.015  16.836 -0.4854 -3.2508 -1.0407
  488MPD2    H2 7261   3.860   3.920  16.437 -1.0367  1.2178 -1.0871
  488MPD2    H3 7262   3.899   3.858  16.653 -1.0612 -0.6877 -0.2183
  488MPD2     N 7263   3.789   4.270  16.816  0.2377 -0.1780 -0.1754
  488MPD2    H5 7264   3.757   4.359  16.779  0.9134  0.3405  0.4944
  488MPD2    N1 7265   3.783   4.153  16.340 -0.9640 -0.0499  0.1282
  488MPD2    H7 7266   3.747   4.248  16.330  0.6900  0.6799  1.1656
  489TMC3    C1 7267   3.778   4.362  17.021 -0.1435 -0.1061  0.0403
  489TMC3    C2 7268   3.662   4.424  16.976  0.3256  0.7764  0.4788
  489TMC3    C3 7269   3.632   4.547  17.028 -0.5692 -0.2648 -0.1373
  489TMC3    C4 7270   3.864   4.419  17.110  1.1941  0.5044  0.3340
  489TMC3    C5 7271   3.830   4.539  17.156 -0.4163 -0.8148  0.3232
  489TMC3    C6 7272   3.715   4.613  17.118  0.2387 -0.3950  0.1627
  489TMC3     C 7273   3.830   4.253  16.945  0.6333 -0.1495  0.0099
  489TMC3     O 7274   3.917   4.184  16.996 -0.2042  0.4061  0.3656
  489TMC3     H 7275   3.605   4.381  16.894  3.4805  3.2884 -3.0112
  489TMC3    H1 7276   3.954   4.363  17.136  1.0024 -0.5760 -1.3409
  489TMC3    H2 7277   3.680   4.706  17.162  1.5126 -0.3559  1.0722
  489TMC3    C7 7278   3.933   4.598  17.242  0.5907  0.9199  0.2015
  489TMC3    C8 7279   3.547   4.637  16.953 -0.2002  0.2483 -0.3369
  489TMC3    O1 7280   4.007   4.522  17.300 -0.0953 -0.5619 -0.2703
  489TMC3    O2 7281   3.590   0.029  16.931  0.2610 -0.0112  0.9402
  490MPD2     C 7282   0.600   3.705  17.092 -0.0878 -0.2712  0.0583
  490MPD2    C1 7283   0.544   3.700  17.220 -0.1480  0.0371  0.2896
  490MPD2    C2 7284   0.631   3.688  17.330 -1.0327 -0.7623 -0.5973
  490MPD2    C3 7285   0.766   3.684  17.314  0.2183 -0.9138  0.1797
  490MPD2    C4 7286   0.813   3.706  17.185  0.3198 -0.0780  1.3377
  490MPD2    C5 7287   0.733   3.714  17.073 -0.1041 -0.0846  0.4718
  490MPD2     H 7288   0.586   3.680  17.428 -1.0624  0.9715 -0.4766
  490MPD2    H1 7289   0.921   3.705  17.177  0.2985  0.0275  1.0229
  490MPD2    H2 7290   0.538   3.718  17.004 -0.7127  1.0672  0.6963
  490MPD2    H3 7291   0.767   3.728  16.971 -0.6841  0.8492  0.4035
  490MPD2     N 7292   0.860   3.662  17.417  0.0520 -0.1120 -0.1946
  490MPD2    H5 7293   0.955   3.680  17.385  0.0227  1.8854  0.8426
  490MPD2    N1 7294   0.405   3.702  17.247  0.3061 -0.3680 -0.6577
  490MPD2    H7 7295   0.379   3.718  17.344 -0.3125  3.4256 -1.4499
  491TMC3    C1 7296   0.175   3.718  17.200 -0.3141 -0.5870  0.2245
  491TMC3    C2 7297   0.157   3.817  17.296  0.5303 -0.2399 -0.2863
  491TMC3    C3 7298   0.034   3.873  17.308  0.1263  0.1812  0.1475
  491TMC3    C4 7299   0.068   3.671  17.128 -0.4612  0.3821 -0.1195
  491TMC3    C5 7300   4.669   3.728  17.141 -0.7071 -0.8854  0.4943
  491TMC3    C6 7301   4.650   3.823  17.230 -0.8397 -0.0063 -0.1025
  491TMC3     C 7302   0.302   3.672  17.159 -0.1445 -0.4574 -0.9382
  491TMC3     O 7303   0.312   3.607  17.061  0.3199  0.5389 -0.4443
  491TMC3     H 7304   0.238   3.866  17.349 -0.5547  0.8808  0.3365
  491TMC3    H1 7305   0.083   3.589  17.060 -2.0319  0.3439 -0.4210
  491TMC3    H2 7306   4.549   3.854  17.251 -0.8534 -0.3929  0.4002
  491TMC3    C7 7307   4.559   3.642  17.129 -0.1754  0.0330 -0.0302
  491TMC3    C8 7308   4.715   3.906  17.441 -0.4043  0.0267 -0.3124
  491TMC3    O1 7309   4.471   3.646  17.214 -0.2293  0.2355 -0.0115
  491TMC3    O2 7310   4.614   3.977  17.449 -0.5199  0.6886  0.1764
  492MPD2     C 7311   0.558   3.545  10.985  0.5085  0.5540 -0.2407
  492MPD2    C1 7312   0.451   3.525  10.904  0.4618 -0.1751  0.5185
  492MPD2    C2 7313   0.351   3.455  10.964  0.6715 -0.1075 -0.7299
  492MPD2    C3 7314   0.359   3.408  11.097  0.7349  0.0963  0.5377
  492MPD2    C4 7315   0.476   3.431  11.172 -0.0383 -0.4749 -0.4117
  492MPD2    C5 7316   0.574   3.510  11.114 -0.8908 -0.1548 -0.3675
  492MPD2     H 7317   0.253   3.452  10.917  0.7002 -0.3000 -0.7766
  492MPD2    H1 7318   0.493   3.398  11.274 -2.0100  3.2383  1.1469
  492MPD2    H2 7319   0.639   3.595  10.935 -0.3689  2.4366  0.2216
  492MPD2    H3 7320   0.660   3.538  11.173  0.1544 -0.9573 -1.5247
  492MPD2     N 7321   0.254   3.338  11.169 -0.1833  0.0710  0.3160
  492MPD2    H5 7322   0.271   3.303  11.262  1.3257  0.4840  0.1850
  492MPD2    N1 7323   0.447   3.584  10.773 -0.2322  0.0295  0.2536
  492MPD2    H7 7324   0.531   3.633  10.745  0.0791 -0.6185  0.0583
  493TMC3    C1 7325   0.367   3.682  10.578 -0.2281 -0.0597  1.1491
  493TMC3    C2 7326   0.449   3.790  10.587  0.1179  0.8383  0.2778
  493TMC3    C3 7327   0.458   3.865  10.476 -0.1229  0.0769  0.3052
  493TMC3    C4 7328   0.293   3.650  10.463 -0.1024  0.9821 -0.2818
  493TMC3    C5 7329   0.302   3.736  10.358  0.3192 -0.2337 -0.2729
  493TMC3    C6 7330   0.381   3.843  10.363 -0.1558 -0.9108  0.3014
  493TMC3     C 7331   0.337   3.596  10.690  0.3277  0.4702  0.4117
  493TMC3     O 7332   0.228   3.539  10.698 -0.4501 -0.0730 -0.1940
  493TMC3     H 7333   0.500   3.816  10.679  3.1439  0.1321 -1.1994
  493TMC3    H1 7334   0.234   3.560  10.465  0.4772  0.5853 -0.9790
  493TMC3    H2 7335   0.384   3.911  10.279 -1.0152 -0.2023  0.8351
  493TMC3    C7 7336   0.211   3.715  10.245 -0.4232  0.4894 -0.0086
  493TMC3    C8 7337   0.570   3.962  10.480  0.0218  0.8502 -0.3739
  493TMC3    O1 7338   0.119   3.638  10.270 -0.5507 -0.0468 -0.0086
  493TMC3    O2 7339   0.645   3.964  10.580  0.2077  0.2224 -0.5115
  494TMC3    C1 7340   0.384   0.639   0.347  0.0796  0.4332 -0.6606
  494TMC3    C2 7341   0.469   0.576   0.427 -0.4988  0.5119  0.3693
  494TMC3    C3 7342   0.601   0.580   0.392 -0.0842  1.1638 -0.3097
  494TMC3    C4 7343   0.422   0.695   0.231 -0.2207 -1.4471 -0.4058
  494TMC3    C5 7344   0.562   0.702   0.206  0.5876  0.5055 -0.1442
  494TMC3    C6 7345   0.652   0.655   0.295  0.4481  0.2845 -0.0038
  494TMC3     C 7346   0.255   0.671   0.396 -0.2413 -0.9819  0.2570
  494TMC3     O 7347   0.248   0.657   0.514  0.0284  0.2225  0.0277
  494TMC3     H 7348   0.422   0.515   0.503  0.8540 -0.4504  0.4404
  494TMC3    H1 7349   0.353   0.724   0.153 -1.7936 -0.7050  1.2846
  494TMC3    H2 7350   0.754   0.647   0.258  0.1141 -0.3933 -0.7858
  494TMC3    C7 7351   0.604   0.752   0.072 -0.2546  0.8029  0.2095
  494TMC3    C8 7352   0.695   0.477   0.426  0.0854  0.1483  0.7316
  494TMC3    O1 7353   0.533   0.742  17.669 -0.3579  0.3309 -0.7033
  494TMC3    O2 7354   0.811   0.513   0.412 -0.6141 -0.7714 -0.1732
  495TMC3    C1 7355   4.017   2.347  14.392 -0.5902  0.4757  0.3152
  495TMC3    C2 7356   3.942   2.394  14.282 -0.0298  0.2902  0.2907
  495TMC3    C3 7357   3.821   2.437  14.309  0.0175 -0.4581  0.0579
  495TMC3    C4 7358   3.983   2.381  14.521  0.1865  0.3406  0.0663
  495TMC3    C5 7359   3.860   2.439  14.548 -0.5753 -0.0501  0.5126
  495TMC3    C6 7360   3.773   2.450  14.438  0.4329  0.7607  0.3179
  495TMC3     C 7361   4.042   2.211  14.379  0.2080  0.4418  0.2283
  495TMC3     O 7362   3.975   2.153  14.292  0.2932 -0.2583  0.1050
  495TMC3     H 7363   3.976   2.384  14.180 -0.2578 -0.9410  0.3332
  495TMC3    H1 7364   4.058   2.358  14.595  0.3182  0.7197  0.0530
  495TMC3    H2 7365   3.668   2.475  14.452 -0.0353  0.1564 -2.2021
  495TMC3    C7 7366   3.811   2.423  14.681  0.3240  1.0641  0.4160
  495TMC3    C8 7367   3.717   2.403  14.215  0.3501 -0.1289  0.2433
  495TMC3    O1 7368   3.882   2.466  14.774 -0.6332 -0.2994  0.3691
  495TMC3    O2 7369   3.609   2.460  14.230  0.4338 -0.6815 -0.1571
  496MPD2     C 7370   1.687   2.881  15.442  0.2390  0.3911  0.2975
  496MPD2    C1 7371   1.582   2.800  15.448 -0.1968  0.6944 -0.4410
  496MPD2    C2 7372   1.568   2.721  15.561  0.1048 -0.0122 -0.1172
  496MPD2    C3 7373   1.651   2.727  15.664  0.5804  0.2695 -0.3155
  496MPD2    C4 7374   1.760   2.821  15.655 -0.3325  0.0313  0.5473
  496MPD2    C5 7375   1.776   2.898  15.546  0.1623  0.1297 -0.3203
  496MPD2     H 7376   1.496   2.640  15.555 -0.5671  0.4043  2.4365
  496MPD2    H1 7377   1.835   2.840  15.731  0.6022 -0.3435 -0.3037
  496MPD2    H2 7378   1.709   2.934  15.350 -1.4679 -1.7634 -1.3399
  496MPD2    H3 7379   1.854   2.973  15.536  0.1727  0.1304 -0.2341
  496MPD2     N 7380   1.634   2.645  15.781  0.1978  0.1171 -0.1741
  496MPD2    H5 7381   1.547   2.593  15.790  1.0390 -1.1696  0.4565
  496MPD2    N1 7382   1.507   2.777  15.330  0.0170 -0.2517 -0.3877
  496MPD2    H7 7383   1.550   2.807  15.244  0.7003  1.2533  0.4775
  497TMC3    C1 7384   1.681   2.548  15.989 -0.3090  0.1073  0.4723
  497TMC3    C2 7385   1.599   2.449  15.943 -0.4186  0.0026  0.0551
  497TMC3    C3 7386   1.526   2.383  16.042  0.0645 -0.3101  0.4068
  497TMC3    C4 7387   1.719   2.571  16.122  0.7253  0.7303  0.5377
  497TMC3    C5 7388   1.632   2.510  16.213 -0.1284 -0.0348  0.8400
  497TMC3    C6 7389   1.537   2.415  16.178  0.4419 -0.0612  0.1031
  497TMC3     C 7390   1.712   2.648  15.897 -0.8803 -0.0529 -0.2163
  497TMC3     O 7391   1.803   2.723  15.937  0.8946 -0.1188  0.5725
  497TMC3     H 7392   1.580   2.426  15.839  2.7882 -0.8881 -0.3452
  497TMC3    H1 7393   1.787   2.650  16.150  2.6757 -1.2565  1.3153
  497TMC3    H2 7394   1.467   2.377  16.252 -0.6015 -0.8630 -1.2898
  497TMC3    C7 7395   1.641   2.554  16.349 -0.2576  0.4307  0.3975
  497TMC3    C8 7396   1.439   2.277  15.998 -0.1421 -0.2687  0.9070
  497TMC3    O1 7397   1.547   2.527  16.423 -0.0865 -0.4493  0.3624
  497TMC3    O2 7398   1.441   2.236  15.882  0.0783  0.1799  0.5744
  498MPD2     C 7399   2.384   3.587   9.388  0.3580 -0.2253  0.1156
  498MPD2    C1 7400   2.352   3.571   9.522  1.1922 -0.5982  0.0816
  498MPD2    C2 7401   2.258   3.487   9.566  0.4115  1.1580 -0.0829
  498MPD2    C3 7402   2.169   3.429   9.476 -0.4834 -0.7125  1.0200
  498MPD2    C4 7403   2.191   3.461   9.340 -0.5374  0.1863  0.2311
  498MPD2    C5 7404   2.295   3.540   9.295 -0.6891 -0.4731 -0.2854
  498MPD2     H 7405   2.238   3.491   9.672  1.0306 -1.2154  0.1189
  498MPD2    H1 7406   2.131   3.416   9.262 -1.3642 -0.2076  1.0941
  498MPD2    H2 7407   2.464   3.647   9.349 -0.3355  0.9357  0.4755
  498MPD2    H3 7408   2.294   3.581   9.195 -0.1710 -0.9422 -0.4792
  498MPD2     N 7409   2.058   3.360   9.530 -0.3641  0.1935  0.4350
  498MPD2    H5 7410   2.052   3.353   9.631 -2.8042 -0.4703  0.2361
  498MPD2    N1 7411   2.442   3.614   9.623 -0.6161  0.1747  0.1180
  498MPD2    H7 7412   2.414   3.604   9.720 -2.1369 -0.8002 -0.4210
  499TMC3    C1 7413   2.658   3.626   9.706  0.3800 -0.6686 -0.0616
  499TMC3    C2 7414   2.644   3.501   9.767 -0.2116 -0.4001  0.7807
  499TMC3    C3 7415   2.757   3.451   9.832  0.2865 -0.2769  0.3694
  499TMC3    C4 7416   2.777   3.700   9.713  0.5466  0.0308 -0.0999
  499TMC3    C5 7417   2.884   3.634   9.774 -0.6536  0.0961  0.0966
  499TMC3    C6 7418   2.879   3.507   9.836 -0.0997 -0.3349  0.1312
  499TMC3     C 7419   2.571   3.664   9.599  0.0907  0.5796  0.2740
  499TMC3     O 7420   2.616   3.716   9.497  0.1362  0.0778 -0.3813
  499TMC3     H 7421   2.561   3.435   9.747 -1.0782  1.2937 -1.2035
  499TMC3    H1 7422   2.782   3.794   9.660  2.8824  1.1484  2.1069
  499TMC3    H2 7423   2.955   3.463   9.899  1.8349  1.2619 -1.1127
  499TMC3    C7 7424   3.013   3.704   9.779  0.4322 -0.0280 -0.1207
  499TMC3    C8 7425   2.748   3.311   9.877  0.7689 -0.0820  0.2603
  499TMC3    O1 7426   3.111   3.628   9.786  0.6600 -0.1126 -0.0209
  499TMC3    O2 7427   2.851   3.245   9.875 -0.2828 -0.1270 -0.0286
  500MPD2     C 7428   4.547   4.446  11.107 -0.5643 -0.3338 -0.1007
  500MPD2    C1 7429   4.602   4.516  11.002 -0.5095  0.1275  0.6050
  500MPD2    C2 7430   4.534   4.526  10.882  0.0777  0.1849 -0.7210
  500MPD2    C3 7431   4.404   4.480  10.870  0.0549 -0.9427 -0.0368
  500MPD2    C4 7432   4.338   4.433  10.981 -0.2533  0.3200 -0.2106
  500MPD2    C5 7433   4.412   4.419  11.096  0.4369  0.8861  0.8130
  500MPD2     H 7434   4.590   4.558  10.795  1.1324  1.7876  0.5475
  500MPD2    H1 7435   4.233   4.410  10.987 -0.0157 -1.4053 -2.7514
  500MPD2    H2 7436   4.612   4.430  11.192 -0.1925 -0.9099 -0.4876
  500MPD2    H3 7437   4.372   4.379  11.188  2.4443  1.1968  1.8131
  500MPD2     N 7438   4.325   4.499  10.754  0.2788 -0.2313 -0.3094
  500MPD2    H5 7439   4.227   4.473  10.768  0.3525  0.7317  2.0639
  500MPD2    N1 7440   0.006   4.583  11.004 -0.2527 -0.1258 -0.3711
  500MPD2    H7 7441   0.034   4.625  10.916 -0.3986  0.7597  0.0001
  501TMC3    C1 7442   0.235   4.607  11.064 -0.5294  0.2128  0.4586
  501TMC3    C2 7443   0.271   4.626  10.931  0.2495  0.0548  0.1906
  501TMC3    C3 7444   0.403   4.648  10.905 -0.4713 -0.4774 -0.3389
  501TMC3    C4 7445   0.327   4.602  11.160  0.6589 -0.2147  0.4026
  501TMC3    C5 7446   0.457   4.643  11.130  1.2053  0.0183  0.1056
  501TMC3    C6 7447   0.493   4.674  11.000 -0.4002 -0.3301  0.1021
  501TMC3     C 7448   0.098   4.572  11.101  0.0570 -0.2466 -0.3036
  501TMC3     O 7449   0.086   4.536  11.215  0.1478 -0.4761  0.5634
  501TMC3     H 7450   0.199   4.618  10.850  0.1679  1.9463  0.0800
  501TMC3    H1 7451   0.295   4.587  11.263  1.9937  1.4208  1.0673
  501TMC3    H2 7452   0.599   4.690  10.981 -0.6574  1.9918  0.5895
  501TMC3    C7 7453   0.552   4.632  11.244  0.1617 -0.0864  0.5662
  501TMC3    C8 7454   0.429   4.689  10.768  0.3422 -0.0495 -0.3764
  501TMC3    O1 7455   0.527   4.584  11.353  0.1763  0.0541  0.2356
  501TMC3    O2 7456   0.539   0.018  10.753  0.8069 -0.1487 -0.8844
  502TMC3    C1 7457   3.379   3.043  15.625  0.5993  0.4539  0.6227
  502TMC3    C2 7458   3.429   3.062  15.503  0.6242 -0.3188 -0.6325
  502TMC3    C3 7459   3.348   3.026  15.401 -0.2979  0.0193  0.6184
  502TMC3    C4 7460   3.252   2.992  15.658 -0.3202  0.0056  0.1352
  502TMC3    C5 7461   3.173   2.968  15.553 -0.5880 -0.4049  0.5057
  502TMC3    C6 7462   3.225   2.974  15.426 -0.0163 -0.7171  0.3845
  502TMC3     C 7463   3.467   3.087  15.739  0.0443  0.3285  0.2274
  502TMC3     O 7464   3.584   3.080  15.708 -0.4065  0.4698 -0.0846
  502TMC3     H 7465   3.525   3.110  15.491 -0.9175  2.7771 -0.5759
  502TMC3    H1 7466   3.231   2.957  15.758 -2.2015  1.0894  0.1136
  502TMC3    H2 7467   3.168   2.933  15.344 -0.6282  1.4715 -0.2874
  502TMC3    C7 7468   3.063   2.876  15.563  0.7229  0.8841 -0.1171
  502TMC3    C8 7469   3.404   3.054  15.265 -0.3501 -0.3160  0.0653
  502TMC3    O1 7470   3.090   2.780  15.628  0.0835 -0.1688  0.6029
  502TMC3    O2 7471   3.508   3.114  15.252  0.0040 -0.4080  0.3897
  503MPD2     C 7472   0.887   3.801  16.727 -0.4527  0.0482  0.3437
  503MPD2    C1 7473   0.928   3.886  16.831  0.0229 -0.3063  0.0386
  503MPD2    C2 7474   1.038   3.849  16.913  0.4051  0.1054  0.3162
  503MPD2    C3 7475   1.114   3.730  16.890 -0.7046  0.6419 -0.3550
  503MPD2    C4 7476   1.076   3.658  16.777 -0.6194 -0.6562  0.8322
  503MPD2    C5 7477   0.957   3.688  16.706 -0.2161  0.3121 -0.3223
  503MPD2     H 7478   1.056   3.918  16.995 -2.4769  1.0839  0.1219
  503MPD2    H1 7479   1.115   3.560  16.755 -0.7316 -0.9076  1.7601
  503MPD2    H2 7480   0.796   3.819  16.670  0.4201 -1.1191 -1.4374
  503MPD2    H3 7481   0.919   3.608  16.642  0.7585  0.1307 -0.6791
  503MPD2     N 7482   1.231   3.703  16.967 -0.1043  0.0954  0.2816
  503MPD2    H5 7483   1.254   3.775  17.035  1.7174  1.1518 -1.4264
  503MPD2    N1 7484   0.870   4.008  16.859  0.1273 -0.5520  0.7333
  503MPD2    H7 7485   0.916   4.057  16.935  0.4214 -0.0422  0.2305
  504TMC3    C1 7486   1.439   3.592  17.023  0.4901 -0.3839 -0.1388
  504TMC3    C2 7487   1.415   3.606  17.156 -0.1571 -0.5516 -0.0338
  504TMC3    C3 7488   1.506   3.549  17.245 -0.1390 -0.0034  1.1633
  504TMC3    C4 7489   1.553   3.541  16.970  0.1532  0.0380 -0.1016
  504TMC3    C5 7490   1.646   3.495  17.062 -0.1045  0.1808  0.2781
  504TMC3    C6 7491   1.629   3.499  17.197  0.2750 -0.2334 -0.4876
  504TMC3     C 7492   1.321   3.601  16.939  0.7752 -0.3859  0.1631
  504TMC3     O 7493   1.308   3.509  16.857 -0.2083 -0.0018 -0.3277
  504TMC3     H 7494   1.329   3.657  17.196  0.6511  0.9856 -0.2563
  504TMC3    H1 7495   1.573   3.555  16.865 -1.0374  0.4281 -0.2711
  504TMC3    H2 7496   1.702   3.459  17.267 -0.8283  0.7388  1.2324
  504TMC3    C7 7497   1.771   3.455  17.003 -0.2017 -0.3626  0.1181
  504TMC3    C8 7498   1.480   3.580  17.388 -0.2722  0.5164 -0.3614
  504TMC3    O1 7499   1.777   3.448  16.884  0.3020  0.3978  0.0830
  504TMC3    O2 7500   1.384   3.650  17.409  0.1094 -0.2237 -0.9014
  505MPD2     C 7501   1.270   2.947  10.382 -0.2278  0.0168  0.7281
  505MPD2    C1 7502   1.293   2.807  10.363  0.1294  0.7548 -0.0800
  505MPD2    C2 7503   1.408   2.750  10.422  0.5769 -0.4519 -0.9219
  505MPD2    C3 7504   1.498   2.822  10.502 -0.2077  0.6429 -0.7691
  505MPD2    C4 7505   1.465   2.959  10.525  0.6392 -0.2868  0.0678
  505MPD2    C5 7506   1.358   3.014  10.464 -0.4250  0.5685 -0.4491
  505MPD2     H 7507   1.425   2.644  10.405  0.4333 -0.6691  0.2635
  505MPD2    H1 7508   1.523   3.033  10.578  0.6011  0.0152 -0.3134
  505MPD2    H2 7509   1.194   3.011  10.338 -0.7386 -1.8289 -1.0811
  505MPD2    H3 7510   1.352   3.122  10.473 -1.6930  0.5724 -1.4648
  505MPD2     N 7511   1.613   2.767  10.567  0.1595  0.4498 -0.2740
  505MPD2    H5 7512   1.669   2.835  10.618 -1.0799  0.5715  0.9453
  505MPD2    N1 7513   1.205   2.741  10.289 -0.1040  0.2458  0.4475
  505MPD2    H7 7514   1.132   2.793  10.242  1.2665  1.5637 -0.2437
  506TMC3    C1 7515   1.120   2.547  10.165 -0.3976 -1.0975 -0.6050
  506TMC3    C2 7516   1.110   2.610  10.042  0.7786 -0.4686 -0.2758
  506TMC3    C3 7517   1.110   2.528   9.931  0.2564  0.2924  0.3914
  506TMC3    C4 7518   1.116   2.412  10.180 -0.1765  0.2527 -0.1410
  506TMC3    C5 7519   1.136   2.328  10.067 -1.0937 -0.2546  0.0307
  506TMC3    C6 7520   1.127   2.395   9.942 -0.2597 -0.4125 -0.5783
  506TMC3     C 7521   1.209   2.603  10.267  0.8033 -0.0422 -0.4947
  506TMC3     O 7522   1.251   2.514  10.341 -0.4206  0.3220 -0.1769
  506TMC3     H 7523   1.084   2.714  10.032  1.0212 -0.1960  1.9052
  506TMC3    H1 7524   1.106   2.369  10.279  0.5202 -1.9388 -1.0225
  506TMC3    H2 7525   1.142   2.342   9.848 -0.6171  0.1755 -0.9703
  506TMC3    C7 7526   1.240   2.226  10.086 -0.4044 -0.0738 -0.1191
  506TMC3    C8 7527   1.088   2.592   9.805 -0.6740  0.0642 -0.6393
  506TMC3    O1 7528   1.263   2.166   9.984  0.4407  0.1166  0.5514
  506TMC3    O2 7529   1.043   2.519   9.716  0.4002  0.2643  0.3093
  507TMC3    C1 7530   1.767   3.386  14.726 -0.8895  0.4550 -0.3257
  507TMC3    C2 7531   1.647   3.342  14.678  0.4215 -0.1002 -0.5353
  507TMC3    C3 7532   1.647   3.300  14.552 -0.0096  0.6184  0.0766
  507TMC3    C4 7533   1.875   3.399  14.643 -0.1318  0.3196 -0.2301
  507TMC3    C5 7534   1.872   3.355  14.517 -0.0420  0.2736  0.8411
  507TMC3    C6 7535   1.757   3.294  14.475  0.2151  1.0086 -0.2281
  507TMC3     C 7536   1.773   3.460  14.851  0.5353 -0.1692 -0.5148
  507TMC3     O 7537   1.870   3.539  14.856 -0.1904 -0.3126 -0.2333
  507TMC3     H 7538   1.556   3.354  14.736  0.5410  1.5305 -0.6843
  507TMC3    H1 7539   1.962   3.450  14.681  0.5867 -1.6326  0.7668
  507TMC3    H2 7540   1.756   3.253  14.375 -1.0099 -1.5199  0.8205
  507TMC3    C7 7541   1.948   3.430  14.416 -1.1955  0.3288  0.2918
  507TMC3    C8 7542   1.518   3.337  14.482  0.0835 -0.5764  0.6655
  507TMC3    O1 7543   1.917   3.396  14.301  0.0863 -0.0510 -0.4997
  507TMC3    O2 7544   1.415   3.312  14.542  0.2336 -0.2112  0.1714
  508MPD2     C 7545   2.782   0.856  15.641 -0.3478 -0.0710  0.2629
  508MPD2    C1 7546   2.738   0.980  15.669 -0.5765 -0.1541 -0.1601
  508MPD2    C2 7547   2.649   1.035  15.581  0.9011  0.1876 -0.1547
  508MPD2    C3 7548   2.611   0.962  15.468  0.9426  0.1717  0.5598
  508MPD2    C4 7549   2.652   0.833  15.448 -0.0659  0.9231  0.1500
  508MPD2    C5 7550   2.737   0.782  15.535 -0.0865  0.5241  0.4022
  508MPD2     H 7551   2.625   1.141  15.587  0.5038  0.2212 -2.2495
  508MPD2    H1 7552   2.635   0.782  15.354  0.9439 -0.8325  0.9210
  508MPD2    H2 7553   2.863   0.823  15.704 -0.8321  0.7066  1.2801
  508MPD2    H3 7554   2.783   0.685  15.520 -1.5805 -0.1722  0.4000
  508MPD2     N 7555   2.549   1.043  15.372  0.5529  0.4977 -0.8204
  508MPD2    H5 7556   2.562   1.143  15.380  1.5651  0.3534 -0.6716
  508MPD2    N1 7557   2.784   1.036  15.790 -0.5198  0.8289  0.1027
  508MPD2    H7 7558   2.847   0.981  15.847  0.8473  0.5143 -1.7173
  509TMC3    C1 7559   2.483   1.258  14.991 -0.3409  0.2074  0.1220
  509TMC3    C2 7560   2.590   1.342  15.020  0.0011 -0.3727 -0.4012
  509TMC3    C3 7561   2.686   1.298  15.108  0.8913  0.4522 -0.3994
  509TMC3    C4 7562   2.467   1.136  15.055  0.2615 -0.6498  0.3332
  509TMC3    C5 7563   2.562   1.096  15.140 -0.2069  0.1856  0.3601
  509TMC3    C6 7564   2.673   1.175  15.167  0.1602  0.3554  0.8246
  509TMC3     C 7565   2.360   1.307  14.923 -0.1382 -0.6418  0.9008
  509TMC3     O 7566   2.278   1.228  14.868  0.2101  0.4337 -1.1416
  509TMC3     H 7567   2.609   1.430  14.960 -2.0600  0.3951  0.0836
  509TMC3    H1 7568   2.373   1.086  15.037  0.3623 -0.9483  0.6535
  509TMC3    H2 7569   2.745   1.142  15.241  0.1268 -2.7224 -0.5405
  509TMC3    C7 7570   2.524   0.996  15.243  0.7988  0.2640 -0.5845
  509TMC3    C8 7571   2.810   1.370  15.126 -0.0407 -0.2999 -0.4541
  509TMC3    O1 7572   2.480   0.885  15.215  0.0904 -0.2477 -0.3623
  509TMC3    O2 7573   2.907   1.298  15.160  0.1198 -0.3108 -0.2328
  510MPD2     C 7574   0.562   2.938  14.032  0.4951  0.0275  0.2475
  510MPD2    C1 7575   0.631   2.874  14.130 -0.4915  0.0039  0.3783
  510MPD2    C2 7576   0.759   2.837  14.107 -1.0713 -0.3164 -0.0008
  510MPD2    C3 7577   0.818   2.890  13.992 -0.1783  0.0801 -0.3946
  510MPD2    C4 7578   0.757   2.969  13.898  0.0391  0.4075 -0.7905
  510MPD2    C5 7579   0.622   3.000  13.923 -0.4252 -0.6091 -0.2813
  510MPD2     H 7580   0.824   2.769  14.161 -0.5716 -0.8372 -1.2589
  510MPD2    H1 7581   0.808   3.010  13.812  1.7814 -0.1940 -0.0449
  510MPD2    H2 7582   0.457   2.958  14.048  0.7962  1.3947  0.5760
  510MPD2    H3 7583   0.574   3.057  13.845  2.7307  1.2626 -0.8761
  510MPD2     N 7584   0.949   2.839  13.977 -0.2365  0.8022 -0.8321
  510MPD2    H5 7585   0.984   2.768  14.040 -3.5757 -0.8874 -0.8971
  510MPD2    N1 7586   0.560   2.824  14.247 -0.5614 -0.4245 -0.1887
  510MPD2    H7 7587   0.459   2.827  14.252 -0.3752  1.9033  2.6270
  511TMC3    C1 7588   0.547   2.747  14.474  0.5021  0.7195 -0.4871
  511TMC3    C2 7589   0.563   2.777  14.603  0.2553 -0.6230 -0.0530
  511TMC3    C3 7590   0.514   2.693  14.697 -0.1942  0.6828  0.4762
  511TMC3    C4 7591   0.492   2.627  14.436 -0.3216 -0.1056  0.2069
  511TMC3    C5 7592   0.434   2.545  14.525  0.5273  0.3398 -0.3027
  511TMC3    C6 7593   0.444   2.576  14.661  0.3858  0.4847  0.1710
  511TMC3     C 7594   0.626   2.811  14.372 -0.7958 -0.2836 -0.2856
  511TMC3     O 7595   0.731   2.858  14.414 -0.1814 -0.2094 -0.4945
  511TMC3     H 7596   0.608   2.873  14.624 -0.6589 -0.3286  0.5612
  511TMC3    H1 7597   0.483   2.600  14.332 -3.0804 -0.9642  0.6534
  511TMC3    H2 7598   0.401   2.511  14.737 -0.7519  1.4758  0.3712
  511TMC3    C7 7599   0.374   2.420  14.471 -0.5798  0.2277  0.2774
  511TMC3    C8 7600   0.516   2.731  14.834 -0.4870  0.4280 -0.0729
  511TMC3    O1 7601   0.384   2.406  14.348 -0.6431 -0.1821 -1.0019
  511TMC3    O2 7602   0.532   2.848  14.866  0.7128  0.5286 -0.0906
  512TMC3    C1 7603   4.196   2.169  12.641  0.5392 -0.4064  0.0889
  512TMC3    C2 7604   4.216   2.128  12.774 -0.1552 -0.4515  0.0792
  512TMC3    C3 7605   4.195   1.999  12.809 -0.7263  0.4659  0.2365
  512TMC3    C4 7606   4.137   2.079  12.557  0.2230  0.2338 -0.0936
  512TMC3    C5 7607   4.109   1.951  12.591 -0.2176 -0.0186 -0.3681
  512TMC3    C6 7608   4.138   1.905  12.720 -0.6682 -0.3962 -0.4795
  512TMC3     C 7609   4.242   2.299  12.602 -0.9172 -0.3984 -0.5109
  512TMC3     O 7610   4.312   2.358  12.684 -0.0028 -1.0199  0.1001
  512TMC3     H 7611   4.258   2.196  12.848 -1.0630  0.1298  0.0605
  512TMC3    H1 7612   4.114   2.107  12.454  2.8851  0.1928 -0.6825
  512TMC3    H2 7613   4.105   1.807  12.753 -1.6214  0.1412  0.1985
  512TMC3    C7 7614   4.065   1.858  12.489 -0.3704  0.2063  0.1456
  512TMC3    C8 7615   4.251   1.947  12.931  0.1939 -0.7613  0.0347
  512TMC3    O1 7616   4.023   1.904  12.382 -0.5569  0.2210 -0.8673
  512TMC3    O2 7617   4.264   1.827  12.927  0.0394 -0.0109 -0.0279
  513MPD2     C 7618   1.127   2.025  12.528 -0.5000 -0.0536 -0.1597
  513MPD2    C1 7619   1.258   2.075  12.516 -0.3639 -0.3676  0.1952
  513MPD2    C2 7620   1.324   2.131  12.626 -0.4151 -0.2987  0.2418
  513MPD2    C3 7621   1.256   2.154  12.747 -0.2152  0.3141  0.3568
  513MPD2    C4 7622   1.127   2.101  12.757 -0.0211 -0.8327 -0.6108
  513MPD2    C5 7623   1.070   2.039  12.656  0.2715 -0.1037  0.1391
  513MPD2     H 7624   1.422   2.177  12.615 -0.3798 -0.5002 -0.3056
  513MPD2    H1 7625   1.074   2.124  12.848 -0.0811  0.1511 -0.8984
  513MPD2    H2 7626   1.064   1.979  12.453  0.3985 -1.1382 -0.2553
  513MPD2    H3 7627   0.968   2.005  12.669  0.1119  1.1736  2.2810
  513MPD2     N 7628   1.323   2.223  12.848 -0.4202  0.2602 -0.8138
  513MPD2    H5 7629   1.413   2.266  12.830  0.0300  0.1860  1.2404
  513MPD2    N1 7630   1.334   2.064  12.399 -0.2215  0.1808 -0.5002
  513MPD2    H7 7631   1.429   2.099  12.413  0.1979 -0.6809 -1.2150
  514TMC3    C1 7632   1.394   2.037  12.179 -0.6768 -0.0913 -0.2775
  514TMC3    C2 7633   1.369   2.136  12.089  0.2186 -0.7538 -0.1824
  514TMC3    C3 7634   1.484   2.205  12.054  0.1024 -0.3863 -0.0119
  514TMC3    C4 7635   1.515   2.009  12.230 -0.2223 -0.5826 -0.3885
  514TMC3    C5 7636   1.619   2.089  12.195 -0.0294 -0.2859  0.2074
  514TMC3    C6 7637   1.607   2.191  12.105 -0.3053 -0.1726 -0.5564
  514TMC3     C 7638   1.287   2.032  12.275  0.8020 -0.0582 -0.8498
  514TMC3     O 7639   1.174   2.012  12.235 -0.1706 -0.9802  0.1408
  514TMC3     H 7640   1.271   2.150  12.045  1.0786  0.2936 -1.7586
  514TMC3    H1 7641   1.528   1.938  12.312 -2.4986  1.1172  1.4671
  514TMC3    H2 7642   1.684   2.267  12.102 -0.0479 -0.3521  1.3583
  514TMC3    C7 7643   1.668   2.147  12.314 -0.8253  0.3484 -0.9148
  514TMC3    C8 7644   1.469   2.311  11.950  0.3636 -0.0278  0.6275
  514TMC3    O1 7645   1.579   2.190  12.381 -0.1114  0.5252 -0.3695
  514TMC3    O2 7646   1.358   2.374  11.955 -0.1900  0.4858  0.3752
  515MPD2     C 7647   0.181   3.676  14.600 -0.1830 -0.1290 -0.5224
  515MPD2    C1 7648   0.065   3.733  14.551 -0.2793  0.6913 -0.0448
  515MPD2    C2 7649   0.044   3.867  14.560  0.6866 -0.6610 -0.3066
  515MPD2    C3 7650   0.134   3.942  14.630 -0.3391 -0.0715  1.0395
  515MPD2    C4 7651   0.244   3.883  14.688 -0.2985  0.3453 -0.0261
  515MPD2    C5 7652   0.268   3.751  14.677 -0.2355 -0.2822 -0.2623
  515MPD2     H 7653   4.690   3.916  14.501  0.3514  0.3639  1.0030
  515MPD2    H1 7654   0.318   3.938  14.747  0.3272 -0.4477 -0.0781
  515MPD2    H2 7655   0.198   3.569  14.599  0.1811 -0.0701 -0.4943
  515MPD2    H3 7656   0.359   3.710  14.721 -1.0266 -2.0672 -0.2793
  515MPD2     N 7657   0.109   4.075  14.663  0.4920 -0.2370 -0.0924
  515MPD2    H5 7658   0.180   4.131  14.708  2.7076 -0.2116 -3.6027
  515MPD2    N1 7659   4.677   3.663  14.492 -0.5385 -0.3451 -0.3918
  515MPD2    H7 7660   4.597   3.722  14.472 -1.6935 -1.9571 -0.5410
  516TMC3    C1 7661   4.548   3.495  14.394 -0.2039 -0.5013 -0.3361
  516TMC3    C2 7662   4.492   3.584  14.307  0.8256 -0.1179  0.1878
  516TMC3    C3 7663   4.376   3.550  14.245 -0.6915 -0.8075 -0.1760
  516TMC3    C4 7664   4.506   3.369  14.399 -0.4482 -0.1845  0.2797
  516TMC3    C5 7665   4.376   3.341  14.347 -0.1118  0.1220  0.5507
  516TMC3    C6 7666   4.308   3.432  14.281  0.2852 -0.2489 -0.2590
  516TMC3     C 7667   4.668   3.529  14.470 -0.2499 -0.5725  0.2791
  516TMC3     O 7668   0.014   3.439  14.517  0.1959 -0.2524  0.0286
  516TMC3     H 7669   4.536   3.682  14.290  0.7614 -0.1599 -0.2098
  516TMC3    H1 7670   4.544   3.298  14.471 -2.1194 -1.6248 -0.2564
  516TMC3    H2 7671   4.218   3.404  14.229  0.6993 -0.4737 -0.8593
  516TMC3    C7 7672   4.294   3.256  14.426  0.2714 -0.3792 -0.0067
  516TMC3    C8 7673   4.311   3.634  14.149 -0.1604 -0.5649  1.0038
  516TMC3    O1 7674   4.344   3.219  14.535 -1.0323  0.7710  0.1757
  516TMC3    O2 7675   4.193   3.623  14.137  0.2149 -0.0242  0.6039
  517MPD2     C 7676   3.911   0.570  17.137 -0.1884 -0.5120  0.5324
  517MPD2    C1 7677   4.037   0.588  17.185  0.4596 -0.0990 -0.3759
  517MPD2    C2 7678   4.062   0.695  17.278 -0.3142 -0.0521 -0.6735
  517MPD2    C3 7679   3.951   0.763  17.328  0.0730  0.5124  0.8414
  517MPD2    C4 7680   3.825   0.731  17.289 -0.4748 -0.3121  0.3412
  517MPD2    C5 7681   3.810   0.633  17.195 -0.2813 -0.2620  0.0408
  517MPD2     H 7682   4.161   0.724  17.310 -0.3156 -0.8086  0.0198
  517MPD2    H1 7683   3.741   0.777  17.340 -1.7323  0.1909 -2.1677
  517MPD2    H2 7684   3.885   0.499  17.059  1.5848 -0.5937  0.0081
  517MPD2    H3 7685   3.707   0.607  17.173 -0.2158  1.5026 -2.3665
  517MPD2     N 7686   3.972   0.879  17.409 -0.5814  0.3220  0.0993
  517MPD2    H5 7687   3.888   0.932  17.428 -1.5788 -1.7381  1.4796
  517MPD2    N1 7688   4.156   0.515  17.146 -0.0307  0.6777  0.4118
  517MPD2    H7 7689   4.240   0.532  17.199 -0.1312  0.1331  0.7339
  518TMC3    C1 7690   4.274   0.334  17.054 -0.3542  0.0363 -0.1267
  518TMC3    C2 7691   4.282   0.231  16.965 -0.0432  0.4121  0.0847
  518TMC3    C3 7692   4.369   0.131  16.991  0.0974  0.3079 -0.0536
  518TMC3    C4 7693   4.349   0.326  17.172 -0.2616 -0.1119  0.7581
  518TMC3    C5 7694   4.444   0.235  17.183 -0.0167  0.3808 -0.2717
  518TMC3    C6 7695   4.467   0.138  17.093 -0.0231  0.0873  0.5629
  518TMC3     C 7696   4.158   0.412  17.047 -0.0572  0.2165 -0.5629
  518TMC3     O 7697   4.065   0.371  16.982  0.0202  0.5502  0.1267
  518TMC3     H 7698   4.200   0.210  16.897 -0.4661 -2.0227  1.3571
  518TMC3    H1 7699   4.327   0.381  17.263  0.4968  1.0338  0.2467
  518TMC3    H2 7700   4.531   0.059  17.131 -0.9406 -0.0672  1.8004
  518TMC3    C7 7701   4.541   0.278  17.280  0.1219  0.1799 -0.2037
  518TMC3    C8 7702   4.367   0.001  16.918  0.0407  0.6625  0.3575
  518TMC3    O1 7703   4.502   0.351  17.375  0.4349 -0.2881  0.3592
  518TMC3    O2 7704   4.429   4.633  16.969 -0.5787 -0.2519  0.1644
  519MPD2     C 7705   1.033   3.960  13.953 -0.3588 -0.0526 -0.7224
  519MPD2    C1 7706   0.908   3.950  13.893  0.1351 -0.0588 -0.4483
  519MPD2    C2 7707   0.852   3.824  13.872  0.2817  0.4527 -0.1395
  519MPD2    C3 7708   0.913   3.712  13.918  0.5594  0.5439  0.2043
  519MPD2    C4 7709   1.031   3.727  13.984  0.2872 -0.0484  0.4172
  519MPD2    C5 7710   1.089   3.848  14.001 -0.2642 -0.3500 -0.4725
  519MPD2     H 7711   0.763   3.824  13.811 -0.4156 -0.9744  0.8860
  519MPD2    H1 7712   1.088   3.640  14.015  2.0086  0.6378 -0.8065
  519MPD2    H2 7713   1.086   4.050  13.981 -0.0742  0.2446 -2.2478
  519MPD2    H3 7714   1.178   3.858  14.061  0.7006 -1.7364 -1.6852
  519MPD2     N 7715   0.871   3.583  13.885 -0.3449 -0.1538  0.4375
  519MPD2    H5 7716   0.921   3.503  13.922  1.0158 -0.8851 -2.9947
  519MPD2    N1 7717   0.854   4.064  13.833  0.9596  0.0544  0.0952
  519MPD2    H7 7718   0.918   4.141  13.816 -2.2759  2.3336 -1.8732
  520TMC3    C1 7719   0.784   3.414  13.758  0.4372  0.3256 -0.1366
  520TMC3    C2 7720   0.708   3.392  13.644 -0.2455 -0.9063  0.0338
  520TMC3    C3 7721   0.768   3.324  13.549  0.2281 -0.7266 -0.0915
  520TMC3    C4 7722   0.906   3.358  13.773  0.0249  0.0747 -0.3230
  520TMC3    C5 7723   0.960   3.279  13.674 -0.2081  0.4942 -0.0840
  520TMC3    C6 7724   0.895   3.266  13.562 -0.1750  0.2895  0.7007
  520TMC3     C 7725   0.768   3.553  13.801  0.2501 -0.0510 -0.2836
  520TMC3     O 7726   0.677   3.623  13.758  0.4838  0.0132  0.1449
  520TMC3     H 7727   0.615   3.446  13.631 -0.2597 -0.9980 -0.2521
  520TMC3    H1 7728   0.960   3.366  13.866 -1.1847 -1.2459  0.5129
  520TMC3    H2 7729   0.942   3.215  13.478 -1.3090  1.7629 -0.8230
  520TMC3    C7 7730   1.095   3.258  13.661 -1.1008 -0.8215  0.1978
  520TMC3    C8 7731   0.775   3.400  13.425  0.1724  0.9535 -0.0925
  520TMC3    O1 7732   1.154   3.269  13.552 -0.0803 -0.7143  0.0875
  520TMC3    O2 7733   0.871   3.392  13.349 -0.5436  0.8760 -0.2774
  521MPD2     C 7734   2.159   1.944  17.330 -0.3354  0.3283  0.6972
  521MPD2    C1 7735   2.121   1.853  17.233 -0.0916  0.6526  0.3039
  521MPD2    C2 7736   2.205   1.857  17.124 -0.1510  0.1465 -0.5064
  521MPD2    C3 7737   2.301   1.952  17.100  0.5811  0.1853 -0.1675
  521MPD2    C4 7738   2.328   2.041  17.200 -0.2951 -0.2633 -0.1199
  521MPD2    C5 7739   2.269   2.021  17.321  0.1419  0.1589 -0.2519
  521MPD2     H 7740   2.205   1.776  17.052 -1.9559 -1.5810  1.4484
  521MPD2    H1 7741   2.390   2.129  17.182  0.3845 -0.2271  2.3788
  521MPD2    H2 7742   2.104   1.942  17.423  0.1490  1.1576  1.0132
  521MPD2    H3 7743   2.299   2.092  17.398  0.6139  3.1180 -3.1932
  521MPD2     N 7744   2.355   1.956  16.971 -0.1472 -1.3517  0.0447
  521MPD2    H5 7745   2.319   1.891  16.902 -2.8473 -0.1297  0.3093
  521MPD2    N1 7746   2.026   1.750  17.248  0.1781  0.2066 -0.5364
  521MPD2    H7 7747   1.991   1.724  17.340 -0.3993  3.2207  0.1030
  522TMC3    C1 7748   2.523   1.982  16.808 -0.5384 -0.0402 -0.2209
  522TMC3    C2 7749   2.658   1.964  16.787  0.2367  0.1787  0.2247
  522TMC3    C3 7750   2.702   1.956  16.653 -0.4058 -0.2571  0.7223
  522TMC3    C4 7751   2.430   2.001  16.712 -0.2978 -0.4059  0.6800
  522TMC3    C5 7752   2.481   2.005  16.587  0.1358  0.1995 -0.5423
  522TMC3    C6 7753   2.617   1.979  16.553  0.6489  0.3488  0.3141
  522TMC3     C 7754   2.475   2.021  16.942  0.9550  0.4259  0.6668
  522TMC3     O 7755   2.559   2.070  17.016 -0.1571 -0.4072  0.2318
  522TMC3     H 7756   2.722   1.951  16.874  1.9548  0.7387 -0.9426
  522TMC3    H1 7757   2.330   2.037  16.731 -0.7945 -0.9431 -0.9172
  522TMC3    H2 7758   2.643   1.993  16.448  0.1242 -1.5857 -0.0795
  522TMC3    C7 7759   2.388   1.994  16.481 -0.5141 -0.0422  0.0838
  522TMC3    C8 7760   2.838   1.909  16.627 -0.1190  0.1910  0.2754
  522TMC3    O1 7761   2.420   2.022  16.369 -0.0154 -0.0368 -0.1404
  522TMC3    O2 7762   2.931   1.937  16.705 -0.5991 -0.2790  0.6942
  523MPD2     C 7763   0.650   1.427  10.037  0.0667  0.5730  0.1754
  523MPD2    C1 7764   0.525   1.375  10.002  0.5851  0.1609  0.3961
  523MPD2    C2 7765   0.420   1.470   9.969 -0.2800 -0.4773 -0.2307
  523MPD2    C3 7766   0.444   1.601   9.978 -0.0122  0.5485  0.0862
  523MPD2    C4 7767   0.562   1.643  10.016  0.4135  0.2882 -0.5336
  523MPD2    C5 7768   0.666   1.558  10.042 -0.1980 -0.3585 -0.2425
  523MPD2     H 7769   0.329   1.436   9.921 -0.9053 -0.3425  0.8531
  523MPD2    H1 7770   0.576   1.750  10.016  1.5203  0.1398 -2.8473
  523MPD2    H2 7771   0.722   1.353  10.070  0.5222  0.7091 -0.5144
  523MPD2    H3 7772   0.760   1.595  10.080 -0.1457 -2.0402  1.2871
  523MPD2     N 7773   0.357   1.706   9.934  0.2979 -0.2241 -0.4716
  523MPD2    H5 7774   0.393   1.801   9.937 -0.6970  0.1346  0.0265
  523MPD2    N1 7775   0.518   1.233   9.994  0.2346  0.0260 -0.0136
  523MPD2    H7 7776   0.602   1.178  10.006 -1.6567 -3.1706 -1.6350
  524TMC3    C1 7777   0.164   1.808   9.866 -0.5111  0.4951  0.0242
  524TMC3    C2 7778   0.243   1.896   9.787  1.0484  0.7858  0.0302
  524TMC3    C3 7779   0.179   2.018   9.763  0.2000 -0.5535  0.3804
  524TMC3    C4 7780   0.045   1.841   9.929  0.2358  0.2341 -0.2141
  524TMC3    C5 7781   4.711   1.965   9.905 -0.3958  1.5718 -0.3563
  524TMC3    C6 7782   0.056   2.051   9.825  1.0374  0.9572 -0.1291
  524TMC3     C 7783   0.223   1.691   9.926 -0.5953  0.9061 -0.0877
  524TMC3     O 7784   0.149   1.599   9.952 -0.0713  0.0108  0.4337
  524TMC3     H 7785   0.336   1.867   9.740  1.2908  2.5389 -0.5475
  524TMC3    H1 7786   4.709   1.769   9.983 -0.5820 -0.4477 -2.0089
  524TMC3    H2 7787   0.031   2.155   9.802 -1.2515  0.2000 -1.0872
  524TMC3    C7 7788   4.577   1.988   9.953 -0.3577 -0.3366 -0.8839
  524TMC3    C8 7789   0.264   2.118   9.713 -0.5402  0.1984  0.3334
  524TMC3    O1 7790   4.531   1.924  10.043  0.0207  0.3867  0.3185
  524TMC3    O2 7791   0.262   2.223   9.778 -0.3454  0.2742  0.0230
  525MPD2     C 7792   2.128   3.010  14.354 -0.0613 -1.1479 -0.0934
  525MPD2    C1 7793   2.248   3.006  14.426 -0.0202 -0.1328  0.8137
  525MPD2    C2 7794   2.346   3.100  14.394 -0.2059 -0.0893  0.8305
  525MPD2    C3 7795   2.315   3.210  14.320 -0.5273 -0.1317  0.1547
  525MPD2    C4 7796   2.183   3.226  14.274 -0.0696 -1.0219 -0.3075
  525MPD2    C5 7797   2.096   3.119  14.280  0.5569  0.2939  0.4953
  525MPD2     H 7798   2.443   3.079  14.439  0.0925 -1.0540 -0.2495
  525MPD2    H1 7799   2.156   3.321  14.229  3.6860 -0.3986 -1.2818
  525MPD2    H2 7800   2.053   2.936  14.377 -0.3906 -0.4003  1.1881
  525MPD2    H3 7801   1.998   3.129  14.235  0.6231  2.6976  0.8831
  525MPD2     N 7802   2.402   3.316  14.291  0.8026 -0.1962  0.7282
  525MPD2    H5 7803   2.363   3.400  14.248  0.8564 -0.4123  0.2526
  525MPD2    N1 7804   2.278   2.907  14.525 -0.3597 -0.0087  0.4410
  525MPD2    H7 7805   2.368   2.916  14.569 -0.7981 -2.0464  1.7467
  526TMC3    C1 7806   2.252   2.727  14.669 -0.7790 -0.2025  0.1730
  526TMC3    C2 7807   2.177   2.700  14.782 -0.0111  0.6396  0.0938
  526TMC3    C3 7808   2.236   2.613  14.875  0.8600  0.2132  0.6679
  526TMC3    C4 7809   2.381   2.692  14.649 -0.2031  0.1420 -0.3130
  526TMC3    C5 7810   2.432   2.615  14.749 -0.2835 -0.6734  0.1617
  526TMC3    C6 7811   2.369   2.584  14.866 -0.3052  0.0689  0.1690
  526TMC3     C 7812   2.196   2.812  14.571  0.4059  0.5867  0.3579
  526TMC3     O 7813   2.077   2.797  14.546 -0.1445  0.4601  0.1180
  526TMC3     H 7814   2.079   2.747  14.789 -0.2036 -0.1149  2.4626
  526TMC3    H1 7815   2.437   2.719  14.560  0.3323 -1.5933 -0.5003
  526TMC3    H2 7816   2.400   2.502  14.930 -2.5635 -0.5943  0.3894
  526TMC3    C7 7817   2.565   2.565  14.744 -0.1590  0.5676 -0.2456
  526TMC3    C8 7818   2.197   2.630  15.010  0.2788  0.2982 -0.2663
  526TMC3    O1 7819   2.614   2.530  14.852  0.6057  0.0412  0.7236
  526TMC3    O2 7820   2.282   2.668  15.089  0.3905  0.2260  0.1669
  527MPD2     C 7821   4.565   1.096   0.679 -0.0911 -0.2511 -0.1061
  527MPD2    C1 7822   4.629   1.039   0.795  0.2237 -0.0770 -0.6642
  527MPD2    C2 7823   0.039   0.998   0.789  0.6439 -0.0567 -0.3052
  527MPD2    C3 7824   0.111   1.001   0.672  0.4249  0.2733  0.0590
  527MPD2    C4 7825   0.052   1.061   0.562 -0.1559  0.1053 -0.2536
  527MPD2    C5 7826   4.642   1.098   0.572  0.1061 -0.0106  0.2549
  527MPD2     H 7827   0.093   0.970   0.878 -0.0910  0.1706  0.2181
  527MPD2    H1 7828   0.100   1.055   0.465  0.0222  1.5603 -0.2626
  527MPD2    H2 7829   4.461   1.127   0.677 -0.2674 -0.6876  2.2245
  527MPD2    H3 7830   4.590   1.123   0.481  0.8979 -0.9157 -0.4466
  527MPD2     N 7831   0.242   0.946   0.661  0.1560  0.1548 -1.1384
  527MPD2    H5 7832   0.276   0.896   0.742 -0.9104 -0.2842 -0.9570
  527MPD2    N1 7833   4.559   1.033   0.920 -1.1187  0.1170  0.7678
  527MPD2    H7 7834   4.610   1.000   1.001  1.6135 -1.1176 -1.4370
  528TMC3    C1 7835   4.389   1.056   1.078  0.0812  0.1674 -0.3923
  528TMC3    C2 7836   4.472   1.015   1.185  0.3107 -0.9974  0.4772
  528TMC3    C3 7837   4.425   1.012   1.309  0.6660  0.0725  0.2483
  528TMC3    C4 7838   4.256   1.059   1.100 -1.0385  0.3052 -0.1177
  528TMC3    C5 7839   4.211   1.040   1.227 -0.1219  0.0322 -0.1853
  528TMC3    C6 7840   4.295   1.026   1.338 -0.2293 -0.1606  0.3146
  528TMC3     C 7841   4.434   1.070   0.944  0.4085  0.2911 -0.0482
  528TMC3     O 7842   4.345   1.104   0.862  0.3634 -0.0888  0.5055
  528TMC3     H 7843   4.579   1.007   1.173  0.5815  0.9052  1.6107
  528TMC3    H1 7844   4.190   1.076   1.016 -0.0840 -2.8588 -1.5206
  528TMC3    H2 7845   4.272   1.037   1.443  2.3310 -2.5259  1.1243
  528TMC3    C7 7846   4.073   1.029   1.269  0.0525  0.0596  0.1271
  528TMC3    C8 7847   4.513   1.028   1.426  0.0068  0.3107  0.0154
  528TMC3    O1 7848   4.054   0.977   1.377 -0.6753 -0.0492  0.8151
  528TMC3    O2 7849   4.606   1.105   1.403  0.0141  0.2583 -0.3535
  529MPD2     C 7850   3.575   4.253   0.392  0.7214 -0.2644 -0.4065
  529MPD2    C1 7851   3.448   4.305   0.398 -0.4440 -0.2842 -0.2151
  529MPD2    C2 7852   3.380   4.347   0.290 -0.5240  0.1777  0.3734
  529MPD2    C3 7853   3.440   4.342   0.163 -1.1358 -0.8039  0.2117
  529MPD2    C4 7854   3.566   4.286   0.157  0.0546 -0.3939  0.2098
  529MPD2    C5 7855   3.629   4.238   0.269 -0.6290 -0.7265 -0.0993
  529MPD2     H 7856   3.282   4.389   0.304 -0.5105 -0.0981  1.2930
  529MPD2    H1 7857   3.625   4.268   0.068 -0.4208 -2.8725  0.3844
  529MPD2    H2 7858   3.639   4.217   0.472 -0.0966 -0.2159  0.2760
  529MPD2    H3 7859   3.725   4.190   0.253  1.5461  3.2121  1.0325
  529MPD2     N 7860   3.379   4.384   0.039 -0.0715  0.4187  0.1611
  529MPD2    H5 7861   3.433   4.369  17.647 -0.8763  2.4368 -0.6906
  529MPD2    N1 7862   3.380   4.312   0.520  0.8300  0.7368 -0.4079
  529MPD2    H7 7863   3.280   4.323   0.527  0.8003 -0.7281  1.2913
  530TMC3    C1 7864   3.363   4.362   0.750 -0.4715 -0.0408 -0.2949
  530TMC3    C2 7865   3.409   4.367   0.880  0.3583 -0.2141  0.1183
  530TMC3    C3 7866   3.350   4.446   0.973  0.2505 -0.7117  0.0383
  530TMC3    C4 7867   3.255   4.437   0.716 -0.2856 -0.0056 -0.0690
  530TMC3    C5 7868   3.196   4.518   0.809 -0.5159  0.0930  0.1743
  530TMC3    C6 7869   3.248   4.524   0.935 -0.6588  0.3718 -0.1642
  530TMC3     C 7870   3.440   4.299   0.644 -0.1795 -0.5893  1.0243
  530TMC3     O 7871   3.547   4.248   0.675 -0.8365 -0.1895 -0.3158
  530TMC3     H 7872   3.499   4.314   0.908  0.4630 -0.1457 -0.0855
  530TMC3    H1 7873   3.228   4.455   0.613 -1.2288 -0.3037  0.1271
  530TMC3    H2 7874   3.203   4.592   1.007 -3.3933 -1.4656 -0.1516
  530TMC3    C7 7875   3.088   4.600   0.772 -0.3615 -1.0488  0.1949
  530TMC3    C8 7876   3.384   4.436   1.118  0.4272  0.8165 -0.5304
  530TMC3    O1 7877   3.018   4.557   0.679 -0.3129 -0.5503 -0.3933
  530TMC3    O2 7878   3.320   4.515   1.183  0.1424 -0.5602 -0.2121
  531MPD2     C 7879   1.982   2.163  12.726  0.4934  0.0293 -0.3918
  531MPD2    C1 7880   1.852   2.207  12.716 -0.0585  0.2357  0.2177
  531MPD2    C2 7881   1.792   2.204  12.586 -0.4882  0.9535  0.0158
  531MPD2    C3 7882   1.858   2.152  12.474  1.0789  0.2400  0.3600
  531MPD2    C4 7883   1.989   2.113  12.488 -0.2571 -0.5271 -0.0800
  531MPD2    C5 7884   2.048   2.123  12.615 -0.1869  0.1854  0.5991
  531MPD2     H 7885   1.699   2.258  12.572 -1.6302 -0.7732  0.8049
  531MPD2    H1 7886   2.038   2.069  12.402 -0.5933 -1.9412  0.4489
  531MPD2    H2 7887   2.034   2.156  12.821 -0.6672 -0.0637  0.2444
  531MPD2    H3 7888   2.149   2.090  12.637  0.5826 -0.2952 -3.5459
  531MPD2     N 7889   1.793   2.116  12.356 -0.2736  0.6372  0.4083
  531MPD2    H5 7890   1.855   2.075  12.286  0.4391  0.1360  1.3376
  531MPD2    N1 7891   1.797   2.264  12.829 -0.5873 -0.2896 -0.3811
  531MPD2    H7 7892   1.859   2.267  12.910 -1.9206 -2.6969  0.7172
  532TMC3    C1 7893   1.614   2.348  12.978 -0.2665 -0.3973 -0.5159
  532TMC3    C2 7894   1.484   2.374  12.963  0.2903  0.2741  0.0250
  532TMC3    C3 7895   1.393   2.318  13.047 -0.1920  0.3727 -0.0426
  532TMC3    C4 7896   1.659   2.271  13.085  0.4047 -0.2467  0.2242
  532TMC3    C5 7897   1.566   2.227  13.178 -0.1728 -0.5883  0.5534
  532TMC3    C6 7898   1.436   2.251  13.155  0.5932 -0.2418 -0.5417
  532TMC3     C 7899   1.669   2.323  12.843 -0.4598  0.3275 -0.0329
  532TMC3     O 7900   1.587   2.354  12.756 -0.4850 -0.2936 -0.2303
  532TMC3     H 7901   1.450   2.445  12.888  2.7254 -0.7725 -2.0672
  532TMC3    H1 7902   1.764   2.251  13.103  0.9544  1.9449 -0.6068
  532TMC3    H2 7903   1.366   2.208  13.225  0.2067 -0.4409 -1.0591
  532TMC3    C7 7904   1.600   2.200  13.316 -0.4248  0.3230 -0.2168
  532TMC3    C8 7905   1.281   2.252  12.978  0.8845 -0.7460  0.0345
  532TMC3    O1 7906   1.528   2.234  13.406 -0.1857  0.1712  0.4135
  532TMC3    O2 7907   1.180   2.219  13.037 -0.1782 -0.0858  0.7623
  533TMC3    C1 7908   2.584   3.431  14.352 -0.0858  0.3370  0.1134
  533TMC3    C2 7909   2.723   3.428  14.362  0.1655  0.2844 -1.2192
  533TMC3    C3 7910   2.781   3.503  14.459  0.9864 -0.1464  0.4817
  533TMC3    C4 7911   2.512   3.506  14.444 -0.1447 -0.1747 -0.0017
  533TMC3    C5 7912   2.576   3.564  14.549  0.3157  0.7994  0.1880
  533TMC3    C6 7913   2.714   3.571  14.557  0.4264 -0.0419  0.6357
  533TMC3     C 7914   2.530   3.305  14.338  0.2657 -1.2191 -0.1584
  533TMC3     O 7915   2.612   3.214  14.343 -0.8329 -0.2234  0.8452
  533TMC3     H 7916   2.781   3.370  14.292 -0.0354 -0.3027 -0.8929
  533TMC3    H1 7917   2.406   3.490  14.458 -0.2727  1.2947  0.7256
  533TMC3    H2 7918   2.771   3.624  14.632  1.8737 -1.0779  0.2464
  533TMC3    C7 7919   2.503   3.565  14.680 -0.7695 -0.3321  0.4290
  533TMC3    C8 7920   2.925   3.504  14.454 -0.1586 -0.0523  0.1505
  533TMC3    O1 7921   2.401   3.490  14.691 -0.1602 -0.2286 -0.9184
  533TMC3    O2 7922   2.981   3.526  14.561 -0.1688 -1.0701 -0.0588
  534MPD2     C 7923   0.855   0.255   1.643  0.0520 -0.1318  0.3316
  534MPD2    C1 7924   0.749   0.286   1.554  0.1145  0.4655  0.9047
  534MPD2    C2 7925   0.678   0.182   1.499 -0.4380 -0.0695 -0.1815
  534MPD2    C3 7926   0.697   0.056   1.541 -0.0706  0.6201  0.3117
  534MPD2    C4 7927   0.799   0.022   1.627  0.6887 -0.3531 -0.1091
  534MPD2    C5 7928   0.885   0.124   1.668  0.3737  0.0199 -0.2297
  534MPD2     H 7929   0.595   0.211   1.436  0.3969  2.5507 -0.0673
  534MPD2    H1 7930   0.824   4.641   1.649  2.8021  0.0202 -0.7753
  534MPD2    H2 7931   0.924   0.330   1.678 -0.1846  0.6035 -0.7953
  534MPD2    H3 7932   0.967   0.102   1.735  0.1146  0.5996  0.2732
  534MPD2     N 7933   0.608   4.677   1.498 -0.2626  0.1179 -0.4239
  534MPD2    H5 7934   0.554   4.687   1.412 -1.0584  0.6207  0.1298
  534MPD2    N1 7935   0.710   0.419   1.531 -0.4656 -0.5211  0.1812
  534MPD2    H7 7936   0.633   0.426   1.466 -0.6444 -2.3376  0.1847
  535TMC3    C1 7937   0.477   4.494   1.488  1.0562 -0.1358  1.1269
  535TMC3    C2 7938   0.358   4.485   1.543  0.3281 -0.0487  0.0667
  535TMC3    C3 7939   0.245   4.493   1.458  0.3744  0.7209  1.0128
  535TMC3    C4 7940   0.492   4.505   1.353  0.6088  0.2819 -0.1659
  535TMC3    C5 7941   0.383   4.512   1.272 -0.2710  0.3633  0.6335
  535TMC3    C6 7942   0.259   4.506   1.325 -0.2751 -0.1620 -0.1678
  535TMC3     C 7943   0.574   4.560   1.562  0.0852 -0.5052  0.0783
  535TMC3     O 7944   0.620   4.515   1.673 -0.0201  0.0701  0.1949
  535TMC3     H 7945   0.355   4.484   1.651 -1.8405  0.2556  0.0131
  535TMC3    H1 7946   0.593   4.516   1.315  1.9956  0.3005  3.5396
  535TMC3    H2 7947   0.171   4.494   1.262  2.0252 -3.7798 -2.6890
  535TMC3    C7 7948   0.408   4.559   1.133  0.0363  0.0967 -0.1156
  535TMC3    C8 7949   0.110   4.505   1.511 -0.1573  0.3937  0.4706
  535TMC3    O1 7950   0.519   4.540   1.089 -0.0980 -0.2391 -0.2128
  535TMC3    O2 7951   0.024   4.542   1.439  0.5401 -0.2671  0.1163
  536MPD2     C 7952   3.371   3.267  17.321  0.6004  0.7849 -0.4615
  536MPD2    C1 7953   3.472   3.260  17.222  0.0979  0.0742  0.3154
  536MPD2    C2 7954   3.432   3.278  17.089  0.2399 -0.6244 -0.1038
  536MPD2    C3 7955   3.302   3.319  17.063 -0.4149 -0.1635  0.3038
  536MPD2    C4 7956   3.215   3.340  17.170  0.7511 -0.5347  0.4561
  536MPD2    C5 7957   3.251   3.313  17.292  0.2864  0.2015 -0.1980
  536MPD2     H 7958   3.501   3.266  17.007  1.0098 -1.6515  0.6891
  536MPD2    H1 7959   3.113   3.368  17.145  0.9669  0.5259  0.7595
  536MPD2    H2 7960   3.396   3.247  17.425 -1.3489 -0.1006 -0.1623
  536MPD2    H3 7961   3.187   3.324  17.379  0.3949  1.2065 -0.2437
  536MPD2     N 7962   3.249   3.335  16.931 -0.4728 -0.0208  0.2553
  536MPD2    H5 7963   3.152   3.363  16.934 -0.1666  1.0957  0.1349
  536MPD2    N1 7964   3.598   3.223  17.262  0.2458  0.5211 -0.0595
  536MPD2    H7 7965   3.616   3.180  17.353 -1.2468 -1.3206 -0.6267
  537TMC3    C1 7966   3.820   3.159  17.232  0.0823  0.2224  0.0747
  537TMC3    C2 7967   3.945   3.204  17.195 -0.3183  0.5704  0.0726
  537TMC3    C3 7968   4.063   3.152  17.246 -0.1547 -0.7073  0.2692
  537TMC3    C4 7969   3.821   3.053  17.318 -0.5975 -0.9072  0.4842
  537TMC3    C5 7970   3.936   3.020  17.379  0.2721 -0.1662 -0.1977
  537TMC3    C6 7971   4.060   3.073  17.360  0.4620 -0.2312 -1.3485
  537TMC3     C 7972   3.703   3.224  17.179 -0.0931 -0.4507 -0.8619
  537TMC3     O 7973   3.722   3.285  17.075 -0.1254  0.2974  0.3667
  537TMC3     H 7974   3.951   3.299  17.143  2.5501 -0.1596 -0.9202
  537TMC3    H1 7975   3.728   3.000  17.336 -0.8295 -1.7306 -3.1717
  537TMC3    H2 7976   4.144   3.029  17.412 -0.3547 -0.1573  0.0278
  537TMC3    C7 7977   3.937   2.920  17.489 -0.0756  0.0028  0.1375
  537TMC3    C8 7978   4.178   3.227  17.223 -0.5407  0.2523  0.0551
  537TMC3    O1 7979   4.007   2.947  17.586 -0.1668  0.1972  0.4280
  537TMC3    O2 7980   4.251   3.246  17.317  0.4742  0.1260 -0.3173
  538TMC3    C1 7981   0.976   1.240  10.812  0.4117  0.3735 -0.1938
  538TMC3    C2 7982   1.017   1.169  10.700  0.0646  0.0174  0.2342
  538TMC3    C3 7983   0.927   1.139  10.607  0.7567 -0.1502  0.2776
  538TMC3    C4 7984   0.858   1.291  10.826 -0.3875  0.2439 -0.0884
  538TMC3    C5 7985   0.769   1.270  10.724  0.0385 -0.0506  0.5314
  538TMC3    C6 7986   0.802   1.192  10.616 -0.5705 -0.3561  0.5574
  538TMC3     C 7987   1.065   1.257  10.922  0.6740 -0.1767 -0.0697
  538TMC3     O 7988   1.024   1.319  11.014 -0.1078 -0.2988  0.2308
  538TMC3     H 7989   1.121   1.149  10.674 -0.1136 -3.2983  2.0729
  538TMC3    H1 7990   0.828   1.353  10.910 -2.0717  0.8678 -1.1486
  538TMC3    H2 7991   0.730   1.160  10.541 -0.0908  0.0791 -0.0854
  538TMC3    C7 7992   0.656   1.350  10.689  0.3319 -0.0768 -0.4581
  538TMC3    C8 7993   0.975   1.096  10.475 -0.7223  0.4402 -0.7210
  538TMC3    O1 7994   0.589   1.328  10.587 -0.3304 -0.0468  0.8977
  538TMC3    O2 7995   0.938   1.156  10.377  0.0440  0.2869 -0.2702
  539MPD2     C 7996   0.492   0.947  11.666 -0.8084  0.6049 -0.4276
  539MPD2    C1 7997   0.490   0.865  11.554  0.2786  0.2579 -0.1716
  539MPD2    C2 7998   0.363   0.850  11.488 -0.1246  0.1015  0.8221
  539MPD2    C3 7999   0.249   0.918  11.538  0.3016 -0.5063  0.8665
  539MPD2    C4 8000   0.254   1.008  11.650  0.0696  0.1129  0.4802
  539MPD2    C5 8001   0.378   1.024  11.703 -0.3425 -0.6319 -0.2794
  539MPD2     H 8002   0.351   0.788  11.401  0.0414  0.2154  0.7172
  539MPD2    H1 8003   0.162   1.053  11.683 -0.4987  0.2739 -1.3514
  539MPD2    H2 8004   0.577   0.971  11.729 -0.4659 -0.7185 -0.3855
  539MPD2    H3 8005   0.394   1.080  11.794 -1.1031  1.8627 -1.6682
  539MPD2     N 8006   0.112   0.902  11.486 -0.0407  0.4147 -0.3258
  539MPD2    H5 8007   0.042   0.928  11.554 -0.0003 -1.9233  0.6040
  539MPD2    N1 8008   0.604   0.796  11.514  0.1018 -0.1533  0.0076
  539MPD2    H7 8009   0.597   0.727  11.440 -1.5071 -2.4346  2.2725
  540TMC3    C1 8010   4.666   0.817  11.343 -0.1997 -0.6772  0.4166
  540TMC3    C2 8011   4.621   0.807  11.214  0.3540  0.2105  0.0053
  540TMC3    C3 8012   4.488   0.775  11.202 -0.1367  0.5140  0.3950
  540TMC3    C4 8013   4.591   0.777  11.453  0.3786  0.6338  0.1568
  540TMC3    C5 8014   4.457   0.749  11.436 -0.5196  0.3083  0.2419
  540TMC3    C6 8015   4.407   0.750  11.310 -0.4374  0.3315  0.0712
  540TMC3     C 8016   0.081   0.853  11.362 -0.1964  0.5546 -0.8872
  540TMC3     O 8017   0.161   0.854  11.267  0.8742  0.5909 -0.8596
  540TMC3     H 8018   4.680   0.852  11.136  0.6755 -0.9872 -0.4398
  540TMC3    H1 8019   4.631   0.770  11.554  0.6535 -0.9782 -0.0596
  540TMC3    H2 8020   4.301   0.741  11.289 -0.0045 -0.3277 -1.7474
  540TMC3    C7 8021   4.360   0.727  11.550  0.0540 -0.2782 -0.1310
  540TMC3    C8 8022   4.434   0.733  11.070 -0.2130  0.2958  0.6315
  540TMC3    O1 8023   4.248   0.698  11.516 -0.8074  0.9442  0.4088
  540TMC3    O2 8024   4.318   0.700  11.061 -0.5207 -0.2281  0.2336
  541MPD2     C 8025   3.173   2.390  13.128 -0.3678  0.5766 -0.0711
  541MPD2    C1 8026   3.222   2.278  13.066 -0.3512 -0.6293  0.2903
  541MPD2    C2 8027   3.304   2.282  12.953 -0.3335  0.0830 -0.4915
  541MPD2    C3 8028   3.329   2.408  12.892  0.7552 -0.2643 -0.4335
  541MPD2    C4 8029   3.275   2.520  12.955  0.6581 -0.8546 -0.8609
  541MPD2    C5 8030   3.202   2.516  13.075  0.1943  0.2503 -0.1887
  541MPD2     H 8031   3.347   2.191  12.914 -0.3067 -0.0072 -0.2525
  541MPD2    H1 8032   3.283   2.615  12.903  1.1173 -0.6028 -0.3401
  541MPD2    H2 8033   3.121   2.384  13.223  2.2645  0.6974  1.3718
  541MPD2    H3 8034   3.165   2.604  13.127 -1.9834 -0.5141 -0.4574
  541MPD2     N 8035   3.404   2.418  12.772  0.0803  0.2285 -0.5877
  541MPD2    H5 8036   3.430   2.512  12.743 -0.5330  1.3611  2.5746
  541MPD2    N1 8037   3.181   2.144  13.112 -0.1461 -0.3229  0.0996
  541MPD2    H7 8038   3.223   2.073  13.052 -0.3894 -1.1050  0.8637
  542TMC3    C1 8039   3.464   2.361  12.567 -0.2018 -0.3374 -0.6760
  542TMC3    C2 8040   3.380   2.334  12.457  0.0961 -0.1469  0.1300
  542TMC3    C3 8041   3.327   2.439  12.388  0.7187 -0.2080 -0.3051
  542TMC3    C4 8042   3.509   2.482  12.586  0.1015  0.3039 -0.5585
  542TMC3    C5 8043   3.457   2.583  12.514 -0.2110 -0.4999  0.0784
  542TMC3    C6 8044   3.364   2.562  12.407 -0.2043  0.0961  0.1726
  542TMC3     C 8045   3.419   2.307  12.683  0.9569  0.1638  0.3493
  542TMC3     O 8046   3.365   2.194  12.668  0.0170  0.4329 -0.4812
  542TMC3     H 8047   3.351   2.231  12.439  1.5077 -0.2555 -1.5724
  542TMC3    H1 8048   3.588   2.499  12.660  0.4625  0.7314 -1.0444
  542TMC3    H2 8049   3.331   2.643  12.342  1.4285  0.2353 -0.4895
  542TMC3    C7 8050   3.448   2.697  12.594 -0.0396  0.4770  0.2826
  542TMC3    C8 8051   3.276   2.399  12.260 -0.1848 -0.3422  0.1046
  542TMC3    O1 8052   3.462   2.679  12.716  0.3697 -0.0760 -0.2888
  542TMC3    O2 8053   3.314   2.289  12.228 -0.2667  0.2978 -0.6108
  543TMC3    C1 8054   2.913   3.301   0.000  0.8712  0.3013  0.7262
  543TMC3    C2 8055   3.029   3.240  17.650  0.1137 -0.3986  0.0136
  543TMC3    C3 8056   3.110   3.186   0.049 -0.8371  0.5571  0.1531
  543TMC3    C4 8057   2.879   3.294   0.134 -0.1167 -0.5321 -0.1666
  543TMC3    C5 8058   2.958   3.224   0.217  0.4237 -0.6425 -0.5878
  543TMC3    C6 8059   3.078   3.175   0.181  0.5789  0.5830 -0.2460
  543TMC3     C 8060   2.824   3.362  17.602 -0.3073 -0.5851 -0.2658
  543TMC3     O 8061   2.874   3.385  17.494  0.2660  1.2710 -0.2057
  543TMC3     H 8062   3.048   3.235  17.543  2.7084 -0.2914  0.4722
  543TMC3    H1 8063   2.789   3.341   0.172 -1.0053 -2.2162 -0.1929
  543TMC3    H2 8064   3.133   3.103   0.242  0.2155 -0.4880 -1.1730
  543TMC3    C7 8065   2.902   3.197   0.348  0.1957  0.3321 -0.0716
  543TMC3    C8 8066   3.233   3.133  17.689 -0.1249 -0.4017  0.4636
  543TMC3    O1 8067   2.780   3.207   0.356 -0.1181  0.7999  0.3263
  543TMC3    O2 8068   3.236   3.099  17.567 -0.0508 -0.4467 -0.0245
  544MPD2     C 8069   3.654   2.866   0.098 -0.2230  0.1260  0.1147
  544MPD2    C1 8070   3.578   2.861  17.679  0.3493 -0.9265  0.3160
  544MPD2    C2 8071   3.472   2.953  17.671  0.5362  1.1178 -0.4762
  544MPD2    C3 8072   3.442   3.036   0.088  0.9600 -0.1819  0.2501
  544MPD2    C4 8073   3.522   3.033   0.196  0.4351  0.6214 -0.3178
  544MPD2    C5 8074   3.640   2.966   0.188 -0.9273 -0.5503 -0.0784
  544MPD2     H 8075   3.403   2.947  17.587  0.7983  0.2535 -0.6276
  544MPD2    H1 8076   3.494   3.094   0.281 -2.7823 -0.2430 -0.7460
  544MPD2    H2 8077   3.730   2.790   0.115  0.6924  0.9942 -0.1220
  544MPD2    H3 8078   3.715   2.977   0.266 -0.0320 -0.9235 -0.8876
  544MPD2     N 8079   3.324   3.113   0.098 -0.1158  0.1494  0.0383
  544MPD2    H5 8080   3.312   3.151   0.192  1.4185  0.4607  0.1096
  544MPD2    N1 8081   3.604   2.762  17.584  0.1630  0.4141 -0.2451
  544MPD2    H7 8082   3.673   2.691  17.604 -1.2363 -0.1891  2.2887
  545TMC3    C1 8083   3.569   2.630  17.391  0.3903  0.1791  0.4782
  545TMC3    C2 8084   3.564   2.629  17.256 -0.1030 -0.3702  0.2588
  545TMC3    C3 8085   3.549   2.500  17.206 -0.0200 -0.4696  0.3007
  545TMC3    C4 8086   3.585   2.519  17.469  0.3974 -0.9616 -0.0230
  545TMC3    C5 8087   3.588   2.403  17.408 -0.1575 -1.0956 -0.1216
  545TMC3    C6 8088   3.561   2.386  17.272  0.1357 -0.2548  0.1030
  545TMC3     C 8089   3.544   2.756  17.461  0.3408  0.1213 -0.1179
  545TMC3     O 8090   3.482   2.838  17.393 -0.2158 -0.3354  0.3577
  545TMC3     H 8091   3.559   2.714  17.190  0.7411 -1.9919 -1.9135
  545TMC3    H1 8092   3.566   2.536  17.575 -0.3606  2.6845 -0.7437
  545TMC3    H2 8093   3.544   2.287  17.230 -2.2373  2.2333 -4.8602
  545TMC3    C7 8094   3.597   2.283  17.488 -0.1072 -0.8795  0.5630
  545TMC3    C8 8095   3.522   2.487  17.062 -0.7862  0.1210 -0.0303
  545TMC3    O1 8096   3.534   2.185  17.452  0.1915  0.1340 -0.2102
  545TMC3    O2 8097   3.561   2.388  17.006 -0.1668  0.3742  0.7137
  546MPD2     C 8098   3.955   3.406  16.807  0.1822 -0.1115 -0.7799
  546MPD2    C1 8099   3.942   3.530  16.858  0.7183  0.1827  0.0549
  546MPD2    C2 8100   4.009   3.636  16.807  0.4064  0.4820 -0.5304
  546MPD2    C3 8101   4.114   3.598  16.721 -0.5164 -0.8486  0.3763
  546MPD2    C4 8102   4.137   3.469  16.681  0.1495  0.1391 -0.6322
  546MPD2    C5 8103   4.050   3.369  16.717 -0.2301  0.9174  0.2609
  546MPD2     H 8104   3.995   3.735  16.848 -2.4524 -0.9122  1.8436
  546MPD2    H1 8105   4.213   3.439  16.610 -0.0172 -0.1871 -0.6708
  546MPD2    H2 8106   3.878   3.334  16.834 -2.5571  2.7028 -1.1495
  546MPD2    H3 8107   4.056   3.270  16.673  0.5065  1.7047 -1.4043
  546MPD2     N 8108   4.221   3.687  16.689  0.8577  0.0236 -0.2937
  546MPD2    H5 8109   4.285   3.655  16.618 -0.0915 -1.8961 -0.2883
  546MPD2    N1 8110   3.835   3.546  16.956  0.5308  0.4467 -0.2279
  546MPD2    H7 8111   3.801   3.457  16.993  0.3426 -0.2303 -2.0126
  547TMC3    C1 8112   3.661   3.658  17.067 -0.1518  0.5451 -0.2633
  547TMC3    C2 8113   3.550   3.730  17.042  0.0782 -0.3712  0.0504
  547TMC3    C3 8114   3.443   3.724  17.126  0.0665 -0.1464  0.5124
  547TMC3    C4 8115   3.683   3.599  17.186 -0.1452 -0.1033 -0.3480
  547TMC3    C5 8116   3.573   3.603  17.269 -0.5621  0.5761 -0.0902
  547TMC3    C6 8117   3.449   3.654  17.240 -0.0222 -0.0044 -0.0288
  547TMC3     C 8118   3.766   3.663  16.968 -0.3855 -0.2205 -0.2746
  547TMC3     O 8119   3.766   3.760  16.895 -0.4965 -0.0772 -0.4498
  547TMC3     H 8120   3.537   3.762  16.939 -2.4023  1.7843  1.0240
  547TMC3    H1 8121   3.783   3.568  17.212 -1.4040 -2.6446  1.4310
  547TMC3    H2 8122   3.371   3.637  17.312 -1.4291 -0.3185 -1.6276
  547TMC3    C7 8123   3.585   3.550  17.400 -0.3742  0.2586  0.0184
  547TMC3    C8 8124   3.313   3.767  17.082 -0.2405  0.2691 -0.9239
  547TMC3    O1 8125   3.502   3.587  17.480 -0.6299  0.1210 -0.4908
  547TMC3    O2 8126   3.210   3.731  17.142  0.0675  0.2174 -0.5215
  548MPD2     C 8127   3.968   3.885  12.118  0.7673 -0.5904 -0.1028
  548MPD2    C1 8128   3.952   3.776  12.202  0.6902 -0.4922 -1.0904
  548MPD2    C2 8129   4.045   3.673  12.192 -0.2940 -0.2007  0.8207
  548MPD2    C3 8130   4.164   3.688  12.117 -0.1681  0.5119 -0.0822
  548MPD2    C4 8131   4.186   3.806  12.049 -0.0056 -0.2393  0.1988
  548MPD2    C5 8132   4.093   3.906  12.056  0.0905  0.3640 -0.4010
  548MPD2     H 8133   4.031   3.585  12.253  0.7072 -0.2607  0.9629
  548MPD2    H1 8134   4.273   3.830  11.989 -0.2979 -1.1370 -0.5827
  548MPD2    H2 8135   3.903   3.970  12.132 -1.7998 -2.6327  0.3773
  548MPD2    H3 8136   4.115   4.000  12.008  1.8808 -0.5116 -1.2913
  548MPD2     N 8137   4.257   3.583  12.116 -0.3472  0.5221  0.1929
  548MPD2    H5 8138   4.239   3.507  12.182 -0.5354 -0.7955 -1.3819
  548MPD2    N1 8139   3.839   3.777  12.290  0.2995  0.2817  0.2912
  548MPD2    H7 8140   3.777   3.858  12.288  0.6477  0.5494  0.4440
  549TMC3    C1 8141   3.723   3.729  12.487 -0.3494  0.5932 -0.2487
  549TMC3    C2 8142   3.619   3.814  12.458 -0.9064 -0.0563  0.0246
  549TMC3    C3 8143   3.520   3.826  12.541 -0.0599 -0.4950 -0.1380
  549TMC3    C4 8144   3.728   3.670  12.604  0.4000 -0.5563  0.2061
  549TMC3    C5 8145   3.618   3.689  12.686 -0.0214  0.0276 -0.3902
  549TMC3    C6 8146   3.522   3.780  12.664  0.5127 -0.6432  0.5578
  549TMC3     C 8147   3.821   3.685  12.391  0.4428 -0.4702  0.0400
  549TMC3     O 8148   3.866   3.577  12.416  0.1586  0.1261  0.3644
  549TMC3     H 8149   3.614   3.856  12.358  1.4361  1.2942  0.4506
  549TMC3    H1 8150   3.815   3.622  12.648  1.2471  0.6225 -0.2039
  549TMC3    H2 8151   3.436   3.786  12.730  1.7716  0.1974  2.1338
  549TMC3    C7 8152   3.604   3.608  12.804 -0.0180 -0.9396 -0.2351
  549TMC3    C8 8153   3.398   3.901  12.494  0.1156 -0.7761 -0.1832
  549TMC3    O1 8154   3.546   3.651  12.906  0.0844  0.5516 -0.2226
  549TMC3    O2 8155   3.362   3.898  12.375  0.2202  0.6639 -0.6330
  550TMC3    C1 8156   2.751   1.665  11.981 -0.2744 -0.7099 -0.1923
  550TMC3    C2 8157   2.723   1.742  12.092 -0.2654 -0.4005  0.4421
  550TMC3    C3 8158   2.609   1.822  12.088  0.8840 -0.0249 -0.4964
  550TMC3    C4 8159   2.682   1.673  11.864 -0.2939  0.2212  0.5992
  550TMC3    C5 8160   2.582   1.765  11.864 -0.2281  0.5159 -0.0979
  550TMC3    C6 8161   2.539   1.836  11.975 -0.2722  0.0760 -0.0405
  550TMC3     C 8162   2.846   1.557  11.998 -0.1388 -0.0443 -0.1495
  550TMC3     O 8163   2.918   1.565  12.098 -0.4223  0.1912 -0.5133
  550TMC3     H 8164   2.772   1.727  12.187  0.8784 -2.1418 -0.4316
  550TMC3    H1 8165   2.720   1.619  11.778  3.3603  2.1937  0.9736
  550TMC3    H2 8166   2.460   1.909  11.965  0.0135  0.3937  0.0210
  550TMC3    C7 8167   2.497   1.777  11.747 -0.6624  0.3888 -0.5115
  550TMC3    C8 8168   2.577   1.910  12.194  0.2250 -0.8281  0.0135
  550TMC3    O1 8169   2.391   1.832  11.767 -0.0346  0.1791 -0.1309
  550TMC3    O2 8170   2.467   1.959  12.199 -0.2838  0.0612 -0.5124
  551TMC3    C1 8171   4.668   4.717  13.076  0.4318  0.1925 -0.1342
  551TMC3    C2 8172   0.041   0.058  12.994 -0.5790  0.0082  0.3677
  551TMC3    C3 8173   0.144   0.112  13.052 -0.0299  0.7599 -0.4313
  551TMC3    C4 8174   4.687   4.717  13.213 -0.1818 -0.0135  0.0280
  551TMC3    C5 8175   0.071   0.065  13.261  0.1395 -0.0123 -0.3333
  551TMC3    C6 8176   0.159   0.122  13.185  0.2285 -0.0116 -0.0057
  551TMC3     C 8177   4.610   4.606  13.013 -0.0295 -0.3270 -0.5689
  551TMC3     O 8178   4.646   4.585  12.902 -0.3030  0.1748  0.0325
  551TMC3     H 8179   0.026   0.049  12.887  1.8381  1.5815 -0.1005
  551TMC3    H1 8180   4.626   4.662  13.284  1.3281 -1.7567 -0.0097
  551TMC3    H2 8181   0.244   0.175  13.227  0.4555 -0.3235 -0.0661
  551TMC3    C7 8182   0.070   0.102  13.404 -0.4722  0.3713 -0.0139
  551TMC3    C8 8183   0.242   0.179  12.968  0.6456 -0.1529 -0.2598
  551TMC3    O1 8184   0.041   0.017  13.488  0.1612 -0.5344 -0.3093
  551TMC3    O2 8185   0.199   0.217  12.858  0.0585  0.0300 -0.1681
  552MPD2     C 8186   1.438   2.031  13.725 -0.5500 -0.0317 -0.0260
  552MPD2    C1 8187   1.490   1.909  13.672  0.1350  0.8072  0.6251
  552MPD2    C2 8188   1.608   1.869  13.732 -0.2031  0.2017  0.1334
  552MPD2    C3 8189   1.667   1.934  13.841 -0.1318  1.0705 -0.0799
  552MPD2    C4 8190   1.595   2.034  13.900 -0.5934  0.1739 -0.4470
  552MPD2    C5 8191   1.488   2.089  13.840  0.3177 -0.5029 -0.0580
  552MPD2     H 8192   1.653   1.779  13.691  0.1805  1.7661 -2.8365
  552MPD2    H1 8193   1.635   2.087  13.986 -0.5068 -0.8603  0.1572
  552MPD2    H2 8194   1.356   2.083  13.676 -0.5486 -1.0690 -1.1161
  552MPD2    H3 8195   1.433   2.172  13.883 -1.5776 -2.2712  0.9403
  552MPD2     N 8196   1.786   1.892  13.901 -0.0901 -0.4540  0.6028
  552MPD2    H5 8197   1.821   1.955  13.973 -0.4874  0.8888 -0.3686
  552MPD2    N1 8198   1.443   1.843  13.555  0.2884  0.1711 -0.5022
  552MPD2    H7 8199   1.493   1.757  13.535  0.4324 -0.3675  2.1373
  553TMC3    C1 8200   1.292   1.790  13.378 -0.8436  0.4394 -0.2648
  553TMC3    C2 8201   1.258   1.863  13.259 -0.3122 -0.6247 -0.8032
  553TMC3    C3 8202   1.283   1.802  13.142 -0.4504 -0.0924 -0.3900
  553TMC3    C4 8203   1.362   1.669  13.366 -0.2535  0.6502  0.3285
  553TMC3    C5 8204   1.377   1.618  13.243  0.3186  0.1297 -0.3479
  553TMC3    C6 8205   1.330   1.676  13.131  0.0479  0.0078  0.6939
  553TMC3     C 8206   1.332   1.884  13.479 -0.2972  0.2415  0.0359
  553TMC3     O 8207   1.266   1.983  13.494  0.7264  0.4949 -0.6209
  553TMC3     H 8208   1.251   1.971  13.263  1.9415 -0.4672 -0.8842
  553TMC3    H1 8209   1.379   1.599  13.447 -0.7350 -0.4739 -0.5602
  553TMC3    H2 8210   1.373   1.643  13.038 -0.6518  1.0907 -0.0190
  553TMC3    C7 8211   1.457   1.504  13.210 -0.3459 -0.1277 -0.3489
  553TMC3    C8 8212   1.371   1.888  13.073 -0.7210 -0.8370  0.2897
  553TMC3    O1 8213   1.402   1.421  13.144 -0.3158 -0.2056  0.6163
  553TMC3    O2 8214   1.456   1.943  13.142  0.1432 -0.1586 -0.2740
  554TMC3    C1 8215   3.894   0.628  11.387 -0.0137  0.2177  0.2232
  554TMC3    C2 8216   3.825   0.598  11.275 -0.1672  0.0569  0.3856
  554TMC3    C3 8217   3.795   0.703  11.189  0.3852  0.5605  0.1179
  554TMC3    C4 8218   3.951   0.748  11.414 -0.5971 -0.2939 -0.5321
  554TMC3    C5 8219   3.924   0.853  11.326 -0.7390  0.0269  0.5496
  554TMC3    C6 8220   3.847   0.829  11.214  0.0150  0.0623  0.0875
  554TMC3     C 8221   3.903   0.516  11.483 -0.8840 -0.3988  0.1099
  554TMC3     O 8222   3.798   0.454  11.506  0.4094 -0.1782  0.2893
  554TMC3     H 8223   3.783   0.498  11.265  1.5150 -0.7830  1.8169
  554TMC3    H1 8224   4.012   0.768  11.501  2.9307 -2.6499 -2.4707
  554TMC3    H2 8225   3.823   0.906  11.141  0.2438  0.0599  0.0102
  554TMC3    C7 8226   4.007   0.973  11.319 -0.2302 -0.7211  0.0717
  554TMC3    C8 8227   3.805   0.664  11.052  0.3677  0.1087  0.6804
  554TMC3    O1 8228   4.000   1.046  11.221 -0.3802 -0.1797  0.3070
  554TMC3    O2 8229   3.878   0.729  10.982 -0.3417 -0.1797 -0.6217
  555TMC3    C1 8230   2.629   4.634  14.991  0.2813  0.1016 -0.1509
  555TMC3    C2 8231   2.562   0.016  15.054  0.6240 -0.5634  0.1299
  555TMC3    C3 8232   2.558   0.015  15.193 -0.1047 -0.2071 -0.8066
  555TMC3    C4 8233   2.698   4.540  15.059 -0.1850  0.5390  0.3400
  555TMC3    C5 8234   2.693   4.546  15.198  0.1097 -0.2088  1.0491
  555TMC3    C6 8235   2.617   4.639  15.264 -0.5649  0.8859  0.3486
  555TMC3     C 8236   2.655   4.648  14.850  0.0083 -0.2661 -0.5153
  555TMC3     O 8237   2.757   4.596  14.818  0.0492  0.3665 -0.0318
  555TMC3     H 8238   2.506   0.090  14.999  0.3727 -0.2305  0.8276
  555TMC3    H1 8239   2.749   4.463  15.002  0.1322  1.0520 -0.0625
  555TMC3    H2 8240   2.622   4.636  15.372  0.7520  1.1134  0.2952
  555TMC3    C7 8241   2.711   4.423  15.265  0.2693 -0.5987 -0.1863
  555TMC3    C8 8242   2.569   0.145  15.258  0.4160  0.4285 -0.0626
  555TMC3    O1 8243   2.647   4.400  15.369 -0.3920 -0.1110 -0.4034
  555TMC3    O2 8244   2.500   0.233  15.209 -0.3872 -0.3525 -0.0330
  556MPD2     C 8245   1.241   1.866  10.251 -0.0932  0.9953  0.0983
  556MPD2    C1 8246   1.284   1.749  10.311  0.6597 -0.0449 -0.1188
  556MPD2    C2 8247   1.305   1.636  10.230  0.5449 -0.2749 -0.1387
  556MPD2    C3 8248   1.278   1.644  10.095  0.6232 -0.6273  0.9475
  556MPD2    C4 8249   1.228   1.760  10.042  0.5459 -0.4283  0.4254
  556MPD2    C5 8250   1.206   1.873  10.119  0.5093  0.4853 -0.1210
  556MPD2     H 8251   1.348   1.545  10.270  1.1225  1.1677  2.4702
  556MPD2    H1 8252   1.218   1.777   9.936 -0.8889  1.0755  0.7967
  556MPD2    H2 8253   1.220   1.959  10.302 -1.8937  0.5245  0.2056
  556MPD2    H3 8254   1.186   1.972  10.081 -0.6072 -0.0999 -1.0828
  556MPD2     N 8255   1.321   1.536  10.015 -0.2971 -0.4806 -0.3964
  556MPD2    H5 8256   1.348   1.451  10.062 -4.7875 -1.1595  0.9759
  556MPD2    N1 8257   1.332   1.742  10.445  0.3249  0.1668 -0.3545
  556MPD2    H7 8258   1.367   1.652  10.477 -2.3816 -1.1486 -1.1502
  557TMC3    C1 8259   1.358   1.397   9.831 -0.4492 -0.1491  0.7304
  557TMC3    C2 8260   1.272   1.353   9.736 -0.0287 -0.4347  0.0284
  557TMC3    C3 8261   1.228   1.224   9.740 -0.5028  0.2185 -0.1956
  557TMC3    C4 8262   1.395   1.316   9.936 -0.5689 -0.2102 -0.4370
  557TMC3    C5 8263   1.349   1.187   9.938 -0.4013  0.5034  1.1578
  557TMC3    C6 8264   1.259   1.143   9.845 -0.4354 -0.3336  0.6044
  557TMC3     C 8265   1.322   1.534   9.871 -0.3796 -0.4807  0.2486
  557TMC3     O 8266   1.270   1.615   9.793 -0.4598  0.0742  0.7887
  557TMC3     H 8267   1.224   1.427   9.674  0.8520 -0.3304 -0.5314
  557TMC3    H1 8268   1.469   1.348  10.009 -0.7015 -0.9228  0.0085
  557TMC3    H2 8269   1.211   1.047   9.855 -2.8570  0.8737  0.6415
  557TMC3    C7 8270   1.324   1.137  10.067 -0.2635  0.2659 -0.2992
  557TMC3    C8 8271   1.155   1.169   9.626 -0.3590  0.3257  0.0647
  557TMC3    O1 8272   1.332   1.223  10.156 -0.2926 -0.6187  0.1734
  557TMC3    O2 8273   1.112   1.245   9.540  0.3044 -0.3072 -0.2511
  558TMC3    C1 8274   4.278   4.530  10.521  0.8206  0.6012  0.5827
  558TMC3    C2 8275   4.142   4.536  10.538 -0.4974 -0.2810  0.2513
  558TMC3    C3 8276   4.062   4.486  10.439 -0.3793  0.4158 -0.3733
  558TMC3    C4 8277   4.335   4.483  10.397  0.3567 -0.6072 -0.3672
  558TMC3    C5 8278   4.250   4.448  10.297  0.7891 -0.5609 -0.3529
  558TMC3    C6 8279   4.115   4.436  10.318  0.3175 -0.8460  1.5438
  558TMC3     C 8280   4.368   4.547  10.633 -0.2408 -0.5400  0.1739
  558TMC3     O 8281   4.482   4.585  10.601  0.6059 -0.3072 -0.0888
  558TMC3     H 8282   4.097   4.593  10.619 -0.3326 -1.1177  0.9338
  558TMC3    H1 8283   4.441   4.462  10.390  0.8328  1.2631  1.0546
  558TMC3    H2 8284   4.040   4.399  10.249 -0.4018  2.6643  0.4201
  558TMC3    C7 8285   4.317   4.393  10.175 -0.7481  0.1378  0.5664
  558TMC3    C8 8286   3.918   4.489  10.443  0.3693 -0.3834  0.1870
  558TMC3    O1 8287   4.438   4.407  10.167  0.4362  0.2805  0.1694
  558TMC3    O2 8288   3.852   4.485  10.339  0.4631 -0.1648 -1.0583
  559MPD2     C 8289   4.153   0.163  10.378  0.2251 -0.1123 -0.1852
  559MPD2    C1 8290   4.070   0.167  10.486 -0.3146  0.7513  0.0399
  559MPD2    C2 8291   4.129   0.177  10.616  0.0173  0.0638 -0.6293
  559MPD2    C3 8292   4.264   0.191  10.628  0.3893  0.6825  0.1939
  559MPD2    C4 8293   4.341   0.190  10.509 -0.5377  0.2273  0.0490
  559MPD2    C5 8294   4.282   0.177  10.385  0.1394  0.0167  0.1723
  559MPD2     H 8295   4.068   0.173  10.706 -1.3713  1.3854 -1.5101
  559MPD2    H1 8296   4.447   0.207  10.518 -0.6168  0.0292  1.5071
  559MPD2    H2 8297   4.113   0.153  10.277  1.0786  0.6688 -0.5961
  559MPD2    H3 8298   4.343   0.175  10.296 -0.3273 -0.7350 -0.1349
  559MPD2     N 8299   4.306   0.197  10.759 -0.0087 -0.2224  0.6091
  559MPD2    H5 8300   4.234   0.189  10.831 -0.4601  2.6640  0.4940
  559MPD2    N1 8301   3.927   0.148  10.469  0.4049  0.1642 -0.7911
  559MPD2    H7 8302   3.897   0.127  10.374 -0.3845  0.0727 -0.5148
  560TMC3    C1 8303   4.436   0.163  10.945  0.2268  0.2465 -0.5297
  560TMC3    C2 8304   4.326   0.110  11.011 -0.0185  0.6141 -0.4552
  560TMC3    C3 8305   4.349   0.053  11.133  0.0417 -0.1330 -0.0103
  560TMC3    C4 8306   4.562   0.174  11.005  1.0770 -0.1002  0.2028
  560TMC3    C5 8307   4.565   0.126  11.131 -0.7792  0.8913  0.3481
  560TMC3    C6 8308   4.464   0.072  11.199  0.1189 -0.7165 -0.4933
  560TMC3     C 8309   4.433   0.195  10.801  0.0372 -0.2784  0.1615
  560TMC3     O 8310   4.535   0.212  10.739 -0.0396 -0.3091 -1.1250
  560TMC3     H 8311   4.231   0.095  10.961  0.6569  0.1247 -1.6020
  560TMC3    H1 8312   4.646   0.197  10.940 -0.2683  2.7829 -0.5106
  560TMC3    H2 8313   4.461   0.062  11.307 -2.5075  3.1237 -0.2163
  560TMC3    C7 8314   4.679   0.170  11.213 -0.1878  0.3433 -0.2343
  560TMC3    C8 8315   4.242   4.699  11.192  0.2088  0.0311  0.6493
  560TMC3    O1 8316   4.705   0.102  11.314 -0.4291  0.1677  0.6615
  560TMC3    O2 8317   4.138   4.692  11.128 -0.0615 -0.0119 -0.1325
  561TMC3    C1 8318   1.584   4.346  11.180 -0.3681 -0.2564 -0.8790
  561TMC3    C2 8319   1.501   4.297  11.279 -0.0094 -0.3608  0.5957
  561TMC3    C3 8320   1.547   4.301  11.411 -0.2777 -0.0940  0.1550
  561TMC3    C4 8321   1.705   4.413  11.209 -0.2857 -0.0970  0.2204
  561TMC3    C5 8322   1.739   4.420  11.342 -0.3032  0.7369  0.4488
  561TMC3    C6 8323   1.657   4.371  11.441  0.3943 -0.1707 -0.3946
  561TMC3     C 8324   1.552   4.315  11.044  0.3378  0.3479 -0.1810
  561TMC3     O 8325   1.440   4.266  11.035  0.5479  0.8312 -0.3437
  561TMC3     H 8326   1.417   4.234  11.252  0.2401 -0.8069  0.8643
  561TMC3    H1 8327   1.773   4.448  11.132 -0.2633  0.1470  0.3537
  561TMC3    H2 8328   1.686   4.370  11.545 -3.4709 -1.5982  0.6807
  561TMC3    C7 8329   1.878   4.447  11.377 -0.5885 -0.1522  0.3805
  561TMC3    C8 8330   1.474   4.226  11.515  0.3939  0.0865  0.2753
  561TMC3    O1 8331   1.910   4.406  11.484 -0.1777 -0.3811 -0.0374
  561TMC3    O2 8332   1.427   4.123  11.475 -0.2887 -0.1423 -0.0615
  562TMC3    C1 8333   2.500   0.856  15.920 -0.0486 -0.2980 -0.0442
  562TMC3    C2 8334   2.449   0.937  15.822 -0.4327 -0.7054 -0.2054
  562TMC3    C3 8335   2.386   0.873  15.722  0.6187 -0.1399  0.5121
  562TMC3    C4 8336   2.512   0.715  15.906  0.6637 -0.0582 -0.2965
  562TMC3    C5 8337   2.445   0.654  15.801  0.4007  0.0058  0.0077
  562TMC3    C6 8338   2.372   0.739  15.721  0.2121 -0.3762 -0.0763
  562TMC3     C 8339   2.585   0.909  16.024 -0.1659  0.3555  0.0584
  562TMC3     O 8340   2.668   0.835  16.071  0.4748  0.2814 -0.0024
  562TMC3     H 8341   2.456   1.045  15.827  1.1541 -0.7454 -1.4392
  562TMC3    H1 8342   2.551   0.660  15.991  0.7840 -1.9999 -1.6295
  562TMC3    H2 8343   2.307   0.701  15.643 -0.1095  2.5884 -1.2584
  562TMC3    C7 8344   2.391   0.518  15.820 -0.0628 -0.0858 -0.3781
  562TMC3    C8 8345   2.259   0.938  15.693 -0.3175 -0.1395  0.3859
  562TMC3    O1 8346   2.284   0.502  15.765  0.2301 -0.2053  0.4332
  562TMC3    O2 8347   2.216   0.988  15.795  0.2625 -0.0064 -0.1055
  563MPD2     C 8348   0.131   1.573  15.677 -0.5882 -0.4186 -0.7624
  563MPD2    C1 8349   0.158   1.685  15.751  0.5503 -0.0726  0.1913
  563MPD2    C2 8350   0.275   1.694  15.813  0.3595  0.0908 -0.1619
  563MPD2    C3 8351   0.383   1.605  15.788 -0.2138 -0.0880 -1.0630
  563MPD2    C4 8352   0.355   1.510  15.694 -0.0950  1.3645 -0.1921
  563MPD2    C5 8353   0.228   1.488  15.646 -0.3264 -0.1498 -0.2147
  563MPD2     H 8354   0.296   1.761  15.895  1.0362  2.7056 -2.4763
  563MPD2    H1 8355   0.431   1.435  15.673  0.6402  1.4637  2.0339
  563MPD2    H2 8356   0.029   1.555  15.646 -0.6782 -2.3529  0.6657
  563MPD2    H3 8357   0.200   1.408  15.580 -0.8411 -0.0978 -0.0542
  563MPD2     N 8358   0.506   1.631  15.851  0.5319  0.4853  0.2147
  563MPD2    H5 8359   0.514   1.730  15.868 -2.2038  0.7688 -0.1722
  563MPD2    N1 8360   0.053   1.784  15.776  0.0736 -0.3777  0.4322
  563MPD2    H7 8361   4.683   1.754  15.746 -0.7126  2.5233 -0.0594
  564TMC3    C1 8362   4.685   1.969  15.878 -0.2462  0.3989  0.0765
  564TMC3    C2 8363   4.574   1.910  15.839  0.5030 -0.4846  0.0020
  564TMC3    C3 8364   4.478   1.888  15.940 -0.4036 -0.2705  0.3289
  564TMC3    C4 8365   4.715   1.997  16.006  0.3770  0.3394  0.0493
  564TMC3    C5 8366   4.634   1.948  16.101  0.1975 -0.3924 -0.4167
  564TMC3    C6 8367   4.515   1.888  16.071 -0.0860  0.1116  0.3053
  564TMC3     C 8368   0.081   1.912  15.812 -0.8859 -1.1517  0.4856
  564TMC3     O 8369   0.190   1.964  15.833 -0.0191 -0.0797 -0.0423
  564TMC3     H 8370   4.558   1.903  15.733  2.3590  0.1294 -0.3282
  564TMC3    H1 8371   0.093   2.026  16.034  1.0785 -3.1827  1.1095
  564TMC3    H2 8372   4.444   1.862  16.149  0.4373 -1.6877  0.1865
  564TMC3    C7 8373   4.701   1.858  16.196  0.1724 -0.1630  0.0464
  564TMC3    C8 8374   4.392   1.776  15.917  0.2135  0.6821  0.4838
  564TMC3    O1 8375   0.089   1.888  16.234 -0.0393 -0.1656  0.2950
  564TMC3    O2 8376   4.379   1.699  16.011 -0.3106  0.4777  0.9644
  565TMC3    C1 8377   1.118   3.592   9.783 -0.6022  0.8091 -0.5188
  565TMC3    C2 8378   1.070   3.502   9.874  0.0502 -0.0717 -0.0639
  565TMC3    C3 8379   0.941   3.451   9.846  0.2329  0.1729 -0.3339
  565TMC3    C4 8380   1.042   3.644   9.675 -0.1408 -0.3895 -0.5119
  565TMC3    C5 8381   0.915   3.596   9.662  0.3085 -0.1001 -0.5725
  565TMC3    C6 8382   0.856   3.511   9.752 -0.1827  0.1958  0.0506
  565TMC3     C 8383   1.257   3.639   9.784 -0.6359  0.0581  0.6729
  565TMC3     O 8384   1.301   3.682   9.679 -0.3371 -0.5043 -0.3556
  565TMC3     H 8385   1.146   3.453   9.934 -0.8724 -1.1368  0.2430
  565TMC3    H1 8386   1.072   3.725   9.608 -1.4447  1.3086  0.9601
  565TMC3    H2 8387   0.756   3.477   9.730 -0.8667  2.0392  0.2958
  565TMC3    C7 8388   0.835   3.631   9.550 -0.1689 -0.2366 -0.9851
  565TMC3    C8 8389   0.880   3.366   9.948 -0.0550  0.4542 -1.1707
  565TMC3    O1 8390   0.717   3.646   9.576  0.1685 -0.5571  0.2151
  565TMC3    O2 8391   0.938   3.363  10.055  0.3775 -0.0053  0.1171
  566MPD2     C 8392   2.171   4.347  14.282 -0.2412  0.3331 -0.6122
  566MPD2    C1 8393   2.226   4.454  14.215  0.2535 -0.3913  0.1510
  566MPD2    C2 8394   2.162   4.525  14.119  0.2440 -0.5511  0.1862
  566MPD2    C3 8395   2.026   4.495  14.089 -0.3312  0.1157 -0.2111
  566MPD2    C4 8396   1.969   4.390  14.157  0.1973  0.6066 -0.1732
  566MPD2    C5 8397   2.040   4.309  14.249 -0.0540 -0.6480 -0.4205
  566MPD2     H 8398   2.213   4.611  14.077 -0.5727  0.8134  1.9628
  566MPD2    H1 8399   1.870   4.356  14.127  0.2373  0.1211  0.2370
  566MPD2    H2 8400   2.242   4.286  14.336  0.2211  0.6009 -0.9195
  566MPD2    H3 8401   1.998   4.217  14.286  1.9445 -1.3936  0.0247
  566MPD2     N 8402   1.942   4.565  14.002  0.4881  0.1143  0.1412
  566MPD2    H5 8403   1.844   4.569  14.027  0.5527  0.4454  0.3368
  566MPD2    N1 8404   2.361   4.470  14.242  0.3365  0.6756  0.1826
  566MPD2    H7 8405   2.404   4.412  14.313 -0.6347 -0.7397 -0.3893
  567TMC3    C1 8406   2.587   4.526  14.232  0.3711 -0.4760 -0.4629
  567TMC3    C2 8407   2.691   4.592  14.169  0.0629 -0.4429  0.3945
  567TMC3    C3 8408   2.819   4.577  14.225  0.2929 -0.1630 -0.0276
  567TMC3    C4 8409   2.612   4.437  14.339  0.4694  0.4624 -0.1427
  567TMC3    C5 8410   2.739   4.428  14.389  0.0902 -0.0572 -0.4157
  567TMC3    C6 8411   2.843   4.495  14.328 -0.2712 -0.0860 -0.0155
  567TMC3     C 8412   2.458   4.552  14.178 -0.0759  0.3570  0.9615
  567TMC3     O 8413   2.433   4.645  14.103 -0.8286  0.1796 -0.2597
  567TMC3     H 8414   2.671   4.654  14.082 -1.6358  1.2725  2.0229
  567TMC3    H1 8415   2.528   4.383  14.382  1.7350  0.1198  1.8856
  567TMC3    H2 8416   2.939   4.513  14.376 -0.8946  0.0217  1.1838
  567TMC3    C7 8417   2.764   4.349  14.510  0.2819 -0.7041  0.2098
  567TMC3    C8 8418   2.923   4.648  14.155 -0.3084 -0.3710  0.4051
  567TMC3    O1 8419   2.874   4.296  14.526 -0.3453  0.0579 -0.1760
  567TMC3    O2 8420   2.889   0.025  14.093  0.3005 -0.6445  0.1723
  568MPD2     C 8421   4.395   0.271  15.853  0.0433  0.4338  0.4252
  568MPD2    C1 8422   4.392   0.331  15.974  0.1857 -0.1668  0.9881
  568MPD2    C2 8423   4.333   0.459  15.981  0.2159  0.3753 -0.3637
  568MPD2    C3 8424   4.272   0.512  15.867  0.5051  0.0686  0.3684
  568MPD2    C4 8425   4.281   0.449  15.743  0.0307 -0.0315  0.0055
  568MPD2    C5 8426   4.333   0.322  15.743  0.1846  0.4728  0.1773
  568MPD2     H 8427   4.331   0.512  16.075  0.2193  0.7270 -0.5618
  568MPD2    H1 8428   4.239   0.490  15.652  1.2060 -1.9695 -1.4339
  568MPD2    H2 8429   4.431   0.171  15.835  2.1811  0.5328  4.1510
  568MPD2    H3 8430   4.310   0.262  15.656  0.1149  1.3739 -0.4293
  568MPD2     N 8431   4.203   0.636  15.883  0.0913 -0.0416  0.4077
  568MPD2    H5 8432   4.199   0.668  15.979  1.5267  2.2723 -0.3217
  568MPD2    N1 8433   4.441   0.248  16.079  0.5612 -0.3369  0.2744
  568MPD2    H7 8434   4.475   0.157  16.050  0.0826 -1.1570  2.2857
  569TMC3    C1 8435   4.132   0.853  15.839  0.6272 -0.2495  0.7216
  569TMC3    C2 8436   4.128   0.866  15.977 -0.8527 -0.1408 -0.7910
  569TMC3    C3 8437   4.160   0.990  16.020 -0.0897  0.5103  0.0145
  569TMC3    C4 8438   4.143   0.961  15.747 -0.7356  0.3572  0.7946
  569TMC3    C5 8439   4.172   1.080  15.797 -0.4452 -0.3066 -0.4604
  569TMC3    C6 8440   4.186   1.098  15.940 -0.2947 -0.6518 -0.2813
  569TMC3     C 8441   4.170   0.725  15.784  0.3550 -0.3694 -0.3896
  569TMC3     O 8442   4.210   0.725  15.672 -0.5562 -0.3930 -0.0292
  569TMC3     H 8443   4.114   0.779  16.041 -1.6398 -0.3999 -1.3191
  569TMC3    H1 8444   4.139   0.946  15.640  0.0490  0.7278  0.7122
  569TMC3    H2 8445   4.208   1.198  15.976 -0.0766 -0.5424 -0.7315
  569TMC3    C7 8446   4.166   1.191  15.711 -0.1473 -0.3012  0.3948
  569TMC3    C8 8447   4.150   1.024  16.164 -0.0481  0.4096 -0.0924
  569TMC3    O1 8448   4.115   1.176  15.601  0.8566  0.0901  0.3493
  569TMC3    O2 8449   4.079   0.959  16.237  0.1909  0.0266  0.4668
  570TMC3    C1 8450   3.838   4.164  16.104 -0.6640  0.1269  0.3817
  570TMC3    C2 8451   3.933   4.133  16.017 -0.3602 -0.4075 -0.6415
  570TMC3    C3 8452   3.957   4.218  15.914  0.0641  0.0176 -0.7012
  570TMC3    C4 8453   3.770   4.285  16.097 -0.0472 -0.5754 -0.0470
  570TMC3    C5 8454   3.781   4.350  15.979  0.2248 -0.4589  0.4186
  570TMC3    C6 8455   3.884   4.324  15.892  0.2109  0.0520 -0.5963
  570TMC3     C 8456   3.823   4.083  16.225 -0.2764  0.7670 -0.6035
  570TMC3     O 8457   3.875   3.974  16.211 -0.2954 -0.1426  0.2920
  570TMC3     H 8458   3.996   4.048  16.042  1.9627  1.3430 -0.5940
  570TMC3    H1 8459   3.679   4.299  16.154 -0.3411  1.9505 -1.1515
  570TMC3    H2 8460   3.895   4.391  15.808 -0.5197 -0.0019 -0.7305
  570TMC3    C7 8461   3.700   4.469  15.964 -0.1001 -0.3675 -0.4364
  570TMC3    C8 8462   4.095   4.220  15.862  0.4667  0.5531  0.4146
  570TMC3    O1 8463   3.649   4.518  16.061  0.6900 -0.2251 -0.1379
  570TMC3    O2 8464   4.115   4.321  15.794  0.3404  0.2325 -0.3007
  571MPD2     C 8465   2.401   1.526  17.037  0.3934 -0.3664  0.3868
  571MPD2    C1 8466   2.310   1.462  17.117 -0.5159  0.1067  0.5492
  571MPD2    C2 8467   2.293   1.508  17.245 -0.4433 -0.2297  0.4388
  571MPD2    C3 8468   2.371   1.610  17.297 -0.0937  0.3585  0.1463
  571MPD2    C4 8469   2.467   1.665  17.213  0.0766 -0.8067  0.1337
  571MPD2    C5 8470   2.475   1.629  17.089  0.0910 -0.2728 -0.6408
  571MPD2     H 8471   2.211   1.471  17.304 -0.9800 -0.0550 -0.2005
  571MPD2    H1 8472   2.532   1.743  17.252 -0.2834 -1.0970  1.3011
  571MPD2    H2 8473   2.406   1.510  16.930  1.9074  0.4940  0.3306
  571MPD2    H3 8474   2.532   1.696  17.026 -1.1684  2.9782  1.7164
  571MPD2     N 8475   2.357   1.660  17.426  0.4277 -0.5403  0.5627
  571MPD2    H5 8476   2.426   1.726  17.461  0.2585  0.3045 -0.6991
  571MPD2    N1 8477   2.239   1.355  17.059 -0.3283  0.0269 -0.3167
  571MPD2    H7 8478   2.261   1.340  16.961  0.0901 -1.0397 -0.0538
  572TMC3    C1 8479   2.258   1.683  17.644  0.6056  0.0027 -0.1201
  572TMC3    C2 8480   2.205   1.617   0.058 -0.0118 -0.6140 -0.3308
  572TMC3    C3 8481   2.232   1.667   0.184  0.4247  0.2350  0.0326
  572TMC3    C4 8482   2.318   1.804  17.654  0.8526  0.0319 -0.1413
  572TMC3    C5 8483   2.329   1.855   0.092 -0.0150  0.4660 -0.6033
  572TMC3    C6 8484   2.297   1.785   0.206  0.1844 -0.9885 -0.1526
  572TMC3     C 8485   2.254   1.621  17.517 -0.7534  0.4568 -0.2744
  572TMC3     O 8486   2.185   1.519  17.515 -0.4052  0.0850 -0.6026
  572TMC3     H 8487   2.181   1.512   0.045 -1.7663 -0.1569 -0.7262
  572TMC3    H1 8488   2.346   1.862  17.567 -2.2543 -0.1779 -1.2635
  572TMC3    H2 8489   2.298   1.832   0.304 -0.6391 -1.7175  0.2054
  572TMC3    C7 8490   2.311   1.997   0.089 -0.2405  0.4651 -0.3675
  572TMC3    C8 8491   2.235   1.581   0.292  0.2290 -0.5597 -0.9589
  572TMC3    O1 8492   2.254   2.032  17.678  0.1799 -0.2157 -0.2743
  572TMC3    O2 8493   2.327   1.590   0.369 -0.4642  0.2444 -0.6242
  573MPD2     C 8494   3.862   1.872   1.270 -0.0353 -0.0750 -0.3948
  573MPD2    C1 8495   3.781   1.978   1.234  0.0567  0.6148 -0.4658
  573MPD2    C2 8496   3.818   2.049   1.125  0.0257 -0.5104 -0.1072
  573MPD2    C3 8497   3.929   2.009   1.042  0.3285  0.5999 -0.1372
  573MPD2    C4 8498   3.990   1.897   1.075 -0.3234  0.3480  0.1415
  573MPD2    C5 8499   3.957   1.832   1.185 -0.6710  0.0182  0.0595
  573MPD2     H 8500   3.758   2.137   1.107  1.1492  0.5086  1.1000
  573MPD2    H1 8501   4.067   1.859   1.010 -0.1912 -1.7534  1.5323
  573MPD2    H2 8502   3.844   1.807   1.355  3.0321  0.2735  0.5240
  573MPD2    H3 8503   4.007   1.739   1.209 -0.8054 -0.4495 -1.4848
  573MPD2     N 8504   3.959   2.074   0.925  0.6127 -0.1055  0.7784
  573MPD2    H5 8505   4.013   2.026   0.853  2.7410 -0.3158  2.5410
  573MPD2    N1 8506   3.674   2.012   1.323 -0.0880 -0.0275  0.2048
  573MPD2    H7 8507   3.666   1.958   1.409 -0.9315  1.0554  0.8098
  574TMC3    C1 8508   3.945   2.247   0.770 -0.5604 -0.2539 -0.0473
  574TMC3    C2 8509   3.943   2.154   0.670  0.2625 -0.6989  0.3583
  574TMC3    C3 8510   3.974   2.195   0.543 -0.3138  0.3380  1.5839
  574TMC3    C4 8511   3.991   2.378   0.752  0.0519 -0.7286 -0.0175
  574TMC3    C5 8512   4.036   2.408   0.625  0.2438 -0.0060 -1.0556
  574TMC3    C6 8513   4.021   2.323   0.520 -0.4058  0.5932 -0.0682
  574TMC3     C 8514   3.920   2.204   0.905 -0.1165  0.4191 -0.1122
  574TMC3     O 8515   3.885   2.289   0.986 -0.1033 -0.4646 -0.2093
  574TMC3     H 8516   3.885   2.064   0.689 -1.4398  0.3602  0.1560
  574TMC3    H1 8517   3.978   2.452   0.831 -0.9117 -0.9856  0.0645
  574TMC3    H2 8518   4.067   2.354   0.427 -0.0616  1.9164  0.5522
  574TMC3    C7 8519   4.070   2.543   0.597  0.4142 -0.5156 -0.9208
  574TMC3    C8 8520   3.926   2.113   0.444  0.3987  0.3672  0.3724
  574TMC3    O1 8521   4.068   2.573   0.478 -0.3878  0.0044 -0.3606
  574TMC3    O2 8522   3.887   2.000   0.475 -0.5699 -0.0028 -0.3928
  575TMC3    C1 8523   1.004   2.977  10.684 -0.1610  0.1271 -0.0270
  575TMC3    C2 8524   0.912   2.906  10.753 -0.2060 -0.1496 -0.8729
  575TMC3    C3 8525   0.783   2.898  10.709  0.1724  0.2774  0.6704
  575TMC3    C4 8526   0.970   3.042  10.564 -0.4894 -0.7444 -0.5829
  575TMC3    C5 8527   0.843   3.036  10.521  0.2883 -1.3796 -0.6026
  575TMC3    C6 8528   0.742   2.956  10.589  0.1211 -0.1402  0.2310
  575TMC3     C 8529   1.135   2.999  10.737 -0.1029  0.0400  0.1358
  575TMC3     O 8530   1.182   3.112  10.713 -0.1946  0.2243 -0.4018
  575TMC3     H 8531   0.935   2.870  10.853 -2.1791 -0.1858 -0.4105
  575TMC3    H1 8532   1.047   3.099  10.513 -1.2793  0.0329 -0.8993
  575TMC3    H2 8533   0.636   2.955  10.564 -0.1882  0.7136  1.4878
  575TMC3    C7 8534   0.809   3.102  10.398 -0.0589 -0.1313 -0.1863
  575TMC3    C8 8535   0.674   2.833  10.782 -0.2293 -0.0509 -0.5524
  575TMC3    O1 8536   0.902   3.156  10.336 -0.5681 -0.0058 -0.7133
  575TMC3    O2 8537   0.560   2.857  10.744  0.2286  0.5552 -0.3867
  576MPD2     C 8538   0.650   0.003  12.430 -0.3356 -0.8937  0.8240
  576MPD2    C1 8539   0.744   0.063  12.341 -0.3175 -0.1849  0.2058
  576MPD2    C2 8540   0.701   0.170  12.272  0.3463  0.0982  0.8058
  576MPD2    C3 8541   0.570   0.209  12.277  0.1309  0.1343 -0.3925
  576MPD2    C4 8542   0.474   0.144  12.360 -0.1585 -0.2740  0.4352
  576MPD2    C5 8543   0.519   0.042  12.434  0.1280 -0.3610 -0.2607
  576MPD2     H 8544   0.776   0.208  12.203  0.4717  0.6477  1.2424
  576MPD2    H1 8545   0.366   0.147  12.353  0.0732 -0.6674 -3.2606
  576MPD2    H2 8546   0.674   4.646  12.499 -0.3310 -0.4589  1.3334
  576MPD2    H3 8547   0.448   4.721  12.503 -0.3598 -0.5923 -0.9106
  576MPD2     N 8548   0.525   0.318  12.194 -0.1534 -0.2834 -0.0772
  576MPD2    H5 8549   0.599   0.366  12.144  1.3193  0.2760  2.6095
  576MPD2    N1 8550   0.877   0.020  12.325 -0.3972 -0.0467 -0.1096
  576MPD2    H7 8551   0.928   0.080  12.261 -0.0893  0.6632  0.8082
  577TMC3    C1 8552   1.068   4.604  12.344  0.5751  0.5881 -0.0304
  577TMC3    C2 8553   1.097   4.465  12.329  0.2390  0.1665  0.1551
  577TMC3    C3 8554   1.226   4.445  12.284 -0.2261 -0.4512 -0.3532
  577TMC3    C4 8555   1.154   4.707  12.308  0.3288  0.4696  0.9627
  577TMC3    C5 8556   1.271   4.681  12.251 -1.2759  0.1556  0.3545
  577TMC3    C6 8557   1.308   4.549  12.253  0.1960 -0.1458  0.4617
  577TMC3     C 8558   0.931   4.628  12.383  0.3207 -0.8536  0.1754
  577TMC3     O 8559   0.871   4.540  12.443  0.4098  0.4723 -0.2846
  577TMC3     H 8560   1.030   4.382  12.347  0.5786  0.3888  2.5322
  577TMC3    H1 8561   1.125   0.088  12.323 -3.7243 -0.8061  1.8717
  577TMC3    H2 8562   1.414   4.530  12.239  0.0220  0.2598 -1.4181
  577TMC3    C7 8563   1.290   4.718  12.119  0.1904  0.8585  0.5094
  577TMC3    C8 8564   1.228   4.334  12.194 -0.6472 -0.1876  0.3257
  577TMC3    O1 8565   1.381   4.657  12.058 -0.3029 -0.0039 -0.3172
  577TMC3    O2 8566   1.137   4.256  12.204  0.4330 -0.5860  0.6323
  578MPD2     C 8567   3.628   0.025   1.181 -0.5768 -0.4461  0.1512
  578MPD2    C1 8568   3.667   4.631   1.120  0.1540 -0.6373  0.1921
  578MPD2    C2 8569   3.728   4.531   1.201 -0.4811 -0.1344 -0.4234
  578MPD2    C3 8570   3.731   4.554   1.334 -0.2964 -0.5341  0.2005
  578MPD2    C4 8571   3.704   4.677   1.392 -0.3874  0.1649 -0.1404
  578MPD2    C5 8572   3.643   0.050   1.313 -0.2362  0.3066 -0.7836
  578MPD2     H 8573   3.780   4.445   1.160 -0.6368 -0.5458  0.2467
  578MPD2    H1 8574   3.723   4.689   1.497  0.1921  1.0633 -0.3543
  578MPD2    H2 8575   3.562   0.095   1.131  0.1414  0.3211  0.2850
  578MPD2    H3 8576   3.615   0.145   1.355 -0.8968 -0.1242 -0.2617
  578MPD2     N 8577   3.790   4.451   1.409 -0.2442 -0.5569 -0.4297
  578MPD2    H5 8578   3.823   4.366   1.364 -0.0046 -0.0307 -1.2288
  578MPD2    N1 8579   3.673   4.628   0.974  0.0500  0.2336 -0.4813
  578MPD2    H7 8580   3.656   4.718   0.931 -0.0262  0.0669 -0.8000
  579TMC3    C1 8581   3.918   4.350   1.595  0.7174 -1.1216 -0.0014
  579TMC3    C2 8582   4.007   4.405   1.685  0.0708  0.2276 -0.2953
  579TMC3    C3 8583   4.127   4.338   1.699  0.0536  0.0411  0.7012
  579TMC3    C4 8584   3.946   4.233   1.529 -0.1312  0.4734 -0.3864
  579TMC3    C5 8585   4.071   4.170   1.551 -0.0207  0.8084  0.0374
  579TMC3    C6 8586   4.162   4.221   1.642  0.8662  0.3946  0.4406
  579TMC3     C 8587   3.823   4.453   1.547 -0.3476 -0.8564  0.4108
  579TMC3     O 8588   3.787   4.534   1.635  0.3019  0.3612 -0.1001
  579TMC3     H 8589   3.992   4.504   1.726 -0.4466  0.1555 -0.3104
  579TMC3    H1 8590   3.862   4.188   1.477 -0.0676  0.8415 -0.8096
  579TMC3    H2 8591   4.256   4.171   1.661  0.0657 -0.9664  0.8110
  579TMC3    C7 8592   4.106   4.039   1.489 -0.1672 -0.3054 -0.3241
  579TMC3    C8 8593   4.236   4.398   1.785 -0.8169 -0.0079  0.1356
  579TMC3    O1 8594   4.200   3.974   1.529 -0.0002 -0.2171  0.5158
  579TMC3    O2 8595   4.204   4.468   1.878 -0.2582 -0.3159  0.3104
  580TMC3    C1 8596   3.120   3.108  12.079  0.0805 -0.7894 -0.1091
  580TMC3    C2 8597   3.118   3.133  11.947 -0.6080  0.3098  0.1309
  580TMC3    C3 8598   3.202   3.058  11.872  0.6453 -0.2610 -0.1790
  580TMC3    C4 8599   3.186   3.009  12.136 -0.0983 -0.7172 -0.4651
  580TMC3    C5 8600   3.274   2.932  12.061  0.3211 -0.4874  0.2483
  580TMC3    C6 8601   3.285   2.962  11.927  0.4697  0.0326 -0.1784
  580TMC3     C 8602   3.136   3.229  12.157  0.0067  0.2850 -0.2923
  580TMC3     O 8603   3.148   3.222  12.279  0.5886 -0.2949  0.2026
  580TMC3     H 8604   3.070   3.219  11.901 -1.0762  0.2432  0.4887
  580TMC3    H1 8605   3.181   3.000  12.244 -0.0082 -2.0582 -0.5628
  580TMC3    H2 8606   3.349   2.905  11.860  1.5817  0.8998  0.1571
  580TMC3    C7 8607   3.369   2.854  12.130 -0.4519 -0.0666 -0.4337
  580TMC3    C8 8608   3.265   3.134  11.775 -0.1627  0.2960 -0.1839
  580TMC3    O1 8609   3.398   2.884  12.247 -0.0348  0.0946  0.2246
  580TMC3    O2 8610   3.217   3.157  11.665 -0.0525 -0.3153 -0.0176
  581MPD2     C 8611   1.162   3.571  14.455 -0.2984  0.1816  1.1719
  581MPD2    C1 8612   1.070   3.469  14.474 -0.3265  0.2910 -0.7175
  581MPD2    C2 8613   0.942   3.470  14.410  0.1139  0.1398 -0.0816
  581MPD2    C3 8614   0.911   3.585  14.334 -0.0120  0.5018 -1.2253
  581MPD2    C4 8615   1.007   3.681  14.316  0.3995 -0.1472 -1.2869
  581MPD2    C5 8616   1.129   3.678  14.374 -0.0178 -0.0327 -0.3802
  581MPD2     H 8617   0.874   3.385  14.414  1.4083 -0.9922 -2.3824
  581MPD2    H1 8618   0.990   3.761  14.244 -4.8053 -1.0376 -1.0444
  581MPD2    H2 8619   1.257   3.564  14.506  0.4927 -0.7247 -0.4443
  581MPD2    H3 8620   1.199   3.759  14.359 -0.6928  0.9368  1.6667
  581MPD2     N 8621   0.783   3.588  14.277 -0.1377  0.7473  0.1141
  581MPD2    H5 8622   0.732   3.501  14.265  0.4926  0.2040  1.3934
  581MPD2    N1 8623   1.109   3.361  14.547  0.0452 -0.1855  0.3385
  581MPD2    H7 8624   1.181   3.393  14.611  0.9578  0.0815 -0.8349
  582TMC3    C1 8625   1.071   3.190  14.698 -0.4456 -0.3923  0.0516
  582TMC3    C2 8626   1.182   3.215  14.772  0.5555 -0.4839 -0.0438
  582TMC3    C3 8627   1.190   3.163  14.896 -0.8750 -0.0822 -0.4049
  582TMC3    C4 8628   0.955   3.143  14.759  0.2221  0.2331  0.2119
  582TMC3    C5 8629   0.967   3.096  14.884  0.0616 -0.0744 -0.3967
  582TMC3    C6 8630   1.086   3.091  14.953  0.4035 -0.6435 -0.2297
  582TMC3     C 8631   1.043   3.240  14.565  0.1578  0.1097  0.8893
  582TMC3     O 8632   0.965   3.180  14.490  0.1225 -0.1539  0.2261
  582TMC3     H 8633   1.272   3.262  14.733 -0.9903  1.4555 -1.2917
  582TMC3    H1 8634   0.866   3.124  14.700  0.4882  0.5665 -0.3038
  582TMC3    H2 8635   1.093   3.043  15.050  2.5558 -2.4524 -1.2910
  582TMC3    C7 8636   0.848   3.103  14.960 -0.5703 -0.2180 -0.2160
  582TMC3    C8 8637   1.301   3.208  14.984 -0.6021  0.0065  0.1294
  582TMC3    O1 8638   0.837   3.021  15.050  0.8641 -0.3906  0.0294
  582TMC3    O2 8639   1.391   3.270  14.929 -0.2822  0.0605  0.1138
  583MPD2     C 8640   1.104   0.043  16.645 -0.8915 -0.1919 -0.3365
  583MPD2    C1 8641   1.104   0.158  16.571  0.2984  0.1277 -0.3119
  583MPD2    C2 8642   1.073   0.276  16.635 -0.8454 -0.8149  0.6198
  583MPD2    C3 8643   1.048   0.286  16.773  0.0312  0.0447 -0.3769
  583MPD2    C4 8644   1.063   0.170  16.843  0.6464  0.0489 -0.9710
  583MPD2    C5 8645   1.090   0.052  16.779 -1.1444  0.6667  0.3727
  583MPD2     H 8646   1.055   0.364  16.575 -0.9724 -1.2541  0.0099
  583MPD2    H1 8647   1.046   0.158  16.949  1.0523  0.9917 -0.7995
  583MPD2    H2 8648   1.118   4.665  16.607  0.3249  0.0457 -0.4986
  583MPD2    H3 8649   1.079   4.684  16.837  0.6685  0.6874  0.7550
  583MPD2     N 8650   1.034   0.408  16.840  0.1307  0.5133  0.5113
  583MPD2    H5 8651   1.039   0.490  16.780 -0.5948 -0.3006 -0.6735
  583MPD2    N1 8652   1.124   0.167  16.431 -0.0530 -0.1111  0.0968
  583MPD2    H7 8653   1.137   0.255  16.383 -1.7885 -0.7558 -1.5826
  584TMC3    C1 8654   0.996   0.571  16.998  0.1408 -0.6501  0.0858
  584TMC3    C2 8655   1.077   0.657  16.934  0.1166 -0.4575 -0.2894
  584TMC3    C3 8656   1.070   0.785  16.990  0.4324  0.2683 -0.2791
  584TMC3    C4 8657   0.899   0.608  17.087  0.1525 -0.6644  0.1922
  584TMC3    C5 8658   0.907   0.734  17.140  0.3100  0.6952  0.3290
  584TMC3    C6 8659   0.993   0.831  17.093  0.1443 -0.1033  0.2776
  584TMC3     C 8660   0.997   0.431  16.969  0.0347 -0.7125 -0.6948
  584TMC3     O 8661   0.975   0.352  17.060  0.4311  0.0191 -0.1484
  584TMC3     H 8662   1.155   0.620  16.869 -0.4950 -1.4359 -0.4543
  584TMC3    H1 8663   0.836   0.535  17.137  0.2869 -1.4934 -0.8493
  584TMC3    H2 8664   0.991   0.936  17.123 -0.9717  0.2280 -0.9620
  584TMC3    C7 8665   0.847   0.757  17.271  0.3229 -0.1935 -0.1932
  584TMC3    C8 8666   1.128   0.880  16.907 -0.0917 -0.2167 -0.3254
  584TMC3    O1 8667   0.788   0.661  17.325  0.1019 -0.0735 -0.3227
  584TMC3    O2 8668   1.106   0.863  16.786  0.1235 -0.2792  0.7209
  585MPD2     C 8669   0.703   3.943   0.572 -0.3408 -0.1509  0.8212
  585MPD2    C1 8670   0.768   4.024   0.474 -0.4560 -0.0635  0.3514
  585MPD2    C2 8671   0.851   3.959   0.386  0.3133  0.3393 -0.5703
  585MPD2    C3 8672   0.872   3.821   0.389 -0.0275 -0.3162 -0.7612
  585MPD2    C4 8673   0.809   3.748   0.483  0.1078  0.1863 -0.2502
  585MPD2    C5 8674   0.722   3.808   0.572  0.4411  0.2702 -0.5652
  585MPD2     H 8675   0.923   4.017   0.329 -1.9136  3.4092 -0.2950
  585MPD2    H1 8676   0.823   3.641   0.496 -0.1025  0.2693  0.6676
  585MPD2    H2 8677   0.639   3.981   0.651 -0.6896 -2.9515  1.9032
  585MPD2    H3 8678   0.676   3.742   0.645 -1.8059  0.5823 -1.6766
  585MPD2     N 8679   0.959   3.768   0.294 -0.1376  0.0531  0.2069
  585MPD2    H5 8680   0.991   3.820   0.212  1.6329 -1.9281 -0.3805
  585MPD2    N1 8681   0.754   4.168   0.480 -0.6001 -0.1166 -0.2136
  585MPD2    H7 8682   0.694   4.208   0.551 -0.0001 -0.1732  0.3201
  586TMC3    C1 8683   1.022   3.611   0.146  0.0674  0.0228  0.3109
  586TMC3    C2 8684   1.088   3.498   0.119  0.6501  0.3863  0.2842
  586TMC3    C3 8685   1.101   3.462  17.680  0.0574 -0.1828 -0.5033
  586TMC3    C4 8686   0.947   3.682   0.054  0.3401  0.1054  0.3585
  586TMC3    C5 8687   0.948   3.627  17.622  0.4609  0.0368  0.8224
  586TMC3    C6 8688   1.029   3.526  17.580  0.0997  0.1769 -0.6308
  586TMC3     C 8689   0.986   3.639   0.284  0.2528 -0.2549 -0.8682
  586TMC3     O 8690   0.976   3.544   0.362 -0.2265  0.2608  0.0125
  586TMC3     H 8691   1.149   3.447   0.192 -0.0620 -0.7702  0.0632
  586TMC3    H1 8692   0.889   3.771   0.075  0.3382  0.2437 -0.2225
  586TMC3    H2 8693   1.024   3.482  17.481  3.0193 -2.0652  0.1884
  586TMC3    C7 8694   0.835   3.641  17.547 -0.1949  0.1167  0.3082
  586TMC3    C8 8695   1.185   3.346  17.655 -0.0073  0.6704  0.1657
  586TMC3    O1 8696   0.729   3.655  17.604 -0.0505  0.1132 -0.0983
  586TMC3    O2 8697   1.206   3.275   0.064  0.4860 -0.1554 -0.2098
  587TMC3    C1 8698   3.140   2.770  16.044  0.1422 -0.2205  0.4506
  587TMC3    C2 8699   3.176   2.871  16.132 -0.6920  0.4901 -0.4624
  587TMC3    C3 8700   3.286   2.865  16.219  1.5901 -0.2433 -0.5212
  587TMC3    C4 8701   3.202   2.650  16.065 -0.3166  0.1054 -0.2875
  587TMC3    C5 8702   3.312   2.648  16.147  0.3662  0.1579 -0.5589
  587TMC3    C6 8703   3.361   2.754  16.227 -0.4287  1.1308 -0.1436
  587TMC3     C 8704   2.994   2.757  16.032  0.0974  0.0166  0.3769
  587TMC3     O 8705   2.972   2.693  15.932 -0.5518 -0.3137  0.6743
  587TMC3     H 8706   3.125   2.964  16.114 -1.9436  0.4430  2.7638
  587TMC3    H1 8707   3.166   2.570  16.002 -0.0979  0.1799 -0.5096
  587TMC3    H2 8708   3.432   2.734  16.306  0.4595  0.2315 -1.1688
  587TMC3    C7 8709   3.363   2.521  16.198 -0.4378  0.4876 -0.0039
  587TMC3    C8 8710   3.264   2.923  16.350  0.7255  0.7759  0.0368
  587TMC3    O1 8711   3.465   2.519  16.269 -0.6429 -0.0329  1.1203
  587TMC3    O2 8712   3.349   2.903  16.438  0.2133 -0.0443 -0.3765
  588TMC3    C1 8713   0.335   0.815   9.564  0.3698  0.3438 -0.6201
  588TMC3    C2 8714   0.287   0.695   9.532  0.1866 -0.6443  0.0174
  588TMC3    C3 8715   0.361   0.584   9.570  0.5339  0.7155 -0.0968
  588TMC3    C4 8716   0.452   0.824   9.639  0.6127 -0.4257  1.3781
  588TMC3    C5 8717   0.524   0.712   9.674  0.6680  0.5302 -0.0299
  588TMC3    C6 8718   0.480   0.585   9.638  0.1642  0.3341  0.1694
  588TMC3     C 8719   0.256   0.928   9.528 -1.0068  0.3654 -0.6072
  588TMC3     O 8720   0.135   0.918   9.519 -0.3207 -0.3667  0.1800
  588TMC3     H 8721   0.200   0.688   9.468  0.2260 -1.2216  0.0356
  588TMC3    H1 8722   0.470   0.921   9.684 -0.1540 -0.0920  0.9608
  588TMC3    H2 8723   0.543   0.499   9.659  1.0844  0.9417 -0.0882
  588TMC3    C7 8724   0.649   0.742   9.750 -0.7405  0.6813  0.1379
  588TMC3    C8 8725   0.308   0.458   9.522  0.1818 -0.4731  0.1837
  588TMC3    O1 8726   0.688   0.649   9.823 -0.0392  0.2639 -0.2443
  588TMC3    O2 8727   0.200   0.462   9.463 -0.0748  0.1095 -0.6445
  589TMC3    C1 8728   4.040   2.637   1.545 -0.3621  0.0051  0.7436
  589TMC3    C2 8729   4.060   2.715   1.649 -0.3146 -0.4283  0.8072
  589TMC3    C3 8730   4.179   2.703   1.714 -0.7374  0.4800 -0.3259
  589TMC3    C4 8731   4.130   2.547   1.488 -0.1511  0.6433  0.0920
  589TMC3    C5 8732   4.249   2.536   1.558 -0.2280  0.0014  0.0481
  589TMC3    C6 8733   4.274   2.621   1.665 -0.1305  0.0601  0.0198
  589TMC3     C 8734   3.962   2.695   1.431 -0.1809 -0.6927 -0.2872
  589TMC3     O 8735   3.991   2.673   1.315 -0.4936  0.4153  0.4989
  589TMC3     H 8736   3.987   2.785   1.686 -0.3755 -1.0187  1.8049
  589TMC3    H1 8737   4.122   2.500   1.390 -0.0464  0.8083  0.0044
  589TMC3    H2 8738   4.348   2.599   1.740  1.0747  1.8648 -0.6398
  589TMC3    C7 8739   4.364   2.473   1.485 -0.2327  0.0626 -0.0547
  589TMC3    C8 8740   4.247   2.822   1.742  0.0662  0.0252 -0.1218
  589TMC3    O1 8741   4.338   2.394   1.399  0.3945  0.0450  0.0174
  589TMC3    O2 8742   4.207   2.887   1.836 -0.4692 -0.1089  0.0289
  590MPD2     C 8743   3.271   0.993  16.479 -0.6041 -0.0174  0.4410
  590MPD2    C1 8744   3.249   1.013  16.339 -0.1569  0.5484 -0.7097
  590MPD2    C2 8745   3.358   1.017  16.252 -0.0807  0.1267  0.0175
  590MPD2    C3 8746   3.487   1.004  16.302  0.6144 -0.4469 -0.5434
  590MPD2    C4 8747   3.507   0.981  16.438 -0.1887 -0.7284 -0.4047
  590MPD2    C5 8748   3.403   0.964  16.523  0.3948  0.5279 -0.1958
  590MPD2     H 8749   3.345   1.022  16.144  0.9202  0.0323 -0.1067
  590MPD2    H1 8750   3.607   0.970  16.479  0.3031 -1.2044 -1.7319
  590MPD2    H2 8751   3.188   0.987  16.549 -0.9755  0.1760  0.0171
  590MPD2    H3 8752   3.432   0.955  16.627 -1.5231 -2.9550  0.0425
  590MPD2     N 8753   3.589   1.016  16.203 -0.1544  0.4452  0.6103
  590MPD2    H5 8754   3.550   1.022  16.109 -2.3077  1.7083  1.5851
  590MPD2    N1 8755   3.124   1.046  16.284 -0.4734 -0.1353 -0.3871
  590MPD2    H7 8756   3.045   1.060  16.346 -1.2644 -1.1099 -1.1808
  591TMC3    C1 8757   3.799   1.090  16.118 -0.0658 -0.3755  0.1041
  591TMC3    C2 8758   3.772   1.047  15.991  0.6369 -0.4857  0.3424
  591TMC3    C3 8759   3.809   1.117  15.881 -0.5497 -0.2784 -0.4474
  591TMC3    C4 8760   3.850   1.214  16.132 -0.4185  0.3704  0.4949
  591TMC3    C5 8761   3.881   1.283  16.020 -0.7671 -0.0406  0.3572
  591TMC3    C6 8762   3.864   1.241  15.886  0.7069  0.4901  0.2051
  591TMC3     C 8763   3.723   1.050  16.233 -0.2259  0.4256  0.2607
  591TMC3     O 8764   3.770   1.065  16.347  0.3193  0.1896 -0.6570
  591TMC3     H 8765   3.728   0.950  15.973 -0.8091  0.1260  0.5756
  591TMC3    H1 8766   3.878   1.257  16.227 -0.9187 -0.4065  0.9927
  591TMC3    H2 8767   3.899   1.290  15.796  0.8254  0.2618  0.1252
  591TMC3    C7 8768   3.949   1.410  16.050 -0.0666 -0.3465 -0.3412
  591TMC3    C8 8769   3.800   1.041  15.755  0.3841 -0.0008 -0.3427
  591TMC3    O1 8770   4.022   1.417  16.145 -0.8136 -0.3450  0.1603
  591TMC3    O2 8771   3.808   0.918  15.763 -0.0810 -0.0044 -0.3493
  592MPD2     C 8772   4.287   3.324  11.083  0.2898 -0.3960  0.3023
  592MPD2    C1 8773   4.311   3.295  11.215 -0.4699  0.0317 -0.7304
  592MPD2    C2 8774   4.245   3.197  11.286  1.0020 -0.1699  0.2239
  592MPD2    C3 8775   4.167   3.111  11.218  0.4061  0.0176  0.2299
  592MPD2    C4 8776   4.150   3.133  11.081  0.1569  0.0554 -0.1528
  592MPD2    C5 8777   4.209   3.239  11.015 -0.6175  0.6084  0.0045
  592MPD2     H 8778   4.260   3.188  11.393 -1.7929 -1.6058  0.4839
  592MPD2    H1 8779   4.085   3.073  11.019  0.8145  0.0734 -0.8600
  592MPD2    H2 8780   4.346   3.401  11.035  0.9026  0.0638  1.7907
  592MPD2    H3 8781   4.205   3.239  10.906 -1.6078  1.4821  0.0345
  592MPD2     N 8782   4.102   3.014  11.293  0.1916  0.8046  0.2959
  592MPD2    H5 8783   4.113   3.024  11.393  0.1826  2.6028  0.1160
  592MPD2    N1 8784   4.415   3.372  11.275 -0.3450  0.5314  0.4999
  592MPD2    H7 8785   4.439   3.456  11.225 -0.5642  0.6314  0.5610
  593TMC3    C1 8786   4.559   3.439  11.464  0.3116  0.3337  0.0285
  593TMC3    C2 8787   4.589   3.402  11.595  0.7889 -0.0243  0.6196
  593TMC3    C3 8788   4.712   3.429  11.648 -0.9051 -0.2643 -0.3496
  593TMC3    C4 8789   4.647   3.520  11.393  0.2804 -0.3692  0.2989
  593TMC3    C5 8790   0.041   3.561  11.453 -0.1867 -0.8145 -0.4826
  593TMC3    C6 8791   0.075   3.508  11.575 -0.3007 -0.2529  0.6236
  593TMC3     C 8792   4.473   3.344  11.397 -0.1620 -0.2013 -0.5969
  593TMC3     O 8793   4.475   3.239  11.459 -0.1331  0.0938  0.2920
  593TMC3     H 8794   4.522   3.334  11.647  0.8311 -1.2804 -0.9566
  593TMC3    H1 8795   4.611   3.557  11.298  0.6178  0.8204  0.6307
  593TMC3    H2 8796   0.163   3.547  11.624 -0.2029  1.3369 -0.8018
  593TMC3    C7 8797   0.131   3.659  11.391 -0.0139  0.1258  0.0072
  593TMC3    C8 8798   0.039   3.320  11.728  0.3861  0.0050  0.8664
  593TMC3    O1 8799   0.209   3.717  11.467 -0.1478  0.4885 -0.1275
  593TMC3    O2 8800   4.677   3.244  11.772  0.2858 -0.1458  0.5967
  594MPD2     C 8801   2.412   1.924  13.615  0.3100  0.4352 -0.5094
  594MPD2    C1 8802   2.416   1.931  13.757 -0.3264  0.1241  0.2067
  594MPD2    C2 8803   2.524   1.993  13.816 -0.4999 -0.4282 -0.4817
  594MPD2    C3 8804   2.627   2.034  13.743  0.2382  0.0898  0.9160
  594MPD2    C4 8805   2.631   2.032  13.605  0.1141 -0.0354  0.5200
  594MPD2    C5 8806   2.527   1.970  13.541  0.5337 -1.0248  0.9007
  594MPD2     H 8807   2.541   1.998  13.923 -1.3842 -0.6403 -0.3279
  594MPD2    H1 8808   2.722   2.052  13.549  0.2960  0.2107  0.9047
  594MPD2    H2 8809   2.328   1.874  13.568  2.8763 -0.6703 -3.9674
  594MPD2    H3 8810   2.537   1.949  13.435  0.5220 -1.7028  1.0321
  594MPD2     N 8811   2.740   2.079  13.818 -1.0469  0.0144 -0.1770
  594MPD2    H5 8812   2.723   2.082  13.917  0.7238  0.3184  0.1250
  594MPD2    N1 8813   2.306   1.879  13.831  0.2937 -0.0707  0.4970
  594MPD2    H7 8814   2.230   1.835  13.780  1.2264 -1.7197  0.5092
  595TMC3    C1 8815   3.109   2.317  13.939 -0.1515  0.3022  0.6849
  595TMC3    C2 8816   3.056   2.224  13.863 -0.6731 -0.0310  0.2265
  595TMC3    C3 8817   2.927   2.174  13.883  0.4552 -0.0963  0.0414
  595TMC3    C4 8818   3.030   2.375  14.034  0.3672  0.6395  0.4231
  595TMC3    C5 8819   2.905   2.328  14.062  0.2564  0.3158 -0.1384
  595TMC3    C6 8820   2.847   2.222  13.988 -0.1379 -0.4240 -0.1562
  595TMC3     C 8821   3.260   2.321  13.954 -0.1329  0.0802  0.1965
  595TMC3     O 8822   3.296   2.421  14.018  0.2792  0.4728  1.3441
  595TMC3     H 8823   3.112   2.188  13.778 -1.9150 -2.2752  0.3556
  595TMC3    H1 8824   3.082   2.437  14.105  3.0163 -2.3546  1.0896
  595TMC3    H2 8825   2.754   2.184  14.028  1.1591 -2.2836  1.0676
  595TMC3    C7 8826   2.844   2.363  14.184  0.5762  0.3266 -0.4220
  595TMC3    C8 8827   2.857   2.122  13.767 -0.5493  0.1621 -0.2336
  595TMC3    O1 8828   2.725   2.370  14.184 -0.1202  0.1376 -0.5934
  595TMC3    O2 8829   2.916   2.095  13.661 -0.6072  0.1599 -0.3659
  596MPD2     C 8830   1.837   4.576  16.510  0.3158  0.4563 -0.1264
  596MPD2    C1 8831   1.866   4.689  16.442 -0.0516  0.3270  0.2380
  596MPD2    C2 8832   1.877   4.673  16.303  0.2831  0.1718  0.0518
  596MPD2    C3 8833   1.853   4.559  16.238 -0.5300  0.5101 -0.3551
  596MPD2    C4 8834   1.822   4.451  16.311  0.2524  0.9106 -0.2041
  596MPD2    C5 8835   1.807   4.461  16.446 -0.3152  0.3704  0.6180
  596MPD2     H 8836   1.904   0.042  16.251  3.0382  1.6720  4.1065
  596MPD2    H1 8837   1.790   4.357  16.269  2.6543 -0.1895  0.4042
  596MPD2    H2 8838   1.832   4.580  16.618  1.3522 -0.9451 -0.0149
  596MPD2    H3 8839   1.793   4.369  16.502  0.1936 -0.7432 -1.0711
  596MPD2     N 8840   1.866   4.549  16.097  0.6537 -0.0087  0.2847
  596MPD2    H5 8841   1.829   4.462  16.058  0.8712  0.8535 -1.8602
  596MPD2    N1 8842   1.881   0.090  16.503 -0.3216  0.1912  0.1104
  596MPD2    H7 8843   1.890   0.167  16.437  3.1454  0.7252  1.1869
  597TMC3    C1 8844   1.844   0.278  16.639 -0.0070  0.7267  0.0696
  597TMC3    C2 8845   1.928   0.357  16.567 -0.0433  0.3752  0.3370
  597TMC3    C3 8846   1.930   0.487  16.600 -0.0169 -0.5924  0.0507
  597TMC3    C4 8847   1.781   0.322  16.756  0.6964  0.6015  0.3157
  597TMC3    C5 8848   1.786   0.453  16.782 -0.0482 -0.2709 -0.7985
  597TMC3    C6 8849   1.858   0.538  16.701  0.3012 -0.2932 -0.4953
  597TMC3     C 8850   1.859   0.131  16.634 -0.6649 -0.6670  0.2497
  597TMC3     O 8851   1.832   0.062  16.730 -0.6305  0.1066  0.2720
  597TMC3     H 8852   1.993   0.317  16.490  2.1062 -0.3640  2.5540
  597TMC3    H1 8853   1.724   0.257  16.821  1.1604 -0.7282 -0.6034
  597TMC3    H2 8854   1.841   0.644  16.711 -1.0788 -0.7706  2.1942
  597TMC3    C7 8855   1.682   0.500  16.867  0.0892  0.3860 -0.4043
  597TMC3    C8 8856   2.004   0.582  16.523  0.2856 -0.4498  0.6588
  597TMC3    O1 8857   1.595   0.418  16.893  0.2085  0.6896 -0.4894
  597TMC3    O2 8858   2.002   0.699  16.560  0.1298  0.3319 -0.1705
  598TMC3    C1 8859   0.071   1.702  15.076  0.3218  0.3291 -0.0330
  598TMC3    C2 8860   4.688   1.616  15.083  0.0709  0.1828  0.0945
  598TMC3    C3 8861   4.594   1.613  14.980 -0.0198 -0.2607  0.2378
  598TMC3    C4 8862   0.089   1.787  14.969 -0.1883  0.2756 -0.8285
  598TMC3    C5 8863   4.718   1.774  14.869 -0.2388  0.0973 -0.1349
  598TMC3    C6 8864   4.603   1.698  14.877  0.5864  0.3078  0.8602
  598TMC3     C 8865   0.156   1.720  15.198 -0.2269 -0.4507 -0.5438
  598TMC3     O 8866   0.163   1.627  15.283  0.7124 -0.4086 -0.1250
  598TMC3     H 8867   4.692   1.549  15.168  3.3340  0.8713  0.4843
  598TMC3    H1 8868   0.183   1.837  14.950 -0.2331  1.3052  1.6483
  598TMC3    H2 8869   4.521   1.701  14.807  2.1953  1.5242 -0.9624
  598TMC3    C7 8870   0.013   1.848  14.747  0.6523  0.5229 -0.0982
  598TMC3    C8 8871   4.480   1.529  14.981 -0.5313  0.0319  0.1485
  598TMC3    O1 8872   4.659   1.824  14.655  0.4234  0.1262  0.2019
  598TMC3    O2 8873   4.449   1.492  14.865  0.1429  0.2308  0.3548
  599MPD2     C 8874   0.308   4.020  15.934 -0.0831  0.5139 -0.5499
  599MPD2    C1 8875   0.253   3.889  15.949  0.0152 -0.4989 -0.4974
  599MPD2    C2 8876   0.129   3.870  15.995 -0.0117 -0.5784 -0.2208
  599MPD2    C3 8877   0.053   3.976  16.037 -0.4267 -0.0418  0.4341
  599MPD2    C4 8878   0.106   4.108  16.022 -0.4810  0.1688 -0.5854
  599MPD2    C5 8879   0.228   4.130  15.973  0.3867 -0.2281 -0.1893
  599MPD2     H 8880   0.098   3.766  15.996 -0.0041 -0.5605  1.5097
  599MPD2    H1 8881   0.051   4.196  16.052  1.8958  1.5272 -0.2516
  599MPD2    H2 8882   0.408   4.041  15.897  0.2277  2.1022  1.1692
  599MPD2    H3 8883   0.268   4.230  15.958  1.2409 -0.2471  2.0569
  599MPD2     N 8884   4.647   3.971  16.095  0.3464  0.3541  0.1735
  599MPD2    H5 8885   4.604   4.055  16.132  0.7783  0.7449 -0.2104
  599MPD2    N1 8886   0.350   3.787  15.922  0.3041 -0.1681 -0.1137
  599MPD2    H7 8887   0.448   3.811  15.916  0.2827  0.0292  0.3336
  600TMC3    C1 8888   4.439   3.899  16.166 -0.2345  0.0783  0.6992
  600TMC3    C2 8889   4.371   3.801  16.225  0.7458 -0.0190 -0.3173
  600TMC3    C3 8890   4.257   3.832  16.276 -0.7565 -0.6102 -0.0593
  600TMC3    C4 8891   4.400   4.031  16.149  0.0833  0.3947  0.2367
  600TMC3    C5 8892   4.277   4.063  16.203  0.3325 -0.1922 -0.3988
  600TMC3    C6 8893   4.209   3.960  16.267  0.5449 -0.5164  0.0456
  600TMC3     C 8894   4.573   3.853  16.117  1.1497  0.6116 -0.5080
  600TMC3     O 8895   4.595   3.738  16.084  0.1948 -0.1953  0.3616
  600TMC3     H 8896   4.410   3.700  16.227  1.8717  0.5030  3.9085
  600TMC3    H1 8897   4.456   4.100  16.087 -1.3464  0.9591 -0.4334
  600TMC3    H2 8898   4.108   3.981  16.302  0.5266 -1.3307  0.4805
  600TMC3    C7 8899   4.226   4.197  16.225  0.6480  0.3538  0.2154
  600TMC3    C8 8900   4.181   3.731  16.341 -0.2723  0.1387  0.6635
  600TMC3    O1 8901   4.118   4.212  16.289  0.5541 -0.1785 -0.1775
  600TMC3    O2 8902   4.244   3.640  16.398 -0.1927 -0.2134 -0.2254
  601MPD2     C 8903   2.431   2.478   0.228 -0.5198  0.4008 -0.2416
  601MPD2    C1 8904   2.376   2.422   0.115 -0.0340 -0.1841  0.4470
  601MPD2    C2 8905   2.343   2.291   0.107 -0.3995  0.3085 -0.2913
  601MPD2    C3 8906   2.379   2.209   0.213 -0.8114  0.1320  0.3175
  601MPD2    C4 8907   2.436   2.261   0.330  0.8758 -1.2096 -0.0342
  601MPD2    C5 8908   2.464   2.394   0.332  0.2642  0.1091 -0.6842
  601MPD2     H 8909   2.302   2.254   0.014 -1.1353 -0.1911  0.2312
  601MPD2    H1 8910   2.456   2.189   0.408  0.5251 -0.2586  0.9188
  601MPD2    H2 8911   2.452   2.584   0.229  0.6566  0.1835 -3.9679
  601MPD2    H3 8912   2.512   2.434   0.421  0.7489 -0.5922 -0.6243
  601MPD2     N 8913   2.362   2.070   0.200 -0.1597  0.1955  0.6703
  601MPD2    H5 8914   2.394   2.025   0.285  1.6398  1.9026  0.8882
  601MPD2    N1 8915   2.349   2.502  17.691  0.4426  0.0620  0.2553
  601MPD2    H7 8916   2.308   2.456  17.611 -1.7095  0.0218  1.4004
  602TMC3    C1 8917   2.340   2.696  17.560  0.0347 -0.4840  0.2024
  602TMC3    C2 8918   2.416   2.769  17.474  0.7951  0.5349 -0.1623
  602TMC3    C3 8919   2.370   2.795  17.348 -0.1907  0.9656  0.0147
  602TMC3    C4 8920   2.209   2.658  17.521  0.0006 -0.4600 -0.1113
  602TMC3    C5 8921   2.171   2.696  17.396  0.4972  0.0872  0.1601
  602TMC3    C6 8922   2.247   2.763  17.304 -0.1308  0.2443 -0.0667
  602TMC3     C 8923   2.399   2.631  17.670  0.9318  0.1945 -0.6193
  602TMC3     O 8924   2.491   2.686   0.027  0.3734  0.7214  0.3048
  602TMC3     H 8925   2.518   2.790  17.503  1.5221  0.3556 -2.5693
  602TMC3    H1 8926   2.150   2.608  17.597 -1.6109 -1.1075 -1.7871
  602TMC3    H2 8927   2.220   2.770  17.200  1.0291 -0.9632 -0.4428
  602TMC3    C7 8928   2.027   2.702  17.368  0.0239  0.4014  0.0769
  602TMC3    C8 8929   2.454   2.867  17.255 -0.5502 -0.2830 -0.4478
  602TMC3    O1 8930   1.957   2.616  17.423 -0.1383 -0.1586 -0.0354
  602TMC3    O2 8931   2.577   2.848  17.251  0.0962 -0.4710  0.7245
  603TMC3    C1 8932   0.385   2.996  11.187 -0.0759  0.3217  0.0385
  603TMC3    C2 8933   0.459   2.933  11.282 -0.1773  0.7859 -0.0217
  603TMC3    C3 8934   0.597   2.934  11.272  0.5078  0.1747 -0.0335
  603TMC3    C4 8935   0.437   3.045  11.069 -1.2405 -0.1390 -0.1552
  603TMC3    C5 8936   0.571   3.036  11.059 -0.6802  0.4538 -0.8263
  603TMC3    C6 8937   0.650   2.969  11.147 -0.3549 -0.0905 -0.0969
  603TMC3     C 8938   0.267   2.919  11.154  0.1110  0.8521 -0.2406
  603TMC3     O 8939   0.198   2.950  11.057  0.3156 -0.0167  0.0132
  603TMC3     H 8940   0.420   2.904  11.379  4.9450  0.0296  1.8238
  603TMC3    H1 8941   0.378   3.113  11.008  0.5576  0.0171 -1.7156
  603TMC3    H2 8942   0.756   2.992  11.142 -0.3309  0.0699  1.1063
  603TMC3    C7 8943   0.638   3.134  10.982 -0.3531 -0.2217 -0.1394
  603TMC3    C8 8944   0.661   2.828  11.348  0.2483  0.1706  0.2393
  603TMC3    O1 8945   0.755   3.152  11.005 -0.0385 -0.4263  0.7599
  603TMC3    O2 8946   0.583   2.734  11.374 -0.3938  0.6012 -0.2993
  604MPD2     C 8947   1.009   0.948  16.121  0.5198 -0.1163 -0.0781
  604MPD2    C1 8948   0.941   1.055  16.060 -0.3008 -0.0661 -0.3324
  604MPD2    C2 8949   0.908   1.049  15.921  0.1925 -0.1211 -0.0024
  604MPD2    C3 8950   0.932   0.924  15.861  0.2547 -0.4233 -0.0380
  604MPD2    C4 8951   0.984   0.820  15.931  0.4342 -0.5492  0.0619
  604MPD2    C5 8952   1.025   0.831  16.060 -0.5145 -0.3477  1.2111
  604MPD2     H 8953   0.847   1.123  15.869 -0.7722 -0.5480  0.5131
  604MPD2    H1 8954   0.995   0.719  15.893 -0.0735 -0.2697 -0.8314
  604MPD2    H2 8955   1.038   0.946  16.226  0.1591  0.4088  0.0314
  604MPD2    H3 8956   1.063   0.745  16.114  2.6012  0.5156  0.4057
  604MPD2     N 8957   0.896   0.916  15.722  0.5531 -0.0944  0.5263
  604MPD2    H5 8958   0.898   1.002  15.669  1.4009 -0.1806  0.4150
  604MPD2    N1 8959   0.906   1.174  16.138 -0.3843 -0.2088  0.0866
  604MPD2    H7 8960   0.954   1.175  16.228 -0.7466 -1.6426  0.2898
  605TMC3    C1 8961   0.741   1.326  16.218  0.7155  0.1587 -0.5319
  605TMC3    C2 8962   0.833   1.400  16.289  0.4125  0.6115  0.2784
  605TMC3    C3 8963   0.789   1.517  16.340 -0.0255 -0.0835 -0.7648
  605TMC3    C4 8964   0.615   1.382  16.181  0.1709  0.0018 -0.2938
  605TMC3    C5 8965   0.574   1.500  16.237  0.1530  0.5227 -0.7017
  605TMC3    C6 8966   0.660   1.564  16.315  0.0761  0.1400  0.0674
  605TMC3     C 8967   0.798   1.249  16.105 -0.2552 -0.2578 -0.1052
  605TMC3     O 8968   0.724   1.241  16.005  0.3035  0.3043  0.2516
  605TMC3     H 8969   0.934   1.369  16.312  0.2543  0.4537  0.7552
  605TMC3    H1 8970   0.545   1.319  16.127  0.0844 -0.3565  0.2284
  605TMC3    H2 8971   0.627   1.662  16.346  0.4423  0.3955 -0.3529
  605TMC3    C7 8972   0.443   1.560  16.233  0.1507  0.4716 -0.3844
  605TMC3    C8 8973   0.886   1.606  16.406 -0.1073 -0.3213  0.3257
  605TMC3    O1 8974   0.419   1.678  16.257 -0.3219 -0.0567 -0.1103
  605TMC3    O2 8975   0.999   1.592  16.368 -0.2958 -0.0186  0.0986
  606TMC3    C1 8976   2.260   0.093  16.890  0.5179  0.3730  0.2509
  606TMC3    C2 8977   2.353   0.053  16.986 -0.6160  0.3180 -0.2921
  606TMC3    C3 8978   2.355   4.646  17.029 -0.8337 -0.8724 -0.2655
  606TMC3    C4 8979   2.179   4.723  16.833 -0.4535 -0.5709 -0.1441
  606TMC3    C5 8980   2.177   4.598  16.889 -0.2506  0.1346  0.3160
  606TMC3    C6 8981   2.262   4.558  16.986  0.4302  0.1776 -0.6387
  606TMC3     C 8982   2.233   0.235  16.856 -0.1318 -0.3382 -0.4323
  606TMC3     O 8983   2.146   0.244  16.772  0.0034  0.1898  0.4141
  606TMC3     H 8984   2.412   0.121  17.045 -1.5851  1.3338 -0.4842
  606TMC3    H1 8985   2.119   0.016  16.743  0.0226  0.2337 -0.3168
  606TMC3    H2 8986   2.254   4.454  17.014  0.3784  0.5271  0.6561
  606TMC3    C7 8987   2.084   4.498  16.842  0.2573 -0.2259  0.2059
  606TMC3    C8 8988   2.458   4.601  17.127  0.1195 -0.2223 -0.6827
  606TMC3    O1 8989   2.078   4.484  16.722 -0.3102 -0.4129  0.0269
  606TMC3    O2 8990   2.549   4.680  17.143 -0.3600  0.2022 -0.2088
  607MPD2     C 8991   4.294   2.760  11.103  0.0703  0.4009  0.2118
  607MPD2    C1 8992   4.348   2.785  11.223  0.3155  0.1746  0.2973
  607MPD2    C2 8993   4.334   2.699  11.328 -0.4971 -0.2606 -0.1510
  607MPD2    C3 8994   4.273   2.577  11.312  0.3163 -0.2988  0.3890
  607MPD2    C4 8995   4.208   2.553  11.188 -0.6230  0.0319 -0.2927
  607MPD2    C5 8996   4.229   2.643  11.084 -0.4939 -0.5048 -0.3010
  607MPD2     H 8997   4.383   2.710  11.424 -2.1732 -1.4064  0.8149
  607MPD2    H1 8998   4.157   2.460  11.165  0.2234 -0.2456 -1.0642
  607MPD2    H2 8999   4.304   2.832  11.022  0.4157  2.9022  2.4725
  607MPD2    H3 9000   4.187   2.622  10.986 -3.1485  1.1148  0.4831
  607MPD2     N 9001   4.274   2.478  11.414 -0.0442 -0.2144 -0.0774
  607MPD2    H5 9002   4.315   2.505  11.504 -0.8855  0.2529  0.1622
  607MPD2    N1 9003   4.426   2.898  11.244  0.2197 -0.1008  0.4964
  607MPD2    H7 9004   4.441   2.913  11.343  0.3084  0.1411  0.4450
  608TMC3    C1 9005   4.591   3.065  11.220 -1.3694  0.0411  0.0527
  608TMC3    C2 9006   4.641   3.015  11.340 -0.2212 -0.3747  0.0217
  608TMC3    C3 9007   0.038   3.058  11.381 -0.3991 -0.3350 -0.9161
  608TMC3    C4 9008   4.660   3.163  11.153 -0.0276 -0.8063  0.7767
  608TMC3    C5 9009   0.050   3.217  11.201 -0.5564  0.6664 -0.1792
  608TMC3    C6 9010   0.101   3.165  11.320 -0.3664 -0.7294  0.0348
  608TMC3     C 9011   4.482   2.987  11.153  0.3319 -0.1367  0.3484
  608TMC3     O 9012   4.488   2.985  11.029  0.1619  0.0884  0.2793
  608TMC3     H 9013   4.583   2.941  11.394  0.8018 -0.7633  0.5942
  608TMC3    H1 9014   4.634   3.191  11.051  3.4289 -0.7127 -0.0668
  608TMC3    H2 9015   0.198   3.182  11.363 -0.8314  3.3281 -0.4466
  608TMC3    C7 9016   0.131   3.297  11.111 -0.3316 -0.4986 -0.1978
  608TMC3    C8 9017   0.116   2.983  11.484 -0.3526  0.3450  1.1647
  608TMC3    O1 9018   0.095   3.303  10.992  0.0474 -0.3770  0.4224
  608TMC3    O2 9019   0.230   3.011  11.511  0.2680 -0.0814  0.5980
  609TMC3    C1 9020   2.789   1.689   8.833  0.2998  0.5093  0.0695
  609TMC3    C2 9021   2.751   1.818   8.848 -0.1325  0.9582 -0.3648
  609TMC3    C3 9022   2.846   1.903   8.888  0.4794 -0.0432  0.3395
  609TMC3    C4 9023   2.921   1.647   8.857 -0.1551 -0.2123 -0.0411
  609TMC3    C5 9024   3.017   1.742   8.882 -0.3361 -0.3636 -0.4387
  609TMC3    C6 9025   2.976   1.875   8.900 -0.5971 -0.4021  0.0563
  609TMC3     C 9026   2.688   1.581   8.835  0.1840 -0.6110  0.0046
  609TMC3     O 9027   2.725   1.472   8.877  0.2126  0.0937  0.0598
  609TMC3     H 9028   2.647   1.845   8.838 -0.3437  1.8715  4.7229
  609TMC3    H1 9029   2.953   1.546   8.833  0.0222 -0.0547 -0.4647
  609TMC3    H2 9030   3.051   1.950   8.922 -1.9131  0.3061  2.2218
  609TMC3    C7 9031   3.161   1.712   8.895 -0.0612 -0.0399  0.7481
  609TMC3    C8 9032   2.790   2.022   8.951 -1.1368  0.3087  0.4273
  609TMC3    O1 9033   3.227   1.818   8.903  0.4101 -0.0591 -0.5044
  609TMC3    O2 9034   2.674   2.016   8.995  0.3013 -0.2239  0.1641
  610TMC3    C1 9035   0.107   2.304  12.296 -0.3404  0.1753 -0.4076
  610TMC3    C2 9036   0.174   2.293  12.178 -0.6972  0.2771 -0.1966
  610TMC3    C3 9037   0.312   2.317  12.174 -0.1898 -0.1131 -0.0728
  610TMC3    C4 9038   0.171   2.309  12.418 -0.1168  0.4603 -0.5239
  610TMC3    C5 9039   0.310   2.304  12.410 -0.0192 -0.1910  0.0551
  610TMC3    C6 9040   0.384   2.311  12.291 -0.2885  0.4303  0.0309
  610TMC3     C 9041   4.689   2.307  12.288 -0.0926  0.9502  0.1232
  610TMC3     O 9042   4.624   2.327  12.387  0.1009 -0.1128  0.6594
  610TMC3     H 9043   0.122   2.316  12.086  1.3172  0.5006 -1.2788
  610TMC3    H1 9044   0.109   2.311  12.507 -1.1095  1.5146 -1.2429
  610TMC3    H2 9045   0.493   2.310  12.294 -0.3653 -1.3807  2.2384
  610TMC3    C7 9046   0.384   2.247  12.527  0.5485  0.4462 -0.2294
  610TMC3    C8 9047   0.370   2.348  12.043 -0.4510  0.2240 -0.2874
  610TMC3    O1 9048   0.486   2.193  12.486 -0.0179 -0.0793  0.1190
  610TMC3    O2 9049   0.305   2.310  11.944 -0.6747  0.1448  0.3149
  611MPD2     C 9050   4.590   2.810  10.429  0.1376 -0.1641  0.3392
  611MPD2    C1 9051   4.574   2.862  10.307  0.9809  0.2414  0.4459
  611MPD2    C2 9052   4.654   2.960  10.255 -0.2138  0.0988  0.0553
  611MPD2    C3 9053   0.034   3.012  10.335  0.1983 -0.0332  0.4268
  611MPD2    C4 9054   0.056   2.961  10.466  0.2232 -0.0110  0.5992
  611MPD2    C5 9055   4.697   2.857  10.502  0.3024  0.2723 -0.4330
  611MPD2     H 9056   4.618   3.007  10.164  1.9869 -1.0507 -1.3994
  611MPD2    H1 9057   0.137   2.999  10.527  0.7792 -2.6258  1.5258
  611MPD2    H2 9058   4.544   2.721  10.472 -2.0180  1.6915  1.9016
  611MPD2    H3 9059   0.005   2.804  10.592 -2.2030  1.8557  1.3500
  611MPD2     N 9060   0.121   3.122  10.302 -0.1169  0.5485 -0.0632
  611MPD2    H5 9061   0.195   3.140  10.369  0.0525  2.3581 -0.7377
  611MPD2    N1 9062   4.463   2.813  10.230  0.1049 -0.3936 -0.1053
  611MPD2    H7 9063   4.411   2.736  10.271  0.1301  0.4060  1.4564
  612TMC3    C1 9064   0.233   3.286  10.160 -0.1925  0.1752  0.0205
  612TMC3    C2 9065   0.307   3.326  10.264 -0.1152 -0.4807 -0.0007
  612TMC3    C3 9066   0.405   3.416  10.230 -0.1661  0.2376  0.4590
  612TMC3    C4 9067   0.255   3.321  10.031  0.2932 -0.0586  0.7815
  612TMC3    C5 9068   0.352   3.415  10.006  0.6905  0.4883 -0.2672
  612TMC3    C6 9069   0.427   3.468  10.104  0.4738 -0.4498 -0.3981
  612TMC3     C 9070   0.124   3.179  10.179 -0.0607 -0.0578  0.1474
  612TMC3     O 9071   0.073   3.139  10.075  0.0604  0.3647 -0.1357
  612TMC3     H 9072   0.284   3.294  10.366  1.7211 -2.6914 -0.2654
  612TMC3    H1 9073   0.205   3.262   9.955 -0.7915  1.2696  0.4588
  612TMC3    H2 9074   0.507   3.538  10.080  0.5205  0.0703  1.2590
  612TMC3    C7 9075   0.387   3.447   9.876 -0.0146  0.2232 -0.4850
  612TMC3    C8 9076   0.516   3.433  10.324  0.1123  0.3370 -0.4757
  612TMC3    O1 9077   0.496   3.510   9.869  0.1255 -0.1180  0.4974
  612TMC3    O2 9078   0.600   3.515  10.287 -0.2743  0.0962 -0.4760
  613MPD2     C 9079   3.360   0.340  16.492  0.7639  0.6951 -0.3654
  613MPD2    C1 9080   3.247   0.356  16.417  0.0406 -1.5542  0.0796
  613MPD2    C2 9081   3.140   0.269  16.452 -0.4355  0.2628  1.2087
  613MPD2    C3 9082   3.138   0.193  16.567 -0.1880 -0.7090  0.5803
  613MPD2    C4 9083   3.260   0.182  16.635  0.0343 -0.4521 -0.0617
  613MPD2    C5 9084   3.362   0.259  16.597 -0.0559  0.1947  0.1507
  613MPD2     H 9085   3.052   0.267  16.389  0.6674  0.9231 -0.3457
  613MPD2    H1 9086   3.277   0.117  16.721  0.3572 -1.3201 -0.7845
  613MPD2    H2 9087   3.443   0.408  16.476  0.2576  0.7010 -2.8440
  613MPD2    H3 9088   3.453   0.255  16.654  1.0737  1.0635 -1.5794
  613MPD2     N 9089   3.039   0.105  16.604 -0.5285 -0.5455 -0.1237
  613MPD2    H5 9090   3.069   0.017  16.645 -1.9959 -2.3341 -2.9521
  613MPD2    N1 9091   3.249   0.453  16.308  0.3956 -0.5061 -1.1289
  613MPD2    H7 9092   3.317   0.527  16.320 -0.4159 -0.0276  0.5345
  614TMC3    C1 9093   3.074   0.366  16.169  0.8716  0.2531  0.2276
  614TMC3    C2 9094   3.128   0.242  16.143  0.6321 -0.0016 -0.4818
  614TMC3    C3 9095   3.054   0.154  16.064 -0.2930  0.5615 -0.0309
  614TMC3    C4 9096   2.966   0.409  16.090  0.1082 -0.0530 -0.3251
  614TMC3    C5 9097   2.904   0.321  16.006 -0.2114  0.3502  0.4878
  614TMC3    C6 9098   2.940   0.193  15.991  0.0099 -0.5095 -0.2318
  614TMC3     C 9099   3.141   0.481  16.227 -0.1247  0.6071 -0.3196
  614TMC3     O 9100   3.122   0.585  16.166 -0.2044  0.7021  0.3817
  614TMC3     H 9101   3.219   0.206  16.191  0.4319  1.2639  0.8472
  614TMC3    H1 9102   2.929   0.511  16.094 -3.0374 -1.1620 -1.3135
  614TMC3    H2 9103   2.874   0.118  15.950  0.4639 -0.9976 -0.0656
  614TMC3    C7 9104   2.818   0.385  15.906  0.2634 -0.1416  0.0501
  614TMC3    C8 9105   3.045   0.022  16.124  0.0346  0.0399 -0.4912
  614TMC3    O1 9106   2.766   0.492  15.926 -0.4676  0.4585  0.4039
  614TMC3    O2 9107   3.102   0.005  16.233  0.4567  0.7886 -0.3097
  615MPD2     C 9108   2.267   1.340  15.301  0.5596  0.2427 -0.3506
  615MPD2    C1 9109   2.311   1.470  15.288 -0.1368 -0.2029  0.1265
  615MPD2    C2 9110   2.218   1.560  15.227  0.2564 -0.1447 -0.0799
  615MPD2    C3 9111   2.093   1.522  15.184  0.6064 -0.0304 -0.7432
  615MPD2    C4 9112   2.051   1.388  15.196  0.1302  0.0922  0.4160
  615MPD2    C5 9113   2.143   1.301  15.249  0.2307 -0.5043 -0.1004
  615MPD2     H 9114   2.238   1.667  15.220 -1.3386  0.3304  2.5494
  615MPD2    H1 9115   1.957   1.354  15.154  0.4673  0.5299 -0.6797
  615MPD2    H2 9116   2.318   1.261  15.355  0.2426  2.2084  2.7660
  615MPD2    H3 9117   2.125   1.194  15.255 -2.1447 -0.0438  0.7425
  615MPD2     N 9118   2.002   1.618  15.123  0.2402  0.2939  0.4735
  615MPD2    H5 9119   2.025   1.717  15.120 -1.1113  0.5689 -1.3015
  615MPD2    N1 9120   2.443   1.517  15.319 -0.0192 -0.2709  0.3176
  615MPD2    H7 9121   2.459   1.617  15.312 -1.1209 -0.2558 -1.8480
  616TMC3    C1 9122   2.663   1.523  15.427 -0.0198 -0.5505 -0.8486
  616TMC3    C2 9123   2.740   1.451  15.512 -0.1281 -0.7922 -0.0403
  616TMC3    C3 9124   2.856   1.508  15.559  0.4348  0.0986  0.8192
  616TMC3    C4 9125   2.688   1.657  15.400  0.2413  0.1173  0.5869
  616TMC3    C5 9126   2.800   1.713  15.458  0.3039 -0.2423 -0.2265
  616TMC3    C6 9127   2.885   1.642  15.538  0.1885 -0.1338 -0.1266
  616TMC3     C 9128   2.536   1.450  15.394 -0.1982  0.5610 -0.1680
  616TMC3     O 9129   2.537   1.331  15.424 -0.1872  0.2018 -0.1378
  616TMC3     H 9130   2.717   1.352  15.551  2.6754 -1.7012 -0.6468
  616TMC3    H1 9131   2.629   1.714  15.330  0.4516  1.5277  1.5576
  616TMC3    H2 9132   2.980   1.685  15.568  0.3255 -0.5919  0.0991
  616TMC3    C7 9133   2.803   1.859  15.474 -0.4432  0.4800  0.3872
  616TMC3    C8 9134   2.924   1.436  15.658 -0.5122 -0.5125 -0.2402
  616TMC3    O1 9135   2.700   1.922  15.453  0.5696 -0.7844 -0.2499
  616TMC3    O2 9136   2.939   1.315  15.633  0.2096 -0.2755 -0.3947
  617MPD2     C 9137   0.775   0.326  13.533  0.3421 -0.1510  0.2854
  617MPD2    C1 9138   0.812   0.205  13.583 -0.4535 -0.3242 -0.2938
  617MPD2    C2 9139   0.710   0.115  13.620 -0.1957 -0.7660  0.1407
  617MPD2    C3 9140   0.576   0.139  13.599  0.6458 -0.2792  0.0143
  617MPD2    C4 9141   0.542   0.263  13.549  0.0733  0.7796 -0.0587
  617MPD2    C5 9142   0.641   0.350  13.519 -0.2653  0.1432  0.6101
  617MPD2     H 9143   0.738   0.021  13.666 -0.8386 -0.9966  0.0579
  617MPD2    H1 9144   0.436   0.283  13.540  0.2345  2.4496  1.7211
  617MPD2    H2 9145   0.845   0.406  13.512 -2.6611  2.1822 -0.8789
  617MPD2    H3 9146   0.612   0.446  13.479  0.6203  0.2755  0.2917
  617MPD2     N 9147   0.474   0.054  13.634  0.5680  1.4106  0.9537
  617MPD2    H5 9148   0.380   0.079  13.605  0.3764 -0.9323 -0.4156
  617MPD2    N1 9149   0.951   0.176  13.602 -0.0585 -0.0115 -0.6869
  617MPD2    H7 9150   1.024   0.241  13.576 -0.1917 -0.0942 -1.2701
  618TMC3    C1 9151   1.142   0.046  13.634  0.4336  0.1572 -0.6173
  618TMC3    C2 9152   1.192   4.658  13.701  0.2224 -0.0507 -0.2770
  618TMC3    C3 9153   1.315   4.605  13.665 -0.8658 -0.4050 -1.1259
  618TMC3    C4 9154   1.212   0.100  13.533 -0.0027 -0.1717 -0.8499
  618TMC3    C5 9155   1.334   0.058  13.504  0.2215  0.3551 -0.2426
  618TMC3    C6 9156   1.390   4.673  13.568 -0.1757  0.5769  0.1827
  618TMC3     C 9157   1.002   0.058  13.648  0.3643 -0.0606  0.1878
  618TMC3     O 9158   0.946   4.673  13.662  0.0701 -0.0716  0.2473
  618TMC3     H 9159   1.135   4.600  13.773 -1.0736 -0.5113 -1.6673
  618TMC3    H1 9160   1.161   0.165  13.463  1.0195  0.0907 -1.3475
  618TMC3    H2 9161   1.478   4.628  13.525 -0.5436 -0.6578  0.7233
  618TMC3    C7 9162   1.390   0.092  13.371  0.0638  0.0730 -0.4656
  618TMC3    C8 9163   1.322   4.459  13.659  0.1575  0.2313  0.0578
  618TMC3    O1 9164   1.316   0.085  13.274 -0.0533  0.1998  0.5197
  618TMC3    O2 9165   1.217   4.398  13.682  0.0868  0.1016  0.6560
  619MPD2     C 9166   2.145   1.313  13.389 -0.7533  0.1823  0.4144
  619MPD2    C1 9167   2.031   1.380  13.347  0.3240  0.8000  0.0012
  619MPD2    C2 9168   1.912   1.302  13.361 -0.2648  0.4476  0.2293
  619MPD2    C3 9169   1.908   1.180  13.441 -0.2437 -0.1837  0.6479
  619MPD2    C4 9170   2.027   1.140  13.501 -0.1468  0.1252 -0.4163
  619MPD2    C5 9171   2.142   1.197  13.457 -0.0702 -0.4399  0.0613
  619MPD2     H 9172   1.817   1.333  13.318 -0.8399  0.1719  1.2984
  619MPD2    H1 9173   2.032   1.045  13.552  1.0348  1.3225  1.6873
  619MPD2    H2 9174   2.239   1.346  13.346 -0.1316  0.4323  1.9352
  619MPD2    H3 9175   2.239   1.152  13.476  0.7292  0.7404 -1.2377
  619MPD2     N 9176   1.786   1.115  13.481 -0.5051  0.0772  0.6096
  619MPD2    H5 9177   1.788   1.037  13.546 -1.6983  1.3067  2.1392
  619MPD2    N1 9178   2.028   1.496  13.273 -0.0888  0.1212 -0.3221
  619MPD2    H7 9179   1.939   1.523  13.231  0.2701  0.6261 -0.7699
  620TMC3    C1 9180   2.068   1.726  13.255  0.1623 -0.4903  0.4795
  620TMC3    C2 9181   2.003   1.746  13.134 -0.5841  0.4134 -0.2012
  620TMC3    C3 9182   2.024   1.863  13.073  0.0855 -0.2453 -0.0673
  620TMC3    C4 9183   2.144   1.822  13.316  0.9852  0.5437 -0.5584
  620TMC3    C5 9184   2.158   1.938  13.247 -0.2219  0.3422 -0.8600
  620TMC3    C6 9185   2.103   1.960  13.126  0.2634  0.0683  0.2247
  620TMC3     C 9186   2.118   1.597  13.295  0.2666 -0.3045 -0.0558
  620TMC3     O 9187   2.223   1.589  13.356 -0.2209 -0.0831 -0.6176
  620TMC3     H 9188   1.946   1.665  13.090  0.3430  0.4850 -1.5090
  620TMC3    H1 9189   2.189   1.816  13.414  1.1063  2.4219 -0.4885
  620TMC3    H2 9190   2.118   2.058  13.081 -1.0133 -0.1488 -0.6723
  620TMC3    C7 9191   2.222   2.054  13.310 -0.0582 -0.4102  0.3673
  620TMC3    C8 9192   1.897   1.916  13.025  0.9835  0.1476  1.0895
  620TMC3    O1 9193   2.304   2.120  13.244  0.4411 -0.2929  0.3068
  620TMC3    O2 9194   1.847   2.001  13.099 -0.1521  0.3634  0.0248
  621MPD2     C 9195   2.808   0.941   9.946 -0.2209 -0.7550 -0.6942
  621MPD2    C1 9196   2.942   0.946   9.928  0.2697  0.2792  0.0756
  621MPD2    C2 9197   2.983   1.039   9.835 -0.0822  0.8044  1.1935
  621MPD2    C3 9198   2.904   1.123   9.762 -0.6097  0.6868  0.3703
  621MPD2    C4 9199   2.768   1.115   9.786 -0.1274  0.0286  0.0634
  621MPD2    C5 9200   2.723   1.026   9.876 -0.5659  0.0371  0.3846
  621MPD2     H 9201   3.090   1.039   9.813 -0.8213 -1.1156 -2.3712
  621MPD2    H1 9202   2.699   1.173   9.727 -0.6421  0.5454  1.1763
  621MPD2    H2 9203   2.756   0.864  10.002 -1.2178 -0.0495 -0.6524
  621MPD2    H3 9204   2.617   1.008   9.886 -0.4729 -0.5806  0.2462
  621MPD2     N 9205   2.962   1.216   9.670  0.8930  0.2764 -0.1275
  621MPD2    H5 9206   3.063   1.212   9.660  0.7903 -0.5548 -0.8200
  621MPD2    N1 9207   3.038   0.848   9.970  0.0920  0.2802  0.0436
  621MPD2    H7 9208   3.130   0.844   9.928  0.5884  1.2329  1.0235
  622TMC3    C1 9209   3.103   0.652  10.077 -0.3235  0.5812  0.5022
  622TMC3    C2 9210   3.099   0.595  10.197 -0.1899  0.3783 -0.0578
  622TMC3    C3 9211   3.092   0.460  10.218  0.6964 -0.6022 -0.2097
  622TMC3    C4 9212   3.081   0.577   9.970 -0.3722 -0.4908  0.0502
  622TMC3    C5 9213   3.060   0.446   9.987  0.2512  0.4399 -0.0935
  622TMC3    C6 9214   3.079   0.384  10.109 -0.3519  1.1439 -0.1554
  622TMC3     C 9215   3.013   0.767  10.075  0.3268 -0.3569  0.2160
  622TMC3     O 9216   2.911   0.744  10.139  0.3264 -0.3448  0.0299
  622TMC3     H 9217   3.087   0.666  10.278  0.2349  0.7536 -0.3236
  622TMC3    H1 9218   3.084   0.629   9.875 -1.6040 -1.4524 -0.5200
  622TMC3    H2 9219   3.087   0.277  10.122 -0.1515  1.4452  2.3034
  622TMC3    C7 9220   3.035   0.356   9.883 -0.0062 -0.1822 -0.5679
  622TMC3    C8 9221   3.028   0.424  10.340 -0.2535  0.4390 -0.3105
  622TMC3    O1 9222   3.030   0.242   9.921 -0.0700 -0.1341  0.3569
  622TMC3    O2 9223   3.001   0.506  10.426  0.3318 -0.8666  0.1712
  623MPD2     C 9224   1.332   1.346  16.077 -0.8840  0.2248 -0.4591
  623MPD2    C1 9225   1.268   1.434  16.159  0.9458  0.6971 -0.4257
  623MPD2    C2 9226   1.314   1.462  16.285  0.0385 -0.7016  0.2920
  623MPD2    C3 9227   1.424   1.400  16.339 -0.0318 -0.0594 -0.3351
  623MPD2    C4 9228   1.496   1.304  16.266  0.2758 -0.0735 -0.2097
  623MPD2    C5 9229   1.446   1.285  16.138 -0.4178 -0.7081  0.3310
  623MPD2     H 9230   1.255   1.534  16.340 -0.8084  0.1482 -1.7528
  623MPD2    H1 9231   1.576   1.244  16.308 -2.1622 -1.7042  2.0491
  623MPD2    H2 9232   1.304   1.339  15.973 -0.6744 -1.6231 -0.3808
  623MPD2    H3 9233   1.502   1.218  16.074 -2.2712 -0.7391 -1.2344
  623MPD2     N 9234   1.476   1.433  16.466 -0.4002 -0.2624 -0.4553
  623MPD2    H5 9235   1.571   1.405  16.487 -0.6418  0.0727  1.0786
  623MPD2    N1 9236   1.151   1.503  16.119 -0.4413  0.5105 -0.0555
  623MPD2    H7 9237   1.116   1.565  16.191  1.7168  2.9101 -1.0507
  624TMC3    C1 9238   1.649   1.753  16.650 -0.5830  0.2608  0.8601
  624TMC3    C2 9239   1.585   1.801  16.760  0.6429  0.2712 -0.4558
  624TMC3    C3 9240   1.466   1.739  16.808  0.8399 -0.1427  0.5158
  624TMC3    C4 9241   1.613   1.640  16.583  0.2179  0.6155  0.2782
  624TMC3    C5 9242   1.505   1.572  16.649  0.4179 -0.2842 -0.5808
  624TMC3    C6 9243   1.434   1.615  16.753  0.1341 -1.0378  0.6198
  624TMC3     C 9244   1.776   1.811  16.620  0.4900  0.4669  0.5127
  624TMC3     O 9245   1.835   1.872  16.711  0.1917 -0.0549 -0.0523
  624TMC3     H 9246   1.620   1.894  16.803  1.4347  0.4971 -1.5595
  624TMC3    H1 9247   1.673   1.591  16.508 -0.2653 -1.3653  1.1704
  624TMC3    H2 9248   1.359   1.545  16.788 -0.8203 -0.8985 -1.1434
  624TMC3    C7 9249   1.414   1.512  16.556 -0.6699  0.6611  0.3811
  624TMC3    C8 9250   1.341   1.814  16.816  0.0442 -0.1423  0.8977
  624TMC3    O1 9251   1.299   1.550  16.561 -0.1167 -0.4100 -0.2451
  624TMC3    O2 9252   1.344   1.914  16.888  0.3359  0.0002 -0.0163
  625MPD2     C 9253   2.102   2.687   0.497  0.1735 -0.1577 -0.1670
  625MPD2    C1 9254   2.021   2.744   0.597  0.2635  0.0262  0.4596
  625MPD2    C2 9255   2.048   2.714   0.723 -0.1647  0.0605 -0.3314
  625MPD2    C3 9256   2.153   2.623   0.759 -0.2949  0.5962 -0.3995
  625MPD2    C4 9257   2.220   2.560   0.657  0.6544  0.4251 -0.9342
  625MPD2    C5 9258   2.198   2.601   0.526 -0.3525 -0.0020  0.4777
  625MPD2     H 9259   1.988   2.751   0.806 -0.0716 -0.2766 -0.1138
  625MPD2    H1 9260   2.305   2.494   0.668  0.4151  0.1778 -0.5825
  625MPD2    H2 9261   2.074   2.695   0.393  0.4363  1.2178 -0.1264
  625MPD2    H3 9262   2.251   2.551   0.447  0.4626  1.2515  0.2290
  625MPD2     N 9263   2.186   2.621   0.898  0.0392 -0.1860 -0.1198
  625MPD2    H5 9264   2.153   2.692   0.962  3.7300  0.8505  0.5942
  625MPD2    N1 9265   1.906   2.820   0.560 -0.6465  0.3943  0.5061
  625MPD2    H7 9266   1.846   2.859   0.632 -0.8463  1.1759 -0.0930
  626TMC3    C1 9267   1.754   2.932   0.421  0.8425 -0.4114  0.1264
  626TMC3    C2 9268   1.741   3.012   0.315  0.0948  0.5064  0.5849
  626TMC3    C3 9269   1.640   3.108   0.310 -0.1097  0.3682  0.0409
  626TMC3    C4 9270   1.663   2.934   0.523 -0.4423  0.6604  0.1920
  626TMC3    C5 9271   1.565   3.022   0.512 -0.0841 -0.3177 -0.3344
  626TMC3    C6 9272   1.561   3.118   0.418 -0.5733  0.3853 -0.2299
  626TMC3     C 9273   1.876   2.858   0.432 -0.1678 -0.3331 -0.5167
  626TMC3     O 9274   1.941   2.849   0.332 -0.3576  0.0045  0.9239
  626TMC3     H 9275   1.797   2.996   0.224 -1.9231 -1.1026 -0.3836
  626TMC3    H1 9276   1.671   2.871   0.611 -1.1069  2.1437  1.3415
  626TMC3    H2 9277   1.469   3.175   0.406 -0.1117  0.9465 -1.1007
  626TMC3    C7 9278   1.506   3.044   0.644 -0.4027  0.5105  0.6822
  626TMC3    C8 9279   1.629   3.196   0.196 -0.9624 -0.1694  0.2203
  626TMC3    O1 9280   1.492   2.948   0.717  0.6474  0.0059  0.5630
  626TMC3    O2 9281   1.654   3.159   0.083  0.0322 -0.3002 -0.0719
  627MPD2     C 9282   0.333   3.148  13.861  0.0098  0.1480  0.0504
  627MPD2    C1 9283   0.274   3.197  13.977 -0.5614 -0.2036 -0.6106
  627MPD2    C2 9284   0.164   3.130  14.027  0.1167  0.0580  0.0529
  627MPD2    C3 9285   0.124   3.010  13.968 -0.1941 -0.2234 -0.0538
  627MPD2    C4 9286   0.175   2.964  13.848  0.0789 -0.2396  0.7706
  627MPD2    C5 9287   0.282   3.027  13.802 -0.3857  0.8728  0.0366
  627MPD2     H 9288   0.112   3.170  14.113 -0.1376  2.8859 -1.4306
  627MPD2    H1 9289   0.143   2.872  13.801  1.6735 -0.8611  0.9228
  627MPD2    H2 9290   0.412   3.208  13.817  0.7964  0.3507  1.7597
  627MPD2    H3 9291   0.325   2.984  13.712  0.6832  0.8008  0.5853
  627MPD2     N 9292   0.026   2.939  14.043 -0.2648  0.1252  0.4550
  627MPD2    H5 9293   4.716   2.979  14.130 -0.4234  1.5452 -0.2456
  627MPD2    N1 9294   0.324   3.316  14.044  0.3032 -0.3258 -0.0831
  627MPD2    H7 9295   0.266   3.357  14.116  1.7720  1.7203 -0.0567
  628TMC3    C1 9296   0.466   3.488  14.109 -0.2506  0.3347  0.2981
  628TMC3    C2 9297   0.592   3.541  14.126 -0.4566 -0.7188 -0.0577
  628TMC3    C3 9298   0.600   3.669  14.175  0.0267 -0.2434  0.2746
  628TMC3    C4 9299   0.355   3.549  14.157 -0.3775  0.2390 -0.2721
  628TMC3    C5 9300   0.379   3.666  14.220  0.1328  0.1801 -0.1105
  628TMC3    C6 9301   0.491   3.740  14.219 -0.2209  0.7084  0.5466
  628TMC3     C 9302   0.450   3.375  14.024 -0.2895  0.0294 -0.3988
  628TMC3     O 9303   0.548   3.320  13.976 -0.0328  0.4416  0.0851
  628TMC3     H 9304   0.674   3.496  14.071  0.1098  0.1557  0.0677
  628TMC3    H1 9305   0.255   3.506  14.157 -1.2881  2.3802 -1.8264
  628TMC3    H2 9306   0.516   3.825  14.281 -1.9777  1.4952  0.1681
  628TMC3    C7 9307   0.258   3.744  14.231 -0.5340 -0.3571  0.5273
  628TMC3    C8 9308   0.724   3.700  14.227  0.2365  0.3629 -0.0980
  628TMC3    O1 9309   0.151   3.677  14.245  0.0008  0.6030  0.0601
  628TMC3    O2 9310   0.745   3.815  14.258 -0.6050  0.0266 -0.0017
  629MPD2     C 9311   3.297   1.414  16.019  0.6380  0.1683  0.7306
  629MPD2    C1 9312   3.267   1.549  15.998 -0.2117 -0.4793  0.3856
  629MPD2    C2 9313   3.160   1.583  15.912  0.6692  0.1099  0.4329
  629MPD2    C3 9314   3.095   1.481  15.847 -0.4553  0.5514  0.0048
  629MPD2    C4 9315   3.130   1.348  15.865 -0.4019 -0.0749  0.6543
  629MPD2    C5 9316   3.232   1.323  15.941  0.1917  0.0705  0.2908
  629MPD2     H 9317   3.133   1.684  15.886  2.6608  0.7567  0.8584
  629MPD2    H1 9318   3.084   1.269  15.806 -0.9522  2.0698 -1.7942
  629MPD2    H2 9319   3.380   1.372  16.075 -1.5456 -2.0734  2.2503
  629MPD2    H3 9320   3.262   1.220  15.957 -0.7092 -0.3055 -0.4514
  629MPD2     N 9321   2.993   1.521  15.752 -0.1228 -0.0448 -0.0839
  629MPD2    H5 9322   2.985   1.622  15.748  1.3569  0.1058  0.4269
  629MPD2    N1 9323   3.354   1.652  16.043 -0.1188 -0.2057  0.0101
  629MPD2    H7 9324   3.333   1.744  16.006  0.7787  0.5706  1.4132
  630TMC3    C1 9325   3.555   1.737  16.140  0.4184  0.4891 -0.3681
  630TMC3    C2 9326   3.578   1.823  16.037  0.4109  0.3945 -0.3898
  630TMC3    C3 9327   3.677   1.911  16.041  0.3110  0.1411  0.3363
  630TMC3    C4 9328   3.642   1.732  16.243 -0.0362 -0.7059  0.3138
  630TMC3    C5 9329   3.744   1.827  16.247  0.2414 -0.5456  0.0327
  630TMC3    C6 9330   3.760   1.917  16.147  0.8471  0.4392 -0.2286
  630TMC3     C 9331   3.459   1.628  16.125  0.0682 -0.3426 -0.3700
  630TMC3     O 9332   3.480   1.533  16.200 -0.1754 -0.2044 -0.1800
  630TMC3     H 9333   3.514   1.817  15.949 -1.5672  0.6913  1.0381
  630TMC3    H1 9334   3.602   1.698  16.338 -1.1003  2.5201  1.0081
  630TMC3    H2 9335   3.860   1.954  16.127  1.8564 -2.2357 -0.1402
  630TMC3    C7 9336   3.765   1.878  16.379 -0.2215 -0.1354 -0.6902
  630TMC3    C8 9337   3.657   2.049  15.992  0.1760  0.0112 -0.2525
  630TMC3    O1 9338   3.743   1.812  16.480  0.1651 -0.1966  0.0845
  630TMC3    O2 9339   3.743   2.129  16.024  0.9703  0.7812 -0.3009
  631MPD2     C 9340   1.123   2.138  15.249  0.0613  0.4781 -0.9390
  631MPD2    C1 9341   1.189   2.204  15.148 -0.0904 -0.2039 -0.7435
  631MPD2    C2 9342   1.286   2.138  15.076  0.2327  0.9370 -0.2142
  631MPD2    C3 9343   1.321   2.007  15.108  0.2196  0.1047  0.1990
  631MPD2    C4 9344   1.269   1.944  15.214  0.2853 -0.1449 -0.7122
  631MPD2    C5 9345   1.172   2.009  15.288  0.3709  0.1141 -0.3358
  631MPD2     H 9346   1.341   2.182  14.994  2.8831 -1.9503 -0.0162
  631MPD2    H1 9347   1.295   1.843  15.246 -0.6771  0.6860  2.7287
  631MPD2    H2 9348   1.042   2.179  15.308  0.5832 -0.0544  0.1678
  631MPD2    H3 9349   1.140   1.966  15.382 -1.6837 -2.0863 -2.0237
  631MPD2     N 9350   1.411   1.941  15.027  0.9725  0.1589  0.5272
  631MPD2    H5 9351   1.438   1.988  14.941  1.0174 -2.1097 -0.7026
  631MPD2    N1 9352   1.154   2.338  15.129  0.3018  0.0242  0.0652
  631MPD2    H7 9353   1.096   2.379  15.202  0.7459  0.3444  0.2365
  632TMC3    C1 9354   1.191   2.563  15.050 -0.3659 -0.4235 -0.0117
  632TMC3    C2 9355   1.239   2.603  15.176  0.1334 -0.5632 -0.0736
  632TMC3    C3 9356   1.337   2.693  15.190 -0.4616  0.2847 -0.2889
  632TMC3    C4 9357   1.223   2.636  14.938 -0.0432 -0.1712  0.1996
  632TMC3    C5 9358   1.321   2.732  14.955 -0.2224 -0.1077 -0.0874
  632TMC3    C6 9359   1.389   2.752  15.075 -0.2589  0.2198 -0.1314
  632TMC3     C 9360   1.193   2.418  15.023 -0.3270  0.0688 -0.1743
  632TMC3     O 9361   1.233   2.382  14.914  0.3034  0.1240  0.3026
  632TMC3     H 9362   1.179   2.568  15.259 -1.9104 -1.6550 -2.0036
  632TMC3    H1 9363   1.188   2.615  14.838  1.1814  1.5954 -0.5932
  632TMC3    H2 9364   1.446   2.844  15.083 -2.2084  1.3759  0.4761
  632TMC3    C7 9365   1.396   2.764  14.838 -0.3947 -1.0300  0.6936
  632TMC3    C8 9366   1.387   2.710  15.327  0.3381  0.2678  0.0417
  632TMC3    O1 9367   1.332   2.761  14.734  0.3195 -0.2360  0.2485
  632TMC3    O2 9368   1.321   2.653  15.412  0.2537 -0.4374 -0.0859
  633MPD2     C 9369   1.294   4.721  17.223 -0.6099 -0.4179 -0.4419
  633MPD2    C1 9370   1.382   4.643  17.158  0.0632  0.0422 -0.9394
  633MPD2    C2 9371   1.446   4.540  17.225  0.1803 -0.2956  0.7954
  633MPD2    C3 9372   1.411   4.510  17.358  0.0659 -0.1741 -0.0390
  633MPD2    C4 9373   1.319   4.589  17.416 -0.7901  0.6077 -0.5333
  633MPD2    C5 9374   1.260   4.698  17.355  0.2702 -0.0509  0.2307
  633MPD2     H 9375   1.516   4.481  17.167 -0.3254  1.5647 -1.7034
  633MPD2    H1 9376   1.298   4.581  17.522 -0.1856  3.6207 -0.1648
  633MPD2    H2 9377   1.239   0.079  17.176 -0.5972  0.5359  1.2172
  633MPD2    H3 9378   1.184   0.033  17.407  0.2109 -0.2842  0.4013
  633MPD2     N 9379   1.449   4.395  17.430 -0.5774 -0.3814 -0.8134
  633MPD2    H5 9380   1.388   4.363  17.505 -1.9500  0.6055 -1.5035
  633MPD2    N1 9381   1.418   4.674  17.019 -0.5581  0.3781  0.1710
  633MPD2    H7 9382   1.479   4.607  16.973  2.2460  2.9187  0.2024
  634TMC3    C1 9383   1.446   0.082  16.833  0.1651 -0.0577  0.2766
  634TMC3    C2 9384   1.459   4.687  16.767 -0.5059  0.1340 -0.3140
  634TMC3    C3 9385   1.476   4.696  16.630 -0.3025  0.5205  0.0865
  634TMC3    C4 9386   1.428   0.204  16.776  0.0817 -0.4247  0.3075
  634TMC3    C5 9387   1.449   0.207  16.638  0.2286 -0.2283  0.6421
  634TMC3    C6 9388   1.473   0.093  16.562 -0.3968  0.3057 -0.1491
  634TMC3     C 9389   1.393   0.074  16.961  0.0466  0.9748  0.4678
  634TMC3     O 9390   1.341   0.174  17.000  0.4683 -0.1978 -0.1141
  634TMC3     H 9391   1.470   4.590  16.815  0.9829  0.1461 -0.6566
  634TMC3    H1 9392   1.411   0.294  16.833 -2.8088  0.4214 -1.8621
  634TMC3    H2 9393   1.469   0.093  16.453  0.2563 -0.9635 -0.1715
  634TMC3    C7 9394   1.442   0.330  16.564  0.6737  0.3049  0.3213
  634TMC3    C8 9395   1.473   4.569  16.551 -0.2821  0.4379  0.7552
  634TMC3    O1 9396   1.428   0.310  16.448  0.0360  0.4306 -0.0126
  634TMC3    O2 9397   1.452   4.462  16.605 -0.5166  0.6594 -0.0356
  635TMC3    C1 9398   2.080   1.189  17.031  0.7884  0.2045  0.1696
  635TMC3    C2 9399   2.058   1.231  16.900  0.2450  0.1077  0.2380
  635TMC3    C3 9400   2.034   1.130  16.808  0.3655  0.4189  0.3171
  635TMC3    C4 9401   2.080   1.060  17.068 -0.0091  0.2685 -0.1326
  635TMC3    C5 9402   2.045   0.966  16.970 -0.5508 -0.6144  0.1427
  635TMC3    C6 9403   2.025   0.999  16.839 -0.4873  0.0096 -0.1630
  635TMC3     C 9404   2.150   1.272  17.128 -0.0887  0.1025 -0.0924
  635TMC3     O 9405   2.144   1.250  17.246  0.3103  0.3806  0.4665
  635TMC3     H 9406   2.054   1.337  16.876  3.3110  0.0722 -0.4486
  635TMC3    H1 9407   2.084   1.041  17.175 -1.5675  2.1198  0.2404
  635TMC3    H2 9408   2.004   0.917  16.770 -1.4766  0.7568 -0.7446
  635TMC3    C7 9409   2.021   0.822  17.000  0.1728 -0.7673  0.9490
  635TMC3    C8 9410   2.029   1.158  16.664 -0.8476 -0.1562  0.0739
  635TMC3    O1 9411   1.960   0.762  16.914 -0.0938  0.2912  0.3634
  635TMC3    O2 9412   2.052   1.271  16.627 -0.4114  0.1344  0.3199
  636MPD2     C 9413   2.311   0.253  15.941  0.2396 -0.4918  0.5077
  636MPD2    C1 9414   2.426   0.319  15.977  0.8239  0.3131 -0.5632
  636MPD2    C2 9415   2.512   0.262  16.074 -0.2834  0.5877 -0.2871
  636MPD2    C3 9416   2.480   0.142  16.135  0.1950  0.0038  0.1592
  636MPD2    C4 9417   2.358   0.081  16.102 -0.3802  0.3713 -0.0087
  636MPD2    C5 9418   2.281   0.137  16.005 -1.0822 -0.2948 -0.1764
  636MPD2     H 9419   2.608   0.304  16.102 -0.3719  1.4740 -1.2852
  636MPD2    H1 9420   2.315   4.720  16.155  0.0256 -0.0364 -0.3164
  636MPD2    H2 9421   2.239   0.294  15.871 -0.2766  0.0712  1.3826
  636MPD2    H3 9422   2.185   0.088  15.987  0.3425 -3.7341  1.4300
  636MPD2     N 9423   2.572   0.086  16.230 -0.1090 -0.8048  0.0395
  636MPD2    H5 9424   2.653   0.144  16.248 -0.1984 -0.3142 -1.1406
  636MPD2    N1 9425   2.463   0.443  15.917  0.1830  0.2512 -0.1804
  636MPD2    H7 9426   2.552   0.486  15.943  0.4004 -0.3826  0.1208
  637TMC3    C1 9427   2.682   4.656  16.388  0.5346  0.2896 -0.1199
  637TMC3    C2 9428   2.729   0.039  16.462  0.4467 -0.3997 -0.0321
  637TMC3    C3 9429   2.827   0.010  16.554 -0.0406 -0.7147  0.3059
  637TMC3    C4 9430   2.740   4.532  16.386 -0.4809 -0.3541  1.2153
  637TMC3    C5 9431   2.839   4.513  16.482  0.3704  0.0432  0.1929
  637TMC3    C6 9432   2.900   4.615  16.555  0.0690 -0.0260 -0.9576
  637TMC3     C 9433   2.569   4.680  16.287 -0.0845 -0.4827 -0.0212
  637TMC3     O 9434   2.512   4.582  16.242 -0.3075  0.6530 -0.4113
  637TMC3     H 9435   2.687   0.138  16.454  0.1891 -0.5307 -0.2592
  637TMC3    H1 9436   2.696   4.456  16.323 -1.8186  1.5140 -0.0877
  637TMC3    H2 9437   2.993   4.600  16.609  0.7485  1.0531 -1.8416
  637TMC3    C7 9438   2.900   4.385  16.487  0.5387  0.6315  0.4567
  637TMC3    C8 9439   2.908   0.126  16.577 -0.1049  0.6749  0.1819
  637TMC3    O1 9440   2.933   4.353  16.601  0.5571 -0.2849  0.9001
  637TMC3    O2 9441   2.872   0.235  16.546 -0.8945  0.5970 -0.4414
  638MPD2     C 9442   2.566   3.754  14.995  0.8313 -0.4136 -0.3721
  638MPD2    C1 9443   2.521   3.661  14.906  0.1775  0.4351  0.6536
  638MPD2    C2 9444   2.443   3.563  14.962  0.3352 -0.0160 -0.8905
  638MPD2    C3 9445   2.430   3.544  15.099 -0.1927  0.4725  0.3168
  638MPD2    C4 9446   2.480   3.640  15.186  0.0151 -1.0334 -0.5240
  638MPD2    C5 9447   2.535   3.752  15.132  0.1463  0.4473 -0.1213
  638MPD2     H 9448   2.394   3.487  14.903  0.3594 -1.1378  0.5444
  638MPD2    H1 9449   2.458   3.640  15.293  1.7226 -2.1138 -0.1637
  638MPD2    H2 9450   2.633   3.828  14.954  0.2088 -0.0067 -0.6498
  638MPD2    H3 9451   2.567   3.831  15.199 -1.0280  0.8833 -0.0942
  638MPD2     N 9452   2.360   3.426  15.139  0.1882  0.0958  0.3963
  638MPD2    H5 9453   2.304   3.382  15.066  1.2951 -0.6044 -0.0268
  638MPD2    N1 9454   2.558   3.649  14.774  1.2668  0.5184  0.4096
  638MPD2    H7 9455   2.626   3.714  14.735 -0.2055  2.5379  1.1664
  639TMC3    C1 9456   2.310   3.235  15.259 -0.0539 -0.7108  0.1134
  639TMC3    C2 9457   2.217   3.201  15.170  0.4491 -0.7180 -0.2717
  639TMC3    C3 9458   2.148   3.082  15.181  0.3303 -0.5683  0.7371
  639TMC3    C4 9459   2.342   3.149  15.358 -0.4665 -0.0593  0.3555
  639TMC3    C5 9460   2.274   3.032  15.373  0.4339 -0.3346 -0.6751
  639TMC3    C6 9461   2.172   2.997  15.290  0.5092  0.5188  0.5199
  639TMC3     C 9462   2.359   3.378  15.266  0.2241  0.4160  0.1311
  639TMC3     O 9463   2.396   3.428  15.370 -0.5171  0.3946  0.1928
  639TMC3     H 9464   2.198   3.257  15.080 -3.0481 -0.5677  0.5866
  639TMC3    H1 9465   2.415   3.183  15.430  0.4909  0.3157 -0.7965
  639TMC3    H2 9466   2.141   2.894  15.304  0.0918  0.7560  1.3278
  639TMC3    C7 9467   2.353   2.920  15.421 -0.7702  0.2828  0.3884
  639TMC3    C8 9468   2.014   3.067  15.122 -0.3507  0.6127  0.6816
  639TMC3    O1 9469   2.296   2.815  15.452 -0.1390 -0.3090  0.3523
  639TMC3    O2 9470   1.927   3.027  15.200  0.1374  0.1531  0.0747
  640MPD2     C 9471   3.205   2.515  10.107 -0.1941  0.4729 -0.1356
  640MPD2    C1 9472   3.205   2.631  10.038 -0.5343  0.2842  0.1709
  640MPD2    C2 9473   3.128   2.738  10.097  0.7084 -0.2234 -0.2204
  640MPD2    C3 9474   3.066   2.725  10.219 -0.6670 -0.0197 -0.9570
  640MPD2    C4 9475   3.081   2.608  10.287 -0.1330 -0.4357  0.4748
  640MPD2    C5 9476   3.152   2.505  10.233  0.1528  0.7663 -0.2079
  640MPD2     H 9477   3.112   2.826  10.035  0.9978 -0.3232 -0.4354
  640MPD2    H1 9478   3.029   2.599  10.382  0.2235 -0.3960  0.6735
  640MPD2    H2 9479   3.246   2.426  10.060  0.9194  1.0436 -0.2318
  640MPD2    H3 9480   3.150   2.408  10.282 -2.3785  0.0796 -1.6673
  640MPD2     N 9481   2.976   2.815  10.278 -0.0747  0.2856 -0.1952
  640MPD2    H5 9482   2.931   2.782  10.363 -1.2216 -0.4056 -1.0731
  640MPD2    N1 9483   3.266   2.624   9.912 -0.8966  0.7507 -0.4685
  640MPD2    H7 9484   3.313   2.538   9.888  3.0279  2.4157  1.2080
  641TMC3    C1 9485   3.253   2.666   9.676 -0.2505  0.2243  0.1641
  641TMC3    C2 9486   3.360   2.584   9.654  0.0550 -0.5830  0.4949
  641TMC3    C3 9487   3.383   2.553   9.517  0.4375 -0.1160 -0.2551
  641TMC3    C4 9488   3.173   2.726   9.581 -0.3097  0.3627 -0.9958
  641TMC3    C5 9489   3.195   2.679   9.455 -0.3623 -0.0789 -0.3689
  641TMC3    C6 9490   3.296   2.598   9.418  0.5685 -0.2724 -0.4097
  641TMC3     C 9491   3.221   2.706   9.815 -0.6716 -0.0324  0.1342
  641TMC3     O 9492   3.161   2.807   9.825 -0.3569 -0.2494 -0.5068
  641TMC3     H 9493   3.432   2.555   9.730  0.4827  1.6905  0.9543
  641TMC3    H1 9494   3.091   2.789   9.611 -1.2622 -1.2899 -0.1033
  641TMC3    H2 9495   3.304   2.548   9.322 -0.9966 -0.5668 -0.3809
  641TMC3    C7 9496   3.128   2.736   9.339  0.0993  0.2901 -0.5369
  641TMC3    C8 9497   3.478   2.450   9.473 -0.2705  0.2740 -0.4940
  641TMC3    O1 9498   3.193   2.734   9.235  0.1758 -0.4434 -0.5083
  641TMC3    O2 9499   3.504   2.426   9.356  0.6429 -0.0767 -0.1137
  642TMC3    C1 9500   4.450   3.463  12.070  0.1557  0.3317  0.6055
  642TMC3    C2 9501   4.583   3.468  12.094 -0.0274 -0.0993  0.8249
  642TMC3    C3 9502   4.655   3.351  12.098  0.0788  0.5886 -0.5782
  642TMC3    C4 9503   4.384   3.345  12.045  0.0047 -0.0840 -0.4245
  642TMC3    C5 9504   4.455   3.230  12.056 -0.3828 -0.4365 -0.0478
  642TMC3    C6 9505   4.590   3.232  12.090  0.0471  0.2290 -0.7525
  642TMC3     C 9506   4.376   3.583  12.049  0.0919 -0.0364  0.0336
  642TMC3     O 9507   4.422   3.672  11.979 -0.1171  0.2156  0.0875
  642TMC3     H 9508   4.623   3.565  12.121  1.4194 -0.4759  0.0443
  642TMC3    H1 9509   4.277   3.345  12.028  0.1856 -0.5881 -1.4978
  642TMC3    H2 9510   4.651   3.144  12.104 -0.3432  0.1411  0.4173
  642TMC3    C7 9511   4.378   3.117  12.017  0.2349 -0.0708 -0.1798
  642TMC3    C8 9512   0.064   3.369  12.149 -0.0822  0.2334  0.0835
  642TMC3    O1 9513   4.267   3.129  11.970  0.1811 -0.1333 -0.7579
  642TMC3    O2 9514   0.113   3.485  12.147  0.1515  0.5656  0.1344
  643TMC3    C1 9515   3.609   3.722   0.517  0.7411  0.1615 -0.2424
  643TMC3    C2 9516   3.484   3.769   0.558  0.1739 -0.2894 -0.2341
  643TMC3    C3 9517   3.379   3.705   0.495  0.1458 -0.6142  0.0196
  643TMC3    C4 9518   3.634   3.632   0.418 -0.1455 -0.7039 -0.1925
  643TMC3    C5 9519   3.525   3.583   0.358 -0.2489  0.0376 -0.9077
  643TMC3    C6 9520   3.397   3.624   0.384 -0.2606  0.4898 -0.6648
  643TMC3     C 9521   3.736   3.754   0.592  0.7487  0.1747 -0.5291
  643TMC3     O 9522   3.733   3.862   0.647  0.3126  0.2086  0.4275
  643TMC3     H 9523   3.467   3.856   0.622  1.3568 -1.1275  1.2168
  643TMC3    H1 9524   3.731   3.606   0.378 -0.5087 -0.0056 -1.5496
  643TMC3    H2 9525   3.309   3.576   0.344  0.7554  0.6436 -3.1408
  643TMC3    C7 9526   3.535   3.526   0.225  0.1360 -0.3491 -0.2885
  643TMC3    C8 9527   3.265   3.790   0.469 -0.2549 -0.1536 -0.5930
  643TMC3    O1 9528   3.446   3.547   0.143 -0.3613  0.2280 -0.1265
  643TMC3    O2 9529   3.199   3.843   0.555  0.0144  0.1361 -0.1382
  644MPD2     C 9530   3.537   2.882   9.772 -0.4002  0.2987  0.5129
  644MPD2    C1 9531   3.595   2.875   9.645  0.3424 -0.4314 -0.5972
  644MPD2    C2 9532   3.590   2.985   9.563 -0.1387 -0.3196  0.3119
  644MPD2    C3 9533   3.518   3.098   9.604  0.0649  0.2138  0.2872
  644MPD2    C4 9534   3.449   3.103   9.725 -0.9057 -0.3555  0.1511
  644MPD2    C5 9535   3.462   2.995   9.808 -0.9941 -0.1879 -0.7096
  644MPD2     H 9536   3.635   2.992   9.465  0.0792  1.4253  0.5302
  644MPD2    H1 9537   3.404   3.191   9.769  0.3160  0.2671  0.1308
  644MPD2    H2 9538   3.534   2.804   9.847 -0.0539 -1.8651 -1.7158
  644MPD2    H3 9539   3.405   2.988   9.900  1.6768  2.9707  1.2035
  644MPD2     N 9540   3.528   3.212   9.515 -0.2115  0.0499  0.0862
  644MPD2    H5 9541   3.574   3.190   9.426  1.3948  1.1182  0.6390
  644MPD2    N1 9542   3.666   2.755   9.608  0.2449 -0.5834  0.0399
  644MPD2    H7 9543   3.660   2.691   9.687  0.6954  0.4366  0.8964
  645TMC3    C1 9544   3.500   3.437   9.440  0.3191 -0.1065 -0.2602
  645TMC3    C2 9545   3.621   3.425   9.369 -0.1814  0.2673 -0.5042
  645TMC3    C3 9546   3.656   3.530   9.285 -0.3331  0.6232  0.0367
  645TMC3    C4 9547   3.417   3.546   9.428 -0.8130  0.6305 -1.1780
  645TMC3    C5 9548   3.468   3.642   9.351 -0.1641 -0.1000 -0.7266
  645TMC3    C6 9549   3.581   3.640   9.276 -0.0646  0.9314  0.3588
  645TMC3     C 9550   3.470   3.336   9.540  0.1628  0.3302 -0.4020
  645TMC3     O 9551   3.381   3.363   9.614  0.1527  0.1201 -0.0400
  645TMC3     H 9552   3.697   3.353   9.400 -0.0345  1.1415  1.1927
  645TMC3    H1 9553   3.324   3.555   9.483 -0.5670  2.1681 -1.0308
  645TMC3    H2 9554   3.613   3.725   9.217  2.0559  0.6938  1.1855
  645TMC3    C7 9555   3.402   3.768   9.360  0.0166  0.0179 -0.2741
  645TMC3    C8 9556   3.760   3.512   9.181  0.6906  0.1500 -0.2702
  645TMC3    O1 9557   3.481   3.859   9.359  0.1414  0.0515  0.0991
  645TMC3    O2 9558   3.783   3.609   9.110  0.1823  0.5483  0.0717
  646MPD2     C 9559   2.427   2.453  14.269 -0.4344 -0.6575 -0.3055
  646MPD2    C1 9560   2.341   2.435  14.371 -0.1331  0.1302 -0.1142
  646MPD2    C2 9561   2.218   2.506  14.367  0.1193 -0.0160 -0.0654
  646MPD2    C3 9562   2.186   2.596  14.260 -0.2196  0.2750  0.0064
  646MPD2    C4 9563   2.271   2.599  14.149  0.0789 -0.1835 -0.2913
  646MPD2    C5 9564   2.384   2.524  14.161  0.5308  0.4307  0.6252
  646MPD2     H 9565   2.142   2.482  14.441 -0.8294 -0.7000 -1.2803
  646MPD2    H1 9566   2.264   2.666  14.064  0.6492 -0.3724 -0.4876
  646MPD2    H2 9567   2.514   2.388  14.268  1.1881  1.4717  2.5310
  646MPD2    H3 9568   2.430   2.504  14.065  0.3706  3.0423  0.0198
  646MPD2     N 9569   2.067   2.672  14.268 -0.2671 -0.3596  0.0494
  646MPD2    H5 9570   2.017   2.669  14.357 -0.1114 -0.5400  0.1294
  646MPD2    N1 9571   2.386   2.336  14.465 -0.6149  0.1296  0.1948
  646MPD2    H7 9572   2.471   2.290  14.435 -0.7082  0.7192 -0.9850
  647TMC3    C1 9573   2.381   2.185  14.650 -1.0636  0.3247 -0.1208
  647TMC3    C2 9574   2.303   2.126  14.736  0.0532 -0.2946 -0.2063
  647TMC3    C3 9575   2.364   2.053  14.831 -0.7726  0.2017 -0.3499
  647TMC3    C4 9576   2.518   2.194  14.664  0.3842 -0.9183 -0.1042
  647TMC3    C5 9577   2.576   2.131  14.771  0.3951  0.4898  0.0403
  647TMC3    C6 9578   2.497   2.061  14.855  0.5252  0.0221 -0.3052
  647TMC3     C 9579   2.316   2.284  14.571  0.7206 -0.4835  0.1338
  647TMC3     O 9580   2.201   2.312  14.601  0.2544  0.4383 -0.4187
  647TMC3     H 9581   2.196   2.110  14.722 -0.0802 -0.6694  1.1816
  647TMC3    H1 9582   2.569   2.261  14.597 -0.6568 -0.2851 -0.2625
  647TMC3    H2 9583   2.539   2.010  14.941  0.0263 -1.6163 -1.0377
  647TMC3    C7 9584   2.713   2.082  14.757 -0.7612 -0.3100  0.0648
  647TMC3    C8 9585   2.295   1.933  14.882  0.2204 -0.8836 -0.3503
  647TMC3    O1 9586   2.757   2.010  14.844  0.2345 -0.1138  0.8649
  647TMC3    O2 9587   2.325   1.899  14.997 -0.3214 -0.4365  0.6575
  648TMC3    C1 9588   1.825   4.617  15.880 -0.1822 -0.1682 -0.6936
  648TMC3    C2 9589   1.830   4.487  15.847  1.0900  0.7200  0.1264
  648TMC3    C3 9590   1.742   4.439  15.759 -0.9925  0.5904  0.3936
  648TMC3    C4 9591   1.739   4.700  15.820 -0.1122 -0.1127  0.4281
  648TMC3    C5 9592   1.642   4.649  15.738 -0.4556 -0.2822  0.5466
  648TMC3    C6 9593   1.640   4.518  15.705  0.9492 -0.3165 -0.3289
  648TMC3     C 9594   1.868   4.656  16.014 -0.0719  0.4114 -0.5286
  648TMC3     O 9595   1.867   0.054  16.041 -0.2498  0.1873  0.4916
  648TMC3     H 9596   1.915   4.434  15.888  0.9408  0.5714  0.2455
  648TMC3    H1 9597   1.754   0.084  15.831  1.0885 -0.2070 -0.3452
  648TMC3    H2 9598   1.577   4.477  15.627 -0.9647 -1.2325  1.6822
  648TMC3    C7 9599   1.582   0.020  15.641  0.0690  0.5533  0.1915
  648TMC3    C8 9600   1.735   4.293  15.737 -0.0475  0.0955  0.8003
  648TMC3    O1 9601   1.570   4.705  15.524 -0.0913 -1.0237 -0.9207
  648TMC3    O2 9602   1.641   4.250  15.674  0.1633 -0.5493  0.0119
  649TMC3    C1 9603   0.944   1.270  12.488 -0.1670  0.9391  0.3567
  649TMC3    C2 9604   1.080   1.285  12.497  0.3962 -1.0645  0.4343
  649TMC3    C3 9605   1.147   1.224  12.603  0.0612  0.5826 -0.2148
  649TMC3    C4 9606   0.871   1.204  12.583  1.3371  1.3879  0.2155
  649TMC3    C5 9607   0.941   1.146  12.687 -0.4091  0.2991  0.5155
  649TMC3    C6 9608   1.074   1.165  12.703 -0.5995 -0.0456 -0.0931
  649TMC3     C 9609   0.863   1.348  12.388  0.3765  0.6321 -0.4068
  649TMC3     O 9610   0.745   1.375  12.414  0.7416 -0.1064 -0.3166
  649TMC3     H 9611   1.132   1.352  12.430 -1.6276 -1.3345 -1.4310
  649TMC3    H1 9612   0.763   1.208  12.588  1.1632 -2.3589 -0.3189
  649TMC3    H2 9613   1.119   1.121  12.790 -0.5495 -1.5761 -0.8994
  649TMC3    C7 9614   0.867   1.054  12.777 -0.0388 -0.1292 -0.6410
  649TMC3    C8 9615   1.286   1.245  12.603  0.8606 -0.1656 -0.1770
  649TMC3    O1 9616   0.907   1.038  12.891 -0.0200  0.8216 -0.2977
  649TMC3    O2 9617   1.339   1.265  12.494  0.2089  0.1025  0.5813
  650TMC3    C1 9618   3.925   2.653  12.760  0.3884  0.5035 -0.2358
  650TMC3    C2 9619   3.862   2.770  12.785 -0.3567 -0.1425 -0.3673
  650TMC3    C3 9620   3.836   2.861  12.682 -0.1528 -0.1662 -0.5759
  650TMC3    C4 9621   3.962   2.613  12.633  0.2500 -0.0475  0.4651
  650TMC3    C5 9622   3.913   2.691  12.531  0.0570  0.0902 -0.4307
  650TMC3    C6 9623   3.857   2.818  12.551  0.3536  0.2268  0.3089
  650TMC3     C 9624   3.882   2.542  12.846  0.1244 -0.6708 -0.4561
  650TMC3     O 9625   3.878   2.558  12.970 -0.3091  0.0900 -0.0476
  650TMC3     H 9626   3.841   2.798  12.888  1.4900 -1.9138  0.4876
  650TMC3    H1 9627   4.029   2.531  12.614  0.2595 -0.4889  2.3966
  650TMC3    H2 9628   3.823   2.888  12.476 -1.9491  0.4439  1.5755
  650TMC3    C7 9629   3.853   2.606  12.429 -0.4862  0.9692  0.3250
  650TMC3    C8 9630   3.788   2.996  12.712  0.5831 -0.8097 -0.3871
  650TMC3    O1 9631   3.859   2.487  12.451  0.6872 -0.0848  0.0770
  650TMC3    O2 9632   3.787   3.068  12.608  0.3720  0.2068 -0.3083
  651MPD2     C 9633   2.937   4.700  10.901 -0.0631  0.1182  0.2438
  651MPD2    C1 9634   2.919   0.073  10.802  0.9281 -0.1256  0.4208
  651MPD2    C2 9635   3.028   0.128  10.742 -0.4037  0.1739 -0.1877
  651MPD2    C3 9636   3.153   0.078  10.772  0.7597  0.6038 -0.2996
  651MPD2    C4 9637   3.171   4.704  10.872 -0.3033  0.0398  0.4005
  651MPD2    C5 9638   3.063   4.646  10.931  0.1228  0.4842 -0.3140
  651MPD2     H 9639   3.010   0.210  10.674  0.2662 -0.3641 -1.0031
  651MPD2    H1 9640   3.270   4.671  10.901 -0.6116 -2.3303 -1.2790
  651MPD2    H2 9641   2.851   4.648  10.943 -0.4904  0.8670  0.2957
  651MPD2    H3 9642   3.072   4.561  10.998 -0.9763 -0.4319 -1.3237
  651MPD2     N 9643   3.264   0.140  10.700  0.5674  0.6730 -0.2223
  651MPD2    H5 9644   3.241   0.201  10.623  0.2626 -0.8294 -1.3392
  651MPD2    N1 9645   2.790   0.130  10.788  0.0715 -0.4531 -0.1015
  651MPD2    H7 9646   2.799   0.214  10.732  0.6201  0.3538  1.2011
  652TMC3    C1 9647   3.700   0.144  10.529  0.5625 -0.1899 -0.4152
  652TMC3    C2 9648   3.616   0.114  10.633 -0.2541 -0.3972 -0.9105
  652TMC3    C3 9649   3.482   0.131  10.608  0.4762 -0.7660 -0.6108
  652TMC3    C4 9650   3.653   0.181  10.403 -0.0396  0.5094 -0.3902
  652TMC3    C5 9651   3.519   0.181  10.375  0.2131  0.0040 -0.1389
  652TMC3    C6 9652   3.433   0.162  10.479  0.7745 -0.2721  0.5902
  652TMC3     C 9653   3.840   0.157  10.570  0.2639 -0.0863  0.6969
  652TMC3     O 9654   3.846   0.190  10.686  0.0562  0.4812 -0.0132
  652TMC3     H 9655   3.656   0.067  10.722  0.2737  0.1118 -0.8841
  652TMC3    H1 9656   3.728   0.196  10.326  1.0296 -0.1971  0.5010
  652TMC3    H2 9657   3.326   0.150  10.466  0.2739  1.4084  3.0442
  652TMC3    C7 9658   3.464   0.241  10.255 -0.1393 -0.2821 -0.9318
  652TMC3    C8 9659   3.395   0.097  10.716  0.4404 -0.0222  0.0514
  652TMC3    O1 9660   3.341   0.235  10.240 -0.2362 -0.3553  0.2392
  652TMC3    O2 9661   3.449   0.051  10.814 -0.1882  0.3809 -0.1341
  653MPD2     C 9662   0.931   0.025  17.411  0.9090 -0.3956  0.1989
  653MPD2    C1 9663   0.922   0.107  17.298  0.7482 -0.4537 -0.6963
  653MPD2    C2 9664   0.880   0.057  17.178 -0.0255 -0.0913  0.0805
  653MPD2    C3 9665   0.864   4.642  17.166 -0.1254  0.4627 -0.2075
  653MPD2    C4 9666   0.878   4.566  17.278  0.7271  0.0064 -0.4123
  653MPD2    C5 9667   0.908   4.612  17.399  0.5964  0.2469  0.7259
  653MPD2     H 9668   0.872   0.122  17.091 -1.8512 -3.5159 -2.3215
  653MPD2    H1 9669   0.846   4.462  17.277 -1.2150  0.5938  0.9477
  653MPD2    H2 9670   0.966   0.058  17.509 -1.2161 -1.2473  1.2484
  653MPD2    H3 9671   0.897   4.547  17.485 -0.4140 -1.1002 -0.4164
  653MPD2     N 9672   0.838   4.586  17.035 -0.4257 -0.1128 -0.4471
  653MPD2    H5 9673   0.807   4.637  16.953  0.8038 -0.5679 -1.1943
  653MPD2    N1 9674   0.950   0.243  17.307  0.1247 -0.2597 -0.5274
  653MPD2    H7 9675   0.981   0.284  17.220 -0.6826 -0.2887 -0.8342
  654TMC3    C1 9676   0.821   4.407  16.886 -0.5499 -0.2281 -0.8997
  654TMC3    C2 9677   0.706   4.471  16.835  0.0553  0.4283 -0.1463
  654TMC3    C3 9678   0.623   4.399  16.754 -0.0834 -0.6368 -0.5980
  654TMC3    C4 9679   0.857   4.280  16.854 -0.4426  0.2202 -0.9156
  654TMC3    C5 9680   0.761   4.211  16.794 -0.4720  0.0666  0.6248
  654TMC3    C6 9681   0.643   4.267  16.749 -0.0872  0.5903 -0.4564
  654TMC3     C 9682   0.874   4.458  17.008  0.0805  0.1160  0.6998
  654TMC3     O 9683   0.940   4.382  17.077 -0.1083 -0.1413 -0.1302
  654TMC3     H 9684   0.670   4.567  16.870  0.5283  0.6342 -0.2250
  654TMC3    H1 9685   0.949   4.238  16.891 -1.2746  0.7852  1.8043
  654TMC3    H2 9686   0.575   4.204  16.692  1.2872 -0.9548 -0.4019
  654TMC3    C7 9687   0.770   4.060  16.781  0.5230  0.0766 -0.7278
  654TMC3    C8 9688   0.525   4.467  16.670  0.5876 -0.4030  0.8370
  654TMC3    O1 9689   0.699   4.011  16.692  0.3767  0.3354  0.0672
  654TMC3    O2 9690   0.515   4.590  16.683 -0.0533  0.8169 -0.6005
  655MPD2     C 9691   2.387   0.167  15.636  0.5513  0.4387 -0.4741
  655MPD2    C1 9692   2.291   0.201  15.542 -0.0182 -0.0640 -0.0976
  655MPD2    C2 9693   2.253   0.112  15.447 -0.8806 -0.4210 -0.3236
  655MPD2    C3 9694   2.314   4.710  15.439  0.0525  0.1842  0.0657
  655MPD2    C4 9695   2.404   4.677  15.530 -0.3152  0.6175 -1.4532
  655MPD2    C5 9696   2.438   0.045  15.630 -0.2680  0.1269 -0.5880
  655MPD2     H 9697   2.177   0.141  15.375  1.0129  1.0709 -1.7084
  655MPD2    H1 9698   2.453   4.580  15.525  0.2110  0.6238  3.3984
  655MPD2    H2 9699   2.420   0.235  15.713 -2.5409  0.8562  0.4881
  655MPD2    H3 9700   2.507   0.014  15.708 -1.1223  1.7265  0.7810
  655MPD2     N 9701   2.265   4.610  15.348 -0.0452  0.6901 -0.2073
  655MPD2    H5 9702   2.291   4.515  15.373 -0.6087 -0.0346 -2.3827
  655MPD2    N1 9703   2.219   0.327  15.563 -0.0204 -0.5402  0.0770
  655MPD2    H7 9704   2.237   0.391  15.640 -0.3893  0.6868 -0.8443
  656TMC3    C1 9705   2.052   0.485  15.510 -0.3592  0.0720 -0.8509
  656TMC3    C2 9706   2.005   0.477  15.635 -0.3243  0.2470 -0.4247
  656TMC3    C3 9707   1.901   0.563  15.655 -0.1369  0.5241  0.2533
  656TMC3    C4 9708   2.007   0.561  15.411  0.2659  0.0118  0.2644
  656TMC3    C5 9709   1.898   0.642  15.434 -0.3571  0.3957  0.0011
  656TMC3    C6 9710   1.843   0.648  15.564  0.3803  0.1919  0.4701
  656TMC3     C 9711   2.132   0.376  15.467 -0.2880  0.8786 -0.9716
  656TMC3     O 9712   2.136   0.354  15.346  0.1294 -0.0681 -0.4365
  656TMC3     H 9713   2.035   0.414  15.717  3.2811  0.1411 -1.8626
  656TMC3    H1 9714   2.052   0.543  15.314 -0.9091 -1.6341  0.0229
  656TMC3    H2 9715   1.772   0.724  15.595  0.0869  0.7366 -1.4905
  656TMC3    C7 9716   1.825   0.697  15.322  0.1353  0.4770 -0.2556
  656TMC3    C8 9717   1.805   0.516  15.753 -0.2581 -0.6338 -0.2199
  656TMC3    O1 9718   1.883   0.692  15.212 -0.4160 -0.0193  0.7536
  656TMC3    O2 9719   1.763   0.404  15.732 -0.1054  0.4880 -0.5007
  657TMC3    C1 9720   1.617   4.267  14.324  0.0371  0.6894  0.4590
  657TMC3    C2 9721   1.525   4.300  14.419  0.8822 -0.8192  0.2972
  657TMC3    C3 9722   1.445   4.408  14.396 -0.0473  0.1723  0.3273
  657TMC3    C4 9723   1.625   4.334  14.208 -0.3553 -0.1826  0.1603
  657TMC3    C5 9724   1.541   4.440  14.185 -0.6920  0.5059  0.6493
  657TMC3    C6 9725   1.462   4.486  14.289  0.3852 -0.0560 -0.2253
  657TMC3     C 9726   1.668   4.128  14.328  0.2029  0.9379 -0.4470
  657TMC3     O 9727   1.660   4.060  14.227  0.3433  0.0389 -0.3777
  657TMC3     H 9728   1.507   4.236  14.504 -0.2752 -2.0112 -0.8384
  657TMC3    H1 9729   1.672   4.275  14.130  0.0902  0.3461  0.0285
  657TMC3    H2 9730   1.381   4.555  14.267 -0.8935 -2.2094 -2.2807
  657TMC3    C7 9731   1.571   4.533  14.069  0.0169  0.0754 -0.3677
  657TMC3    C8 9732   1.320   4.427  14.472 -0.3624 -0.3764  0.8258
  657TMC3    O1 9733   1.683   4.513  14.028  0.6057  0.5104  0.2108
  657TMC3    O2 9734   1.262   4.533  14.454 -0.2877  0.2012  0.1353
  658MPD2     C 9735   2.614   4.199  14.989  0.3826  0.3975  0.1220
  658MPD2    C1 9736   2.523   4.281  14.927  0.1416 -0.8552 -0.6396
  658MPD2    C2 9737   2.527   4.310  14.792 -0.1998  0.5408  0.5190
  658MPD2    C3 9738   2.644   4.281  14.720  0.0777  0.6114 -0.1954
  658MPD2    C4 9739   2.738   4.202  14.779 -0.0767  0.4283 -0.9573
  658MPD2    C5 9740   2.718   4.158  14.913 -0.0104  0.6054  0.5971
  658MPD2     H 9741   2.458   4.381  14.747  0.6883  1.1810  0.1723
  658MPD2    H1 9742   2.833   4.179  14.732 -0.0708  2.8844 -2.2002
  658MPD2    H2 9743   2.602   4.157  15.088  0.5207 -1.3173 -0.5901
  658MPD2    H3 9744   2.790   4.097  14.966 -0.9823 -1.2121 -0.1392
  658MPD2     N 9745   2.656   4.345  14.592  0.0035 -0.5319  0.5893
  658MPD2    H5 9746   2.576   4.401  14.566 -0.2796 -1.9482 -1.6417
  658MPD2    N1 9747   2.404   4.296  15.005 -0.0508  0.3382 -0.0938
  658MPD2    H7 9748   2.406   4.266  15.102  0.9442 -1.8073 -0.7881
  659TMC3    C1 9749   2.170   4.332  15.041 -0.3120 -0.1443 -0.1215
  659TMC3    C2 9750   2.202   4.409  15.151  0.3698  0.3455  0.1545
  659TMC3    C3 9751   2.112   4.503  15.189  0.1336 -0.2073  0.6526
  659TMC3    C4 9752   2.053   4.340  14.977 -0.2005 -0.0908 -0.0349
  659TMC3    C5 9753   1.959   4.433  15.019 -0.7229  0.4536  0.8856
  659TMC3    C6 9754   1.989   4.510  15.124  0.4852 -0.3217 -0.1728
  659TMC3     C 9755   2.282   4.330  14.948 -0.1548 -0.0134 -0.4103
  659TMC3     O 9756   2.252   4.356  14.833 -0.4710  0.0620 -0.1676
  659TMC3     H 9757   2.301   4.423  15.193  1.3054  0.3428 -2.0298
  659TMC3    H1 9758   2.044   4.279  14.887  1.4296  0.6919 -0.7217
  659TMC3    H2 9759   1.911   4.579  15.156 -0.1641 -0.8004 -0.7307
  659TMC3    C7 9760   1.817   4.419  14.987  0.4374 -0.2006  0.1685
  659TMC3    C8 9761   2.167   4.624  15.250 -0.5889  0.7680  0.4176
  659TMC3    O1 9762   1.750   4.523  15.000  0.7246 -0.0085 -0.1818
  659TMC3    O2 9763   2.097   4.721  15.222  0.1078 -0.0022  0.2334
  660MPD2     C 9764   1.159   3.364  12.578 -0.0505  0.6329  0.3141
  660MPD2    C1 9765   1.032   3.335  12.533 -0.3467  0.2639  0.0182
  660MPD2    C2 9766   0.937   3.297  12.624 -0.0108 -0.2513  0.2170
  660MPD2    C3 9767   0.966   3.283  12.760 -0.2764  0.5772  0.1060
  660MPD2    C4 9768   1.095   3.309  12.799  0.0909  0.4242 -0.3205
  660MPD2    C5 9769   1.189   3.355  12.709  0.2343  0.4860 -0.0830
  660MPD2     H 9770   0.835   3.287  12.587  1.2419 -1.6779 -2.8498
  660MPD2    H1 9771   1.134   3.305  12.900 -0.1951 -1.5368 -0.2752
  660MPD2    H2 9772   1.230   3.394  12.502  0.0515  0.2199  0.2434
  660MPD2    H3 9773   1.291   3.377  12.740  0.4703  0.3991 -0.7887
  660MPD2     N 9774   0.857   3.266  12.855 -0.7444 -0.1104  0.4772
  660MPD2    H5 9775   0.880   3.272  12.954  1.6263 -2.4807  0.0340
  660MPD2    N1 9776   1.016   3.326  12.393  0.6440 -0.0070  0.4805
  660MPD2    H7 9777   1.098   3.346  12.336 -0.6089 -0.1747 -1.3840
  661TMC3    C1 9778   0.908   3.326  12.182  0.2447 -0.6462  0.6090
  661TMC3    C2 9779   0.998   3.414  12.131 -0.2724 -0.5242 -0.1850
  661TMC3    C3 9780   0.979   3.461  11.999 -0.3061 -0.9586 -0.4432
  661TMC3    C4 9781   0.803   3.296  12.101  0.3404  1.0907 -0.2510
  661TMC3    C5 9782   0.793   3.339  11.970  0.1606  0.2252 -0.3388
  661TMC3    C6 9783   0.878   3.430  11.921  0.4985 -0.2601  0.1601
  661TMC3     C 9784   0.902   3.293  12.325  0.0842 -0.5184  0.0508
  661TMC3     O 9785   0.792   3.262  12.365 -0.2919 -0.1643 -0.1064
  661TMC3     H 9786   1.073   3.454  12.198 -0.5801  0.0900 -0.2037
  661TMC3    H1 9787   0.722   3.237  12.143 -0.7026  2.6969 -0.0001
  661TMC3    H2 9788   0.859   3.473  11.823  0.3584 -0.3666  0.1417
  661TMC3    C7 9789   0.664   3.322  11.912 -0.5795  0.2582 -0.7568
  661TMC3    C8 9790   1.090   3.534  11.948 -0.5559 -0.2530  0.1197
  661TMC3    O1 9791   0.629   3.407  11.825 -0.0189  0.3332  0.0228
  661TMC3    O2 9792   1.169   3.582  12.031  0.2905 -0.4304 -0.7964
  662MPD2     C 9793   1.375   3.020  17.304  0.1133 -0.1126 -0.1896
  662MPD2    C1 9794   1.322   2.998  17.426  0.0134  0.8283 -0.2995
  662MPD2    C2 9795   1.286   3.104  17.505  0.2004  0.4312 -0.3050
  662MPD2    C3 9796   1.286   3.233  17.457  0.2056  0.4308 -0.0370
  662MPD2    C4 9797   1.328   3.249  17.325 -0.0034  0.5272 -0.2939
  662MPD2    C5 9798   1.377   3.143  17.250 -0.3944  0.0631  0.4451
  662MPD2     H 9799   1.242   3.085  17.602 -2.4840  0.7861 -1.4521
  662MPD2    H1 9800   1.322   3.346  17.276  2.3134  1.0609  0.4821
  662MPD2    H2 9801   1.402   2.937  17.240 -0.3180 -1.8902  1.9361
  662MPD2    H3 9802   1.388   3.157  17.143  0.1350 -1.7812  0.2491
  662MPD2     N 9803   1.238   3.343  17.529  0.0819 -0.6992 -0.2004
  662MPD2    H5 9804   1.227   3.433  17.483  0.5367 -0.7325 -0.3763
  662MPD2    N1 9805   1.291   2.868  17.473  0.4138 -1.1515 -0.0212
  662MPD2    H7 9806   1.258   2.857  17.569 -0.3147 -1.6367 -0.3253
  663TMC3    C1 9807   1.237   2.642  17.476  0.2053 -1.1351 -0.2639
  663TMC3    C2 9808   1.177   2.660  17.600 -0.4282 -0.7048  0.1048
  663TMC3    C3 9809   1.095   2.566  17.649  0.0534 -0.7835 -0.6328
  663TMC3    C4 9810   1.199   2.536  17.399 -0.4627 -0.5092 -0.5196
  663TMC3    C5 9811   1.118   2.445  17.458 -0.4656  0.4638  0.0293
  663TMC3    C6 9812   1.059   2.459  17.577  0.1348  0.5139  0.6085
  663TMC3     C 9813   1.296   2.750  17.400  0.0832  0.0741 -0.5159
  663TMC3     O 9814   1.319   2.740  17.279  0.0690 -0.3060 -0.3715
  663TMC3     H 9815   1.228   2.729  17.666 -0.8715 -0.8805  0.6355
  663TMC3    H1 9816   1.241   2.530  17.298  2.0355  0.7375  0.4406
  663TMC3    H2 9817   1.010   2.376  17.628 -1.2317 -0.2567 -1.9132
  663TMC3    C7 9818   1.050   2.362  17.360  0.7908 -0.2639 -0.0591
  663TMC3    C8 9819   1.105   2.544   0.102  0.6208  0.1581 -0.6295
  663TMC3    O1 9820   1.100   2.361  17.252 -0.2933  0.6808  0.0289
  663TMC3    O2 9821   1.082   2.430   0.147  0.2089  0.1431 -0.9866
  664MPD2     C 9822   3.628   1.688  17.562 -0.0877 -0.5958 -0.8135
  664MPD2    C1 9823   3.757   1.752  17.558  0.2848 -0.2638 -0.1679
  664MPD2    C2 9824   3.844   1.739  17.659 -0.0945 -0.2561 -0.2346
  664MPD2    C3 9825   3.804   1.667   0.082 -1.5404 -0.9172 -0.6992
  664MPD2    C4 9826   3.687   1.597   0.080 -0.2476  0.2088  0.5433
  664MPD2    C5 9827   3.596   1.611  17.669 -0.3394 -0.0368  0.1179
  664MPD2     H 9828   3.937   1.795  17.659 -0.4575  0.3454 -0.1615
  664MPD2    H1 9829   3.655   1.540   0.167 -1.4732  0.5175  0.2915
  664MPD2    H2 9830   3.557   1.713  17.483 -2.2391 -0.2542  1.2284
  664MPD2    H3 9831   3.495   1.573  17.671  0.1176 -1.2376  0.8645
  664MPD2     N 9832   3.887   1.668   0.193 -0.5983 -0.4986 -0.1063
  664MPD2    H5 9833   3.970   1.728   0.198 -0.1710 -0.9718 -1.4953
  664MPD2    N1 9834   3.784   1.842  17.455 -0.2664 -0.3865  0.4393
  664MPD2    H7 9835   3.861   1.904  17.478 -1.1846  0.4749  1.2435
  665TMC3    C1 9836   3.984   1.590   0.389  0.1707 -0.1452  0.5196
  665TMC3    C2 9837   3.981   1.510   0.499  0.4676  0.3541  0.0738
  665TMC3    C3 9838   4.077   1.530   0.599 -0.4555 -0.1194  0.4969
  665TMC3    C4 9839   4.083   1.684   0.369 -0.0433 -0.3508  0.2403
  665TMC3    C5 9840   4.181   1.697   0.471 -0.1865 -0.1044 -0.3977
  665TMC3    C6 9841   4.174   1.621   0.589 -0.3897 -0.1063  0.7887
  665TMC3     C 9842   3.875   1.592   0.304 -0.3170  0.3914  0.5884
  665TMC3     O 9843   3.796   1.505   0.333  0.2667  0.0977 -0.3018
  665TMC3     H 9844   3.905   1.435   0.516  0.1047  0.9012  0.8411
  665TMC3    H1 9845   4.078   1.769   0.303 -2.9330  0.0417  0.9655
  665TMC3    H2 9846   4.248   1.625   0.667 -0.3642  1.5051  0.6848
  665TMC3    C7 9847   4.237   1.834   0.482 -0.6871  0.1979  0.1882
  665TMC3    C8 9848   4.037   1.497   0.739  0.4110  0.7278 -0.0701
  665TMC3    O1 9849   4.243   1.904   0.385  0.1901 -0.1120 -0.6061
  665TMC3    O2 9850   4.125   1.489   0.822 -0.6474  0.2429 -0.2171
  666TMC3    C1 9851   3.005   1.410   9.546  0.7395 -0.1429 -0.7261
  666TMC3    C2 9852   3.134   1.377   9.565 -0.1962  0.3788 -0.3021
  666TMC3    C3 9853   3.227   1.476   9.587 -0.1285  0.8736  0.9182
  666TMC3    C4 9854   2.969   1.539   9.574  1.1517  0.3590 -0.6654
  666TMC3    C5 9855   3.065   1.636   9.595  0.0905  0.2421 -0.4501
  666TMC3    C6 9856   3.197   1.609   9.602  0.3830 -0.1146  0.2649
  666TMC3     C 9857   2.904   1.316   9.593 -0.6989 -0.0608 -0.2981
  666TMC3     O 9858   2.787   1.348   9.581  0.8146 -0.0884  0.5666
  666TMC3     H 9859   3.170   1.276   9.546 -0.9437  0.3023 -1.3120
  666TMC3    H1 9860   2.869   1.570   9.544  0.6896 -1.4490 -0.9818
  666TMC3    H2 9861   3.267   1.685   9.637 -2.6333  3.2685 -1.0238
  666TMC3    C7 9862   3.020   1.775   9.602  0.6084 -0.6942  0.1795
  666TMC3    C8 9863   3.359   1.422   9.584  0.1504  0.0049  0.3152
  666TMC3    O1 9864   2.902   1.782   9.637 -0.1705  0.5031 -0.3928
  666TMC3    O2 9865   3.377   1.304   9.614  0.2222 -0.9348 -0.4452
  667MPD2     C 9866   3.802   1.289  14.561 -0.3429 -0.0868  0.8536
  667MPD2    C1 9867   3.716   1.361  14.633  1.0666  0.2939  0.1675
  667MPD2    C2 9868   3.587   1.375  14.586 -0.4857  0.3063  0.2619
  667MPD2    C3 9869   3.539   1.294  14.483  0.4037  0.3690 -0.5714
  667MPD2    C4 9870   3.630   1.217  14.420 -0.5611  0.1214 -0.0676
  667MPD2    C5 9871   3.766   1.224  14.449 -0.3184 -0.4163  0.1298
  667MPD2     H 9872   3.512   1.438  14.632 -0.1465  0.2101  0.9427
  667MPD2    H1 9873   3.589   1.162  14.336 -2.0104  0.6766  0.2699
  667MPD2    H2 9874   3.905   1.270  14.589  0.3287  1.2985 -0.6824
  667MPD2    H3 9875   3.840   1.160  14.403 -0.3090 -0.0147 -0.4103
  667MPD2     N 9876   3.415   1.297  14.414  0.6449  0.5076  0.2052
  667MPD2    H5 9877   3.398   1.231  14.339  1.1878 -0.1712  0.6795
  667MPD2    N1 9878   3.752   1.425  14.750 -0.3598 -0.1790 -0.1540
  667MPD2    H7 9879   3.677   1.473  14.798  0.1170  0.3432  0.0753
  668TMC3    C1 9880   3.894   1.494  14.935  0.7605 -0.3790 -0.1641
  668TMC3    C2 9881   3.980   1.598  14.958 -0.4057 -0.1432  0.3495
  668TMC3    C3 9882   3.960   1.663  15.073  0.6046 -0.3971 -1.1209
  668TMC3    C4 9883   3.801   1.451  15.028  0.8434  0.5445 -0.4165
  668TMC3    C5 9884   3.791   1.517  15.141 -0.4947 -0.3693 -0.1269
  668TMC3    C6 9885   3.881   1.614  15.168 -0.4277  0.1653 -0.5506
  668TMC3     C 9886   3.884   1.441  14.797  0.5519  0.9049  0.0042
  668TMC3     O 9887   3.985   1.429  14.729  0.3448 -0.8440  0.0420
  668TMC3     H 9888   4.042   1.632  14.875  1.8764 -1.3757  1.5499
  668TMC3    H1 9889   3.722   1.380  15.005  0.5659 -0.0751  2.4444
  668TMC3    H2 9890   3.857   1.681  15.250 -0.0821 -0.5923  0.1650
  668TMC3    C7 9891   3.674   1.523  15.229 -0.3218  0.6223  0.3442
  668TMC3    C8 9892   4.067   1.739  15.135 -0.4718  0.6207  0.0087
  668TMC3    O1 9893   3.667   1.605  15.318 -0.1456 -0.6079 -0.2506
  668TMC3    O2 9894   4.073   1.741  15.253 -0.3974  0.3256  0.4729
  669TMC3    C1 9895   2.087   1.618  14.117  0.2622 -0.7880 -0.1261
  669TMC3    C2 9896   1.965   1.644  14.054 -0.6690 -0.2893  0.7522
  669TMC3    C3 9897   1.957   1.756  13.977 -0.4610 -0.1503  0.5336
  669TMC3    C4 9898   2.192   1.705  14.106 -0.3463  0.0429  0.3838
  669TMC3    C5 9899   2.182   1.812  14.021 -0.1122 -0.2854 -0.5612
  669TMC3    C6 9900   2.063   1.842  13.954  0.2046  0.1304  0.2989
  669TMC3     C 9901   2.094   1.514  14.212 -0.3688 -0.8994  0.2440
  669TMC3     O 9902   1.983   1.500  14.260 -0.5294  0.0757 -0.6344
  669TMC3     H 9903   1.890   1.567  14.067 -0.4003 -0.4856  1.1318
  669TMC3    H1 9904   2.289   1.702  14.154  0.1565  1.7828 -0.5138
  669TMC3    H2 9905   2.053   1.930  13.891  0.9027  0.8361  1.1923
  669TMC3    C7 9906   2.306   1.880  13.966  0.4023 -0.3726  0.9810
  669TMC3    C8 9907   1.835   1.770  13.898  0.9174  0.3941  0.7972
  669TMC3    O1 9908   2.398   1.895  14.048  0.4701 -0.0778 -0.0310
  669TMC3    O2 9909   1.786   1.667  13.865 -0.6382 -0.8806  0.1135
  670MPD2     C 9910   1.179   3.939  13.060  0.1408 -0.0552 -0.0001
  670MPD2    C1 9911   1.223   4.061  13.105  0.0441 -0.3413 -0.6506
  670MPD2    C2 9912   1.150   4.121  13.206 -0.8464  0.6149  0.4618
  670MPD2    C3 9913   1.026   4.069  13.248 -0.2834 -1.3192  0.6151
  670MPD2    C4 9914   0.980   3.947  13.194  0.0137 -0.1631  0.4222
  670MPD2    C5 9915   1.067   3.882  13.105  0.3520 -0.4426 -1.0469
  670MPD2     H 9916   1.183   4.213  13.254 -3.0539  1.8310 -0.3647
  670MPD2    H1 9917   0.897   3.886  13.227  0.7310 -0.4844  1.6341
  670MPD2    H2 9918   1.233   3.881  12.987  0.0293  0.4205 -0.4540
  670MPD2    H3 9919   1.026   3.790  13.062  0.9082 -1.6604  1.0629
  670MPD2     N 9920   0.946   4.138  13.350 -0.2037  0.3956  0.2778
  670MPD2    H5 9921   0.996   4.211  13.400 -0.8794 -0.2124  1.8361
  670MPD2    N1 9922   1.337   4.119  13.046  0.1716 -0.4087 -0.0422
  670MPD2    H7 9923   1.368   4.204  13.090 -0.0225 -0.6332  0.5229
  671TMC3    C1 9924   0.746   4.185  13.467  0.3763  0.0610 -0.0129
  671TMC3    C2 9925   0.804   4.177  13.594 -0.1750  0.2683  0.4190
  671TMC3    C3 9926   0.714   4.181  13.698  0.3725 -0.4623  0.7935
  671TMC3    C4 9927   0.607   4.183  13.451  0.5526 -0.0814 -0.0852
  671TMC3    C5 9928   0.529   4.201  13.556  0.3752 -0.6176 -0.4279
  671TMC3    C6 9929   0.586   4.211  13.676  0.1638 -0.2899  0.0499
  671TMC3     C 9930   0.814   4.113  13.358 -0.3945 -0.3501  0.5485
  671TMC3     O 9931   0.743   4.027  13.310 -0.3098  0.1312 -0.2271
  671TMC3     H 9932   0.906   4.147  13.612 -1.0559 -2.5923  0.7325
  671TMC3    H1 9933   0.564   4.172  13.352 -1.0211 -1.4585  0.7443
  671TMC3    H2 9934   0.528   4.228  13.767  0.9563  0.0079  0.4989
  671TMC3    C7 9935   0.398   4.137  13.550  0.5685  0.9271  0.4653
  671TMC3    C8 9936   0.726   4.078  13.799 -0.0225  0.2728  0.2428
  671TMC3    O1 9937   0.331   4.170  13.453  0.3424  0.5466 -0.5415
  671TMC3    O2 9938   0.629   4.014  13.836  0.1815  0.6167  0.7444
  672MPD2     C 9939   1.661   4.689   0.864 -0.9789  0.4194 -0.6110
  672MPD2    C1 9940   1.537   4.712   0.811 -0.6868  0.1057  0.1741
  672MPD2    C2 9941   1.429   4.716   0.898  0.4478 -0.0937  0.0562
  672MPD2    C3 9942   1.440   4.716   1.037  0.7218 -0.4016 -0.5207
  672MPD2    C4 9943   1.567   4.687   1.087  0.7289 -0.1735 -0.1047
  672MPD2    C5 9944   1.674   4.670   0.999  0.3224 -0.1862 -0.0290
  672MPD2     H 9945   1.333   0.011   0.853 -0.0629  0.5158  1.3806
  672MPD2    H1 9946   1.599   4.686   1.190 -0.4023  0.1534  0.2474
  672MPD2    H2 9947   1.753   4.677   0.807 -1.3387 -1.4667 -0.7827
  672MPD2    H3 9948   1.768   4.642   1.044  0.0923  0.5715  0.9317
  672MPD2     N 9949   1.332   0.026   1.131  0.3671 -0.6069 -0.1088
  672MPD2    H5 9950   1.346   0.024   1.232  1.0387 -0.8991 -0.2092
  672MPD2    N1 9951   1.498   0.001   0.679  0.1832  0.1180  0.5191
  672MPD2    H7 9952   1.398   0.007   0.661 -0.4848 -0.6696  3.9825
  673TMC3    C1 9953   1.506   0.038   0.446  0.0378 -0.6409  0.6611
  673TMC3    C2 9954   1.536   0.153   0.381  0.1561  0.7826 -0.3903
  673TMC3    C3 9955   1.436   0.224   0.322  0.1093  0.1191 -0.5301
  673TMC3    C4 9956   1.383   4.710   0.450  0.1194 -0.3133  0.8762
  673TMC3    C5 9957   1.284   0.065   0.396  0.2227  0.3622  0.0580
  673TMC3    C6 9958   1.310   0.181   0.335 -0.1408  0.5454 -0.0744
  673TMC3     C 9959   1.583   0.007   0.563 -0.0090 -0.1857  0.6841
  673TMC3     O 9960   1.706   0.017   0.565  0.1699 -0.0270 -0.6560
  673TMC3     H 9961   1.636   0.194   0.372  0.4876  0.2770  0.9654
  673TMC3    H1 9962   1.357   4.620   0.503  0.4375 -1.7037 -1.3294
  673TMC3    H2 9963   1.233   0.233   0.278 -1.6696 -0.3006  1.2204
  673TMC3    C7 9964   1.150   0.031   0.453 -0.4525 -0.2073 -0.7284
  673TMC3    C8 9965   1.460   0.363   0.299  0.9912  1.1057  0.3349
  673TMC3    O1 9966   1.138   4.655   0.521 -0.1053  0.3411 -0.1583
  673TMC3    O2 9967   1.433   0.413   0.190  0.0411 -0.0365 -0.0647
  674MPD2     C 9968   1.317   0.130   0.001 -0.7391 -0.4423 -0.3291
  674MPD2    C1 9969   1.323   4.718   0.027 -0.3646  0.2972 -0.7436
  674MPD2    C2 9970   1.211   4.646   0.060  0.1089  0.0088 -0.7435
  674MPD2    C3 9971   1.094   4.708   0.088 -0.2190 -0.1226 -0.1641
  674MPD2    C4 9972   1.090   0.125   0.061  0.6218 -0.0612  0.3414
  674MPD2    C5 9973   1.196   0.198   0.018 -0.1094 -0.1421  0.0235
  674MPD2     H 9974   1.203   4.539   0.077 -0.2840  0.4927  2.1652
  674MPD2    H1 9975   1.003   0.182   0.090  0.2750 -0.0951 -0.6547
  674MPD2    H2 9976   1.405   0.186  17.663 -1.9255  1.3069 -0.4876
  674MPD2    H3 9977   1.185   0.304  17.690 -0.4877 -0.1969 -0.0638
  674MPD2     N 9978   0.988   4.636   0.148  0.1306 -0.5293 -0.3460
  674MPD2    H5 9979   1.015   4.546   0.188 -0.6131 -1.4280 -1.8621
  674MPD2    N1 9980   1.451   4.659   0.032  0.1482 -0.0587 -0.3697
  674MPD2    H7 9981   1.524   4.722   0.002 -0.6153 -0.0251 -2.1050
  675TMC3    C1 9982   1.624   4.518   0.081 -0.9466  0.6137  0.4286
  675TMC3    C2 9983   1.676   4.436   0.183  0.0017  0.6969 -0.4878
  675TMC3    C3 9984   1.802   4.381   0.165 -0.3360  0.4182  0.5280
  675TMC3    C4 9985   1.687   4.548  17.657 -0.1195  0.1349 -0.3714
  675TMC3    C5 9986   1.806   4.476  17.641  0.1312 -0.6681 -0.2252
  675TMC3    C6 9987   1.865   4.403   0.043  0.1347  0.1628  0.2526
  675TMC3     C 9988   1.484   4.544   0.102  0.2213  0.1515  0.4290
  675TMC3     O 9989   1.417   4.467   0.169  0.4824  0.4103 -0.3372
  675TMC3     H 9990   1.615   4.407   0.268  0.5533 -0.1889 -0.4039
  675TMC3    H1 9991   1.657   4.608  17.573  3.0673  2.7399  0.3421
  675TMC3    H2 9992   1.958   4.353   0.018 -0.6841 -1.8946  1.3011
  675TMC3    C7 9993   1.899   4.540  17.547 -0.4655 -0.2779  0.0189
  675TMC3    C8 9994   1.848   4.265   0.242 -0.0372  0.6637  0.3252
  675TMC3    O1 9995   2.007   4.589  17.589  0.5056  0.4008  0.4972
  675TMC3    O2 9996   1.935   4.201   0.187 -0.2578 -0.0227 -0.3721
  676MPD2     C 9997   3.571   2.727  10.809  0.2236 -0.1201 -0.0275
  676MPD2    C1 9998   3.561   2.636  10.913 -0.6350 -0.4428  0.5425
  676MPD2    C2 9999   3.605   2.503  10.890  0.1506 -0.5039  0.2434
  676MPD2    C310000   3.644   2.462  10.765  0.0813 -0.3157  0.6820
  676MPD2    C410001   3.650   2.556  10.660 -0.3872 -0.2082  0.1692
  676MPD2    C510002   3.612   2.683  10.684  0.5531  0.3032  0.3509
  676MPD2     H10003   3.598   2.435  10.974 -2.6355 -1.6787 -0.9350
  676MPD2    H110004   3.692   2.540  10.562 -1.9054  0.0015 -0.5143
  676MPD2    H210005   3.537   2.829  10.822  0.3477  0.2465 -2.5952
  676MPD2    H310006   3.615   2.762  10.609 -0.0098  0.8774  0.9415
  676MPD2     N10007   3.671   2.332  10.737 -0.4950  0.3583  0.0858
  676MPD2    H510008   3.707   2.312  10.644 -0.4458 -1.9655  0.6091
  676MPD2    N110009   3.528   2.675  11.046 -0.0713  0.1410  0.0354
  676MPD2    H710010   3.511   2.601  11.113 -0.0552 -0.5914 -0.7752
  677TMC3    C110011   3.453   2.812  11.210  0.2638  0.2140  0.2498
  677TMC3    C210012   3.336   2.739  11.216 -0.4279 -0.1630  0.6299
  677TMC3    C310013   3.272   2.727  11.333 -0.5921 -0.5928 -0.0386
  677TMC3    C410014   3.508   2.886  11.309  0.8132  0.1706 -0.0366
  677TMC3    C510015   3.442   2.861  11.433  0.0215  0.8773 -0.2141
  677TMC3    C610016   3.323   2.793  11.437  0.3176  0.2509 -0.1564
  677TMC3     C10017   3.509   2.808  11.081  0.9881 -0.6161  0.0487
  677TMC3     O10018   3.555   2.907  11.031  0.1700  0.1590 -0.4853
  677TMC3     H10019   3.307   2.682  11.129  0.2367  2.1415 -1.1013
  677TMC3    H110020   3.606   2.927  11.289  1.8348 -1.2382  2.0612
  677TMC3    H210021   3.275   2.790  11.535  1.8759 -0.9172  0.5782
  677TMC3    C710022   3.519   2.848  11.553 -0.1869  0.2739  0.7264
  677TMC3    C810023   3.182   2.602  11.349 -0.2109  0.4699 -0.7026
  677TMC3    O110024   3.479   2.765  11.635 -0.0472  0.6029  0.4139
  677TMC3    O210025   3.102   2.591  11.260 -0.9084 -0.1713 -0.3177
  678MPD2     C10026   4.693   3.070   1.695  0.3285 -0.7809  0.4337
  678MPD2    C110027   4.675   2.988   1.590 -0.3763 -0.8731 -0.1631
  678MPD2    C210028   4.558   2.916   1.581  0.2959  0.7398 -0.4322
  678MPD2    C310029   4.460   2.914   1.678 -0.3415 -0.1181 -0.6992
  678MPD2    C410030   4.486   2.995   1.786  0.5186  0.7120 -0.1228
  678MPD2    C510031   4.600   3.071   1.787 -0.5127 -0.0020  0.4631
  678MPD2     H10032   4.552   2.861   1.488  0.4700 -0.7563  0.4481
  678MPD2    H110033   4.410   3.012   1.861 -1.0576  0.4197 -1.6493
  678MPD2    H210034   0.052   3.142   1.696 -0.6831  0.3882 -0.2042
  678MPD2    H310035   4.614   3.117   1.885  2.4539  0.6318 -0.2534
  678MPD2     N10036   4.357   2.829   1.661  1.4602  0.1674  0.2381
  678MPD2    H510037   4.353   2.773   1.576  1.6904  1.2749 -0.4931
  678MPD2    N110038   0.043   2.971   1.486  0.0008  0.5652  0.2769
  678MPD2    H710039   0.024   2.899   1.417 -1.8211 -0.1834  1.5701
  679TMC3    C110040   0.341   2.813   1.259  1.1693  0.2437  0.1930
  679TMC3    C210041   0.236   2.860   1.322 -0.4538  0.6858  0.4261
  679TMC3    C310042   0.243   2.997   1.363 -0.2621 -0.1034 -0.5890
  679TMC3    C410043   0.457   2.875   1.228 -0.0922 -0.7611  0.2196
  679TMC3    C510044   0.447   3.009   1.241  0.6426  0.1231  0.0222
  679TMC3    C610045   0.350   3.072   1.319  0.4056 -0.1861 -0.0488
  679TMC3     C10046   0.327   2.684   1.205 -0.4981  0.5929 -0.2760
  679TMC3     O10047   0.421   2.610   1.182 -0.4623  0.0971 -0.0318
  679TMC3     H10048   0.163   2.792   1.365 -0.3927 -1.1321 -2.3560
  679TMC3    H110049   0.549   2.822   1.205  2.1559  3.4451 -0.6592
  679TMC3    H210050   0.355   3.175   1.352  0.2428 -0.5339  1.0721
  679TMC3    C710051   0.558   3.094   1.186 -0.1244 -0.0214 -0.4291
  679TMC3    C810052   0.147   3.050   1.465  0.1310 -0.4508 -0.3172
  679TMC3    O110053   0.648   3.022   1.138 -0.6246 -0.2538 -0.0410
  679TMC3    O210054   0.186   3.152   1.519  0.2166  0.3780  0.2650
  680MPD2     C10055   0.274   1.530  13.472  0.6128  0.4485  0.0309
  680MPD2    C110056   0.300   1.431  13.559  0.7410 -0.5001 -0.0473
  680MPD2    C210057   0.330   1.455  13.690  0.2148  0.2928  0.7813
  680MPD2    C310058   0.360   1.577  13.736 -0.5605  0.1381  0.5518
  680MPD2    C410059   0.323   1.681  13.653 -0.0523 -0.5173  0.7688
  680MPD2    C510060   0.277   1.656  13.522  0.1769 -0.0112  0.1607
  680MPD2     H10061   0.350   1.360  13.739 -3.3479 -1.2208 -0.6145
  680MPD2    H110062   0.342   1.787  13.670 -2.0851  0.2158 -1.5601
  680MPD2    H210063   0.241   1.521  13.369  2.6522 -1.5236 -0.4562
  680MPD2    H310064   0.237   1.742  13.469 -0.0227  1.5325  2.7958
  680MPD2     N10065   0.428   1.613  13.854 -0.5289  0.4115 -0.4251
  680MPD2    H510066   0.453   1.710  13.868  1.2781 -0.1300  0.0737
  680MPD2    N110067   0.292   1.291  13.515 -0.2927 -0.1441  0.0521
  680MPD2    H710068   0.289   1.219  13.587 -1.7774 -0.7192 -0.5762
  681TMC3    C110069   0.285   1.096  13.391 -0.3132 -0.3695 -0.6703
  681TMC3    C210070   0.182   1.036  13.462 -0.4974  0.6826  0.7373
  681TMC3    C310071   0.163   0.903  13.444  0.2561  0.5239 -0.3912
  681TMC3    C410072   0.343   1.030  13.287 -0.0758 -0.2323 -0.5137
  681TMC3    C510073   0.311   0.896  13.269  0.6090 -0.6188  1.0393
  681TMC3    C610074   0.227   0.824  13.348 -0.4343 -0.0489  0.1365
  681TMC3     C10075   0.296   1.245  13.391 -0.7396 -0.2109 -0.6640
  681TMC3     O10076   0.294   1.301  13.282  0.1928  0.0504 -0.2559
  681TMC3     H10077   0.120   1.093  13.531  0.8555  2.0776  0.7985
  681TMC3    H110078   0.401   1.094  13.222  1.1425  1.5929  2.3377
  681TMC3    H210079   0.194   0.724  13.321 -1.4196  1.1901 -3.2953
  681TMC3    C710080   0.329   0.849  13.132 -0.2036  0.2256  0.2961
  681TMC3    C810081   0.060   0.837  13.525  0.9002 -0.3895  0.0715
  681TMC3    O110082   0.237   0.787  13.086 -0.1766  0.1846 -0.2962
  681TMC3    O210083   4.715   0.754  13.468 -0.0470 -1.0108  0.0230
  682MPD2     C10084   2.817   2.563  10.568 -0.1776 -0.1917  0.2408
  682MPD2    C110085   2.828   2.439  10.508 -0.0940 -0.3352 -0.8861
  682MPD2    C210086   2.868   2.328  10.585 -0.0058  0.4271  0.5881
  682MPD2    C310087   2.881   2.337  10.721 -0.5214  0.3139  0.3990
  682MPD2    C410088   2.869   2.455  10.783  0.9124 -0.1839 -0.0055
  682MPD2    C510089   2.849   2.565  10.700  0.0954 -0.3532  0.5463
  682MPD2     H10090   2.878   2.236  10.529 -0.5177  0.6474  0.1409
  682MPD2    H110091   2.875   2.464  10.891  3.4379  1.8116 -0.2977
  682MPD2    H210092   2.795   2.660  10.524  0.2480 -0.0068  0.4385
  682MPD2    H310093   2.829   2.661  10.746  3.2268  0.1750  0.7893
  682MPD2     N10094   2.904   2.218  10.794  0.1903 -0.1283  0.2720
  682MPD2    H510095   2.916   2.234  10.893 -0.8339 -1.0510  0.5534
  682MPD2    N110096   2.801   2.409  10.368 -0.5329  0.0140 -0.3730
  682MPD2    H710097   2.798   2.311  10.342  0.2698  0.5535 -2.5059
  683TMC3    C110098   2.842   1.935  11.079 -0.5572 -0.4229  0.2741
  683TMC3    C210099   2.839   1.799  11.044 -0.5240 -0.9572 -0.6900
  683TMC3    C310100   2.857   1.768  10.912  0.7731  0.1412 -0.5403
  683TMC3    C410101   2.870   2.029  10.990 -0.6065  0.5951 -0.1005
  683TMC3    C510102   2.883   1.996  10.856  0.2416  0.1010  0.2093
  683TMC3    C610103   2.882   1.866  10.816 -0.1658  0.1256  0.6758
  683TMC3     C10104   2.842   1.963  11.216  0.1489 -0.2403 -0.9991
  683TMC3     O10105   2.798   2.079  11.233  0.5180 -0.5513 -0.2746
  683TMC3     H10106   2.801   1.721  11.109  1.3783 -2.0947 -0.9620
  683TMC3    H110107   2.865   2.134  11.017 -0.4301  0.4081  0.6647
  683TMC3    H210108   2.882   1.848  10.709  2.2045 -1.0956  0.8846
  683TMC3    C710109   2.895   2.091  10.744  0.0907  0.6421  0.8220
  683TMC3    C810110   2.854   1.637  10.855  0.3217  0.0702  0.0572
  683TMC3    O110111   2.917   2.049  10.630  0.1912 -0.3148  0.0846
  683TMC3    O210112   2.834   1.626  10.732  0.0320 -0.0341 -0.3462
  684MPD2     C10113   0.918   2.075  16.349 -0.1300 -0.5000  0.4528
  684MPD2    C110114   0.948   2.080  16.216 -0.3656 -0.3424  0.3983
  684MPD2    C210115   1.007   2.195  16.162  0.0342 -0.2299  0.1210
  684MPD2    C310116   1.043   2.304  16.237 -0.0172 -0.1117 -0.6733
  684MPD2    C410117   1.016   2.295  16.376  0.0254  0.3915 -1.1015
  684MPD2    C510118   0.953   2.186  16.427  0.1668 -0.4355 -0.0025
  684MPD2     H10119   1.036   2.187  16.057 -1.4001  0.9405 -0.3539
  684MPD2    H110120   1.037   2.376  16.444  0.1618 -0.3484 -0.2642
  684MPD2    H210121   0.876   1.987  16.397 -1.8687 -1.2172 -2.4158
  684MPD2    H310122   0.931   2.171  16.532 -1.8508  2.4442 -0.0080
  684MPD2     N10123   1.087   2.425  16.184  0.3402 -0.4754  0.7197
  684MPD2    H510124   1.111   2.497  16.252  0.5421  1.1500 -1.0572
  684MPD2    N110125   0.915   1.968  16.137  0.5945 -1.3801  0.5611
  684MPD2    H710126   0.956   1.954  16.045 -0.6988 -0.5905 -0.1392
  685TMC3    C110127   0.828   1.767  16.072  0.3103 -0.3634 -0.3026
  685TMC3    C210128   0.714   1.732  15.994  0.3325 -0.3318  0.0437
  685TMC3    C310129   0.731   1.620  15.918 -0.1441  0.0658 -0.2604
  685TMC3    C410130   0.942   1.688  16.068  0.3621 -0.4248 -0.4224
  685TMC3    C510131   0.951   1.569  16.002  0.0297  0.8348  0.5065
  685TMC3    C610132   0.845   1.539  15.920 -0.4818 -0.2485 -0.1896
  685TMC3     C10133   0.814   1.879  16.168  0.0554 -0.4986 -0.5517
  685TMC3     O10134   0.728   1.879  16.252 -0.6660 -0.4508  0.3807
  685TMC3     H10135   0.618   1.774  16.022  0.3149  0.8414 -1.7582
  685TMC3    H110136   1.021   1.729  16.129  1.0672 -0.5951 -1.2255
  685TMC3    H210137   0.851   1.450  15.858 -3.0492  1.7451 -3.3353
  685TMC3    C710138   1.076   1.481  16.003  0.4076 -0.5276 -0.3380
  685TMC3    C810139   0.617   1.556  15.853  0.4045  0.1316  0.2803
  685TMC3    O110140   1.093   1.401  15.909  0.2008 -0.1187  0.1577
  685TMC3    O210141   0.634   1.435  15.827  0.3581 -0.1737 -0.2299
  686MPD2     C10142   1.549   2.331  15.141  0.6171  0.2272  0.2062
  686MPD2    C110143   1.615   2.215  15.179  0.2828  0.6836  0.0038
  686MPD2    C210144   1.710   2.161  15.091  0.2305 -0.1694  0.3745
  686MPD2    C310145   1.728   2.207  14.960  0.0231  0.7778  0.7439
  686MPD2    C410146   1.660   2.321  14.933 -0.0418 -0.0852  0.0081
  686MPD2    C510147   1.576   2.385  15.019 -0.4046  0.0931  0.3638
  686MPD2     H10148   1.780   2.083  15.119  1.5149 -0.2209 -2.8734
  686MPD2    H110149   1.679   2.364  14.835 -0.7154 -0.3836 -0.2537
  686MPD2    H210150   1.467   2.372  15.198 -0.9182 -1.3041 -0.9067
  686MPD2    H310151   1.522   2.474  14.989  3.3036  2.2466  0.1909
  686MPD2     N10152   1.817   2.153  14.866 -0.1158  0.1357 -0.0124
  686MPD2    H510153   1.821   2.212  14.784 -1.4490 -0.1767 -0.3067
  686MPD2    N110154   1.592   2.150  15.305  0.6361  0.2538  0.6624
  686MPD2    H710155   1.528   2.205  15.361  0.2398 -1.2748  1.6885
  687TMC3    C110156   1.799   1.914  14.932  0.5705  0.5989  0.9646
  687TMC3    C210157   1.662   1.911  14.920 -0.8426 -0.6694  0.1856
  687TMC3    C310158   1.593   1.796  14.964 -0.1706 -0.0271 -0.0858
  687TMC3    C410159   1.868   1.804  14.971 -0.4512  0.7606  0.7038
  687TMC3    C510160   1.800   1.698  15.016  0.3967  0.8983  0.3510
  687TMC3    C610161   1.668   1.692  15.015  0.3764 -0.1461 -0.1381
  687TMC3     C10162   1.868   2.022  14.859 -0.4535 -0.4276 -0.9623
  687TMC3     O10163   1.956   1.995  14.778  0.2551 -0.0981  0.1116
  687TMC3     H10164   1.622   1.996  14.866  0.3513 -0.3173 -0.1454
  687TMC3    H110165   1.977   1.806  14.963 -0.5734  2.5670 -0.6624
  687TMC3    H210166   1.619   1.597  15.032  0.0715 -0.1079 -0.7952
  687TMC3    C710167   1.868   1.593  15.087 -0.2018  0.2068  0.3668
  687TMC3    C810168   1.477   1.821  15.048  0.1550 -0.1063 -0.1814
  687TMC3    O110169   1.797   1.499  15.120 -0.1133 -0.1748 -0.8964
  687TMC3    O210170   1.454   1.736  15.130 -0.2296 -0.6386  0.2146
  688MPD2     C10171   1.447   0.827  17.184 -0.2848 -0.0627 -0.2384
  688MPD2    C110172   1.417   0.692  17.153  0.1580  0.5891  0.1739
  688MPD2    C210173   1.499   0.626  17.061  0.1537 -0.2024  0.8860
  688MPD2    C310174   1.609   0.692  17.004 -0.5389 -0.1677 -0.7981
  688MPD2    C410175   1.629   0.825  17.031 -0.0168 -0.2982  0.4212
  688MPD2    C510176   1.555   0.888  17.126 -0.3165  0.4078  0.3980
  688MPD2     H10177   1.469   0.524  17.040 -1.1832  0.6790 -1.4565
  688MPD2    H110178   1.712   0.874  16.981 -0.3966  0.4310  0.5076
  688MPD2    H210179   1.399   0.885  17.262 -0.6394 -0.1054 -0.4246
  688MPD2    H310180   1.567   0.990  17.162  1.2553  1.2582 -2.5471
  688MPD2     N10181   1.691   0.627  16.911  0.2862 -0.1820  0.3553
  688MPD2    H510182   1.781   0.668  16.887  0.4808 -0.8924 -0.1350
  688MPD2    N110183   1.316   0.622  17.218  0.1451 -0.2822  0.0235
  688MPD2    H710184   1.332   0.522  17.221  0.6467 -0.1641  1.1902
  689TMC3    C110185   1.168   0.597  17.396 -0.0103  0.0116  0.1826
  689TMC3    C210186   1.136   0.665  17.508 -0.4678 -0.2214  0.7834
  689TMC3    C310187   1.025   0.626  17.581 -0.8172  0.1305  0.0367
  689TMC3    C410188   1.097   0.483  17.357 -0.0747 -1.2484 -0.1881
  689TMC3    C510189   0.988   0.444  17.433 -0.6209  0.6559  0.2531
  689TMC3    C610190   0.947   0.521  17.541 -0.1900 -0.1764  0.1368
  689TMC3     C10191   1.235   0.685  17.311  0.0062  0.2798  0.2101
  689TMC3     O10192   1.195   0.799  17.323 -0.2627  0.1214 -0.3385
  689TMC3     H10193   1.206   0.740  17.544 -1.7926  1.7675 -0.7660
  689TMC3    H110194   1.122   0.437  17.262 -1.6241 -2.3766 -0.0466
  689TMC3    H210195   0.871   0.489  17.611  1.9294 -1.6011  1.7961
  689TMC3    C710196   0.925   0.316  17.423  0.3597  0.1525 -0.8268
  689TMC3    C810197   1.017   0.665   0.019  0.3469  0.3871  0.2592
  689TMC3    O110198   0.849   0.287  17.513 -0.7832 -0.4274  0.2430
  689TMC3    O210199   0.915   0.632   0.079 -0.4105 -0.2417  0.2058
  690MPD2     C10200   3.268   2.595  15.401 -0.6773  0.1296 -0.4911
  690MPD2    C110201   3.266   2.588  15.260 -0.4867  0.6960 -0.2747
  690MPD2    C210202   3.370   2.644  15.195  0.3793  0.5702  0.1410
  690MPD2    C310203   3.484   2.700  15.259 -0.2087 -0.2146 -0.6040
  690MPD2    C410204   3.477   2.710  15.393 -0.5385  0.2312 -0.4711
  690MPD2    C510205   3.369   2.652  15.467 -0.6433  0.7332 -0.3160
  690MPD2     H10206   3.371   2.644  15.087 -1.8002 -0.8404  0.1063
  690MPD2    H110207   3.557   2.749  15.456  0.1098 -0.1432 -1.0690
  690MPD2    H210208   3.209   2.541  15.474  1.3108  0.5586  1.4510
  690MPD2    H310209   3.380   2.660  15.574 -3.4633  1.8221 -0.1052
  690MPD2     N10210   3.585   2.752  15.177 -0.8957  0.1422  0.7190
  690MPD2    H510211   3.586   2.729  15.078  0.6334 -1.0422  1.0062
  690MPD2    N110212   3.173   2.517  15.191 -0.4536 -0.0111  0.1898
  690MPD2    H710213   3.196   2.474  15.102 -0.4854  0.6556 -0.1406
  691TMC3    C110214   2.976   2.383  15.184  0.5472  0.0633 -0.1508
  691TMC3    C210215   2.851   2.356  15.240  0.3580 -0.5078 -0.2750
  691TMC3    C310216   2.788   2.237  15.215 -0.2222 -0.4696 -0.2737
  691TMC3    C410217   3.037   2.291  15.099 -0.3109 -0.1635  0.1237
  691TMC3    C510218   2.963   2.181  15.068  0.0375  0.4690  0.2601
  691TMC3    C610219   2.834   2.156  15.111  0.1159  0.5594 -0.7385
  691TMC3     C10220   3.045   2.498  15.239 -0.3135  0.1638 -0.1352
  691TMC3     O10221   2.994   2.575  15.320 -0.2206 -0.0154 -0.6034
  691TMC3     H10222   2.801   2.426  15.306  0.8389  0.0825 -0.5422
  691TMC3    H110223   3.132   2.309  15.050 -0.0535  1.4713  1.2055
  691TMC3    H210224   2.788   2.059  15.100  0.0936  0.5012 -0.1461
  691TMC3    C710225   3.044   2.064  15.051 -0.1679 -1.1121  0.0432
  691TMC3    C810226   2.657   2.207  15.261  0.2125  0.8178  1.0922
  691TMC3    O110227   3.167   2.065  15.075  0.0505  0.3215 -0.3360
  691TMC3    O210228   2.589   2.138  15.184 -0.2749 -0.0092  0.1591
  692TMC3    C110229   0.449   3.582  15.888 -0.3036 -0.2445 -0.1188
  692TMC3    C210230   0.556   3.622  15.963 -0.3615  0.3161  0.4264
  692TMC3    C310231   0.678   3.565  15.940  0.0067 -0.5791  0.1647
  692TMC3    C410232   0.456   3.503  15.778 -0.1279 -0.2483  0.1328
  692TMC3    C510233   0.581   3.456  15.751  0.6362  0.0713 -0.5617
  692TMC3    C610234   0.688   3.476  15.834  0.0780 -0.4566  0.0414
  692TMC3     C10235   0.323   3.654  15.897  0.5039  0.5549  0.3625
  692TMC3     O10236   0.220   3.602  15.865  0.0171 -0.9737  0.3441
  692TMC3     H10237   0.536   3.680  16.053 -0.5075  1.0514 -0.0802
  692TMC3    H110238   0.371   3.452  15.735 -0.7257 -0.8994  2.0843
  692TMC3    H210239   0.787   3.451  15.799 -0.9153 -2.4720 -1.3205
  692TMC3    C710240   0.571   3.335  15.678  0.2086 -0.2006 -0.3966
  692TMC3    C810241   0.740   3.519  16.057  0.2363  0.1286 -0.4614
  692TMC3    O110242   0.495   3.328  15.584 -0.5457  0.0809  0.3630
  692TMC3    O210243   0.805   3.417  16.024  0.9558  0.0070 -0.5881
  693MPD2     C10244   0.306   1.679  10.855 -0.0681  0.2676 -0.0203
  693MPD2    C110245   0.294   1.555  10.808  0.2601 -0.7440  0.4151
  693MPD2    C210246   0.410   1.483  10.783  0.0305  0.3721  0.2203
  693MPD2    C310247   0.533   1.541  10.796 -0.7919 -0.1717 -0.3521
  693MPD2    C410248   0.544   1.668  10.847  0.3544 -0.1672  0.1444
  693MPD2    C510249   0.430   1.731  10.891 -0.3258  0.0588  0.8170
  693MPD2     H10250   0.413   1.381  10.745  1.4192 -0.9393  3.9388
  693MPD2    H110251   0.634   1.721  10.877  1.5818 -2.4035  0.3778
  693MPD2    H210252   0.220   1.733  10.892 -1.2526 -0.1012 -2.2035
  693MPD2    H310253   0.431   1.826  10.943  1.9525  0.1143  0.7040
  693MPD2     N10254   0.652   1.464  10.769  0.0322 -0.1249  0.0480
  693MPD2    H510255   0.739   1.494  10.811  0.5025  0.3683 -1.2928
  693MPD2    N110256   0.166   1.493  10.791  0.1701  0.6007 -0.2085
  693MPD2    H710257   0.086   1.548  10.821  0.9829  0.8131  1.5252
  694TMC3    C110258   4.714   1.345  10.786 -0.3255  0.4728 -0.1760
  694TMC3    C210259   4.672   1.251  10.696 -0.6156 -0.1396  0.2795
  694TMC3    C310260   4.594   1.145  10.739  0.8784 -0.2954 -0.6292
  694TMC3    C410261   4.683   1.338  10.916  0.1626  0.1366 -0.3459
  694TMC3    C510262   4.588   1.243  10.953  0.0924 -0.5905 -0.1274
  694TMC3    C610263   4.542   1.149  10.864 -0.4355  0.0336  0.0791
  694TMC3     C10264   0.134   1.364  10.765  0.7455  0.1385  0.4591
  694TMC3     O10265   0.207   1.271  10.734 -0.4987 -0.5629  0.2443
  694TMC3     H10266   4.716   1.252  10.597 -0.6273  0.6075  0.2823
  694TMC3    H110267   0.012   1.407  10.982 -0.9202 -0.7575  1.4602
  694TMC3    H210268   4.476   1.069  10.895 -0.2443  0.3080  1.1852
  694TMC3    C710269   4.570   1.220  11.096 -0.3785  0.8671  0.0078
  694TMC3    C810270   4.540   1.056  10.638 -0.1574  0.3555  0.5849
  694TMC3    O110271   4.629   1.300  11.166 -0.3295  0.3004  0.4445
  694TMC3    O210272   4.429   1.014  10.666  0.0395  0.6774 -0.5819
  695MPD2     C10273   0.714   3.568  13.179 -0.0964 -0.2256  0.0715
  695MPD2    C110274   0.618   3.516  13.263 -0.0970 -0.3224 -0.5653
  695MPD2    C210275   0.481   3.543  13.244  0.7592 -0.1040  0.5121
  695MPD2    C310276   0.439   3.630  13.144 -0.2868  0.0566 -0.0663
  695MPD2    C410277   0.537   3.678  13.056  0.0208 -0.2470  0.6198
  695MPD2    C510278   0.672   3.647  13.074  0.5985  0.2534 -0.2884
  695MPD2     H10279   0.416   3.511  13.325  0.4695 -1.7824 -0.3801
  695MPD2    H110280   0.509   3.728  12.964 -0.4433 -1.1068  0.2936
  695MPD2    H210281   0.821   3.552  13.188  0.0872  0.9525  0.0067
  695MPD2    H310282   0.742   3.685  13.000 -0.2372 -0.2156 -1.3174
  695MPD2     N10283   0.301   3.654  13.132  0.0693 -0.7689  0.0370
  695MPD2    H510284   0.238   3.616  13.203  1.0112 -1.3900  0.5403
  695MPD2    N110285   0.647   3.436  13.383 -0.5866 -0.2777 -0.0390
  695MPD2    H710286   0.566   3.398  13.430 -0.3777 -1.5851 -0.7193
  696TMC3    C110287   0.116   3.780  13.078 -0.0928  0.9226 -0.0039
  696TMC3    C210288   0.048   3.767  13.202 -0.2892  0.4566 -0.6236
  696TMC3    C310289   4.669   3.858  13.235 -0.8414  1.5879 -0.0652
  696TMC3    C410290   0.074   3.875  12.989  0.1279 -0.7220 -0.6090
  696TMC3    C510291   4.686   3.942  13.020  0.9021 -0.4843  0.3119
  696TMC3    C610292   4.616   3.937  13.136  0.5310 -0.7526  0.3593
  696TMC3     C10293   0.261   3.765  13.070 -0.3917  0.6874 -0.0640
  696TMC3     O10294   0.328   3.853  13.014 -0.6176 -0.3956 -0.0468
  696TMC3     H10295   0.073   3.705  13.288  0.3176  0.2849 -0.9244
  696TMC3    H110296   0.119   3.883  12.890  0.4840  0.5957 -0.3397
  696TMC3    H210297   4.542   4.014  13.153 -0.7339 -1.2964 -2.6643
  696TMC3    C710298   4.717   4.080  12.974 -0.2486  0.5684  0.6344
  696TMC3    C810299   4.683   3.921  13.364  0.3956  0.7141 -0.3902
  696TMC3    O110300   0.025   4.099  12.854 -0.1132  0.5434 -0.2331
  696TMC3    O210301   4.678   4.041  13.352 -0.3256  0.6042  0.3675
  697MPD2     C10302   4.712   0.387  15.921  0.0964 -0.0360 -0.3554
  697MPD2    C110303   0.025   0.363  15.792 -0.9914 -0.0027  0.2275
  697MPD2    C210304   0.047   0.468  15.711  0.2502 -1.0232 -0.8164
  697MPD2    C310305   0.056   0.602  15.751  0.3141 -0.2556  0.0618
  697MPD2    C410306   0.013   0.622  15.878 -0.6330  0.2043  0.0447
  697MPD2    C510307   4.702   0.520  15.968 -0.2364  1.1143  0.3336
  697MPD2     H10308   0.072   0.449  15.607  0.8621  2.2078 -1.2582
  697MPD2    H110309   4.715   0.721  15.917  0.9155  1.1332 -1.4508
  697MPD2    H210310   4.708   0.311  15.998  0.4603 -1.3471 -1.6293
  697MPD2    H310311   4.663   0.538  16.067 -0.7692 -0.5440  0.4206
  697MPD2     N10312   0.106   0.695  15.658  0.1777  0.0601  0.1867
  697MPD2    H510313   0.120   0.654  15.566 -2.1080  1.0881 -0.6022
  697MPD2    N110314   0.031   0.234  15.740 -0.7077  0.5713  0.5790
  697MPD2    H710315   0.062   0.219  15.644 -0.4291  4.5549  0.0491
  698TMC3    C110316   0.189   0.895  15.577 -0.5162  0.6838  0.3111
  698TMC3    C210317   0.270   0.998  15.605  0.1961  0.0055 -0.3881
  698TMC3    C310318   0.312   1.077  15.500 -0.7414 -0.6703  0.2016
  698TMC3    C410319   0.151   0.869  15.447  0.4811  0.8450 -0.1018
  698TMC3    C510320   0.189   0.956  15.349 -0.2249 -0.7111  0.3669
  698TMC3    C610321   0.267   1.065  15.373 -0.0765  0.4723 -0.3110
  698TMC3     C10322   0.130   0.829  15.689  0.0556  0.1822 -0.4400
  698TMC3     O10323   0.119   0.881  15.797  0.5085 -0.3618 -0.5311
  698TMC3     H10324   0.300   1.010  15.708  0.7746 -1.2001 -0.4146
  698TMC3    H110325   0.090   0.784  15.416  4.5366 -1.7670 -0.9839
  698TMC3    H210326   0.290   1.141  15.298 -0.6098  1.8364  0.9048
  698TMC3    C710327   0.172   0.920  15.209 -0.4767  0.5714  0.0087
  698TMC3    C810328   0.413   1.176  15.541 -0.3900  0.2446  0.3239
  698TMC3    O110329   0.075   0.851  15.185  0.4933  0.0664 -0.1037
  698TMC3    O210330   0.458   1.177  15.654 -0.4282  0.0932 -0.4733
  699TMC3    C110331   0.644   3.242  12.942  0.4020  0.1742 -0.2472
  699TMC3    C210332   0.682   3.173  13.050  0.8362  0.7772  0.4665
  699TMC3    C310333   0.595   3.163  13.155 -0.2933  0.2128 -0.5557
  699TMC3    C410334   0.517   3.293  12.930  0.2240  0.4858 -0.1955
  699TMC3    C510335   0.425   3.267  13.034  0.3985  0.0547  0.3946
  699TMC3    C610336   0.459   3.203  13.149 -0.1701  0.2877 -1.1670
  699TMC3     C10337   0.726   3.226  12.824  0.2219 -0.3202  0.8777
  699TMC3     O10338   0.661   3.219  12.722 -0.0721 -0.1673  0.3542
  699TMC3     H10339   0.779   3.123  13.050 -0.5237 -1.8684 -1.3746
  699TMC3    H110340   0.483   3.340  12.839  3.4297 -0.8538 -2.0985
  699TMC3    H210341   0.391   3.200  13.234 -1.2882 -1.0436 -2.1198
  699TMC3    C710342   0.286   3.301  13.015  0.8336 -0.7377 -0.4984
  699TMC3    C810343   0.632   3.073  13.271 -0.9911 -0.1409  0.1258
  699TMC3    O110344   0.207   3.246  13.092 -0.4593 -0.1040 -0.7744
  699TMC3    O210345   0.753   3.066  13.295 -0.0556 -0.4524 -0.5992
  700TMC3    C110346   3.939   0.970  16.845 -0.0299  0.0893 -0.4515
  700TMC3    C210347   4.035   0.890  16.803  0.0605  0.5549 -0.2078
  700TMC3    C310348   4.134   0.842  16.887  0.3574 -0.5966 -0.3738
  700TMC3    C410349   3.942   1.016  16.974 -0.4045  0.1379 -0.0336
  700TMC3    C510350   4.045   0.982  17.055 -0.3045  1.0313 -0.4472
  700TMC3    C610351   4.135   0.892  17.020 -1.3575 -0.4592  0.3240
  700TMC3     C10352   3.851   1.043  16.757  0.1342  0.4954  0.6716
  700TMC3     O10353   3.749   0.997  16.704 -0.3593 -0.2117 -0.3354
  700TMC3     H10354   4.033   0.860  16.699  0.4531  0.5700 -0.2213
  700TMC3    H110355   3.877   1.101  16.991  0.2116  0.7093 -0.5336
  700TMC3    H210356   4.219   0.878  17.086  0.7572  0.3694 -2.1861
  700TMC3    C710357   4.080   1.076  17.164  0.3203 -0.0296 -0.1747
  700TMC3    C810358   4.222   0.738  16.842 -0.0083 -0.7750  0.3815
  700TMC3    O110359   4.196   1.081  17.208  0.3077  0.2337 -0.4577
  700TMC3    O210360   4.178   0.677  16.746  0.1554  0.4446  0.0368
  701TMC3    C110361   4.163   4.112  15.449  0.3043 -0.2370 -0.1727
  701TMC3    C210362   4.156   4.087  15.313  0.4099 -0.1318  0.3015
  701TMC3    C310363   4.231   4.171  15.225  0.6932 -0.3748  0.7421
  701TMC3    C410364   4.215   4.231  15.484  0.4305  0.6529 -0.4129
  701TMC3    C510365   4.278   4.319  15.400 -0.3650  0.4871  0.9349
  701TMC3    C610366   4.292   4.287  15.265  0.0831  0.2386  0.7724
  701TMC3     C10367   4.038   4.094  15.516 -0.5574  0.2876  0.6327
  701TMC3     O10368   3.969   4.194  15.527  0.2881 -0.6990 -0.1959
  701TMC3     H10369   4.099   4.002  15.279 -1.5723  0.5141  2.0504
  701TMC3    H110370   4.206   4.249  15.591 -2.5477 -1.2254 -0.3494
  701TMC3    H210371   4.346   4.345  15.191  0.5293 -3.1587 -1.5953
  701TMC3    C710372   4.250   4.459  15.421 -0.5434  0.2163 -0.6405
  701TMC3    C810373   4.164   4.193  15.104 -0.0330  0.3069 -0.0634
  701TMC3    O110374   4.300   4.541  15.347  0.0166  0.2927 -0.2715
  701TMC3    O210375   4.157   4.311  15.065 -0.2630  0.1611 -0.0265
  702MPD2     C10376   4.251   2.045  10.485 -0.1199  0.5450  0.5487
  702MPD2    C110377   4.143   2.129  10.484  0.1097 -0.4122 -0.7095
  702MPD2    C210378   4.152   2.249  10.418  0.5551  0.5370  1.0928
  702MPD2    C310379   4.266   2.278  10.349  0.5835  0.3455  0.0341
  702MPD2    C410380   4.375   2.205  10.366  0.0138 -0.4551 -0.2339
  702MPD2    C510381   4.374   2.096  10.446 -0.1548 -0.0606  0.2880
  702MPD2     H10382   4.062   2.310  10.416  0.3487  0.1538 -0.6472
  702MPD2    H110383   4.457   2.233  10.301 -0.1384 -0.7943 -0.5681
  702MPD2    H210384   4.244   1.942  10.518 -0.4455 -0.0484 -1.3561
  702MPD2    H310385   4.461   2.033  10.458 -1.1686 -1.6557 -0.7570
  702MPD2     N10386   4.277   2.378  10.255 -0.1246  0.2799  0.1685
  702MPD2    H510387   4.358   2.377  10.194  0.2166  2.5974  0.5771
  702MPD2    N110388   4.010   2.095  10.527 -0.8460 -0.1197  0.6294
  702MPD2    H710389   3.941   2.169  10.515 -0.3040  0.2672 -0.1077
  703TMC3    C110390   4.228   2.537  10.098 -0.1251 -0.1967 -0.3669
  703TMC3    C210391   4.116   2.582  10.027 -0.5061  0.4187 -0.5151
  703TMC3    C310392   4.119   2.708   9.978 -0.6969 -0.4467  0.6291
  703TMC3    C410393   4.330   2.620  10.118 -0.3928 -0.7380 -0.2583
  703TMC3    C510394   4.335   2.739  10.055 -0.0576 -0.4895 -0.1474
  703TMC3    C610395   4.235   2.782   9.973 -0.7681 -0.6029 -0.1180
  703TMC3     C10396   4.179   2.464  10.211  0.4728 -0.6374 -0.4176
  703TMC3     O10397   4.063   2.469  10.232  0.3083 -0.0379 -0.0175
  703TMC3     H10398   4.028   2.518  10.028  1.4271 -2.2311  1.2263
  703TMC3    H110399   4.411   2.579  10.178  0.3606  0.2220 -0.6243
  703TMC3    H210400   4.228   2.884   9.939  0.9952 -0.8907 -1.3396
  703TMC3    C710401   4.436   2.833  10.100 -0.3024  0.1236 -0.1589
  703TMC3    C810402   4.001   2.792   9.997 -0.6949 -0.2806 -0.4801
  703TMC3    O110403   4.476   2.920  10.023  0.1175  0.1765  1.0313
  703TMC3    O210404   4.009   2.909   9.959  0.3393 -0.0969 -0.2050
  704TMC3    C110405   1.423   0.306  12.455  0.0522 -0.1240 -0.3793
  704TMC3    C210406   1.548   0.345  12.460 -0.2003  0.0398  0.1314
  704TMC3    C310407   1.626   0.277  12.552 -0.9257  0.5364 -0.0687
  704TMC3    C410408   1.363   0.207  12.534  0.1870 -0.0099 -1.5148
  704TMC3    C510409   1.450   0.146  12.629 -0.3478 -0.3528  0.2826
  704TMC3    C610410   1.583   0.183  12.640 -0.7829  0.4139  0.2501
  704TMC3     C10411   1.380   0.298  12.320  0.3046 -0.0274  0.0637
  704TMC3     O10412   1.261   0.274  12.298  0.0412  0.2863 -0.0431
  704TMC3     H10413   1.589   0.422  12.395  0.1022 -0.2447 -0.0094
  704TMC3    H110414   1.262   0.170  12.518 -0.9164  1.1324  2.8178
  704TMC3    H210415   1.644   0.143  12.720  0.6247 -0.2858 -1.1763
  704TMC3    C710416   1.425   4.722  12.638  0.7738  0.8127 -0.9370
  704TMC3    C810417   1.760   0.265  12.496  0.0115 -0.1892 -0.4972
  704TMC3    O110418   1.523   4.656  12.609  0.2247  0.3437 -0.0827
  704TMC3    O210419   1.760   0.262  12.374 -0.7812  0.1450 -0.1413
  705MPD2     C10420   1.082   3.004  16.356 -0.2288  0.4390 -0.1293
  705MPD2    C110421   1.006   3.044  16.246  0.0875  0.2982 -0.1626
  705MPD2    C210422   0.870   3.007  16.238  0.7129 -0.2331 -0.4798
  705MPD2    C310423   0.816   2.931  16.337 -0.4485 -0.0274 -0.4706
  705MPD2    C410424   0.886   2.911  16.451 -0.2018  0.0871 -0.1185
  705MPD2    C510425   1.016   2.949  16.463 -0.0493 -0.6779  0.1710
  705MPD2     H10426   0.816   3.045  16.153  0.7673 -1.6180 -1.1322
  705MPD2    H110427   0.842   2.869  16.541 -0.6197  1.0301  0.1140
  705MPD2    H210428   1.186   3.031  16.367 -0.7968  1.9099  1.7106
  705MPD2    H310429   1.080   2.925  16.547  0.3237  1.5468  0.5387
  705MPD2     N10430   0.678   2.895  16.333  0.8070  0.0069 -0.3655
  705MPD2    H510431   0.632   2.873  16.420  3.0258  0.2107  0.8412
  705MPD2    N110432   1.064   3.133  16.153  0.4285  0.2534 -0.3888
  705MPD2    H710433   1.003   3.185  16.091  0.3916  1.4976  0.7062
  706TMC3    C110434   1.289   3.272  15.826  0.0722  0.7419 -0.3529
  706TMC3    C210435   1.204   3.377  15.796  0.2530 -0.4067 -0.3190
  706TMC3    C310436   1.135   3.423  15.903 -0.0602 -0.0392 -0.2738
  706TMC3    C410437   1.305   3.214  15.944 -0.8433  0.1206 -0.8000
  706TMC3    C510438   1.226   3.256  16.041 -0.2829  0.4282  0.2295
  706TMC3    C610439   1.137   3.353  16.019 -0.2372  0.6418 -0.7565
  706TMC3     C10440   1.376   3.227  15.720  0.3171 -0.7568  0.4055
  706TMC3     O10441   1.491   3.217  15.752  0.2001 -0.1122  0.0294
  706TMC3     H10442   1.210   3.436  15.706 -0.4591  0.0167 -0.0951
  706TMC3    H110443   1.382   3.140  15.964  1.0250  2.0784 -0.6824
  706TMC3    H210444   1.077   3.394  16.100 -2.2043 -1.8445 -0.9625
  706TMC3    C710445   1.201   3.154  16.138  0.8168 -0.2505  0.6794
  706TMC3    C810446   1.084   3.560  15.894  0.1699 -0.4905  0.0054
  706TMC3    O110447   1.298   3.093  16.179 -0.1629  0.4356  0.0274
  706TMC3    O210448   1.068   3.598  15.781 -0.0373 -0.2961  0.0334
  707TMC3    C110449   2.829   1.434   1.664 -0.2431 -0.2416 -0.5429
  707TMC3    C210450   2.925   1.355   1.715  0.3078 -0.5354 -0.2420
  707TMC3    C310451   2.892   1.228   1.757 -0.5530  0.1909  0.7057
  707TMC3    C410452   2.698   1.383   1.650 -0.3937 -0.3957 -0.6876
  707TMC3    C510453   2.665   1.266   1.718  0.3575  0.0932 -0.2195
  707TMC3    C610454   2.763   1.187   1.767 -0.2325 -0.5890  0.3603
  707TMC3     C10455   2.886   1.544   1.594 -0.9051  0.2011  0.7837
  707TMC3     O10456   3.004   1.555   1.606 -0.1849  0.2221 -0.3367
  707TMC3     H10457   3.022   1.396   1.740  0.6678 -1.9383  0.6330
  707TMC3    H110458   2.614   1.433   1.603  0.5078 -0.8175 -2.7412
  707TMC3    H210459   2.741   1.089   1.809  0.1795 -0.0640  1.8013
  707TMC3    C710460   2.525   1.237   1.738 -0.0496  0.4235  0.1311
  707TMC3    C810461   3.005   1.151   1.807  0.0966  0.1548  0.0034
  707TMC3    O110462   2.504   1.128   1.786 -0.4457 -0.2137  0.4966
  707TMC3    O210463   2.979   1.081   1.903  0.0248  0.3988 -0.6627
  708MPD2     C10464   3.929   1.494  13.553  0.1517  0.1132 -0.5804
  708MPD2    C110465   3.805   1.545  13.591  0.2563  1.1183  0.1345
  708MPD2    C210466   3.765   1.527  13.724 -0.0684 -0.1960 -1.0140
  708MPD2    C310467   3.847   1.456  13.812 -0.2312 -0.2281  0.3409
  708MPD2    C410468   3.966   1.397  13.776  0.2197 -0.1592  0.2018
  708MPD2    C510469   4.006   1.421  13.647 -0.5396 -0.2091  0.5592
  708MPD2     H10470   3.673   1.570  13.762  0.3671 -1.1900  1.2305
  708MPD2    H110471   4.032   1.331  13.832 -1.0196  0.5605  2.4968
  708MPD2    H210472   3.979   1.528  13.463 -0.3713 -0.1999 -0.9869
  708MPD2    H310473   4.105   1.390  13.617 -1.4987 -2.3240 -0.5006
  708MPD2     N10474   3.798   1.453  13.950 -0.0834  0.7832  0.1639
  708MPD2    H510475   3.705   1.492  13.961 -0.5645  1.0329 -4.6319
  708MPD2    N110476   3.727   1.614  13.492  0.2385  0.7693  0.1111
  708MPD2    H710477   3.770   1.620  13.400 -3.6608 -2.2013 -1.8997
  709TMC3    C110478   3.533   1.732  13.401 -0.2865 -0.1807  0.4748
  709TMC3    C210479   3.481   1.658  13.303  0.0324  0.2433 -0.0346
  709TMC3    C310480   3.342   1.669  13.286  0.1397  0.7606 -0.7297
  709TMC3    C410481   3.461   1.819  13.471 -0.1164  0.1777  0.0449
  709TMC3    C510482   3.326   1.818  13.458 -0.3667  0.1848  0.1369
  709TMC3    C610483   3.263   1.745  13.369 -0.1125  1.1119 -0.0173
  709TMC3     C10484   3.598   1.654  13.513  0.6911 -0.3093 -0.0338
  709TMC3     O10485   3.528   1.644  13.613  0.3420 -0.0888 -0.5812
  709TMC3     H10486   3.533   1.575  13.256  1.0021  2.0378 -2.1112
  709TMC3    H110487   3.510   1.878  13.549 -1.3907  0.9364  0.2746
  709TMC3    H210488   3.156   1.750  13.349 -0.0256  3.4249  0.0666
  709TMC3    C710489   3.244   1.857  13.575  0.7233 -0.3656 -0.7029
  709TMC3    C810490   3.273   1.587  13.186  0.5189 -0.4407  0.1407
  709TMC3    O110491   3.124   1.868  13.565  0.3029  0.2760 -0.4121
  709TMC3    O210492   3.152   1.570  13.200 -0.2302  0.4326 -0.4871
  710TMC3    C110493   1.174   3.407   0.619  0.0139 -0.1997  0.0706
  710TMC3    C210494   1.207   3.293   0.541 -0.0703 -1.0942 -0.0276
  710TMC3    C310495   1.147   3.178   0.586 -0.6582 -0.5988  0.1978
  710TMC3    C410496   1.107   3.396   0.742 -0.0729  0.2463 -0.4261
  710TMC3    C510497   1.047   3.278   0.776 -0.5216 -0.1467  0.6161
  710TMC3    C610498   1.066   3.171   0.695 -0.4421  0.5896 -0.1039
  710TMC3     C10499   1.195   3.540   0.556  0.7718  0.0316  0.4886
  710TMC3     O10500   1.282   3.542   0.472  0.2796  0.0191  0.2225
  710TMC3     H10501   1.259   3.303   0.447  0.3651  0.3245  0.3636
  710TMC3    H110502   1.092   3.481   0.808 -0.6499 -0.3453  0.2004
  710TMC3    H210503   1.013   3.080   0.722 -0.3101  0.1773 -1.2044
  710TMC3    C710504   0.947   3.271   0.878  0.3047 -0.1420  0.2405
  710TMC3    C810505   1.170   3.057   0.509 -0.2462  0.1166 -0.0826
  710TMC3    O110506   0.873   3.178   0.869 -0.0944  0.0409 -0.2590
  710TMC3    O210507   1.242   3.057   0.410 -0.4333 -0.3527 -0.5065
  711TMC3    C110508   4.708   4.252  14.721  0.3858 -0.7470 -0.0680
  711TMC3    C210509   4.587   4.254  14.798 -0.5513 -0.5500 -0.3977
  711TMC3    C310510   4.596   4.321  14.915 -0.0707 -0.3849  0.0106
  711TMC3    C410511   0.104   4.314  14.759  0.1963 -0.2565 -0.0299
  711TMC3    C510512   0.099   4.384  14.876  0.0897 -0.3572 -0.3097
  711TMC3    C610513   4.706   4.403  14.945 -0.5028 -0.6116 -0.0006
  711TMC3     C10514   4.710   4.133  14.639 -0.7157  0.4665  0.1295
  711TMC3     O10515   4.600   4.087  14.604  0.1337 -0.2986 -0.3986
  711TMC3     H10516   4.499   4.193  14.781 -0.8611 -0.4775  0.9445
  711TMC3    H110517   0.196   4.311  14.701 -0.0283 -0.1288 -0.3929
  711TMC3    H210518   4.705   4.468  15.032  3.8188  1.5281 -1.5320
  711TMC3    C710519   0.218   4.396  14.957 -1.3563  0.4037 -0.6305
  711TMC3    C810520   4.560   4.238  15.025 -0.0539 -0.1654  0.0614
  711TMC3    O110521   0.199   4.367  15.073  0.3774 -0.6490 -0.4919
  711TMC3    O210522   4.460   4.172  15.007 -0.3874 -0.3184 -0.1614
  712MPD2     C10523   1.405   0.388  13.076  0.4051  0.3287  0.7771
  712MPD2    C110524   1.296   0.419  13.158 -0.1895 -0.1932 -0.0122
  712MPD2    C210525   1.316   0.477  13.284 -0.0297  0.2616  0.1789
  712MPD2    C310526   1.440   0.516  13.321 -0.1611  0.4493  0.4150
  712MPD2    C410527   1.551   0.487  13.248  0.0857  0.3109  0.3142
  712MPD2    C510528   1.531   0.427  13.125 -0.0173 -0.4835  0.4401
  712MPD2     H10529   1.231   0.511  13.343  1.3690  0.9434  1.8003
  712MPD2    H110530   1.653   0.518  13.264 -0.3539  0.9198  1.8987
  712MPD2    H210531   1.406   0.336  12.981  0.3695  3.9633 -1.2052
  712MPD2    H310532   1.627   0.414  13.076 -0.6473 -0.3086 -0.8603
  712MPD2     N10533   1.445   0.604  13.434  0.4658  0.6091  0.3864
  712MPD2    H510534   1.354   0.637  13.466  1.1124  1.1571  1.6643
  712MPD2    N110535   1.163   0.397  13.109  0.1636  0.1813 -0.1820
  712MPD2    H710536   1.162   0.355  13.016 -0.1413  2.7236 -1.3208
  713TMC3    C110537   1.528   0.798  13.529 -0.2957 -0.8161  0.6362
  713TMC3    C210538   1.618   0.893  13.483  0.2154 -0.2108 -1.1562
  713TMC3    C310539   1.565   1.023  13.475 -0.3879  0.5348  0.5254
  713TMC3    C410540   1.392   0.821  13.543 -0.2808  0.1554  0.4980
  713TMC3    C510541   1.353   0.951  13.526 -1.1316  0.5911  0.0911
  713TMC3    C610542   1.439   1.053  13.488 -0.1621  0.5105  1.3183
  713TMC3     C10543   1.556   0.668  13.479  0.5959  0.0530 -0.2138
  713TMC3     O10544   1.674   0.641  13.450 -0.2691  0.0800  0.5349
  713TMC3     H10545   1.723   0.869  13.475 -0.0397 -1.8750  0.4257
  713TMC3    H110546   1.322   0.748  13.582  0.3634 -1.2676 -1.0152
  713TMC3    H210547   1.403   1.155  13.478 -2.2256 -0.2722  0.8147
  713TMC3    C710548   1.223   0.992  13.585 -0.9334 -0.6796  1.0758
  713TMC3    C810549   1.656   1.128  13.434  0.4269 -0.7637  0.8184
  713TMC3    O110550   1.178   0.925  13.679  0.2540 -0.0400  0.2406
  713TMC3    O210551   1.604   1.212  13.360 -0.2445 -0.2866  0.1947
  714MPD2     C10552   3.516   4.211   1.557  0.3435  0.3909 -0.4718
  714MPD2    C110553   3.532   4.116   1.461  0.2191 -0.3495  0.8787
  714MPD2    C210554   3.508   4.155   1.329 -0.0499 -0.2978  0.1634
  714MPD2    C310555   3.462   4.287   1.298  0.1964 -0.2796 -0.2460
  714MPD2    C410556   3.446   4.376   1.403  0.4538  0.4140 -0.5039
  714MPD2    C510557   3.478   4.336   1.533 -0.5740  0.2412 -0.1528
  714MPD2     H10558   3.521   4.090   1.243  0.2766  0.2060 -0.1697
  714MPD2    H110559   3.410   4.477   1.384  1.1116  0.4187 -1.7622
  714MPD2    H210560   3.524   4.179   1.660  0.3537  1.1916 -0.2244
  714MPD2    H310561   3.447   4.399   1.616  1.1960  2.1344 -0.9275
  714MPD2     N10562   3.448   4.322   1.166  0.4961  0.3886  0.1279
  714MPD2    H510563   3.495   4.264   1.097 -0.2280 -2.7632  2.2702
  714MPD2    N110564   3.563   3.989   1.504 -0.2676 -0.0597 -0.1897
  714MPD2    H710565   3.594   3.978   1.600 -1.3099 -2.6194 -0.1393
  715TMC3    C110566   3.670   3.779   1.490  0.8159  0.0074  0.7362
  715TMC3    C210567   3.688   3.660   1.435 -0.4090 -0.2097  0.4834
  715TMC3    C310568   3.779   3.573   1.495 -0.1422 -0.5743  0.3132
  715TMC3    C410569   3.756   3.823   1.590 -0.2438  0.0631  0.8823
  715TMC3    C510570   3.851   3.733   1.635  0.3602  0.9230 -0.1374
  715TMC3    C610571   3.861   3.606   1.595  0.2648 -0.2531  1.1408
  715TMC3     C10572   3.583   3.881   1.427 -0.1956 -0.5996 -0.3061
  715TMC3     O10573   3.539   3.855   1.313  0.4218 -0.8671  0.1040
  715TMC3     H10574   3.634   3.639   1.343  1.3005  0.4433 -0.6624
  715TMC3    H110575   3.742   3.927   1.615  1.1588  0.7482 -1.2385
  715TMC3    H210576   3.946   3.548   1.629 -0.4881 -2.1719 -0.2156
  715TMC3    C710577   3.960   3.783   1.716 -0.1685  0.0185  0.4147
  715TMC3    C810578   3.808   3.448   1.431 -1.2044 -0.2043  0.2104
  715TMC3    O110579   4.069   3.723   1.709  0.0440 -0.2364  0.2303
  715TMC3    O210580   3.767   3.431   1.318 -0.4460  0.3637 -0.5349
  716MPD2     C10581   3.672   2.251   9.701  0.4648 -0.4703  0.3468
  716MPD2    C110582   3.626   2.285   9.577  0.1139  0.3816  0.2896
  716MPD2    C210583   3.662   2.214   9.461 -0.0799 -0.1580 -0.1831
  716MPD2    C310584   3.758   2.121   9.474 -0.1128  0.2390  0.7856
  716MPD2    C410585   3.815   2.091   9.600  1.0400  0.3390 -0.1337
  716MPD2    C510586   3.771   2.158   9.708 -0.4637 -0.1085  0.2446
  716MPD2     H10587   3.613   2.226   9.365 -2.4021 -1.9267  0.7657
  716MPD2    H110588   3.882   2.007   9.614  0.1286 -0.7730 -2.3968
  716MPD2    H210589   3.642   2.308   9.788 -1.1643 -0.1666 -0.4034
  716MPD2    H310590   3.804   2.146   9.811 -0.6703 -1.1397  0.1831
  716MPD2     N10591   3.804   2.054   9.358  0.3711  0.4434 -0.0757
  716MPD2    H510592   3.754   2.080   9.273  0.3716 -2.1492 -0.8854
  716MPD2    N110593   3.529   2.388   9.581 -0.0536  0.5852 -1.1367
  716MPD2    H710594   3.511   2.414   9.677 -0.1067 -0.6978 -0.7875
  717TMC3    C110595   3.933   1.917   9.212 -0.0434  0.2773  0.5408
  717TMC3    C210596   3.815   1.892   9.139  0.2863  0.7953 -0.5146
  717TMC3    C310597   3.823   1.813   9.024  0.2866  0.5170  0.1712
  717TMC3    C410598   4.045   1.861   9.167 -0.5665  0.4397  0.4211
  717TMC3    C510599   4.053   1.796   9.046  0.4089  0.1702  0.0903
  717TMC3    C610600   3.936   1.760   8.980  0.3335  0.0728  0.3233
  717TMC3     C10601   3.923   1.980   9.345 -0.7052  0.5333 -0.2540
  717TMC3     O10602   4.015   1.956   9.419 -0.3045 -0.7073  0.0576
  717TMC3     H10603   3.719   1.929   9.173  1.2763  1.6594  1.3145
  717TMC3    H110604   4.138   1.884   9.219  0.0436 -0.0140 -0.4773
  717TMC3    H210605   3.934   1.691   8.897  0.0059 -0.0801  0.4552
  717TMC3    C710606   4.182   1.741   9.008  0.0035 -0.0195 -0.1636
  717TMC3    C810607   3.693   1.769   8.970 -0.5059 -0.1338  0.0913
  717TMC3    O110608   4.283   1.787   9.065  0.5504  0.0131 -0.0229
  717TMC3    O210609   3.605   1.851   8.984 -0.3711 -0.0712 -0.4622
  718MPD2     C10610   3.295   0.519  12.749  0.1088 -0.1177 -0.2185
  718MPD2    C110611   3.223   0.408  12.795 -0.6928 -0.0386 -0.0349
  718MPD2    C210612   3.113   0.426  12.871 -0.1609  0.4195 -0.1790
  718MPD2    C310613   3.052   0.550  12.879  0.2187  0.1550 -0.4089
  718MPD2    C410614   3.124   0.662  12.836 -0.4545  0.4296  0.1145
  718MPD2    C510615   3.247   0.641  12.776 -0.2686  0.4817 -0.0983
  718MPD2     H10616   3.061   0.338  12.907 -0.3742  0.6206  0.0094
  718MPD2    H110617   3.075   0.759  12.835  1.0026  1.1433 -1.2010
  718MPD2    H210618   3.385   0.504  12.690  1.4662  0.2824  1.7682
  718MPD2    H310619   3.298   0.727  12.734 -0.6843  0.3448 -0.8672
  718MPD2     N10620   2.925   0.548  12.930  0.0978  0.0276  0.0171
  718MPD2    H510621   2.896   0.454  12.955 -1.7047  0.4900 -0.3768
  718MPD2    N110622   3.280   0.283  12.769  0.7013 -0.7030  0.3808
  718MPD2    H710623   3.367   0.283  12.716 -0.1235  1.6727 -0.9396
  719TMC3    C110624   3.297   0.051  12.755 -0.6877  0.2129  0.8884
  719TMC3    C210625   3.214   4.668  12.753  0.2551  0.2322  0.5252
  719TMC3    C310626   3.176   4.614  12.636 -0.4170  0.6559  0.0416
  719TMC3    C410627   3.376   0.069  12.642 -0.4624  0.3780  0.7851
  719TMC3    C510628   3.348   4.718  12.526 -0.0961  0.4428 -0.4990
  719TMC3    C610629   3.240   4.632  12.520 -0.4063 -0.1771  0.2786
  719TMC3     C10630   3.233   0.161  12.821  0.0923  0.1851 -0.1697
  719TMC3     O10631   3.125   0.135  12.873  0.0214 -0.0103 -0.4757
  719TMC3     H10632   3.166   4.641  12.846 -1.2213  1.3980  0.0899
  719TMC3    H110633   3.456   0.142  12.645  0.4305 -0.5397 -0.4673
  719TMC3    H210634   3.193   4.604  12.427  0.3777 -1.6988  0.3367
  719TMC3    C710635   3.400   0.050  12.402 -0.0654  0.0008  0.2665
  719TMC3    C810636   3.030   4.597  12.624 -0.6861  0.3581 -0.4442
  719TMC3    O110637   3.486   0.139  12.407 -0.7149  0.4697  0.0435
  719TMC3    O210638   2.993   4.536  12.525  0.3366 -0.2052 -0.3151
  720MPD2     C10639   1.113   2.336  13.634  0.8034  0.3365 -0.5625
  720MPD2    C110640   1.208   2.427  13.588  0.1214  0.0430  0.1794
  720MPD2    C210641   1.302   2.478  13.670 -0.2939 -0.4898 -0.5507
  720MPD2    C310642   1.318   2.431  13.801 -0.3762 -0.3296 -0.8722
  720MPD2    C410643   1.219   2.349  13.848  0.5706 -0.1840 -1.3840
  720MPD2    C510644   1.119   2.305  13.766  0.0990  0.2334 -0.4571
  720MPD2     H10645   1.385   2.536  13.630 -0.9233  1.5474  1.0696
  720MPD2    H110646   1.217   2.318  13.952  0.7284  1.1954 -0.9652
  720MPD2    H210647   1.035   2.296  13.570  0.7559 -0.0519 -0.2611
  720MPD2    H310648   1.044   2.234  13.797  1.8401 -1.7730 -0.8627
  720MPD2     N10649   1.425   2.470  13.879  0.0810  0.2392  0.0429
  720MPD2    H510650   1.495   2.524  13.831 -0.1477 -1.2446 -1.9413
  720MPD2    N110651   1.213   2.465  13.454  0.1028  0.1684 -0.1591
  720MPD2    H710652   1.278   2.538  13.426 -1.0281  1.4091  0.4548
  721TMC3    C110653   1.594   2.449  14.040 -0.1834  0.0774  0.1263
  721TMC3    C210654   1.613   2.471  14.174  0.5197  0.2893  0.2557
  721TMC3    C310655   1.743   2.484  14.212  0.2387 -0.4007  0.2341
  721TMC3    C410656   1.695   2.438  13.945  0.0450 -0.6659  0.2892
  721TMC3    C510657   1.819   2.449  13.995  0.1224 -0.3475  0.9381
  721TMC3    C610658   1.846   2.466  14.126 -0.1375 -0.9794 -0.6910
  721TMC3     C10659   1.462   2.420  14.003 -0.0666  0.0819 -0.2595
  721TMC3     O10660   1.396   2.362  14.089 -0.4117 -0.0117  0.0372
  721TMC3     H10661   1.537   2.480  14.251  0.7922 -2.3522  0.8325
  721TMC3    H110662   1.669   2.426  13.840  0.6592  0.0701  0.0491
  721TMC3    H210663   1.942   2.451  14.174 -0.3684 -0.1666  0.0378
  721TMC3    C710664   1.930   2.422  13.909  0.4765  0.3620  0.2219
  721TMC3    C810665   1.783   2.481  14.352 -0.7290 -0.0111  0.3310
  721TMC3    O110666   1.950   2.469  13.801  0.3880  0.2993 -0.4939
  721TMC3    O210667   1.892   2.448  14.386 -0.2895 -0.3658  0.4141
  722MPD2     C10668   0.439   1.144  12.596  0.3861 -0.1330 -0.6720
  722MPD2    C110669   0.355   1.163  12.704 -0.7464 -0.0097 -0.0404
  722MPD2    C210670   0.219   1.127  12.691 -0.3286  0.7546  0.7022
  722MPD2    C310671   0.171   1.084  12.569 -0.7085  1.0607  0.6302
  722MPD2    C410672   0.256   1.044  12.469  0.4252  0.5953 -0.3569
  722MPD2    C510673   0.391   1.073  12.485  0.1363  0.5013  0.2709
  722MPD2     H10674   0.149   1.156  12.769  0.5673 -1.9388  2.4978
  722MPD2    H110675   0.224   1.000  12.375  0.3435  1.4982 -0.7559
  722MPD2    H210676   0.542   1.173  12.609  0.5163 -1.4402  1.2098
  722MPD2    H310677   0.460   1.036  12.411 -0.0215  1.0548 -0.1521
  722MPD2     N10678   0.027   1.077  12.566  0.3110 -0.5348 -0.0030
  722MPD2    H510679   4.700   1.128  12.639  1.0417  0.4910 -0.2270
  722MPD2    N110680   0.391   1.228  12.824  0.3059 -1.2806  0.1373
  722MPD2    H710681   0.318   1.240  12.894  1.2897  1.4459  0.7317
  723TMC3    C110682   4.542   1.002  12.490  0.5041 -0.1664  0.5224
  723TMC3    C210683   4.475   0.892  12.442 -0.3618 -0.6854 -0.0477
  723TMC3    C310684   4.343   0.894  12.444  0.0694 -0.4501 -0.4124
  723TMC3    C410685   4.481   1.108  12.538  0.6973  0.0859 -0.6725
  723TMC3    C510686   4.344   1.107  12.517 -0.0016  0.1941 -0.0861
  723TMC3    C610687   4.273   1.006  12.472 -1.0655  0.1310  0.2049
  723TMC3     C10688   4.678   1.012  12.467 -0.0806  0.0395  0.0867
  723TMC3     O10689   4.715   0.948  12.374 -0.0626  0.1963 -0.4576
  723TMC3     H10690   4.528   0.805  12.405 -0.3192  0.9606 -3.8661
  723TMC3    H110691   4.529   1.195  12.581 -2.7189  2.1613 -1.0241
  723TMC3    H210692   4.165   0.998  12.474 -1.2026  1.6839 -0.9624
  723TMC3    C710693   4.268   1.229  12.535  1.1505 -0.5179 -0.6127
  723TMC3    C810694   4.263   0.780  12.414 -0.2767 -0.7384 -0.3469
  723TMC3    O110695   4.301   1.300  12.630 -0.3281 -0.4034 -0.3973
  723TMC3    O210696   4.146   0.799  12.380  0.0500 -0.0540  0.0323
  724TMC3    C110697   0.430   4.043   9.594  0.6239  0.2965 -0.1810
  724TMC3    C210698   0.405   4.059   9.459 -0.2189 -0.8667  0.4706
  724TMC3    C310699   0.514   4.062   9.381 -0.4621 -0.7013  0.5789
  724TMC3    C410700   0.551   4.011   9.649 -0.6069 -0.4418 -0.3287
  724TMC3    C510701   0.656   4.012   9.559 -0.0479 -0.1150 -0.5664
  724TMC3    C610702   0.637   4.038   9.427 -0.2479 -0.7863 -0.1327
  724TMC3     C10703   0.328   4.070   9.696 -1.0208  0.7107  0.0610
  724TMC3     O10704   0.213   4.077   9.648  0.3733  0.5537  0.3367
  724TMC3     H10705   0.306   4.097   9.437 -1.1044 -0.0432  5.6726
  724TMC3    H110706   0.562   3.981   9.753 -0.4008  1.2508  0.1561
  724TMC3    H210707   0.713   4.028   9.351 -0.2945  3.3023 -0.6860
  724TMC3    C710708   0.796   4.003   9.604 -0.0915  0.4075 -0.5878
  724TMC3    C810709   0.491   4.120   9.244  0.0417  0.1208 -0.4162
  724TMC3    O110710   0.888   4.035   9.532  0.6752  0.3853  0.6018
  724TMC3    O210711   0.379   4.108   9.193 -0.0536  0.0563  0.0157
  725TMC3    C110712   2.251   2.607  12.653 -0.2513  0.1456  0.2879
  725TMC3    C210713   2.120   2.588  12.627  0.0614 -0.4587  0.3873
  725TMC3    C310714   2.084   2.490  12.543 -0.8006 -0.1930  0.6752
  725TMC3    C410715   2.349   2.530  12.590  0.4149 -0.0837 -0.4474
  725TMC3    C510716   2.306   2.423  12.520 -0.8338  0.5459  0.0462
  725TMC3    C610717   2.175   2.396  12.499  0.2340 -0.3078  0.4123
  725TMC3     C10718   2.284   2.727  12.725 -0.4402  0.2303  0.4805
  725TMC3     O10719   2.384   2.785  12.683  0.4242  0.0638 -0.4870
  725TMC3     H10720   2.042   2.661  12.649  1.0165  0.8641 -0.5733
  725TMC3    H110721   2.455   2.549  12.603  0.6068 -0.7259 -1.0578
  725TMC3    H210722   2.146   2.318  12.429  0.5264 -0.0326 -0.0120
  725TMC3    C710723   2.401   2.322  12.466  0.3544 -0.3328 -0.8617
  725TMC3    C810724   1.962   2.494  12.475 -0.2828  0.2094 -0.1664
  725TMC3    O110725   2.352   2.252  12.375 -0.0196 -0.0109 -0.7577
  725TMC3    O210726   1.862   2.532  12.535  0.1276 -0.3356 -0.1087
  726MPD2     C10727   0.574   4.315  11.056 -0.2176 -0.7288  0.8166
  726MPD2    C110728   0.506   4.318  10.938 -0.7391 -0.8454  0.0510
  726MPD2    C210729   0.372   4.281  10.928 -0.2215 -0.0087  0.7939
  726MPD2    C310730   0.313   4.234  11.043 -0.4609 -0.1197  0.9779
  726MPD2    C410731   0.379   4.242  11.165  0.4571 -0.1136  0.4294
  726MPD2    C510732   0.510   4.277  11.164  0.0472 -0.2659  0.0704
  726MPD2     H10733   0.329   4.290  10.829  1.3237 -2.8448 -0.1206
  726MPD2    H110734   0.337   4.208  11.259 -2.2547  3.1629  0.4077
  726MPD2    H210735   0.682   4.322  11.061 -0.2423 -0.5690  1.1660
  726MPD2    H310736   0.552   4.269  11.264 -1.1692  0.0522  0.6076
  726MPD2     N10737   0.181   4.188  11.046  0.3247  0.2513 -0.4266
  726MPD2    H510738   0.139   4.159  11.134 -0.3465 -0.6824 -1.0658
  726MPD2    N110739   0.566   4.346  10.812 -0.2150 -0.3880 -0.2885
  726MPD2    H710740   0.511   4.326  10.729  1.6821  0.4842 -1.7563
  727TMC3    C110741   0.711   4.444  10.648  0.6999  0.5239 -0.1400
  727TMC3    C210742   0.834   4.498  10.618  0.0550  0.1243  0.3400
  727TMC3    C310743   0.858   4.541  10.494 -0.9809  0.1720  0.3434
  727TMC3    C410744   0.610   4.441  10.561 -0.4776 -0.1970 -0.2450
  727TMC3    C510745   0.640   4.482  10.430  0.1152 -0.0133  0.1682
  727TMC3    C610746   0.756   4.535  10.398 -0.4049  0.8656 -0.0917
  727TMC3     C10747   0.682   4.416  10.786 -0.0211 -0.1040  1.2653
  727TMC3     O10748   0.762   4.449  10.868 -0.1024  0.1367 -0.1129
  727TMC3     H10749   0.919   4.503  10.686  0.3607 -0.5005  0.0143
  727TMC3    H110750   0.508   4.411  10.585 -0.8659  0.5866 -0.9090
  727TMC3    H210751   0.773   4.558  10.293  1.7386  0.5230  0.1840
  727TMC3    C710752   0.536   4.459  10.335  0.0196 -0.8383  0.0508
  727TMC3    C810753   0.977   4.613  10.461 -0.1983  0.8665  0.2857
  727TMC3    O110754   0.462   4.366  10.354  0.2666 -0.5008  0.9944
  727TMC3    O210755   0.985   4.638  10.345 -0.5128 -0.0128 -0.4015
  728TMC3    C110756   3.794   2.847  15.129 -0.4036  0.5220 -0.6441
  728TMC3    C210757   3.913   2.868  15.190 -0.0143 -0.3425  0.0188
  728TMC3    C310758   4.022   2.910  15.117  0.2813 -0.0060  0.7101
  728TMC3    C410759   3.769   2.878  15.004 -1.1415 -0.1658 -0.0977
  728TMC3    C510760   3.879   2.921  14.928  0.6327 -0.0885 -0.1288
  728TMC3    C610761   4.007   2.938  14.982  0.2909  0.4048 -1.0498
  728TMC3     C10762   3.689   2.833  15.223  0.1375  0.6438  0.3483
  728TMC3     O10763   3.710   2.861  15.337  0.1110  0.9259 -0.4627
  728TMC3     H10764   3.930   2.866  15.297  0.1810 -1.6109 -0.0314
  728TMC3    H110765   3.674   2.866  14.953  0.2587 -0.6268 -2.5960
  728TMC3    H210766   4.099   2.950  14.926  1.9394  0.7373  1.7553
  728TMC3    C710767   3.863   2.928  14.786  0.0771  0.2203 -0.2133
  728TMC3    C810768   4.142   2.958  15.182  0.3128  0.2874 -0.2747
  728TMC3    O110769   3.761   2.888  14.738 -0.1155 -0.2742 -0.0431
  728TMC3    O210770   4.170   2.894  15.288  0.1019 -0.0904 -0.4272
  729MPD2     C10771   1.213   4.261  16.771  0.8016 -0.3632 -0.4768
  729MPD2    C110772   1.260   4.138  16.796  0.3357 -0.2030  0.3125
  729MPD2    C210773   1.293   4.099  16.924  0.0639 -0.4499 -0.5023
  729MPD2    C310774   1.265   4.176  17.036 -0.4753 -0.5317 -0.0654
  729MPD2    C410775   1.224   4.307  17.011 -0.5877  0.2108 -0.3569
  729MPD2    C510776   1.190   4.342  16.879 -0.2054  0.1004 -0.5308
  729MPD2     H10777   1.328   3.998  16.945 -0.4882 -0.4596  0.3248
  729MPD2    H110778   1.195   4.385  17.081  0.2662  0.5473 -0.3855
  729MPD2    H210779   1.182   4.296  16.673 -1.3571  1.0263  0.6969
  729MPD2    H310780   1.136   4.433  16.859 -0.2562 -0.3752 -2.5486
  729MPD2     N10781   1.279   4.139  17.170 -0.3710  0.1719 -0.1523
  729MPD2    H510782   1.270   4.213  17.239 -1.2549 -0.5703  0.5279
  729MPD2    N110783   1.275   4.046  16.688  0.1647 -0.1562 -0.1280
  729MPD2    H710784   1.226   4.076  16.604 -0.5548  1.6204  0.9290
  730TMC3    C110785   1.387   3.998  17.330 -0.2968  0.0861  0.2615
  730TMC3    C210786   1.502   3.932  17.304  0.6154  0.6966  0.6648
  730TMC3    C310787   1.625   3.991  17.324  0.9884  0.3563  0.1192
  730TMC3    C410788   1.402   4.123  17.401  0.0928 -0.4970  0.6821
  730TMC3    C510789   1.529   4.181  17.430  0.4195  0.6279 -0.1620
  730TMC3    C610790   1.640   4.107  17.396  0.2217 -0.0457  0.6213
  730TMC3     C10791   1.317   4.012  17.205 -0.5696  1.0192 -0.5932
  730TMC3     O10792   1.300   3.906  17.139 -0.2519 -0.2724 -0.0083
  730TMC3     H10793   1.494   3.839  17.249  1.8928  1.2290 -0.4232
  730TMC3    H110794   1.313   4.176  17.432  0.6675  1.5038 -1.1431
  730TMC3    H210795   1.735   4.145  17.432  0.4503 -0.5314  0.5328
  730TMC3    C710796   1.549   4.315  17.384  0.4217  0.1772  0.1660
  730TMC3    C810797   1.705   3.980  17.206 -0.3014 -0.5848  0.5183
  730TMC3    O110798   1.652   4.351  17.329  0.0071 -0.1838 -0.4762
  730TMC3    O210799   1.698   3.885  17.127  0.1898  0.6482 -0.1290
  731MPD2     C10800   1.551   2.441  11.472 -0.0114  0.0662 -0.1259
  731MPD2    C110801   1.659   2.374  11.516  0.2092 -0.2082  0.1286
  731MPD2    C210802   1.657   2.321  11.640 -0.5586 -0.4166  0.8439
  731MPD2    C310803   1.552   2.355  11.725 -0.1362  0.0834 -0.1575
  731MPD2    C410804   1.449   2.435  11.681 -0.3554 -0.0807  0.0005
  731MPD2    C510805   1.453   2.480  11.556  0.5657  0.5424  0.1043
  731MPD2     H10806   1.744   2.262  11.665 -0.1831 -1.0318 -1.8414
  731MPD2    H110807   1.363   2.457  11.743  0.5305  1.1878  0.7825
  731MPD2    H210808   1.533   2.470  11.369  0.0182  2.2086  0.4736
  731MPD2    H310809   1.369   2.537  11.520  1.6943  0.6795 -2.3018
  731MPD2     N10810   1.567   2.308  11.857 -0.2804  0.5811 -0.8471
  731MPD2    H510811   1.649   2.252  11.879 -1.5143 -0.6057  0.7768
  731MPD2    N110812   1.747   2.326  11.414 -0.0036 -0.5654 -0.2616
  731MPD2    H710813   1.717   2.329  11.317  0.1967 -3.0220 -0.4041
  732TMC3    C110814   1.918   2.191  11.319  0.1477 -0.1321  0.6763
  732TMC3    C210815   1.824   2.126  11.237  0.3343 -0.0470 -0.2079
  732TMC3    C310816   1.873   2.049  11.135 -0.0481  0.8639  0.5268
  732TMC3    C410817   2.050   2.177  11.306  0.0343 -0.1119  0.3766
  732TMC3    C510818   2.093   2.092  11.210 -0.9694 -0.4888  0.0055
  732TMC3    C610819   2.009   2.035  11.125  0.2381 -0.6195  0.4620
  732TMC3     C10820   1.865   2.260  11.435  0.3466 -0.5221 -0.4078
  732TMC3     O10821   1.942   2.275  11.528 -0.4996  0.1734  0.4424
  732TMC3     H10822   1.717   2.141  11.244  0.4825  0.8805  0.1237
  732TMC3    H110823   2.121   2.231  11.368 -0.1895  0.2467  0.3243
  732TMC3    H210824   2.046   1.967  11.048 -0.0962  0.0145 -0.2643
  732TMC3    C710825   2.231   2.047  11.200 -0.4168 -0.3198  0.4791
  732TMC3    C810826   1.811   1.923  11.123  0.0665 -0.1269 -0.1958
  732TMC3    O110827   2.273   2.019  11.087 -0.1680 -0.1071  0.4289
  732TMC3    O210828   1.875   1.840  11.063 -0.3482  0.3902 -0.1949
  733TMC3    C110829   2.463   0.647  12.934 -0.1208 -0.8186 -0.2017
  733TMC3    C210830   2.593   0.690  12.921  0.2138  0.0089  0.3393
  733TMC3    C310831   2.692   0.593  12.917  0.0888  0.2092  0.2227
  733TMC3    C410832   2.435   0.516  12.936 -0.0198 -0.4364  0.6078
  733TMC3    C510833   2.538   0.419  12.935  0.3332 -0.1210 -0.1974
  733TMC3    C610834   2.673   0.457  12.919 -0.3373  0.5650  0.5611
  733TMC3     C10835   2.356   0.747  12.942 -0.0168  0.8019 -0.4123
  733TMC3     O10836   2.353   0.851  12.873 -0.0547  0.1234 -0.2761
  733TMC3     H10837   2.604   0.796  12.905 -0.1597 -0.1661 -1.0938
  733TMC3    H110838   2.336   0.476  12.952 -0.5548  0.9315  0.6998
  733TMC3    H210839   2.750   0.380  12.915  1.5124  2.3399  1.7588
  733TMC3    C710840   2.502   0.289  12.891  0.0445  1.0647  0.0882
  733TMC3    C810841   2.831   0.644  12.905 -0.0312 -0.1310  0.2353
  733TMC3    O110842   2.394   0.269  12.835  0.4117 -0.8629 -0.3903
  733TMC3    O210843   2.848   0.765  12.886 -0.0537  0.2886  0.3557
  734MPD2     C10844   0.137   2.572  11.795  0.1424 -0.0945 -0.2679
  734MPD2    C110845   0.015   2.582  11.731 -0.6849 -0.1543  0.0409
  734MPD2    C210846   4.716   2.680  11.638 -0.0919 -0.0776 -0.1745
  734MPD2    C310847   0.085   2.781  11.623 -0.0486 -0.1262 -0.5303
  734MPD2    C410848   0.210   2.776  11.680 -0.0278  0.2266  0.8832
  734MPD2    C510849   0.235   2.669  11.767  0.1489 -0.6190 -0.3027
  734MPD2     H10850   4.628   2.677  11.574 -0.9824  1.7312  0.9741
  734MPD2    H110851   0.286   2.853  11.671  0.9602 -1.0748 -1.9720
  734MPD2    H210852   0.155   2.495  11.869  0.7357 -0.2784 -0.6051
  734MPD2    H310853   0.331   2.656  11.816  0.7733  1.7843 -0.9425
  734MPD2     N10854   0.036   2.881  11.533  0.1460  0.2657  0.3762
  734MPD2    H510855   4.667   2.870  11.490 -0.1750  0.0208  1.1360
  734MPD2    N110856   4.651   2.466  11.733 -0.2302  0.1965 -0.5315
  734MPD2    H710857   4.690   2.380  11.771 -0.0669  0.4015 -0.2305
  735TMC3    C110858   4.465   2.320  11.684 -0.6850 -0.8729 -0.2291
  735TMC3    C210859   4.344   2.329  11.620 -1.0555  0.8036  0.3497
  735TMC3    C310860   4.336   2.269  11.503 -0.1288  0.4207  1.1104
  735TMC3    C410861   4.555   2.227  11.647 -0.5546  0.1745  0.2161
  735TMC3    C510862   4.546   2.161  11.529  0.1845 -0.3033  0.5685
  735TMC3    C610863   4.436   2.184  11.457  0.4881  0.1772  0.4541
  735TMC3     C10864   4.524   2.458  11.686 -0.4533  0.4836 -0.3187
  735TMC3     O10865   4.462   2.544  11.627 -0.1015  0.6667  0.2396
  735TMC3     H10866   4.270   2.401  11.653 -1.7853 -0.5451  1.6614
  735TMC3    H110867   4.633   2.213  11.721 -1.2712 -0.8412  0.7782
  735TMC3    H210868   4.422   2.127  11.366 -2.0627  1.3085  0.1392
  735TMC3    C710869   4.636   2.056  11.489 -0.3159  1.0212 -0.0445
  735TMC3    C810870   4.265   2.341  11.392  0.1219 -0.2506  0.0103
  735TMC3    O110871   4.584   1.973  11.418  0.2321  0.1523 -0.0556
  735TMC3    O210872   4.243   2.278  11.288 -0.2326 -0.4884  0.1334
  736MPD2     C10873   0.117   1.839  11.477 -0.1184 -0.5639 -0.5419
  736MPD2    C110874   0.143   1.965  11.522  0.1698 -0.1404  1.0464
  736MPD2    C210875   0.275   1.994  11.559 -0.1258  0.1290  0.3659
  736MPD2    C310876   0.371   1.898  11.560  0.9317 -0.3385 -0.3734
  736MPD2    C410877   0.336   1.768  11.521 -0.1955 -0.0765 -0.0645
  736MPD2    C510878   0.213   1.750  11.487 -0.0884 -0.2611 -0.2195
  736MPD2     H10879   0.289   2.096  11.594 -2.2505  0.1143  1.2626
  736MPD2    H110880   0.418   1.697  11.513  0.5582  0.6717  0.9600
  736MPD2    H210881   0.014   1.806  11.463 -1.1512  1.8118  1.5105
  736MPD2    H310882   0.195   1.648  11.454  1.4876 -1.0417  1.3196
  736MPD2     N10883   0.495   1.926  11.601  0.4113  0.1657 -0.2454
  736MPD2    H510884   0.551   1.842  11.608  0.8957  0.4705 -0.4781
  736MPD2    N110885   0.043   2.068  11.527 -0.2874  0.0366 -0.1717
  736MPD2    H710886   0.087   2.147  11.574 -0.3674  0.4592 -0.7957
  737TMC3    C110887   0.693   2.045  11.644 -0.6099 -0.5096 -0.0640
  737TMC3    C210888   0.753   2.167  11.608 -0.0732 -0.3634 -0.5899
  737TMC3    C310889   0.888   2.161  11.565  0.0127  0.4109  0.5076
  737TMC3    C410890   0.756   1.929  11.612  0.5516  0.5845 -0.0739
  737TMC3    C510891   0.885   1.932  11.574 -0.4133 -0.4864 -0.1400
  737TMC3    C610892   0.955   2.047  11.548 -0.3407 -0.6462  0.1999
  737TMC3     C10893   0.551   2.052  11.629 -0.3408 -0.1672 -0.0053
  737TMC3     O10894   0.501   2.164  11.622  0.6204 -0.6099  0.1194
  737TMC3     H10895   0.701   2.257  11.639  2.0610  0.7093 -0.0806
  737TMC3    H110896   0.708   1.833  11.628  1.1224  0.4507  0.8010
  737TMC3    H210897   1.057   2.046  11.510  0.1786  1.9382  1.4753
  737TMC3    C710898   0.939   1.809  11.529  0.0297  1.0452 -0.0098
  737TMC3    C810899   0.968   2.283  11.541  0.3695  0.1068  0.2264
  737TMC3    O110900   0.877   1.709  11.560  0.0508  0.4509  0.5634
  737TMC3    O210901   1.086   2.274  11.522  0.4590  0.0986 -0.3828
  738MPD2     C10902   0.648   1.367  15.537  1.1341 -0.4891 -0.6529
  738MPD2    C110903   0.531   1.378  15.459  0.2895 -0.8053  0.5081
  738MPD2    C210904   0.518   1.480  15.357 -0.0410 -0.4297  0.2188
  738MPD2    C310905   0.611   1.585  15.367  0.2709  0.0119  0.2368
  738MPD2    C410906   0.716   1.582  15.457 -0.4298 -0.3819  0.3748
  738MPD2    C510907   0.734   1.473  15.536  0.3361 -0.0426 -0.2997
  738MPD2     H10908   0.420   1.481  15.311 -0.1783 -2.7917  0.4368
  738MPD2    H110909   0.786   1.664  15.463  2.3683 -2.8411  1.4658
  738MPD2    H210910   0.669   1.282  15.601 -1.7837 -1.3488 -0.8454
  738MPD2    H310911   0.824   1.470  15.597  0.2161 -0.4007 -0.1395
  738MPD2     N10912   0.600   1.698  15.283  0.8066  0.5489 -0.0500
  738MPD2    H510913   0.679   1.761  15.297 -0.0208  1.5425  0.1538
  738MPD2    N110914   0.433   1.278  15.451 -0.2843  0.7754  0.4514
  738MPD2    H710915   0.371   1.286  15.371 -0.8727  0.8205  0.9053
  739TMC3    C110916   0.551   1.832  15.096 -0.2520 -0.4425 -0.2249
  739TMC3    C210917   0.552   1.821  14.961 -0.1277  0.5558  0.5398
  739TMC3    C310918   0.621   1.914  14.889  0.9481  0.3158 -0.2943
  739TMC3    C410919   0.599   1.943  15.159 -0.1957 -1.0471  0.0721
  739TMC3    C510920   0.663   2.033  15.079  0.2422  0.6525  0.1067
  739TMC3    C610921   0.669   2.026  14.945 -0.4623  0.1348 -0.2840
  739TMC3     C10922   0.513   1.712  15.175 -0.1701  0.2336 -0.3010
  739TMC3     O10923   0.429   1.629  15.128  0.5327  0.0573  0.1733
  739TMC3     H10924   0.524   1.723  14.925  1.1820  0.4610 -0.2169
  739TMC3    H110925   0.575   1.965  15.262 -1.3986 -0.2167 -0.3875
  739TMC3    H210926   0.706   2.104  14.880  1.9189 -1.5275 -0.9692
  739TMC3    C710927   0.708   2.157  15.129 -1.0117 -0.4976 -0.3624
  739TMC3    C810928   0.684   1.859  14.770 -0.5749 -0.4250 -0.0401
  739TMC3    O110929   0.730   2.246  15.046  0.0391  0.3671  0.3924
  739TMC3    O210930   0.640   1.758  14.717 -0.6225 -0.3062 -0.0434
  740TMC3    C110931   1.178   2.840  13.922 -0.0280 -0.4723 -0.2159
  740TMC3    C210932   1.199   2.805  14.053  0.0825 -0.3171 -0.0635
  740TMC3    C310933   1.324   2.768  14.092  0.1709 -0.3809  0.4148
  740TMC3    C410934   1.278   2.847  13.828  1.1599  0.0996  1.1985
  740TMC3    C510935   1.403   2.813  13.871 -0.4790  0.5306  0.3699
  740TMC3    C610936   1.424   2.761  13.997 -0.1855 -0.1188 -0.4905
  740TMC3     C10937   1.044   2.888  13.889 -0.9177 -0.2797  0.2263
  740TMC3     O10938   1.020   2.930  13.778 -0.2601 -0.0388 -0.2397
  740TMC3     H10939   1.125   2.812  14.132  1.2821  0.6459  0.9693
  740TMC3    H110940   1.265   2.887  13.728  1.3333 -1.0383  0.7281
  740TMC3    H210941   1.523   2.728  14.027 -0.6827  0.0474  1.2791
  740TMC3    C710942   1.499   2.762  13.771 -0.0267 -0.1428  1.0590
  740TMC3    C810943   1.337   2.701  14.219 -0.1929 -0.0772  0.5159
  740TMC3    O110944   1.593   2.695  13.811 -0.5416  0.1610 -0.2329
  740TMC3    O210945   1.446   2.710  14.272  0.4029  0.3510 -0.2908
  741TMC3    C110946   0.655   2.029  14.215 -0.2300 -0.4774 -0.5260
  741TMC3    C210947   0.586   1.917  14.232  0.6331  0.6576 -0.0997
  741TMC3    C310948   0.532   1.889  14.354  0.0545 -0.2313 -0.5204
  741TMC3    C410949   0.682   2.111  14.317  0.5091  0.5932  0.1628
  741TMC3    C510950   0.618   2.093  14.435  0.3176 -0.4856  0.3406
  741TMC3    C610951   0.543   1.985  14.455  0.0566 -0.1696 -0.4304
  741TMC3     C10952   0.748   2.033  14.108  0.0497 -0.0540 -0.0731
  741TMC3     O10953   0.841   2.109  14.130  0.2847  0.2900  0.1672
  741TMC3     H10954   0.562   1.850  14.150 -2.1734 -0.5653  1.6917
  741TMC3    H110955   0.752   2.191  14.296  0.3894  0.2153 -1.6631
  741TMC3    H210956   0.485   1.977  14.546  0.7736  0.9987  0.1293
  741TMC3    C710957   0.634   2.188  14.540 -1.1047  0.1004 -0.0971
  741TMC3    C810958   0.433   1.783  14.366 -0.0640 -0.4436 -0.1917
  741TMC3    O110959   0.594   2.154  14.648  0.2843  0.2963 -0.2140
  741TMC3    O210960   0.377   1.763  14.261 -0.3471  0.3247  0.3745
  742TMC3    C110961   0.598   0.588  15.261 -0.6373  0.0112 -0.5658
  742TMC3    C210962   0.521   0.594  15.148 -0.3086  0.4201  0.1559
  742TMC3    C310963   0.581   0.563  15.032 -0.0881  0.4017  1.0626
  742TMC3    C410964   0.734   0.573  15.251 -0.5747  0.0405  0.2376
  742TMC3    C510965   0.791   0.556  15.129 -0.7008 -0.2488 -0.6569
  742TMC3    C610966   0.714   0.555  15.013 -0.5872  0.2409 -0.0901
  742TMC3     C10967   0.542   0.620  15.392  0.3568 -0.1811  0.6928
  742TMC3     O10968   0.437   0.681  15.392  0.0701 -0.0149  0.4865
  742TMC3     H10969   0.414   0.589  15.162 -0.1016  0.1416  1.6391
  742TMC3    H110970   0.807   0.576  15.331 -1.0539 -0.8907  0.7093
  742TMC3    H210971   0.759   0.531  14.918  1.4672 -1.1317  1.2234
  742TMC3    C710972   0.918   0.486  15.136 -0.4888  0.0902 -0.7559
  742TMC3    C810973   0.502   0.505  14.921 -0.1154  0.2494 -0.3091
  742TMC3    O110974   0.941   0.404  15.224  0.5611 -0.0807 -0.2134
  742TMC3    O210975   0.564   0.465  14.823 -0.0983 -0.3026 -0.4474
  743MPD2     C10976   4.130   0.914   1.901 -0.4547 -0.3073  0.3264
  743MPD2    C110977   4.185   1.013   1.824 -0.8280  0.1406 -0.3280
  743MPD2    C210978   4.325   1.043   1.836 -0.1596  0.5220  0.1664
  743MPD2    C310979   4.399   0.985   1.937 -0.6884  0.5309 -0.1201
  743MPD2    C410980   4.343   0.880   2.007  0.4333  0.2109  1.5501
  743MPD2    C510981   4.213   0.846   1.988  0.3777 -0.0196 -0.5533
  743MPD2     H10982   4.374   1.102   1.759  0.2852 -0.9387 -0.6688
  743MPD2    H110983   4.407   0.813   2.063  0.6174  0.3070  1.4535
  743MPD2    H210984   4.031   0.874   1.885 -0.1860 -1.0013  0.3987
  743MPD2    H310985   4.162   0.772   2.049  0.3457  0.0351 -0.5141
  743MPD2     N10986   4.516   1.038   1.977 -0.5073  0.2535  0.1359
  743MPD2    H510987   4.547   1.128   1.943  0.3777 -0.4925 -1.0336
  743MPD2    N110988   4.095   1.076   1.738 -0.6013 -0.5693  0.3765
  743MPD2    H710989   3.997   1.050   1.742 -0.4624 -0.9608  1.1135
  744TMC3    C110990   4.014   1.260   1.603  0.1193 -0.1448  0.8435
  744TMC3    C210991   3.890   1.231   1.651 -0.4473  0.6860 -0.8455
  744TMC3    C310992   3.780   1.285   1.584  0.1489 -0.5755 -0.3687
  744TMC3    C410993   4.040   1.325   1.483 -0.2755  0.3193 -0.0994
  744TMC3    C510994   3.930   1.371   1.416  0.0280  0.1138  0.0828
  744TMC3    C610995   3.801   1.362   1.470 -0.6917  0.0354 -0.0917
  744TMC3     C10996   4.130   1.186   1.661  0.6289 -0.0390 -0.2289
  744TMC3     O10997   4.240   1.213   1.619  0.7621  0.2954 -0.2833
  744TMC3     H10998   3.870   1.187   1.748 -2.5381 -0.7493 -1.9143
  744TMC3    H110999   4.143   1.330   1.450 -0.6991 -0.1901 -1.5206
  744TMC3    H211000   3.713   1.405   1.424 -0.3600 -0.6271 -1.3514
  744TMC3    C711001   3.943   1.457   1.296  0.1281 -0.1186  0.0895
  744TMC3    C811002   3.640   1.265   1.625 -0.0901 -0.2270  0.6688
  744TMC3    O111003   4.050   1.452   1.240  0.1692 -0.0110  1.0023
  744TMC3    O211004   3.556   1.343   1.586 -0.0011  0.5099 -0.3129
  745TMC3    C111005   0.931   0.423  13.078 -0.2231  0.0498  0.3772
  745TMC3    C211006   0.814   0.422  13.150 -0.1283 -0.2224 -0.6190
  745TMC3    C311007   0.716   0.496  13.098  0.3570 -0.1789 -0.0594
  745TMC3    C411008   0.948   0.482  12.960  0.8062 -0.3216  0.5970
  745TMC3    C511009   0.847   0.562  12.914 -0.8944 -1.6619 -0.0825
  745TMC3    C611010   0.729   0.569  12.980  0.5584  0.7501 -0.4855
  745TMC3     C11011   1.041   0.427  13.170  1.2901 -0.3258  0.2523
  745TMC3     O11012   1.022   0.460  13.289 -0.2931 -0.1577 -0.1468
  745TMC3     H11013   0.788   0.366  13.239  0.9563 -1.8057 -1.3066
  745TMC3    H111014   1.034   0.467  12.897 -1.3103 -1.5136 -2.0192
  745TMC3    H211015   0.641   0.614  12.936 -0.5973 -2.4113 -1.4642
  745TMC3    C711016   0.870   0.642  12.789  0.1448 -0.2815 -0.5929
  745TMC3    C811017   0.652   0.597  13.201 -0.5583 -0.3320 -0.9407
  745TMC3    O111018   0.790   0.621  12.698  0.7144 -0.4500 -0.2532
  745TMC3    O211019   0.543   0.646  13.180  0.1046  0.1419 -0.1654
  746TMC3    C111020   3.705   2.106  10.778  0.4934  0.2513  0.0606
  746TMC3    C211021   3.812   2.106  10.693  0.1632 -0.1925  1.3910
  746TMC3    C311022   3.849   1.973  10.648 -0.4033 -0.2050  0.1476
  746TMC3    C411023   3.643   1.989  10.822 -0.4778 -0.1130 -0.4446
  746TMC3    C511024   3.694   1.865  10.790 -0.4338  0.3445  0.2750
  746TMC3    C611025   3.787   1.856  10.692  0.5654  0.8011 -0.1752
  746TMC3     C11026   3.647   2.230  10.820  0.8712 -0.5337 -0.2964
  746TMC3     O11027   3.583   2.225  10.921  0.0214  0.2432 -0.8494
  746TMC3     H11028   3.846   2.202  10.657  3.6016 -1.0115  2.4390
  746TMC3    H111029   3.546   1.995  10.868  0.0640 -0.3225  0.7316
  746TMC3    H211030   3.820   1.761  10.653 -0.1199  0.6861 -0.4759
  746TMC3    C711031   3.592   1.771  10.764 -0.2844 -0.2767 -0.0457
  746TMC3    C811032   3.970   1.968  10.576 -0.4324  0.4721 -0.6737
  746TMC3    O111033   3.536   1.777  10.653 -0.1140  0.3164  0.8701
  746TMC3    O211034   4.030   1.865  10.593 -0.4403 -0.1565  0.4284
  747TMC3    C111035   1.405   1.833  10.649  0.5375 -0.1477 -0.8765
  747TMC3    C211036   1.350   1.770  10.758  0.1839  0.2559  0.7403
  747TMC3    C311037   1.376   1.814  10.884 -1.1345 -0.5259  0.0209
  747TMC3    C411038   1.483   1.948  10.670 -0.0339  0.2182  0.0171
  747TMC3    C511039   1.507   1.993  10.800  0.2724  0.5132 -0.2871
  747TMC3    C611040   1.459   1.921  10.905  0.2551 -1.2565  0.6437
  747TMC3     C11041   1.318   1.847  10.536  0.4287 -0.1814  0.3836
  747TMC3     O11042   1.254   1.954  10.523  0.2261  0.0861  0.8522
  747TMC3     H11043   1.286   1.686  10.734  0.0131  0.9000 -1.1105
  747TMC3    H111044   1.497   2.015  10.586 -1.1699 -2.9180 -2.6513
  747TMC3    H211045   1.473   1.970  11.001  0.0245  0.8999 -0.4219
  747TMC3    C711046   1.605   2.095  10.837  0.1171  0.1713 -0.2272
  747TMC3    C811047   1.268   1.811  10.968 -0.4693 -0.5088 -0.8899
  747TMC3    O111048   1.602   2.149  10.946 -0.4485  0.0460  0.7346
  747TMC3    O211049   1.215   1.916  10.992  0.9127  0.4704  0.1864
  748MPD2     C11050   2.577   2.427   1.569  0.4424  0.5173  0.4087
  748MPD2    C111051   2.698   2.359   1.574 -0.1859  0.6058  0.0333
  748MPD2    C211052   2.814   2.422   1.539 -0.6390  0.5292 -0.0884
  748MPD2    C311053   2.813   2.552   1.492 -1.0007  0.6483  0.1720
  748MPD2    C411054   2.689   2.616   1.473  0.6210 -0.2156  0.0885
  748MPD2    C511055   2.575   2.552   1.515  0.4621  0.5219 -0.8295
  748MPD2     H11056   2.911   2.374   1.534 -0.7418  0.4613 -1.4366
  748MPD2    H111057   2.675   2.716   1.436  1.4886 -0.4022 -0.7270
  748MPD2    H211058   2.483   2.380   1.598  1.8186 -1.4486  1.7268
  748MPD2    H311059   2.483   2.611   1.519 -0.1054 -0.4406  0.4440
  748MPD2     N11060   2.935   2.602   1.444 -0.1116 -0.6842 -0.3903
  748MPD2    H511061   3.012   2.536   1.444 -0.4678 -1.1027  0.0842
  748MPD2    N111062   2.694   2.224   1.618  0.2373 -0.1467  0.0369
  748MPD2    H711063   2.605   2.177   1.613  1.2511 -1.9410 -1.3040
  749TMC3    C111064   3.095   2.757   1.380  0.1503 -0.2191  0.6854
  749TMC3    C211065   3.182   2.688   1.463  0.2508 -0.1026 -0.1950
  749TMC3    C311066   3.318   2.692   1.434  0.4682  0.0421  0.2995
  749TMC3    C411067   3.137   2.828   1.280  0.2707  0.2804  0.5913
  749TMC3    C511068   3.271   2.834   1.259 -0.0312 -0.0165 -0.0519
  749TMC3    C611069   3.364   2.764   1.321 -0.5037  0.5718  0.1345
  749TMC3     C11070   2.955   2.723   1.386  0.4667  0.5354  0.6856
  749TMC3     O11071   2.874   2.812   1.355  0.3258 -0.3271 -0.8945
  749TMC3     H11072   3.148   2.624   1.545  0.5725  2.3707  1.8689
  749TMC3    H111073   3.073   2.881   1.211 -0.0839  0.8697  1.3623
  749TMC3    H211074   3.468   2.784   1.299 -0.1239 -1.0553  0.4438
  749TMC3    C711075   3.305   2.914   1.138  0.4222 -0.1563 -0.0687
  749TMC3    C811076   3.405   2.621   1.523 -0.0687  0.2930  0.3885
  749TMC3    O111077   3.230   3.000   1.104  0.2604 -0.3240 -0.3184
  749TMC3    O211078   3.362   2.613   1.635 -0.1334  0.1029 -0.0032
  750MPD2     C11079   3.985   3.640  11.334  0.7808  0.0154 -0.6101
  750MPD2    C111080   3.853   3.678  11.329 -0.3926  0.4717  0.2593
  750MPD2    C211081   3.776   3.631  11.219 -0.0824 -0.2022  0.8577
  750MPD2    C311082   3.831   3.552  11.118  0.4791 -0.3859  0.2191
  750MPD2    C411083   3.968   3.524  11.129  0.3908  0.9634 -0.5227
  750MPD2    C511084   4.039   3.557  11.240 -0.6364  0.1275  1.0082
  750MPD2     H11085   3.673   3.665  11.213  0.1718  0.6090  1.1076
  750MPD2    H111086   4.019   3.462  11.057  0.5478  0.2251  0.2283
  750MPD2    H211087   4.054   3.677  11.410 -0.5133 -1.7611  1.4406
  750MPD2    H311088   4.144   3.530  11.243 -0.2878  1.1178 -1.8579
  750MPD2     N11089   3.759   3.512  11.003 -0.0328  0.0251 -0.4845
  750MPD2    H511090   3.820   3.475  10.931 -0.2226 -2.8035  0.7960
  750MPD2    N111091   3.809   3.739  11.446  0.5054  0.0663 -0.4872
  750MPD2    H711092   3.877   3.763  11.517  2.5323  0.5696 -2.6263
  751TMC3    C111093   3.580   3.461  10.848  0.3795  0.3732  0.5485
  751TMC3    C211094   3.464   3.383  10.849 -0.3470  0.8973  0.2780
  751TMC3    C311095   3.437   3.321  10.729  0.7198 -0.1090 -0.4530
  751TMC3    C411096   3.665   3.470  10.739 -0.1875  0.2329  0.9046
  751TMC3    C511097   3.634   3.393  10.627 -0.1891  0.2506  0.2610
  751TMC3    C611098   3.516   3.324  10.620 -0.0073  0.1614  0.2246
  751TMC3     C11099   3.630   3.530  10.972 -0.5586  0.1625  0.9096
  751TMC3     O11100   3.535   3.569  11.039 -0.6061 -0.3214  0.8231
  751TMC3     H11101   3.404   3.379  10.940  0.5189  1.4663  0.8809
  751TMC3    H111102   3.758   3.525  10.749  0.2619 -0.1854 -0.9711
  751TMC3    H211103   3.483   3.279  10.526  0.6929 -2.2470  1.1213
  751TMC3    C711104   3.720   3.422  10.516  0.6491 -0.4051  0.6213
  751TMC3    C811105   3.360   3.198  10.731  0.4751 -0.9609 -0.1107
  751TMC3    O111106   3.830   3.470  10.534 -0.3086  0.2536  0.0746
  751TMC3    O211107   3.369   3.122  10.632 -0.2452 -0.3663 -0.4922
  752TMC3    C111108   2.023   3.885  17.176 -0.0488 -0.0757 -0.5170
  752TMC3    C211109   2.048   3.993  17.249 -0.5682  0.5762 -0.0368
  752TMC3    C311110   2.032   3.977  17.378 -0.1306 -0.0412  0.6426
  752TMC3    C411111   1.990   3.769  17.233  0.2603  0.6226 -0.5719
  752TMC3    C511112   1.974   3.760  17.364 -0.1213  0.0943  0.3387
  752TMC3    C611113   1.990   3.867  17.444  0.2056  0.1058 -0.3159
  752TMC3     C11114   2.032   3.894  17.031 -0.1967  0.0980 -0.4730
  752TMC3     O11115   2.106   3.979  16.986 -0.6660  0.6015  0.1571
  752TMC3     H11116   2.076   4.085  17.199  1.0992 -0.1366 -0.4042
  752TMC3    H111117   1.961   3.687  17.169  2.1643 -0.7727  0.3538
  752TMC3    H211118   1.989   3.863  17.552 -0.7431  1.2851 -0.2720
  752TMC3    C711119   1.942   3.631  17.429  0.3041  0.0432  0.2249
  752TMC3    C811120   2.054   4.099  17.458 -0.3018 -0.1711 -0.5580
  752TMC3    O111121   1.870   3.554  17.368 -0.1920 -0.3571  0.6997
  752TMC3    O211122   2.000   4.203  17.429  0.7549 -0.6996  0.5978
  753TMC3    C111123   4.351   0.590  13.463  0.1485  0.1596  0.0845
  753TMC3    C211124   4.387   0.513  13.573  0.0838 -0.6186 -0.2992
  753TMC3    C311125   4.454   0.393  13.543  0.8959 -0.3949 -0.0747
  753TMC3    C411126   4.372   0.548  13.335 -0.1007  0.7189  0.4009
  753TMC3    C511127   4.421   0.422  13.318  0.3079 -0.2328  0.2644
  753TMC3    C611128   4.457   0.336  13.417  0.9180 -1.0650  0.0924
  753TMC3     C11129   4.247   0.694  13.489 -0.6774  0.1477 -0.0669
  753TMC3     O11130   4.214   0.754  13.386 -0.5819  1.0038  0.0514
  753TMC3     H11131   4.385   0.555  13.673 -1.7935 -1.3231 -0.0535
  753TMC3    H111132   4.354   0.612  13.249 -0.6129 -1.7802 -1.3664
  753TMC3    H211133   4.495   0.237  13.398 -1.2575 -1.6297 -1.3632
  753TMC3    C711134   4.405   0.357  13.195 -0.0903  0.0005  0.7679
  753TMC3    C811135   4.496   0.298  13.642 -0.0689  0.1928  0.4789
  753TMC3    O111136   4.465   0.246  13.179 -0.2479  0.2106  0.0060
  753TMC3    O211137   4.494   0.179  13.619 -0.0027 -0.4553  0.0117
  754MPD2     C11138   3.305   3.284  13.313 -0.3483 -0.5689 -0.0908
  754MPD2    C111139   3.266   3.197  13.213 -0.1865  0.2295  0.5115
  754MPD2    C211140   3.176   3.249  13.114  0.4531  0.1417  0.5779
  754MPD2    C311141   3.116   3.368  13.131 -0.8050  0.5854 -0.1594
  754MPD2    C411142   3.158   3.453  13.233 -0.2754 -0.3260  0.5212
  754MPD2    C511143   3.258   3.411  13.314 -0.3657 -0.3681 -0.2823
  754MPD2     H11144   3.166   3.185  13.028  0.6429  1.0110 -0.0916
  754MPD2    H111145   3.118   3.553  13.240  0.5620  0.1382 -1.1780
  754MPD2    H211146   3.372   3.244  13.387  1.9324 -1.5986 -2.7054
  754MPD2    H311147   3.290   3.479  13.392 -1.7976 -0.1432  0.1248
  754MPD2     N11148   3.022   3.415  13.038 -0.5988 -0.0459 -0.3759
  754MPD2    H511149   2.977   3.505  13.054 -0.1237  0.1612 -0.2267
  754MPD2    N111150   3.330   3.073  13.204  0.3965  0.1597 -0.3498
  754MPD2    H711151   3.419   3.074  13.253  1.1688 -0.0967 -1.7406
  755MPD2     C11152   2.593   4.026  13.403  0.5610  0.4605  0.1878
  755MPD2    C111153   2.493   3.934  13.382  0.0380  0.2298  0.1669
  755MPD2    C211154   2.520   3.823  13.306  0.7661 -0.3444  0.1418
  755MPD2    C311155   2.633   3.815  13.232 -0.6727  0.8248  0.5636
  755MPD2    C411156   2.731   3.918  13.239 -0.2071 -0.4151 -0.4543
  755MPD2    C511157   2.709   4.020  13.330 -0.5567 -0.2521  0.4805
  755MPD2     H11158   2.445   3.745  13.301 -0.8534  1.3233 -1.5193
  755MPD2    H111159   2.827   3.913  13.189  0.1240  0.6356  0.0768
  755MPD2    H211160   2.588   4.109  13.472  2.1557 -1.1207  2.2306
  755MPD2    H311161   2.793   4.086  13.349 -1.3175  0.1466  2.4206
  755MPD2     N11162   2.662   3.706  13.156 -0.0436 -0.4062 -0.3824
  755MPD2    H511163   2.757   3.691  13.122 -0.0709 -1.4613  0.0052
  755MPD2    N111164   2.372   3.941  13.454  0.2493 -0.1899 -0.2820
  755MPD2    H711165   2.312   3.860  13.444 -0.2317  0.2037 -0.6053
  756MPD2     C11166   4.413   4.200   9.964 -0.8895 -0.1945  0.1382
  756MPD2    C111167   4.281   4.238   9.988  0.6125 -0.0217 -0.1827
  756MPD2    C211168   4.178   4.182   9.914  0.3248  0.0103 -0.4324
  756MPD2    C311169   4.204   4.079   9.821  0.0263 -0.1997  0.4641
  756MPD2    C411170   4.333   4.049   9.789 -0.4371  0.3888 -0.2285
  756MPD2    C511171   4.436   4.103   9.866 -0.2130 -0.1753  0.4542
  756MPD2     H11172   4.077   4.202   9.947  1.5520  3.6385  1.1640
  756MPD2    H111173   4.360   3.975   9.714  0.2479  1.8552 -1.4300
  756MPD2    H211174   4.499   4.245  10.012 -0.9759  2.5013 -2.2594
  756MPD2    H311175   4.537   4.069   9.847 -0.8844 -2.5791  1.1310
  756MPD2     N11176   4.094   4.010   9.768  0.3694 -0.8135 -0.2786
  756MPD2    H511177   3.999   4.032   9.799  0.7149  0.8874 -0.3979
  756MPD2    N111178   4.240   4.318  10.094 -0.2782 -0.1711 -0.1875
  756MPD2    H711179   4.140   4.325  10.110 -0.3791 -0.3721 -0.7113
  757MPD2     C11180   3.113   4.062   9.797 -0.0251 -0.2121  0.3039
  757MPD2    C111181   3.129   3.925   9.766  0.7032  0.5374  0.2392
  757MPD2    C211182   3.258   3.873   9.737 -0.6497  0.3805 -0.1184
  757MPD2    C311183   3.366   3.958   9.723 -0.3718 -0.8167  0.4571
  757MPD2    C411184   3.346   4.092   9.743 -0.0749  0.5846  0.5300
  757MPD2    C511185   3.224   4.139   9.775 -0.5230  0.2129 -0.1988
  757MPD2     H11186   3.275   3.768   9.721 -0.8063  0.4397 -0.6773
  757MPD2    H111187   3.429   4.161   9.734  0.1048  0.4356  1.0863
  757MPD2    H211188   3.011   4.098   9.802  0.2472  0.5601  0.2583
  757MPD2    H311189   3.215   4.247   9.785  0.9360  0.3338 -0.1240
  757MPD2     N11190   3.487   3.905   9.684  0.0160  0.2001 -0.6072
  757MPD2    H511191   3.488   3.806   9.666  1.0429  0.2210 -0.6873
  757MPD2    N111192   3.009   3.846   9.772 -0.2496  0.1093  0.2748
  757MPD2    H711193   2.921   3.894   9.785 -0.0008  0.0508  2.1662
  758MPD2     C11194   2.638   3.652  16.423 -0.2595 -0.2988 -0.6736
  758MPD2    C111195   2.706   3.610  16.532  0.7080 -0.0968  0.2913
  758MPD2    C211196   2.669   3.653  16.654 -0.0070 -0.4186 -0.1782
  758MPD2    C311197   2.564   3.744  16.673  0.3090 -0.1022  0.0275
  758MPD2    C411198   2.495   3.796  16.564  0.1139 -0.1415 -0.4244
  758MPD2    C511199   2.527   3.742  16.443  0.1210 -0.4202  0.4871
  758MPD2     H11200   2.728   3.635  16.744  0.3231 -0.9149 -0.4951
  758MPD2    H111201   2.405   3.853  16.580  0.9333  1.2414 -0.7270
  758MPD2    H211202   2.667   3.623  16.323  1.0559 -2.0110  0.2049
  758MPD2    H311203   2.465   3.777  16.361 -0.8174 -0.4006  1.2133
  758MPD2     N11204   2.530   3.778  16.807  0.2306 -0.0493  0.3935
  758MPD2    H511205   2.592   3.745  16.880 -0.4131  0.5741  1.2115
  758MPD2    N111206   2.820   3.523  16.515 -0.1250  0.5751 -0.3639
  758MPD2    H711207   2.853   3.510  16.420  0.8320  0.5272 -0.0258
  759MPD2     C11208   2.371   1.119   9.955  0.5433 -0.2818  0.7739
  759MPD2    C111209   2.352   0.994   9.901 -0.2378  0.3065 -0.0350
  759MPD2    C211210   2.337   0.988   9.766  0.7176  0.4638 -0.0859
  759MPD2    C311211   2.343   1.100   9.687 -0.2651 -0.5247  0.2617
  759MPD2    C411212   2.385   1.223   9.736  0.1767 -0.5827  0.4437
  759MPD2    C511213   2.400   1.226   9.871  0.2756 -0.2242  0.0147
  759MPD2     H11214   2.307   0.893   9.722  0.7277  0.9567 -1.1693
  759MPD2    H111215   2.385   1.319   9.686 -1.1791 -0.6928  0.2095
  759MPD2    H211216   2.377   1.130  10.063 -0.8649  0.5366  0.7701
  759MPD2    H311217   2.413   1.325   9.914 -1.3748 -0.1317  0.2986
  759MPD2     N11218   2.326   1.076   9.552 -0.4622  0.3927 -1.1729
  759MPD2    H511219   2.298   0.983   9.522  0.0484 -0.6268  1.5355
  759MPD2    N111220   2.334   0.874   9.980  0.5185  0.7122  0.2745
  759MPD2    H711221   2.324   0.788   9.926  0.5820  0.7652  0.1777
  760MPD2     C11222   1.524   3.519  11.469  0.0632 -0.7762 -0.4863
  760MPD2    C111223   1.651   3.507  11.533 -0.0353 -0.3763 -0.8266
  760MPD2    C211224   1.699   3.384  11.577 -0.2562 -0.3416  0.8079
  760MPD2    C311225   1.634   3.271  11.536  0.4779 -0.8162 -0.2811
  760MPD2    C411226   1.505   3.284  11.478  0.1304  0.2319  0.4462
  760MPD2    C511227   1.450   3.404  11.451  0.0477 -0.4578  0.5156
  760MPD2     H11228   1.794   3.373  11.628  0.1089  0.0174  0.2067
  760MPD2    H111229   1.458   3.194  11.440 -0.2246  0.7374 -0.3151
  760MPD2    H211230   1.480   3.613  11.438 -0.0438  0.5407  3.7431
  760MPD2    H311231   1.346   3.411  11.421  0.8002  0.3298 -1.9296
  760MPD2     N11232   1.699   3.139  11.555  0.7807  0.1018 -0.5499
  760MPD2    H511233   1.637   3.059  11.553 -1.8567  2.1266  0.0587
  760MPD2    N111234   1.731   3.619  11.570 -0.2598 -0.0704  0.0628
  760MPD2    H711235   1.801   3.606  11.642 -0.1919 -1.5374 -0.2616
  761MPD2     C11236   3.125   2.833  10.997  0.1476 -0.7451  0.4915
  761MPD2    C111237   3.196   2.817  10.884 -0.0557  0.3666 -0.2660
  761MPD2    C211238   3.252   2.928  10.831  0.7207  0.0102 -0.5340
  761MPD2    C311239   3.253   3.048  10.901 -1.1554 -0.0142  0.6454
  761MPD2    C411240   3.183   3.058  11.018  0.3663  0.1809 -0.4942
  761MPD2    C511241   3.128   2.949  11.075  0.4123  0.3546  0.6795
  761MPD2     H11242   3.313   2.930  10.741  1.2718 -1.4316 -0.1939
  761MPD2    H111243   3.178   3.146  11.081  1.5175  0.3185 -0.5877
  761MPD2    H211244   3.067   2.748  11.029 -2.5986  0.8056 -0.3196
  761MPD2    H311245   3.077   2.951  11.171  0.4669 -4.1591  0.8287
  761MPD2     N11246   3.310   3.169  10.856 -0.1758 -0.2855  0.1488
  761MPD2    H511247   3.312   3.241  10.928  1.2015 -1.7723  1.5830
  761MPD2    N111248   3.185   2.694  10.819  0.2462  0.0718 -0.0544
  761MPD2    H711249   3.189   2.605  10.868  0.9531 -2.2059 -4.2662
  762MPD2     C11250   3.533   2.859  10.187  0.1978  0.4111  0.4089
  762MPD2    C111251   3.577   2.734  10.227 -0.4077 -0.1648 -0.0322
  762MPD2    C211252   3.707   2.692  10.193 -0.2578  0.7742  0.4527
  762MPD2    C311253   3.790   2.778  10.126 -0.2712 -0.7158 -0.5194
  762MPD2    C411254   3.735   2.889  10.080  0.0892 -0.3036  0.2733
  762MPD2    C511255   3.615   2.941  10.114  0.2285 -0.6880 -0.4592
  762MPD2     H11256   3.740   2.596  10.233 -1.7271 -0.1526 -0.5602
  762MPD2    H111257   3.796   2.951  10.016  0.9937  0.7725  2.1605
  762MPD2    H211258   3.436   2.895  10.217  0.3958  1.6238 -0.3893
  762MPD2    H311259   3.583   3.039  10.080  1.9613 -1.3190 -3.8223
  762MPD2     N11260   3.914   2.725  10.081  0.0895  0.0160 -0.1373
  762MPD2    H511261   3.939   2.638  10.126 -1.7946 -1.2463 -1.5164
  762MPD2    N111262   3.486   2.664  10.307  0.3193  1.4241  0.3028
  762MPD2    H711263   3.400   2.709  10.334 -1.9826 -2.5881 -0.3338
  763MPD2     C11264   0.448   3.196  16.005  0.5980 -0.1514  0.0172
  763MPD2    C111265   0.339   3.267  15.978 -0.3418 -0.0493 -0.0553
  763MPD2    C211266   0.304   3.365  16.061  0.1931 -0.0907  0.1160
  763MPD2    C311267   0.383   3.389  16.170 -0.1073 -0.6901  0.7018
  763MPD2    C411268   0.485   3.307  16.197 -0.1087  0.3457 -0.0420
  763MPD2    C511269   0.521   3.208  16.116  0.2223  0.2488  0.2414
  763MPD2     H11270   0.219   3.429  16.040  2.0971  1.0319 -4.1291
  763MPD2    H111271   0.559   3.337  16.271 -1.2191  0.3101  1.0703
  763MPD2    H211272   0.491   3.120  15.941 -1.2666  0.4226 -1.9082
  763MPD2    H311273   0.613   3.151  16.127  0.5741  0.7936  0.1286
  763MPD2     N11274   0.377   3.504  16.252  0.4317  0.0228 -0.1180
  763MPD2    H511275   0.440   3.493  16.331  0.7038 -0.4422 -0.4034
  763MPD2    N111276   0.268   3.236  15.861  0.3120  0.7928  0.1396
  763MPD2    H711277   0.191   3.295  15.832  0.4747  1.3595  0.8428
  764MPD2     C11278   3.274   0.330  16.949 -0.2168  0.2171  0.1719
  764MPD2    C111279   3.153   0.307  17.006 -0.2259 -0.5195 -0.3111
  764MPD2    C211280   3.132   0.224  17.117 -0.5869  0.1588 -0.5875
  764MPD2    C311281   3.242   0.155  17.166  0.0477 -0.0564  0.2256
  764MPD2    C411282   3.368   0.177  17.110 -0.6413 -0.2764  0.0181
  764MPD2    C511283   3.384   0.261  16.999  0.2925 -0.6820 -0.1759
  764MPD2     H11284   3.039   0.196  17.165  0.7729  1.2071  2.6994
  764MPD2    H111285   3.450   0.115  17.145 -0.9464 -0.4868  0.3618
  764MPD2    H211286   3.279   0.402  16.868  1.4763 -1.1455 -0.9264
  764MPD2    H311287   3.485   0.265  16.960  0.7927  0.1850  1.2062
  764MPD2     N11288   3.215   0.070  17.285  1.1127  0.6412 -0.1851
  764MPD2    H511289   3.124   0.063  17.331  1.1266  1.6237  0.0112
  764MPD2    N111290   3.032   0.360  16.944  0.7939  0.2689  0.6002
  764MPD2    H711291   2.947   0.328  16.989  0.2701 -0.6620 -1.0856
  765MPD2     C11292   2.243   2.238  15.548  0.5621 -0.0832  0.0492
  765MPD2    C111293   2.331   2.329  15.596 -0.3876 -0.2616  0.4805
  765MPD2    C211294   2.461   2.330  15.541 -0.6468 -0.3877 -0.0078
  765MPD2    C311295   2.499   2.246  15.442 -0.0658  0.2389  0.3242
  765MPD2    C411296   2.403   2.162  15.396  0.6475  0.6721 -0.3226
  765MPD2    C511297   2.275   2.162  15.443 -0.1479 -0.2074 -0.6781
  765MPD2     H11298   2.537   2.400  15.572 -0.8787  0.2176 -0.8041
  765MPD2    H111299   2.424   2.085  15.323 -0.8576  0.2076 -0.2728
  765MPD2    H211300   2.149   2.227  15.601 -0.2048  1.3282 -1.0142
  765MPD2    H311301   2.201   2.090  15.412  0.2543 -1.0417  0.2975
  765MPD2     N11302   2.621   2.268  15.378  0.1097  0.0019 -0.1968
  765MPD2    H511303   2.694   2.323  15.423 -0.7392  0.3932  0.7137
  765MPD2    N111304   2.290   2.399  15.711  0.2844 -0.0286  0.2870
  765MPD2    H711305   2.191   2.384  15.725  0.0131  1.6993  0.2766
  766MPD2     C11306   1.860   2.555  15.391 -0.4412 -1.0327  0.7991
  766MPD2    C111307   1.993   2.606  15.387  0.1541  0.1625 -0.3811
  766MPD2    C211308   2.051   2.632  15.267  1.0176  0.1691 -0.0261
  766MPD2    C311309   1.987   2.599  15.147  0.6630 -0.4628 -0.0948
  766MPD2    C411310   1.866   2.545  15.153  0.2048  0.2787  0.1530
  766MPD2    C511311   1.796   2.532  15.270 -0.3674 -0.4152 -0.0867
  766MPD2     H11312   2.155   2.662  15.270  0.7097  1.2470 -0.1741
  766MPD2    H111313   1.818   2.512  15.062 -0.7046  0.5910  0.5186
  766MPD2    H211314   1.808   2.520  15.480 -1.1334  0.0165  0.8022
  766MPD2    H311315   1.692   2.502  15.273 -0.8997  1.5748  1.2732
  766MPD2     N11316   2.061   2.606  15.025 -0.0857  0.1415 -0.1417
  766MPD2    H511317   2.004   2.562  14.953  0.3245  2.5891 -1.9364
  766MPD2    N111318   2.066   2.639  15.498  0.6308 -0.1378 -0.3486
  766MPD2    H711319   2.150   2.696  15.495 -0.0822  0.9593  0.7467
  767MPD2     C11320   1.767   3.095  14.960 -0.2112  0.0356  1.2364
  767MPD2    C111321   1.891   3.055  14.903  0.2506  0.4338  0.0769
  767MPD2    C211322   1.899   3.012  14.768 -0.0639 -1.1385 -0.1270
  767MPD2    C311323   1.787   2.993  14.691  0.3934 -0.1283  0.2090
  767MPD2    C411324   1.664   3.004  14.755 -0.7693  0.5414  0.0457
  767MPD2    C511325   1.659   3.056  14.887 -0.2256 -0.1846 -0.2467
  767MPD2     H11326   1.998   2.987  14.732  0.3887  0.0274  0.3362
  767MPD2    H111327   1.572   2.974  14.707 -0.8321  1.6932 -0.5554
  767MPD2    H211328   1.748   3.144  15.054 -1.8758  0.6670  0.5600
  767MPD2    H311329   1.564   3.083  14.930 -1.4188 -1.3272 -2.1683
  767MPD2     N11330   1.802   2.951  14.556 -0.1197 -1.1951 -0.3125
  767MPD2    H511331   1.896   2.929  14.525 -0.7440 -0.6700 -2.6204
  767MPD2    N111332   2.012   3.065  14.980  0.3017  0.1160  0.0195
  767MPD2    H711333   2.101   3.072  14.931 -0.9774  1.2498 -2.1254
  768MPD2     C11334   3.606   1.577  10.344  0.0664 -0.8413  0.5231
  768MPD2    C111335   3.540   1.483  10.420  0.5020  0.0876  0.8021
  768MPD2    C211336   3.598   1.431  10.529 -0.5506 -0.4893  0.6438
  768MPD2    C311337   3.723   1.456  10.570  0.0109 -0.0539  0.4707
  768MPD2    C411338   3.789   1.555  10.496  0.1321  0.4218  0.6582
  768MPD2    C511339   3.728   1.620  10.392 -0.0940  0.6870 -0.5674
  768MPD2     H11340   3.544   1.356  10.585  3.0278 -1.6697  2.5439
  768MPD2    H111341   3.883   1.592  10.534  2.0073 -2.4892 -1.1133
  768MPD2    H211342   3.582   1.616  10.246 -0.0042  4.4665  2.6156
  768MPD2    H311343   3.783   1.693  10.334  0.7252 -0.7582 -1.6022
  768MPD2     N11344   3.769   1.413  10.695 -0.9030 -0.1564 -0.0529
  768MPD2    H511345   3.846   1.463  10.737 -0.3443 -0.6850 -0.4509
  768MPD2    N111346   3.408   1.431  10.392  0.4081  0.4581  0.7768
  768MPD2    H711347   3.377   1.351  10.447 -1.4536  1.1414  0.7287
  769MPD2     C11348   3.828   4.044  14.727 -0.8138 -0.3643  0.2919
  769MPD2    C111349   3.877   3.941  14.796 -0.0448 -0.0349  0.9335
  769MPD2    C211350   3.964   3.952  14.901 -0.2496 -0.2877  0.2456
  769MPD2    C311351   4.004   4.073  14.948  0.1789  0.1203  0.2096
  769MPD2    C411352   3.953   4.185  14.884 -0.3451  0.2870  0.0415
  769MPD2    C511353   3.870   4.168  14.773  0.7004  0.4335  0.4596
  769MPD2     H11354   4.004   3.871  14.960 -2.1791 -1.6500 -0.3222
  769MPD2    H111355   3.983   4.283  14.918  0.1774  0.7337 -1.7177
  769MPD2    H211356   3.764   4.039  14.640  1.3110  0.3898 -1.3195
  769MPD2    H311357   3.816   4.254  14.735  2.1882  1.7264  1.2706
  769MPD2     N11358   4.101   4.081  15.050  0.1845 -0.5143 -0.6947
  769MPD2    H511359   4.126   3.996  15.099  0.6551  0.1845  0.2862
  769MPD2    N111360   3.836   3.820  14.741  0.2508 -0.1880  1.4428
  769MPD2    H711361   3.782   3.819  14.655  1.0184 -0.9573  0.9618
  770MPD2     C11362   3.332   2.881  14.954  0.1092  0.2162  0.3501
  770MPD2    C111363   3.380   2.977  15.033 -0.2030  0.3451  0.5394
  770MPD2    C211364   3.469   3.069  14.983  0.2396  0.3861 -0.7218
  770MPD2    C311365   3.498   3.078  14.840 -0.7580 -0.6419  0.2395
  770MPD2    C411366   3.436   2.981  14.761 -0.4967 -0.1560 -0.5977
  770MPD2    C511367   3.368   2.880  14.823 -0.5840  0.4517 -0.1638
  770MPD2     H11368   3.492   3.155  15.044 -0.6897  0.0356  0.1213
  770MPD2    H111369   3.473   2.986  14.659  1.0025 -2.9271 -0.2003
  770MPD2    H211370   3.260   2.805  14.982 -1.1696  0.7994 -1.3447
  770MPD2    H311371   3.339   2.798  14.759 -0.9526  1.6834 -1.5745
  770MPD2     N11372   3.568   3.181  14.771 -0.4431 -0.2018 -0.6328
  770MPD2    H511373   3.580   3.170  14.671  3.9753  2.7559 -0.4381
  770MPD2    N111374   3.334   2.989  15.165  0.1384  0.2297 -0.3214
  770MPD2    H711375   3.259   2.930  15.198 -0.5264 -0.3493 -2.8992
  771MPD2     C11376   4.548   1.972  13.359  0.0693  0.6175  0.2387
  771MPD2    C111377   4.528   2.096  13.300  0.0802  1.2711 -0.3108
  771MPD2    C211378   4.453   2.110  13.189 -0.4026 -0.0992  0.0108
  771MPD2    C311379   4.385   2.003  13.131 -0.4953  0.2473  0.0311
  771MPD2    C411380   4.404   1.882  13.191 -0.2525 -0.3165 -0.2340
  771MPD2    C511381   4.473   1.869  13.310 -0.4208 -0.1551  0.4374
  771MPD2     H11382   4.446   2.209  13.145 -1.6533 -0.5070 -0.7383
  771MPD2    H111383   4.363   1.791  13.150  1.9603 -1.7630  0.8086
  771MPD2    H211384   4.619   1.957  13.440  1.4822  0.6174 -0.9808
  771MPD2    H311385   4.473   1.770  13.353 -2.6564 -1.1763 -1.9039
  771MPD2     N11386   4.301   2.039  13.027 -0.2084 -0.5305  0.4673
  771MPD2    H511387   4.288   2.139  13.013  0.1970 -0.4957  0.3541
  771MPD2    N111388   4.586   2.206  13.357 -0.0276 -0.6795 -0.3457
  771MPD2    H711389   4.558   2.295  13.317 -3.2617 -1.2114  0.7539
  772MPD2     C11390   4.460   2.946  13.768  1.0934 -0.0446  0.6903
  772MPD2    C111391   4.430   2.809  13.735 -0.8222  0.2174 -0.0740
  772MPD2    C211392   4.313   2.752  13.790 -0.0896 -0.1624  0.3702
  772MPD2    C311393   4.235   2.827  13.872 -0.1210  0.0207 -0.7333
  772MPD2    C411394   4.280   2.949  13.923 -0.1044 -0.6413  0.4632
  772MPD2    C511395   4.386   3.008  13.861 -0.2988 -0.3118  0.3578
  772MPD2     H11396   4.281   2.650  13.773  2.2493 -1.2209  2.1574
  772MPD2    H111397   4.218   2.996  13.998  1.5332  1.3716  0.5473
  772MPD2    H211398   4.547   2.994  13.725  0.9549 -0.8580 -0.4992
  772MPD2    H311399   4.412   3.112  13.876 -0.7178 -0.3696  1.4944
  772MPD2     N11400   4.111   2.787  13.921  0.4672 -0.2591 -0.6064
  772MPD2    H511401   4.050   2.851  13.971 -0.3505 -1.1467 -0.4575
  772MPD2    N111402   4.516   2.744  13.641  0.3627 -0.0851  0.7390
  772MPD2    H711403   4.594   2.804  13.613 -0.7401  0.6323 -0.7838
  773MPD2     C11404   3.778   3.927  17.236  0.4869 -0.3518  0.5397
  773MPD2    C111405   3.724   3.977  17.350  0.3612 -0.0370  0.3109
  773MPD2    C211406   3.777   3.946  17.473  0.2057  0.0151 -0.4643
  773MPD2    C311407   3.881   3.860  17.483  0.0351 -0.0711  0.1387
  773MPD2    C411408   3.951   3.824  17.367 -0.2527 -0.1598 -0.3785
  773MPD2    C511409   3.892   3.857  17.248 -0.9857  0.0515  0.9617
  773MPD2     H11410   3.726   3.971  17.565  1.9953 -1.6797  0.9931
  773MPD2    H111411   4.036   3.756  17.368 -1.5395 -1.7855 -1.8958
  773MPD2    H211412   3.742   3.944  17.136  1.0928  2.5997  0.8378
  773MPD2    H311413   3.939   3.819  17.157  1.6821 -0.1498  2.4340
  773MPD2     N11414   3.935   3.815  17.600  0.3330  0.5746 -0.2882
  773MPD2    H511415   3.912   3.872  17.681 -0.2187 -1.2224  0.8432
  773MPD2    N111416   3.596   4.035  17.353 -0.8647 -0.0327 -0.0743
  773MPD2    H711417   3.544   4.021  17.439  1.6706  1.7737  1.7540
  774MPD2     C11418   2.856   2.242  13.017 -0.2420  0.4351 -0.1805
  774MPD2    C111419   2.796   2.334  13.105 -0.3962 -0.0764 -0.4465
  774MPD2    C211420   2.813   2.473  13.082  0.4203  0.8180 -0.9443
  774MPD2    C311421   2.883   2.525  12.972 -0.4618 -0.2513 -0.3216
  774MPD2    C411422   2.947   2.425  12.895 -0.5102  0.2620  0.1667
  774MPD2    C511423   2.918   2.293  12.907  1.0460 -0.4009 -0.7872
  774MPD2     H11424   2.768   2.545  13.150  0.4128  1.1488 -1.2958
  774MPD2    H111425   3.010   2.459  12.814 -2.1965  2.1219 -0.3554
  774MPD2    H211426   2.833   2.136  13.023  0.4938  0.2195 -1.1741
  774MPD2    H311427   2.972   2.216  12.852 -0.6447 -2.1101 -0.0188
  774MPD2     N11428   2.894   2.664  12.961  0.8383  0.2139 -0.3285
  774MPD2    H511429   2.839   2.709  13.033 -2.7006 -1.1337 -2.1768
  774MPD2    N111430   2.734   2.287  13.216  0.1849  0.0886  0.3002
  774MPD2    H711431   2.736   2.189  13.243 -1.6536  0.4841  1.8838
  775MPD2     C11432   4.336   3.940  15.805 -0.0321  0.0840  0.0257
  775MPD2    C111433   4.291   4.074  15.825 -0.4061 -0.7737  0.0238
  775MPD2    C211434   4.382   4.179  15.803  0.6337  0.2111 -0.3676
  775MPD2    C311435   4.510   4.157  15.772  0.2777  0.6353  0.1129
  775MPD2    C411436   4.554   4.031  15.756  0.8069 -0.1791  0.0311
  775MPD2    C511437   4.470   3.922  15.769  0.7050 -0.0243 -1.0131
  775MPD2     H11438   4.344   4.280  15.811  0.8673  0.3754 -1.3355
  775MPD2    H111439   4.658   4.024  15.727  0.4885 -0.0627 -1.1362
  775MPD2    H211440   4.254   3.870  15.796 -0.0976  0.0629  0.7592
  775MPD2    H311441   4.514   3.823  15.769  2.7173  0.8663  1.6274
  775MPD2     N11442   4.600   4.264  15.738  0.3815  0.2943  0.7088
  775MPD2    H511443   4.693   4.238  15.706 -0.1002 -0.8672  0.2479
  775MPD2    N111444   4.157   4.099  15.860 -0.1844 -0.0147  0.0424
  775MPD2    H711445   4.103   4.016  15.883  1.4984 -1.2463 -0.4435
  776MPD2     C11446   3.987   4.308  11.992  0.2709  0.4066 -0.1392
  776MPD2    C111447   3.891   4.304  11.891 -0.1332 -0.1505  0.0243
  776MPD2    C211448   3.873   4.420  11.819  0.0785  0.2853 -0.3992
  776MPD2    C311449   3.924   4.547  11.857 -0.2314 -0.3780 -0.7317
  776MPD2    C411450   4.024   4.538  11.947 -0.4817 -0.3363 -0.2075
  776MPD2    C511451   4.051   4.424  12.016 -1.0168 -0.0007 -0.0664
  776MPD2     H11452   3.825   4.418  11.722 -0.8654 -2.1246  0.1263
  776MPD2    H111453   4.068   4.629  11.985 -0.4569  0.1460 -1.3686
  776MPD2    H211454   4.012   4.226  12.058  0.5846  0.3756 -0.3000
  776MPD2    H311455   4.114   4.427  12.104  0.1122 -0.8900 -0.8366
  776MPD2     N11456   3.900   4.667  11.780 -0.6930 -0.3547 -0.0871
  776MPD2    H511457   3.973   0.014  11.767  0.2650 -1.4988 -0.8091
  776MPD2    N111458   3.825   4.182  11.861 -0.5853 -0.5770  0.1346
  776MPD2    H711459   3.825   4.104  11.926 -1.2531  1.4106  2.4988
  777MPD2     C11460   4.340   2.225   0.791 -0.4789  0.1598  0.2486
  777MPD2    C111461   4.302   2.120   0.871  0.1495 -0.9593  0.0431
  777MPD2    C211462   4.279   2.001   0.805 -0.2590 -0.4521  0.5910
  777MPD2    C311463   4.276   1.995   0.662 -0.6741  0.2842 -0.4275
  777MPD2    C411464   4.303   2.104   0.586  0.5581  0.1037 -0.1582
  777MPD2    C511465   4.335   2.220   0.657  0.6156 -0.3551 -0.4415
  777MPD2     H11466   4.251   1.913   0.861  1.5433 -1.1359  0.4276
  777MPD2    H111467   4.298   2.112   0.478  1.8602  0.9547 -0.1584
  777MPD2    H211468   4.380   2.317   0.832  0.6245 -0.0844 -0.2957
  777MPD2    H311469   4.373   2.304   0.599 -0.3154 -0.1771 -0.8018
  777MPD2     N11470   4.253   1.866   0.614  0.3429 -0.1202 -0.8580
  777MPD2    H511471   4.242   1.797   0.688  1.0462  1.0446  0.3316
  777MPD2    N111472   4.298   2.144   1.008 -0.4161 -0.7724  0.0166
  777MPD2    H711473   4.310   2.239   1.042 -3.4622 -0.7418  1.0038
  778MPD2     C11474   4.341   1.838  15.186 -0.2237  0.1245  0.7981
  778MPD2    C111475   4.272   1.854  15.067 -0.1225 -0.1376  0.3793
  778MPD2    C211476   4.329   1.934  14.968  0.6151 -0.0913  0.0975
  778MPD2    C311477   4.451   1.995  14.983  0.5723  0.3603  0.2220
  778MPD2    C411478   4.519   1.979  15.098  0.2251 -0.1924 -0.0255
  778MPD2    C511479   4.462   1.904  15.198 -0.9106 -0.3527  0.0167
  778MPD2     H11480   4.270   1.945  14.878  0.1907 -0.6414  0.3063
  778MPD2    H111481   4.616   2.025  15.112 -0.2003  0.5377  0.4766
  778MPD2    H211482   4.310   1.772  15.267 -0.8606 -1.4938 -0.7611
  778MPD2    H311483   4.513   1.898  15.294  1.2360  1.1871 -1.0218
  778MPD2     N11484   4.498   2.088  14.887  0.0754 -0.4051  0.2782
  778MPD2    H511485   4.444   2.093  14.801 -0.5805 -0.5222  0.6840
  778MPD2    N111486   4.147   1.795  15.042 -0.0045 -1.1128 -0.6749
  778MPD2    H711487   4.120   1.783  14.945 -0.5559  1.6791 -0.8547
  779MPD2     C11488   4.211   0.959  14.565  0.3630  0.2262 -0.5458
  779MPD2    C111489   4.308   0.956  14.473  0.2174 -0.4336  0.2012
  779MPD2    C211490   4.335   1.068  14.393 -0.0425 -0.3393 -0.1314
  779MPD2    C311491   4.254   1.182  14.412  0.2458  0.1007  0.5182
  779MPD2    C411492   4.149   1.183  14.500 -0.1195 -0.2668 -0.2470
  779MPD2    C511493   4.140   1.072  14.582 -0.0810 -0.2089  0.4962
  779MPD2     H11494   4.418   1.075  14.324  0.2955  2.1669  0.5075
  779MPD2    H111495   4.088   1.271  14.519  1.5417  0.5960  1.0852
  779MPD2    H211496   4.204   0.877  14.637 -0.3838  0.8402  0.0892
  779MPD2    H311497   4.064   1.074  14.659  1.1421  2.9562  1.5786
  779MPD2     N11498   4.289   1.296  14.334 -0.0160  0.4066 -0.1556
  779MPD2    H511499   4.369   1.290  14.271 -0.1800 -1.9638 -0.1462
  779MPD2    N111500   4.384   0.841  14.461  0.3438  0.1096 -0.2360
  779MPD2    H711501   4.449   0.832  14.383 -1.3178 -1.8997 -1.3795
  780MPD2     C11502   3.399   1.168   0.317 -0.0384  0.0210  0.5692
  780MPD2    C111503   3.513   1.125   0.386 -0.0371 -0.7526 -0.1625
  780MPD2    C211504   3.640   1.145   0.332  0.4783 -0.1300  0.2155
  780MPD2    C311505   3.653   1.202   0.206 -0.3137  0.0307  0.4476
  780MPD2    C411506   3.537   1.254   0.147  0.1983 -0.0830  0.7045
  780MPD2    C511507   3.413   1.246   0.207 -0.1824 -0.1574 -0.3250
  780MPD2     H11508   3.730   1.102   0.373  1.5768 -0.1539 -2.2180
  780MPD2    H111509   3.548   1.320   0.061 -0.2311  0.5203  1.1155
  780MPD2    H211510   3.302   1.150   0.361 -0.3145 -1.3989 -0.6162
  780MPD2    H311511   3.326   1.280   0.152 -1.0896 -3.6153 -1.0504
  780MPD2     N11512   3.777   1.211   0.138  0.2474 -0.3249 -0.4209
  780MPD2    H511513   3.854   1.181   0.198 -0.4082 -1.1133  0.0323
  780MPD2    N111514   3.496   1.056   0.504  0.2655  0.0709  0.3803
  780MPD2    H711515   3.402   1.060   0.542 -0.1758  0.0501 -0.7088
  781MPD2     C11516   1.424   2.907  11.437 -0.3540  0.5041 -0.4540
  781MPD2    C111517   1.492   2.825  11.520  0.5778 -0.0244  0.2124
  781MPD2    C211518   1.604   2.755  11.477  0.8609 -0.5529 -0.4106
  781MPD2    C311519   1.659   2.790  11.355 -0.2690  0.2316 -0.3057
  781MPD2    C411520   1.592   2.874  11.269  0.6105  0.2027  0.9887
  781MPD2    C511521   1.475   2.934  11.307  0.1880 -0.2614  1.0061
  781MPD2     H11522   1.648   2.681  11.543  3.2303  0.9828 -0.2441
  781MPD2    H111523   1.639   2.894  11.174 -0.8660 -0.1860  0.1819
  781MPD2    H211524   1.334   2.960  11.463 -1.2650  0.1572 -2.8876
  781MPD2    H311525   1.413   2.989  11.237 -0.3088 -1.3520  0.5798
  781MPD2     N11526   1.782   2.733  11.321  0.1702 -0.5965 -0.1308
  781MPD2    H511527   1.822   2.773  11.237  0.6934  0.0461  0.4178
  781MPD2    N111528   1.443   2.804  11.652 -0.4139  0.3800 -0.3522
  781MPD2    H711529   1.501   2.750  11.715 -1.1569 -1.9678 -1.6924
  782MPD2     C11530   3.981   4.102  10.472 -1.4832  0.4615  0.1265
  782MPD2    C111531   4.115   4.080  10.450 -0.0093  0.2695  0.0927
  782MPD2    C211532   4.202   4.080  10.553  0.5595 -0.4504  0.4925
  782MPD2    C311533   4.163   4.130  10.678  0.0585  0.1523  0.3247
  782MPD2    C411534   4.030   4.160  10.694  0.0582  0.1052  0.3333
  782MPD2    C511535   3.937   4.142  10.596  0.2206 -0.0870 -0.3305
  782MPD2     H11536   4.304   4.047  10.538 -0.0997 -1.4575 -1.9303
  782MPD2    H111537   4.001   4.205  10.788 -1.7058 -0.6508  0.1446
  782MPD2    H211538   3.904   4.091  10.397 -1.5613  2.1523 -0.0559
  782MPD2    H311539   3.834   4.170  10.614 -0.7685 -2.9404 -1.5978
  782MPD2     N11540   4.251   4.135  10.793  0.1424  0.0190 -0.1880
  782MPD2    H511541   4.212   4.141  10.886 -0.0319  0.1748 -0.2707
  782MPD2    N111542   4.154   4.022  10.331  0.1097 -0.6563 -0.3550
  782MPD2    H711543   4.237   3.965  10.334  1.3183  1.0867 -0.4092
  783MPD2     C11544   3.676   3.301  10.176  0.2181  0.1051  0.2523
  783MPD2    C111545   3.724   3.389  10.270  0.3156  0.4458  0.9199
  783MPD2    C211546   3.825   3.475  10.239 -0.3753  0.1348 -0.4264
  783MPD2    C311547   3.875   3.484  10.110  0.1108 -0.4654 -0.1704
  783MPD2    C411548   3.812   3.408  10.016  0.0999  0.8479 -0.4524
  783MPD2    C511549   3.723   3.316  10.049 -0.3842  0.0332  0.8476
  783MPD2     H11550   3.853   3.547  10.316  3.2488 -0.1635 -1.4785
  783MPD2    H111551   3.829   3.417   9.910 -1.4404 -0.1485 -0.7931
  783MPD2    H211552   3.586   3.245  10.196  0.6932 -0.6221  0.3334
  783MPD2    H311553   3.672   3.259   9.972  1.7475 -0.5926 -0.1048
  783MPD2     N11554   3.953   3.595  10.080 -0.2460  0.2091  0.1972
  783MPD2    H511555   3.963   3.671  10.147 -2.6833 -0.3003  1.1330
  783MPD2    N111556   3.668   3.372  10.400  0.4501  0.3340  0.1978
  783MPD2    H711557   3.585   3.313  10.404  0.9451 -0.4555 -1.5195
  784MPD2     C11558   1.767   0.774   0.446 -0.2365  0.0548 -0.4964
  784MPD2    C111559   1.711   0.710   0.555  0.8838  0.3281  0.2041
  784MPD2    C211560   1.640   0.590   0.536  0.7582 -1.0014  0.0034
  784MPD2    C311561   1.592   0.551   0.412  0.7140 -0.3118 -0.0884
  784MPD2    C411562   1.644   0.625   0.308 -0.7511 -0.2171  0.2203
  784MPD2    C511563   1.716   0.740   0.324  0.1011  0.4912 -0.2207
  784MPD2     H11564   1.607   0.543   0.628 -1.0755 -0.0578 -0.1826
  784MPD2    H111565   1.647   0.578   0.210  0.6462 -1.1777  0.7202
  784MPD2    H211566   1.837   0.857   0.450  0.0793 -0.2616  0.4293
  784MPD2    H311567   1.753   0.792   0.236  1.9550 -2.0775 -0.9728
  784MPD2     N11568   1.527   0.422   0.403 -0.2937  0.2007 -0.4025
  784MPD2    H511569   1.534   0.366   0.488 -1.8109 -2.2152 -1.8990
  784MPD2    N111570   1.750   0.742   0.686 -0.4486 -0.2398  0.3690
  784MPD2    H711571   1.718   0.681   0.760 -0.4562 -0.7925 -0.0842
  785MPD2     C11572   1.724   2.127  10.228  0.4718 -0.2817 -0.1260
  785MPD2    C111573   1.671   2.222  10.315 -0.1457 -0.0413 -0.2385
  785MPD2    C211574   1.536   2.245  10.314 -0.7755 -0.2926  0.0628
  785MPD2    C311575   1.446   2.188  10.223 -0.6810  0.8004 -0.5018
  785MPD2    C411576   1.498   2.096  10.137 -0.7308 -0.2085  0.0475
  785MPD2    C511577   1.629   2.067  10.143  0.5329  0.4414  0.0435
  785MPD2     H11578   1.501   2.320  10.384  0.5222  0.2868  0.0876
  785MPD2    H111579   1.440   2.043  10.062  0.8423 -0.7678 -0.7911
  785MPD2    H211580   1.830   2.103  10.224  0.3472 -0.9845  0.8916
  785MPD2    H311581   1.657   1.996  10.065 -2.7226 -1.4005  0.5676
  785MPD2     N11582   1.322   2.241  10.204 -0.0489  0.1232 -0.1381
  785MPD2    H511583   1.293   2.310  10.272 -3.2698 -1.0730 -0.3072
  785MPD2    N111584   1.745   2.314  10.393 -0.5899  0.1497 -0.7428
  785MPD2    H711585   1.693   2.384  10.445 -0.5125 -0.6389  0.3952
  786MPD2     C11586   0.066   0.364  14.695 -0.2326  1.0238  0.0753
  786MPD2    C111587   0.193   0.355  14.646  0.4481 -0.1693  0.2982
  786MPD2    C211588   0.294   0.404  14.729  0.5043  0.4809  0.5868
  786MPD2    C311589   0.272   0.456  14.854  0.4388 -0.4796  0.0452
  786MPD2    C411590   0.140   0.463  14.895 -0.5414 -0.0058 -0.3987
  786MPD2    C511591   0.040   0.414  14.818  0.2822 -0.3136  0.4020
  786MPD2     H11592   0.394   0.382  14.693  1.0310  1.2275  1.6017
  786MPD2    H111593   0.116   0.508  14.991 -2.5103 -0.0118 -0.8881
  786MPD2    H211594   4.708   0.328  14.632 -0.8322  1.1462  0.7727
  786MPD2    H311595   4.662   0.417  14.857 -0.6225  1.6649 -2.0694
  786MPD2     N11596   0.365   0.504  14.941  0.0836  0.4893 -0.3329
  786MPD2    H511597   0.331   0.526  15.034  1.8796 -1.6127  0.8295
  786MPD2    N111598   0.230   0.310  14.522 -0.2291  0.0932  0.4627
  786MPD2    H711599   0.329   0.307  14.498 -0.3927  1.5700 -0.3939
  787MPD2     C11600   0.230   4.325  14.308 -0.3725 -0.1224 -0.0229
  787MPD2    C111601   0.342   4.403  14.310 -0.8856  0.4872  0.3780
  787MPD2    C211602   0.459   4.348  14.360 -0.0800 -0.2457  0.5749
  787MPD2    C311603   0.461   4.222  14.418 -0.0672 -0.1971 -0.0824
  787MPD2    C411604   0.348   4.150  14.424 -0.0764  0.3502 -0.6314
  787MPD2    C511605   0.232   4.205  14.375 -0.1874 -0.5016 -0.3272
  787MPD2     H11606   0.555   4.399  14.355  1.4511 -3.1534  0.0165
  787MPD2    H111607   0.333   4.056  14.475  0.4129  0.4438 -0.3172
  787MPD2    H211608   0.136   4.359  14.266  0.1031 -0.7207 -1.5628
  787MPD2    H311609   0.147   4.139  14.389 -0.6331  0.1365 -0.0585
  787MPD2     N11610   0.582   4.177  14.457  0.1423 -0.4646 -0.0502
  787MPD2    H511611   0.662   4.236  14.434 -1.1211  1.1429 -0.2630
  787MPD2    N111612   0.334   4.539  14.276  0.1604  0.1805  0.0267
  787MPD2    H711613   0.246   4.567  14.233 -0.1348  2.7530  2.2682
  788MPD2     C11614   2.519   3.184   0.879  0.2317  0.2100  0.0056
  788MPD2    C111615   2.469   3.060   0.840 -0.0243  0.0910 -0.1469
  788MPD2    C211616   2.426   3.050   0.707  0.2574  0.6008  0.0511
  788MPD2    C311617   2.446   3.148   0.616  0.1711  0.5105  0.0852
  788MPD2    C411618   2.510   3.261   0.653  0.0021 -0.9448 -0.4435
  788MPD2    C511619   2.539   3.279   0.784  0.3248  0.4596 -0.0192
  788MPD2     H11620   2.391   2.953   0.671 -0.5396 -0.1893  2.9730
  788MPD2    H111621   2.541   3.344   0.590  0.8474 -1.4317 -0.6765
  788MPD2    H211622   2.556   3.207   0.978  0.3020  2.4998 -0.5482
  788MPD2    H311623   2.593   3.371   0.801  1.4353  0.1116 -1.5963
  788MPD2     N11624   2.414   3.134   0.480  0.0801  0.0874  0.3478
  788MPD2    H511625   2.453   3.204   0.417 -1.3527  0.3851 -0.2129
  788MPD2    N111626   2.444   2.956   0.928  0.2953 -0.1254 -0.1989
  788MPD2    H711627   2.391   2.877   0.893  0.5161 -0.7420  0.8772
  789MPD2     C11628   3.135   3.008  16.598  0.2312  0.3615  0.5711
  789MPD2    C111629   3.078   3.021  16.473  0.2144  0.3712 -0.4694
  789MPD2    C211630   2.950   3.073  16.461  0.0884  0.2810 -0.2671
  789MPD2    C311631   2.878   3.113  16.572  0.2895  0.7244  0.6202
  789MPD2    C411632   2.937   3.103  16.696  0.2698 -0.2339 -0.0114
  789MPD2    C511633   3.061   3.048  16.709 -0.7580 -1.0005  0.0962
  789MPD2     H11634   2.915   3.091  16.360  1.6159 -1.6912 -1.1452
  789MPD2    H111635   2.895   3.118  16.795  0.9622 -0.7726  0.3666
  789MPD2    H211636   3.234   2.965  16.613  0.8259  1.9488  1.1628
  789MPD2    H311637   3.106   3.034  16.807  1.1055 -2.9022 -1.0350
  789MPD2     N11638   2.752   3.174  16.573  0.0616  0.3954  0.2322
  789MPD2    H511639   2.713   3.192  16.665 -3.3086 -1.0886 -0.9120
  789MPD2    N111640   3.137   2.981  16.355 -0.0046 -0.4418  0.0937
  789MPD2    H711641   3.080   2.997  16.273 -1.1159  0.1930  0.9916
  790MPD2     C11642   4.041   4.530  13.474  0.5593 -0.0475 -0.0476
  790MPD2    C111643   3.983   4.405  13.504 -0.0524  0.2173  0.3565
  790MPD2    C211644   3.923   4.338  13.399 -0.1860 -0.3993  0.4391
  790MPD2    C311645   3.919   4.392  13.278  0.4046 -0.5013 -0.1936
  790MPD2    C411646   3.972   4.517  13.250  1.0611 -0.5674 -0.3331
  790MPD2    C511647   4.035   4.584  13.348  0.1086 -0.3068  0.2685
  790MPD2     H11648   3.879   4.240  13.414 -0.6818 -0.5955 -2.2808
  790MPD2    H111649   3.971   4.569  13.156  2.2321 -1.7830 -1.0267
  790MPD2    H211650   4.090   4.597  13.543 -2.3651  2.4520 -0.3871
  790MPD2    H311651   4.063   4.687  13.332 -0.3928 -0.4164 -1.2876
  790MPD2     N11652   3.859   4.319  13.182  0.1142 -0.2962  0.2203
  790MPD2    H511653   3.834   4.225  13.211  0.7523 -1.0673 -1.7055
  790MPD2    N111654   3.985   4.354  13.634  0.1827 -0.0316  0.0302
  790MPD2    H711655   4.042   4.401  13.704 -1.2840  0.1038  1.1319
  791MPD2     C11656   3.211   4.293  13.107 -0.2574  0.2200 -0.8787
  791MPD2    C111657   3.259   4.190  13.030 -0.0128 -0.1624 -0.4204
  791MPD2    C211658   3.170   4.095  12.976 -2.0102 -0.2055 -0.4461
  791MPD2    C311659   3.034   4.131  12.977 -0.4324 -0.1222 -0.6261
  791MPD2    C411660   2.992   4.247  13.042  0.4870 -0.8746  0.1767
  791MPD2    C511661   3.077   4.317  13.118  0.1127 -0.4120 -0.1696
  791MPD2     H11662   3.203   4.014  12.912 -1.7770 -1.3382  1.1074
  791MPD2    H111663   2.890   4.283  13.051  0.5120 -0.9459  0.7326
  791MPD2    H211664   3.281   4.362  13.154  0.3009 -0.6979 -0.3475
  791MPD2    H311665   3.040   4.409  13.164  2.0768 -0.6876  1.9977
  791MPD2     N11666   2.944   4.051  12.906  0.1894 -0.0556  0.1548
  791MPD2    H511667   2.987   3.972  12.858 -0.8643 -0.6333  0.1543
  791MPD2    N111668   3.397   4.173  13.034 -0.1235 -0.0443 -0.2254
  791MPD2    H711669   3.443   4.251  13.080  1.8874 -1.2042 -0.2675
  792MPD2     C11670   4.259   4.471  11.488  0.1997  0.3111 -0.4787
  792MPD2    C111671   4.191   4.548  11.395 -0.6849 -0.8414  0.0484
  792MPD2    C211672   4.055   4.536  11.368  0.1522  0.0845 -0.7677
  792MPD2    C311673   3.980   4.443  11.442  0.1542  0.0859 -0.1953
  792MPD2    C411674   4.054   4.360  11.534 -0.0559  0.0096 -0.1504
  792MPD2    C511675   4.185   4.375  11.556 -0.1963 -0.2688 -0.0903
  792MPD2     H11676   4.007   4.599  11.295  1.5909  2.5370  0.4013
  792MPD2    H111677   4.007   4.291  11.602  0.3392 -0.4172 -0.3101
  792MPD2    H211678   4.363   4.483  11.518 -0.1040  0.1683  0.6363
  792MPD2    H311679   4.229   4.320  11.639 -1.8099 -1.0220  0.2730
  792MPD2     N11680   3.839   4.410  11.424  0.6391  0.1708  0.1747
  792MPD2    H511681   3.809   4.332  11.482 -1.6821  0.9023 -0.0297
  792MPD2    N111682   4.275   4.633  11.311  0.5723  0.3639  0.0979
  792MPD2    H711683   4.375   4.632  11.332  0.5694  0.5520  0.1271
  793MPD2     C11684   3.621   4.478  10.522  0.1562 -0.2026 -0.2462
  793MPD2    C111685   3.729   4.490  10.611 -0.4262  0.7078  0.4988
  793MPD2    C211686   3.707   4.487  10.746  0.4411 -0.4968 -0.0921
  793MPD2    C311687   3.569   4.466  10.787 -0.1870  0.1724  0.4263
  793MPD2    C411688   3.463   4.460  10.702  0.3326 -0.1453  0.0369
  793MPD2    C511689   3.492   4.466  10.565  0.0690 -0.1592  0.3158
  793MPD2     H11690   3.786   4.479  10.820  1.6119  1.0132 -1.2003
  793MPD2    H111691   3.359   4.444  10.726  0.0429  0.5525 -0.7522
  793MPD2    H211692   3.642   4.480  10.415  0.1189  3.1453 -0.2026
  793MPD2    H311693   3.405   4.445  10.504 -0.4211  0.8223  0.6725
  793MPD2     N11694   3.544   4.456  10.925 -0.2038  0.0621 -0.0987
  793MPD2    H511695   3.622   4.468  10.989  0.4036 -1.0449 -0.6324
  793MPD2    N111696   3.866   4.510  10.569  0.6399 -0.3874 -0.0126
  793MPD2    H711697   3.934   4.506  10.644  0.0062  1.0830  0.6332
  794MPD2     C11698   3.000   4.576  16.983 -0.3841 -0.0048  0.4469
  794MPD2    C111699   2.960   4.455  17.016 -0.1743  0.5329 -0.3520
  794MPD2    C211700   2.842   4.399  16.958  0.4265 -0.1751 -0.0603
  794MPD2    C311701   2.766   4.477  16.878 -0.3562 -0.2522  0.5007
  794MPD2    C411702   2.798   4.609  16.860 -0.2404 -0.2291 -0.5578
  794MPD2    C511703   2.911   4.663  16.913 -0.6976 -0.0409  0.0911
  794MPD2     H11704   2.806   4.304  16.994 -1.6729  0.2594 -0.9976
  794MPD2    H111705   2.738   4.671  16.794  1.1894  0.7291 -0.9733
  794MPD2    H211706   3.096   4.619  17.007 -1.1652  2.3066 -0.5971
  794MPD2    H311707   2.931   0.045  16.894 -0.1568 -0.4271 -1.4647
  794MPD2     N11708   2.658   4.427  16.807  0.0097  0.5163 -0.2887
  794MPD2    H511709   2.604   4.497  16.758  1.8286  1.3043 -1.1697
  794MPD2    N111710   3.037   4.358  17.085  0.0187  0.6529 -0.2258
  794MPD2    H711711   2.990   4.269  17.098  0.3975  0.2788 -1.4124
  795MPD2     C11712   0.772   1.236  13.549 -0.0007 -0.3914  0.5434
  795MPD2    C111713   0.832   1.243  13.423  0.0645  0.4116 -0.1789
  795MPD2    C211714   0.953   1.182  13.404 -0.4352  0.2733  0.3610
  795MPD2    C311715   1.031   1.129  13.512  0.3935 -0.3948  0.1149
  795MPD2    C411716   0.976   1.136  13.638 -0.1119 -0.2249 -0.4072
  795MPD2    C511717   0.851   1.193  13.651 -0.3207 -0.5811  0.2939
  795MPD2     H11718   0.992   1.181  13.302 -1.8923  2.0629 -0.2033
  795MPD2    H111719   1.029   1.096  13.723  0.0930 -0.1214 -0.4873
  795MPD2    H211720   0.675   1.276  13.576  0.3725 -0.6059  2.1708
  795MPD2    H311721   0.806   1.205  13.748 -0.7112  1.3329 -0.1252
  795MPD2     N11722   1.162   1.078  13.497 -0.1140 -0.3225  0.4204
  795MPD2    H511723   1.202   1.099  13.406  0.0259  1.1529  0.8281
  795MPD2    N111724   0.772   1.317  13.307 -0.2228  0.1857 -0.2587
  795MPD2    H711725   0.811   1.297  13.215 -1.4873 -1.1462 -0.5119
  796MPD2     C11726   0.748   2.865  15.612  0.8864 -0.3956  0.3735
  796MPD2    C111727   0.825   2.927  15.704 -0.2991  0.4112  0.1680
  796MPD2    C211728   0.788   3.057  15.741 -0.4120  0.2044 -0.1137
  796MPD2    C311729   0.692   3.126  15.683  0.2030 -0.3439  0.1374
  796MPD2    C411730   0.615   3.070  15.581 -0.3270 -0.0289  0.0258
  796MPD2    C511731   0.654   2.942  15.540  0.5497 -0.7737 -0.3187
  796MPD2     H11732   0.826   3.097  15.834  0.4952 -0.2108 -0.3054
  796MPD2    H111733   0.532   3.113  15.527  0.3241  1.5750  0.3035
  796MPD2    H211734   0.768   2.765  15.576 -0.4926 -0.9846  1.2460
  796MPD2    H311735   0.593   2.894  15.464 -1.0859  1.6116 -0.4931
  796MPD2     N11736   0.660   3.248  15.736  0.3395  0.3709  0.2170
  796MPD2    H511737   0.709   3.291  15.813  1.0809  1.3458 -0.7961
  796MPD2    N111738   0.923   2.844  15.774  0.8904  0.0936  0.7051
  796MPD2    H711739   0.933   2.752  15.733  1.0751  0.0497  0.8442
  797MPD2     C11740   1.759   2.733  17.233 -0.1219  0.3370 -0.2782
  797MPD2    C111741   1.872   2.798  17.191  0.0362  0.1691 -0.3814
  797MPD2    C211742   1.859   2.887  17.087 -0.4666  0.2463  0.4673
  797MPD2    C311743   1.737   2.906  17.015 -0.4228  0.2656  0.0537
  797MPD2    C411744   1.628   2.826  17.043 -0.5128  0.2506  0.4018
  797MPD2    C511745   1.643   2.748  17.158  0.8167  0.0990  0.0025
  797MPD2     H11746   1.950   2.942  17.063 -0.6139  0.2327 -0.1398
  797MPD2    H111747   1.532   2.834  16.994 -0.6284 -2.8013  0.1593
  797MPD2    H211748   1.757   2.661  17.315 -1.8932  0.4107 -0.2626
  797MPD2    H311749   1.562   2.685  17.195  0.0434  1.6504  0.9771
  797MPD2     N11750   1.732   2.997  16.914 -0.4634  0.2010 -0.3843
  797MPD2    H511751   1.655   2.994  16.848  0.1992 -0.9721 -1.0965
  797MPD2    N111752   1.995   2.784  17.265 -0.4659 -0.3066  0.4355
  797MPD2    H711753   2.065   2.855  17.245  1.1458 -3.0234 -3.4522
  798MPD2     C11754   2.437   3.041  16.776  0.6963  0.3898  0.2321
  798MPD2    C111755   2.316   3.069  16.834  0.0278 -0.6142  0.4962
  798MPD2    C211756   2.299   3.040  16.970 -0.3025  0.1584  0.0544
  798MPD2    C311757   2.396   2.979  17.042 -0.0506  0.9262  0.3233
  798MPD2    C411758   2.516   2.953  16.979  0.0079  0.1074  0.5087
  798MPD2    C511759   2.536   2.984  16.845 -0.0486  0.2963 -0.3971
  798MPD2     H11760   2.205   3.055  17.021 -2.5652 -1.4953 -3.6903
  798MPD2    H111761   2.597   2.896  17.023 -0.7572 -0.3216  1.3528
  798MPD2    H211762   2.457   3.063  16.672  1.8563  0.1425  0.4022
  798MPD2    H311763   2.628   2.963  16.791 -0.4560  0.1516 -1.0292
  798MPD2     N11764   2.371   2.949  17.174 -0.3646  0.1139 -0.1390
  798MPD2    H511765   2.282   2.976  17.214 -1.3752 -0.4374 -2.0251
  798MPD2    N111766   2.207   3.124  16.770  0.2609 -0.0330 -0.2814
  798MPD2    H711767   2.126   3.135  16.830  0.3020 -0.3944 -0.1619
  799MPD2     C11768   0.045   3.936  14.202  0.3236 -0.5557 -0.7539
  799MPD2    C111769   0.166   3.958  14.149  1.2810 -0.0347 -0.3704
  799MPD2    C211770   0.190   4.070  14.078  0.0537 -0.1439 -0.3032
  799MPD2    C311771   0.094   4.151  14.031 -0.3226 -0.1469  0.2105
  799MPD2    C411772   4.696   4.120  14.074 -0.4297  0.3315 -0.0668
  799MPD2    C511773   4.670   4.014  14.158 -0.2633  0.8192  0.0123
  799MPD2     H11774   0.294   4.082  14.052 -0.5597  2.1261 -1.8099
  799MPD2    H111775   4.612   4.179  14.039 -1.8668 -1.8384 -0.2498
  799MPD2    H211776   0.013   3.863  14.275 -2.5656 -1.4075 -2.8754
  799MPD2    H311777   4.568   4.005  14.193 -0.9717 -0.4831 -2.3357
  799MPD2     N11778   0.120   4.261  13.948  0.5212  0.3098 -0.5880
  799MPD2    H511779   0.038   4.304  13.906 -0.1477  1.2836  1.6941
  799MPD2    N111780   0.273   3.872  14.178 -0.8834  0.0598  0.1034
  799MPD2    H711781   0.362   3.896  14.134 -0.3547 -0.8324  0.6964
  800MPD2     C11782   0.665   0.836  13.663  0.0636 -0.9120  0.1527
  800MPD2    C111783   0.769   0.745  13.655  0.6282  0.8426  0.1113
  800MPD2    C211784   0.783   0.675  13.535 -0.5468 -0.2135 -0.0322
  800MPD2    C311785   0.704   0.685  13.430  0.4482  0.2788 -0.2286
  800MPD2    C411786   0.595   0.763  13.443  0.5194  0.9471  0.1626
  800MPD2    C511787   0.577   0.841  13.559  0.4310  0.0278  1.0456
  800MPD2     H11788   0.873   0.617  13.519 -0.8802 -0.9104  0.5999
  800MPD2    H111789   0.513   0.764  13.373  2.0153  0.1304 -1.5836
  800MPD2    H211790   0.650   0.892  13.755  1.8386  1.2350 -0.8782
  800MPD2    H311791   0.488   0.900  13.574  2.5701  3.2547  1.0522
  800MPD2     N11792   0.730   0.605  13.314 -0.6669  0.7693  0.1078
  800MPD2    H511793   0.822   0.562  13.310 -0.9110  0.4760 -2.7768
  800MPD2    N111794   0.849   0.732  13.768  0.1539 -0.0005  0.3078
  800MPD2    H711795   0.843   0.808  13.835 -1.0633 -0.8297  1.1453
  801MPD2     C11796   0.888   0.982  14.416  0.1953  0.5566 -0.1659
  801MPD2    C111797   0.807   0.904  14.344 -0.3030 -0.0923  1.3724
  801MPD2    C211798   0.675   0.924  14.364  0.6660  0.6394  0.0446
  801MPD2    C311799   0.617   1.025  14.441 -0.3104  0.3181 -0.7019
  801MPD2    C411800   0.700   1.096  14.514  0.1463 -0.1901 -0.2552
  801MPD2    C511801   0.836   1.083  14.491  0.1221 -0.5131 -0.2097
  801MPD2     H11802   0.610   0.854  14.313 -0.8121  2.9617 -1.2136
  801MPD2    H111803   0.654   1.152  14.594 -1.4167 -0.9139 -0.6320
  801MPD2    H211804   0.996   0.975  14.419  0.3842  2.5702 -2.1499
  801MPD2    H311805   0.899   1.148  14.552  0.7640 -0.4663 -0.9310
  801MPD2     N11806   0.477   1.050  14.460  0.6260  0.0918  0.6269
  801MPD2    H511807   0.452   1.110  14.537 -0.4295 -1.2027  1.2943
  801MPD2    N111808   0.851   0.800  14.260 -0.4869  0.3052  0.3165
  801MPD2    H711809   0.784   0.756  14.198  0.5001 -1.3759  0.4567
  802MPD2     C11810   0.523   0.507  17.183 -0.4768 -0.7241  0.4228
  802MPD2    C111811   0.501   0.634  17.138  0.2180  0.0034 -0.2239
  802MPD2    C211812   0.557   0.665  17.019 -0.5913  0.2900  0.6978
  802MPD2    C311813   0.611   0.574  16.934 -0.4738  0.1300 -0.4827
  802MPD2    C411814   0.628   0.446  16.976  0.3665 -0.2191  0.6180
  802MPD2    C511815   0.571   0.414  17.097 -0.9708 -0.6940  0.2089
  802MPD2     H11816   0.543   0.766  16.983  0.6686 -0.2832 -1.3952
  802MPD2    H111817   0.671   0.370  16.911 -4.8158 -1.7550 -1.0572
  802MPD2    H211818   0.480   0.474  17.277 -0.6727 -2.1758 -0.1702
  802MPD2    H311819   0.574   0.306  17.112  0.6071 -0.2968  2.6832
  802MPD2     N11820   0.650   0.615  16.804  0.0709  0.0588  0.2067
  802MPD2    H511821   0.654   0.715  16.790 -0.6685  0.3807  2.3527
  802MPD2    N111822   0.433   0.738  17.212 -0.0787  0.3816  0.3841
  802MPD2    H711823   0.421   0.826  17.164  1.8767  0.2838 -0.3266
  803MPD2     C11824   1.863   4.302  11.824 -0.6719 -0.5156 -0.4282
  803MPD2    C111825   1.926   4.325  11.946  0.2439  1.2896 -0.3095
  803MPD2    C211826   1.877   4.267  12.056  0.4927 -0.5028 -0.9865
  803MPD2    C311827   1.768   4.178  12.059  0.0095  0.5821 -0.5215
  803MPD2    C411828   1.704   4.161  11.940 -0.2604  0.1309  0.0458
  803MPD2    C511829   1.747   4.224  11.825  0.0487  0.3177 -0.6863
  803MPD2     H11830   1.915   4.296  12.154  0.9083  2.7494 -2.1084
  803MPD2    H111831   1.607   4.112  11.942 -1.9137  3.3844 -0.1896
  803MPD2    H211832   1.882   4.363  11.736  1.8151 -0.8192 -0.1012
  803MPD2    H311833   1.684   4.217  11.738 -1.1076  0.2005  0.1584
  803MPD2     N11834   1.716   4.118  12.176  0.4131  0.7811  0.0525
  803MPD2    H511835   1.637   4.056  12.159  0.9485  0.2707 -0.5704
  803MPD2    N111836   2.033   4.414  11.966 -0.0268  0.4089 -0.1207
  803MPD2    H711837   2.065   4.432  12.061  0.4176 -1.4049  0.0629
  804MPD2     C11838   1.287   1.082  16.781 -0.0334  0.1189 -0.3731
  804MPD2    C111839   1.276   1.076  16.917 -0.2486  0.5891  0.4311
  804MPD2    C211840   1.362   1.154  16.996 -0.2021  0.7461 -0.1461
  804MPD2    C311841   1.456   1.231  16.935 -0.3046 -0.2035  0.0442
  804MPD2    C411842   1.461   1.242  16.797 -0.1657 -0.2196  0.0045
  804MPD2    C511843   1.374   1.169  16.723  0.3095 -1.1459  0.5868
  804MPD2     H11844   1.360   1.149  17.104  2.2912  0.9830 -0.0878
  804MPD2    H111845   1.527   1.314  16.750 -0.7649  1.4367  1.6808
  804MPD2    H211846   1.222   1.030  16.712  2.2814 -1.9389 -0.9988
  804MPD2    H311847   1.366   1.181  16.616  0.2834  0.3469  0.7658
  804MPD2     N11848   1.547   1.299  17.023  0.3244 -0.0078  0.8321
  804MPD2    H511849   1.520   1.301  17.121 -0.3275 -0.7523  0.6724
  804MPD2    N111850   1.198   0.976  16.980 -0.2493  0.1186 -0.4016
  804MPD2    H711851   1.200   0.976  17.081  2.5259 -2.6902 -0.4545
  805MPD2     C11852   4.589   4.064  15.268  0.4179  0.0173 -0.8373
  805MPD2    C111853   4.678   4.156  15.222 -0.1251  0.1398 -0.6766
  805MPD2    C211854   0.078   4.162  15.283  0.7203 -0.3573 -0.1580
  805MPD2    C311855   0.119   4.077  15.383 -0.4932 -0.3632  0.2038
  805MPD2    C411856   0.028   3.984  15.425  0.2343  0.1233 -0.3328
  805MPD2    C511857   4.626   3.974  15.367 -0.6239 -0.0190  0.7214
  805MPD2     H11858   0.144   4.245  15.263 -0.0216 -0.1199 -1.5850
  805MPD2    H111859   0.054   3.910  15.501  0.0479 -2.9057 -3.2230
  805MPD2    H211860   4.493   4.049  15.220 -0.5892  2.0020  0.5908
  805MPD2    H311861   4.562   3.889  15.388  0.8543 -1.7157 -1.6251
  805MPD2     N11862   0.250   4.086  15.444 -0.0558  0.5712 -0.1448
  805MPD2    H511863   0.314   4.153  15.403 -0.7915  1.9395  0.9022
  805MPD2    N111864   4.657   4.242  15.116  0.2535  0.5603 -0.1434
  805MPD2    H711865   0.004   4.315  15.102 -0.3670  1.0620 -0.5671
  806MPD2     C11866   1.791   3.907   0.623  0.3167  0.6484 -0.0821
  806MPD2    C111867   1.701   4.012   0.643  0.1952 -0.4022  0.1222
  806MPD2    C211868   1.702   4.125   0.562 -0.4558  0.6575  0.5614
  806MPD2    C311869   1.791   4.131   0.450  0.5937 -0.0029  0.9363
  806MPD2    C411870   1.878   4.023   0.431  0.2253  0.1046 -0.2916
  806MPD2    C511871   1.882   3.913   0.520 -0.3365  0.6830 -0.6945
  806MPD2     H11872   1.624   4.198   0.583 -2.2359 -0.9701 -0.3968
  806MPD2    H111873   1.957   4.026   0.357 -0.3512 -0.8127 -0.9396
  806MPD2    H211874   1.807   3.818   0.683  3.7002 -0.2305 -2.2932
  806MPD2    H311875   1.948   3.828   0.513 -1.0314 -0.2614  3.9853
  806MPD2     N11876   1.782   4.243   0.364 -0.3341 -0.5124 -0.1815
  806MPD2    H511877   1.717   4.316   0.393 -0.2857 -1.5037  2.4520
  806MPD2    N111878   1.604   3.983   0.745 -0.4252  0.1251 -0.1629
  806MPD2    H711879   1.614   3.896   0.795 -1.3981  0.5828  0.8233
  807MPD2     C11880   1.065   4.187   1.404 -0.3952  0.0088 -0.1785
  807MPD2    C111881   1.029   4.068   1.348  0.5100  0.7206  0.5079
  807MPD2    C211882   0.943   3.987   1.420  0.2753  0.1835  0.6582
  807MPD2    C311883   0.887   4.021   1.538 -0.0145 -0.5046 -0.0766
  807MPD2    C411884   0.920   4.147   1.592  0.1923 -0.7164 -0.3818
  807MPD2    C511885   1.009   4.227   1.524 -0.0785  0.1522  0.0266
  807MPD2     H11886   0.924   3.884   1.393  1.7402  0.4008 -1.2044
  807MPD2    H111887   0.864   4.172   1.681  1.9646  0.8794  0.2917
  807MPD2    H211888   1.132   4.259   1.359  0.3547 -1.1783 -0.9432
  807MPD2    H311889   1.037   4.327   1.556 -0.7674  0.3820 -0.1006
  807MPD2     N11890   0.815   3.924   1.616 -0.3503  0.1710 -0.2038
  807MPD2    H511891   0.843   3.830   1.589 -0.4147  0.4446 -1.2142
  807MPD2    N111892   1.083   4.025   1.225 -0.4050  0.5227 -0.9329
  807MPD2    H711893   1.031   3.952   1.176  0.7679  0.8076 -2.5973
  808MPD2     C11894   1.634   4.493   8.655  0.4024  0.5596  0.3348
  808MPD2    C111895   1.562   4.532   8.766  0.1962 -0.2792  0.0701
  808MPD2    C211896   1.624   4.523   8.892  0.0133 -0.2047 -0.2829
  808MPD2    C311897   1.758   4.520   8.904  0.4713  0.1919  0.1964
  808MPD2    C411898   1.828   4.478   8.795  0.1564  0.1987  0.8155
  808MPD2    C511899   1.770   4.469   8.672  0.8293  0.2476  0.4049
  808MPD2     H11900   1.572   4.527   8.987  1.0972  2.2480  0.2235
  808MPD2    H111901   1.936   4.466   8.801  0.1376 -0.3466  0.0281
  808MPD2    H211902   1.586   4.487   8.557 -0.1490  1.4203  0.5518
  808MPD2    H311903   1.833   4.446   8.587  1.6320  0.4663  0.9452
  808MPD2     N11904   1.832   4.563   9.011  0.1000 -0.3236 -0.3721
  808MPD2    H511905   1.933   4.556   9.001  0.0796 -0.5938 -0.3983
  808MPD2    N111906   1.425   4.570   8.752  0.1471 -0.3875 -0.0555
  808MPD2    H711907   1.375   4.604   8.834  2.1062  3.7682 -0.6115
  809MPD2     C11908   2.381   0.470   8.804  0.0977  0.7428  0.4260
  809MPD2    C111909   2.422   0.452   8.937  0.2140 -0.1059  0.1866
  809MPD2    C211910   2.357   0.351   9.012  0.3388  0.4688 -0.4631
  809MPD2    C311911   2.252   0.273   8.960 -0.6177 -0.1762  0.4643
  809MPD2    C411912   2.224   0.294   8.826 -0.7443  0.1858 -0.1171
  809MPD2    C511913   2.274   0.393   8.750  0.0569 -0.5432  0.1369
  809MPD2     H11914   2.380   0.343   9.118 -1.0898  2.4545 -0.0055
  809MPD2    H111915   2.148   0.230   8.784 -0.9465 -0.4970  1.3020
  809MPD2    H211916   2.433   0.542   8.742  0.7943 -0.7958 -0.7611
  809MPD2    H311917   2.245   0.407   8.646  0.2290  2.1363  0.4613
  809MPD2     N11918   2.167   0.184   9.032 -0.6416  0.8199 -0.0225
  809MPD2    H511919   2.087   0.159   8.975  0.4573 -2.8944  0.0568
  809MPD2    N111920   2.534   0.526   8.997 -0.1190  0.1162  0.0852
  809MPD2    H711921   2.560   0.515   9.094  0.3141  2.3464  0.2168
  810MPD2     C11922   1.291   4.594   9.379 -0.2205  0.6072  0.3757
  810MPD2    C111923   1.241   4.580   9.504 -0.7477  0.2392  0.0924
  810MPD2    C211924   1.312   4.633   9.615  0.7096 -0.1604  0.0565
  810MPD2    C311925   1.433   4.705   9.594 -0.2161 -0.5835 -0.5364
  810MPD2    C411926   1.483   4.700   9.461  0.2900 -0.5617 -0.0059
  810MPD2    C511927   1.414   4.644   9.359  0.2893  0.0024 -0.7506
  810MPD2     H11928   1.275   4.616   9.716 -1.3413 -0.9482 -0.8334
  810MPD2    H111929   1.577   0.021   9.429  0.6531 -1.1080  0.3218
  810MPD2    H211930   1.231   4.568   9.292 -0.0313  0.4634  0.2882
  810MPD2    H311931   1.445   4.669   9.258 -2.8062  2.3108 -1.1282
  810MPD2     N11932   1.507   0.042   9.700  0.6399 -0.4469 -0.5285
  810MPD2    H511933   1.599   0.078   9.677  0.1923  0.6852 -0.5685
  810MPD2    N111934   1.123   4.503   9.521  0.0672  0.5338 -0.7092
  810MPD2    H711935   1.063   4.486   9.440  0.5024  0.8771 -1.1034
  811MPD2     C11936   0.295   4.670   9.559  0.9133  0.0856  0.0586
  811MPD2    C111937   0.423   4.716   9.597  0.1332  0.6926 -0.2425
  811MPD2    C211938   0.451   0.128   9.589 -0.1125 -0.1366  0.0734
  811MPD2    C311939   0.351   0.214   9.553 -0.6601 -0.1170 -0.0809
  811MPD2    C411940   0.227   0.169   9.518 -0.7075 -0.0265  0.3744
  811MPD2    C511941   0.197   0.036   9.524 -0.1341  0.8335 -0.5924
  811MPD2     H11942   0.552   0.160   9.611 -0.5467  0.5857  1.0091
  811MPD2    H111943   0.141   0.231   9.495  0.7891  1.0858 -2.1405
  811MPD2    H211944   0.261   4.568   9.565  1.2876  0.0065  0.8627
  811MPD2    H311945   0.095   0.008   9.501 -0.4839 -0.0482  2.0159
  811MPD2     N11946   0.381   0.354   9.560  0.7588 -0.0186  0.0668
  811MPD2    H511947   0.462   0.380   9.616  0.9027  0.4838 -0.3841
  811MPD2    N111948   0.518   4.612   9.626  0.2043 -0.0863 -0.2193
  811MPD2    H711949   0.479   4.519   9.609 -0.2851  0.1338 -0.3059
  812MPD2     C11950   0.208   4.360  11.984 -0.6469 -0.1115  0.1849
  812MPD2    C111951   0.094   4.422  12.031 -0.6048 -0.4690 -0.2638
  812MPD2    C211952   0.017   4.337  12.118 -0.5534 -0.2813  0.0477
  812MPD2    C311953   0.057   4.212  12.162 -0.3403 -0.9924  0.0005
  812MPD2    C411954   0.162   4.152  12.101  0.2513 -0.2850  0.3681
  812MPD2    C511955   0.233   4.227  12.014 -0.0842 -0.3113 -0.0299
  812MPD2     H11956   4.655   4.387  12.163 -2.1199 -1.2095 -1.8329
  812MPD2    H111957   0.188   4.049  12.123  1.1000 -0.2996 -0.7061
  812MPD2    H211958   0.271   4.406  11.909 -1.2501 -0.9507 -0.8483
  812MPD2    H311959   0.316   4.177  11.966  0.9984  0.8486  0.6374
  812MPD2     N11960   4.696   4.158  12.265 -0.3595 -0.4046  0.0255
  812MPD2    H511961   4.616   4.209  12.300  1.7208  2.8009  0.0963
  812MPD2    N111962   0.060   4.554  11.990  0.3157 -0.0779 -0.2093
  812MPD2    H711963   0.122   4.605  11.927 -1.3370 -0.0425 -1.7898
  813MPD2     C11964   3.007   1.697  12.428 -0.8729 -0.2705  0.5866
  813MPD2    C111965   3.115   1.763  12.481 -0.2929 -0.2077  0.3185
  813MPD2    C211966   3.114   1.800  12.615 -0.3708 -0.1433  0.7321
  813MPD2    C311967   3.017   1.761  12.695  0.0283 -1.0209 -0.3740
  813MPD2    C411968   2.914   1.687  12.637  0.5345 -0.9095  0.0817
  813MPD2    C511969   2.898   1.669  12.504  0.5542  0.1431 -1.0125
  813MPD2     H11970   3.208   1.833  12.657 -0.3899  0.7353  0.0950
  813MPD2    H111971   2.828   1.654  12.694  1.6858 -3.6098  0.2878
  813MPD2    H211972   3.008   1.661  12.326 -0.8073  0.0394  0.4798
  813MPD2    H311973   2.809   1.626  12.461  0.3889 -0.0450 -0.4850
  813MPD2     N11974   3.022   1.794  12.833  0.0045  0.0985  0.1532
  813MPD2    H511975   3.106   1.839  12.867  1.1229 -1.2824 -0.7528
  813MPD2    N111976   3.227   1.776  12.397  0.4543  0.3702  0.7301
  813MPD2    H711977   3.222   1.719  12.313  1.7269  1.0934  0.1574
  814MPD2     C11978   4.287   2.641  11.889 -0.1786  0.3283 -0.5853
  814MPD2    C111979   4.258   2.755  11.814  0.3801  0.0148 -0.8542
  814MPD2    C211980   4.313   2.873  11.862  0.2891 -0.4520 -0.0725
  814MPD2    C311981   4.397   2.876  11.973  0.5789 -0.0374  0.0766
  814MPD2    C411982   4.437   2.758  12.031 -0.1366 -0.0353 -0.2055
  814MPD2    C511983   4.385   2.641  11.988 -1.0833 -0.3719 -0.1805
  814MPD2     H11984   4.288   2.963  11.807  0.6037 -0.4024 -0.1334
  814MPD2    H111985   4.511   2.765  12.110 -0.4623  0.0666  0.0896
  814MPD2    H211986   4.240   2.544  11.874  0.2595  0.0275 -0.0059
  814MPD2    H311987   4.396   2.551  12.047  0.3264 -0.1600 -0.1134
  814MPD2     N11988   4.445   2.995  12.028 -0.6264 -0.8692  0.0530
  814MPD2    H511989   4.502   2.982  12.111 -0.4551  1.6488  0.3328
  814MPD2    N111990   4.176   2.750  11.694  0.3637  0.7704  0.2985
  814MPD2    H711991   4.160   2.841  11.652  0.1319  0.1481 -0.9607
  815MPD2     C11992   4.426   0.711  11.915  0.4297  0.1029  0.5146
  815MPD2    C111993   4.354   0.726  11.799 -0.1255  0.1233  0.0714
  815MPD2    C211994   4.214   0.728  11.802 -0.1186  0.1917 -0.5479
  815MPD2    C311995   4.148   0.706  11.917  0.8414  0.9167  0.1120
  815MPD2    C411996   4.218   0.679  12.035 -0.6037  0.4573 -0.5448
  815MPD2    C511997   4.356   0.678  12.029  0.4327 -0.3314 -0.2950
  815MPD2     H11998   4.159   0.743  11.710 -0.7987 -0.4824 -0.2479
  815MPD2    H111999   4.169   0.650  12.127 -0.6410 -0.5289 -0.8802
  815MPD2    H212000   4.534   0.720  11.919  0.2218  2.3607  0.5047
  815MPD2    H312001   4.409   0.653  12.120  3.0790  2.8783 -0.9480
  815MPD2     N12002   4.012   0.704  11.909 -0.4207  0.0714 -0.0093
  815MPD2    H512003   3.973   0.723  11.817 -2.1095 -0.0481  0.6793
  815MPD2    N112004   4.419   0.747  11.676  0.7910  0.3911  0.2482
  815MPD2    H712005   4.511   0.790  11.685  0.5213  0.0951  4.5897
  816MPD2     C12006   4.563   0.651  16.943  0.5419 -0.0691  0.4767
  816MPD2    C112007   4.437   0.635  16.888 -1.1371 -0.6432 -0.6814
  816MPD2    C212008   4.421   0.525  16.800  0.2921  0.4780 -0.1236
  816MPD2    C312009   4.519   0.435  16.775  0.1497  0.2929 -0.0482
  816MPD2    C412010   4.639   0.446  16.843  0.6107 -0.1839 -0.5735
  816MPD2    C512011   4.657   0.550  16.932  0.1623  0.0809 -0.2507
  816MPD2     H12012   4.326   0.504  16.753 -1.2270  1.5722  2.4189
  816MPD2    H112013   4.718   0.373  16.840 -0.1937 -1.1644  2.0582
  816MPD2    H212014   4.593   0.734  17.006  3.0010 -0.9267  0.4355
  816MPD2    H312015   0.032   0.564  16.978 -0.1909  0.1943  0.4632
  816MPD2     N12016   4.491   0.326  16.682 -0.3086  0.8266  0.2090
  816MPD2    H512017   4.400   0.327  16.637 -0.1705 -1.1956 -0.0905
  816MPD2    N112018   4.342   0.737  16.905  0.1209 -0.1250  0.3125
  816MPD2    H712019   4.375   0.815  16.961 -1.3724  0.4003  0.4671
  817MPD2     C12020   4.306   2.093  10.017  0.0476  1.0466  0.0830
  817MPD2    C112021   4.370   2.110   9.894 -0.4920  0.1738 -0.1094
  817MPD2    C212022   4.305   2.189   9.794 -0.6869 -0.4239 -0.4132
  817MPD2    C312023   4.181   2.251   9.816  0.0432 -0.0800 -0.1961
  817MPD2    C412024   4.125   2.238   9.939 -0.0258  0.8257 -0.6155
  817MPD2    C512025   4.184   2.162  10.034  0.1630 -0.3113  0.7121
  817MPD2     H12026   4.356   2.208   9.700  1.4239 -1.0116  0.6234
  817MPD2    H112027   4.031   2.282   9.970  0.9411 -0.0282  3.4529
  817MPD2    H212028   4.350   2.048  10.105 -1.6624 -0.1722  0.2964
  817MPD2    H312029   4.128   2.162  10.127 -1.1855 -2.9213 -0.1067
  817MPD2     N12030   4.114   2.329   9.720  0.3883  0.0305 -0.2040
  817MPD2    H512031   4.146   2.323   9.623  1.2175  1.4229 -0.0216
  817MPD2    N112032   4.505   2.067   9.872 -0.0894  0.1844 -0.1468
  817MPD2    H712033   4.555   2.089   9.786 -2.2507  0.1310 -1.4322
  818MPD2     C12034   3.087   2.269   9.667 -0.3143 -0.6014 -0.1537
  818MPD2    C112035   3.001   2.182   9.724  0.7222 -0.7910 -0.0775
  818MPD2    C212036   3.005   2.056   9.683 -0.0946  0.4018  0.3994
  818MPD2    C312037   3.100   2.009   9.595  0.1103  0.7052  0.3998
  818MPD2    C412038   3.194   2.097   9.545 -0.6105  0.2127  0.2402
  818MPD2    C512039   3.179   2.226   9.578 -0.4292 -0.1595 -1.1081
  818MPD2     H12040   2.952   1.986   9.747 -0.5012  0.2759 -0.0745
  818MPD2    H112041   3.264   2.066   9.468 -1.0179  0.0391 -0.0571
  818MPD2    H212042   3.080   2.375   9.691 -1.6683 -0.6182 -0.4476
  818MPD2    H312043   3.244   2.296   9.527 -0.6182  1.6338  1.1211
  818MPD2     N12044   3.114   1.869   9.572  0.2205 -0.3976 -0.2374
  818MPD2    H512045   3.195   1.835   9.521 -1.0824 -1.1157 -1.8261
  818MPD2    N112046   2.901   2.216   9.817 -0.0819 -0.0704  0.0059
  818MPD2    H712047   2.835   2.142   9.837 -1.0511  0.6139 -0.6208
  819MPD2     C12048   1.014   4.166  15.763 -0.0931  0.6670 -0.4078
  819MPD2    C112049   1.058   4.073  15.668  0.2414  0.8083  1.0337
  819MPD2    C212050   1.173   4.004  15.690 -0.1134  0.2370 -0.1398
  819MPD2    C312051   1.227   3.992  15.816 -0.0344 -0.5151  0.6591
  819MPD2    C412052   1.171   4.066  15.915 -0.0612  0.0435 -0.2153
  819MPD2    C512053   1.071   4.165  15.888 -0.1574  0.6215 -0.2473
  819MPD2     H12054   1.209   3.937  15.613 -0.1082 -0.1497  0.2025
  819MPD2    H112055   1.199   4.058  16.019 -0.4087  2.1489  0.0428
  819MPD2    H212056   0.934   4.238  15.751  2.0179  2.9214 -0.8674
  819MPD2    H312057   1.024   4.225  15.966  0.7440 -0.9799  1.5361
  819MPD2     N12058   1.321   3.891  15.841  0.0181 -0.3829  0.2241
  819MPD2    H512059   1.337   3.837  15.756  0.2111  1.9592 -1.2259
  819MPD2    N112060   0.986   4.067  15.545 -0.0541  0.4306  0.3481
  819MPD2    H712061   0.920   4.139  15.517 -0.5277  0.0429  0.4765
  820MPD2     C12062   0.555   4.509  14.880 -0.6704 -0.4212 -0.2174
  820MPD2    C112063   0.457   4.434  14.933 -0.0308 -0.4204  0.2624
  820MPD2    C212064   0.495   4.344  15.040 -0.1379 -0.2171 -0.3455
  820MPD2    C312065   0.621   4.328  15.089 -0.5362 -0.2491  0.9149
  820MPD2    C412066   0.712   4.407  15.032  0.3597  0.2266 -0.3383
  820MPD2    C512067   0.684   4.498  14.928  0.7360 -0.1945  0.1380
  820MPD2     H12068   0.423   4.281  15.091 -0.7981 -0.1884 -1.2493
  820MPD2    H112069   0.814   4.404  15.067 -0.4063  1.6915  2.0241
  820MPD2    H212070   0.536   4.569  14.792 -0.2840 -0.7695 -0.5398
  820MPD2    H312071   0.768   4.544  14.878  2.3289 -1.5741  1.5157
  820MPD2     N12072   0.672   4.235  15.190  0.0560  0.1664  0.0319
  820MPD2    H512073   0.772   4.234  15.208 -0.1659  0.4730  1.2889
  820MPD2    N112074   0.328   4.432  14.884  0.5284 -0.2956 -0.8141
  820MPD2    H712075   0.317   4.476  14.794  2.2541 -0.2773 -1.0195
  821MPD2     C12076   0.965   0.803  12.544 -0.0936  0.5412  0.2437
  821MPD2    C112077   1.041   0.776  12.663 -0.2972 -0.8588 -0.6434
  821MPD2    C212078   1.183   0.812  12.667 -0.4549  0.8210 -0.6252
  821MPD2    C312079   1.239   0.867  12.553  0.2763 -0.1056 -0.6241
  821MPD2    C412080   1.164   0.894  12.440  0.2492  0.7688 -0.2140
  821MPD2    C512081   1.033   0.861  12.443 -0.6058 -0.5300 -0.2145
  821MPD2     H12082   1.246   0.784  12.751 -1.1514  0.1864 -0.3108
  821MPD2    H112083   1.216   0.925  12.350 -0.6958  2.5063 -0.1508
  821MPD2    H212084   0.858   0.791  12.532  0.5063 -3.9751 -0.6075
  821MPD2    H312085   0.978   0.883  12.352 -1.7258 -0.5563  0.4676
  821MPD2     N12086   1.377   0.898  12.536 -0.2433 -0.0373 -0.5273
  821MPD2    H512087   1.399   0.941  12.447 -1.7976  2.2778  0.1957
  821MPD2    N112088   0.994   0.703  12.780 -0.3984 -0.0185  0.0051
  821MPD2    H712089   1.057   0.697  12.860 -1.7048 -0.4778  1.0032
  822MPD2     C12090   1.482   0.255  15.489  0.3603 -0.0891 -0.3616
  822MPD2    C112091   1.493   0.246  15.627  0.4334 -0.8574  0.1003
  822MPD2    C212092   1.447   0.353  15.700 -0.4398  0.1466  0.2244
  822MPD2    C312093   1.398   0.473  15.645  0.4630  0.5264  0.1749
  822MPD2    C412094   1.394   0.481  15.509  0.5060  0.0618 -0.1062
  822MPD2    C512095   1.419   0.371  15.437 -0.5512 -0.1156 -0.2813
  822MPD2     H12096   1.441   0.343  15.808  0.6027  2.0654  0.4605
  822MPD2    H112097   1.347   0.562  15.454 -0.0425 -0.9917 -1.1850
  822MPD2    H212098   1.526   0.185  15.418 -0.8234 -0.2521 -0.9381
  822MPD2    H312099   1.412   0.375  15.329 -2.0876 -0.5268 -0.2051
  822MPD2     N12100   1.359   0.574  15.731 -0.6287 -0.0136 -0.1466
  822MPD2    H512101   1.389   0.568  15.827  0.5330 -0.2039 -0.5203
  822MPD2    N112102   1.543   0.135  15.698  0.0658  0.1634  0.0901
  822MPD2    H712103   1.558   0.140  15.798 -1.1643 -0.6092  0.3089
  823MPD2     C12104   1.428   0.846  16.500  0.2995  0.4290  0.1497
  823MPD2    C112105   1.410   0.743  16.410  0.0119  0.5265 -0.6161
  823MPD2    C212106   1.409   0.612  16.454 -0.3454 -0.0802 -0.3847
  823MPD2    C312107   1.430   0.576  16.589 -0.5628 -0.3280  0.6981
  823MPD2    C412108   1.438   0.682  16.676  0.3892 -0.3162  0.7598
  823MPD2    C512109   1.442   0.815  16.633 -0.0469  0.2797 -0.2533
  823MPD2     H12110   1.392   0.534  16.381 -2.3258 -0.3540  0.3709
  823MPD2    H112111   1.439   0.662  16.782  1.0997  2.6916  1.3322
  823MPD2    H212112   1.438   0.947  16.462 -0.9475  0.4101 -0.2297
  823MPD2    H312113   1.459   0.901  16.698  0.5263 -1.9203  2.4925
  823MPD2     N12114   1.437   0.447  16.641 -0.7595  0.0073 -0.0495
  823MPD2    H512115   1.443   0.439  16.742 -0.9075 -1.5750 -0.1673
  823MPD2    N112116   1.370   0.786  16.276  0.3903  0.2186  0.1074
  823MPD2    H712117   1.370   0.886  16.261  1.1757  0.1416 -0.4256
  824MPD2     C12118   1.771   4.014  15.743 -0.2424  0.4639  0.1423
  824MPD2    C112119   1.874   4.103  15.729  0.1058 -0.2807 -0.0647
  824MPD2    C212120   2.000   4.057  15.703  0.8035 -0.2580 -0.2076
  824MPD2    C312121   2.021   3.920  15.700  0.5030 -0.4291 -0.5177
  824MPD2    C412122   1.921   3.830  15.726  0.7540 -0.4824  0.3065
  824MPD2    C512123   1.795   3.882  15.742  0.4035 -0.5695  0.0033
  824MPD2     H12124   2.083   4.126  15.695  0.0750  0.5369 -0.9072
  824MPD2    H112125   1.932   3.722  15.718 -1.0746 -0.6963  0.6382
  824MPD2    H212126   1.667   4.040  15.762 -0.2529  1.1273 -0.8454
  824MPD2    H312127   1.721   3.805  15.762  0.0860 -0.5156 -0.9747
  824MPD2     N12128   2.155   3.883  15.682  0.1225 -0.1756 -0.0528
  824MPD2    H512129   2.216   3.962  15.671 -0.4408  0.5793  2.3176
  824MPD2    N112130   1.860   4.242  15.738  0.2131  0.5331  0.7727
  824MPD2    H712131   1.938   4.307  15.748 -1.0031  2.0827  0.2806
  825MPD2     C12132   2.912   3.947  15.315 -0.5036 -0.0632 -0.0412
  825MPD2    C112133   2.797   4.006  15.365  0.4001 -0.0549  0.4648
  825MPD2    C212134   2.767   4.142  15.348 -0.5065  0.0737  0.2812
  825MPD2    C312135   2.847   4.216  15.265  0.0127 -0.2693 -0.5386
  825MPD2    C412136   2.959   4.155  15.203  0.7012 -0.2699  0.4436
  825MPD2    C512137   2.998   4.032  15.243  0.0899 -0.5063 -0.1334
  825MPD2     H12138   2.683   4.192  15.395 -1.5008  0.0565 -1.4990
  825MPD2    H112139   3.032   4.212  15.146 -0.6853  1.4419  0.3633
  825MPD2    H212140   2.937   3.843  15.331  1.2805  0.5398  1.0617
  825MPD2    H312141   3.087   3.986  15.202  1.4922  3.1731 -1.1679
  825MPD2     N12142   2.820   4.354  15.226 -0.1859 -0.5303  0.0899
  825MPD2    H512143   2.882   4.395  15.157 -0.5239  0.6128  0.4622
  825MPD2    N112144   2.706   3.918  15.434  0.1581  0.1886 -0.1524
  825MPD2    H712145   2.743   3.824  15.425 -0.4052 -0.2110  1.7692
  826MPD2     C12146   2.482   3.972  13.897  0.3536  0.0173 -0.1586
  826MPD2    C112147   2.554   4.055  13.820 -0.3933 -0.9082  0.3245
  826MPD2    C212148   2.495   4.177  13.781  0.4735 -0.2318 -0.0755
  826MPD2    C312149   2.367   4.219  13.826 -0.0898 -0.2600 -0.6417
  826MPD2    C412150   2.295   4.124  13.904 -0.5396 -0.4019 -0.0674
  826MPD2    C512151   2.355   4.008  13.936  0.6364 -0.1079 -0.1023
  826MPD2     H12152   2.554   4.245  13.720  0.3066 -1.3770 -1.5379
  826MPD2    H112153   2.204   4.142  13.960 -1.1436  0.5714 -1.3872
  826MPD2    H212154   2.518   3.879  13.941 -0.4462 -0.4456 -0.4696
  826MPD2    H312155   2.300   3.952  14.011  2.2541 -2.1858 -0.4662
  826MPD2     N12156   2.305   4.347  13.809  0.0064 -0.4528 -0.6946
  826MPD2    H512157   2.213   4.358  13.851  0.5006  1.7177 -0.1520
  826MPD2    N112158   2.673   3.996  13.774 -0.1154 -0.0797  0.5671
  826MPD2    H712159   2.705   3.906  13.809  1.4283  1.2311  2.4893
  827MPD2     C12160   4.050   0.670   9.748 -0.9211  0.0336 -0.9341
  827MPD2    C112161   3.998   0.558   9.811  0.0234 -0.1885 -0.2568
  827MPD2    C212162   3.883   0.488   9.755 -0.5237 -0.1442  0.6146
  827MPD2    C312163   3.818   0.546   9.649 -0.0472 -1.0730  0.2793
  827MPD2    C412164   3.866   0.663   9.590 -0.5716 -0.3134  0.5479
  827MPD2    C512165   3.978   0.720   9.639 -0.2457 -0.1413 -0.6066
  827MPD2     H12166   3.846   0.408   9.817 -0.2856 -1.0621 -0.4365
  827MPD2    H112167   3.820   0.701   9.499 -1.2296  0.6183  1.2730
  827MPD2    H212168   4.134   0.727   9.784 -1.0899 -0.8102  0.8261
  827MPD2    H312169   4.014   0.813   9.597  1.0975 -0.3332  0.0869
  827MPD2     N12170   3.697   0.480   9.606  0.3784  0.6958 -0.6056
  827MPD2    H512171   3.675   0.399   9.662  1.8938 -0.4185 -1.6115
  827MPD2    N112172   4.057   0.528   9.932 -0.1295  0.0682  0.1492
  827MPD2    H712173   4.134   0.587   9.964 -0.7437  0.0126  1.7388
  828MPD2     C12174   1.949   0.607  12.666 -0.0358 -0.3481  0.6335
  828MPD2    C112175   1.963   0.556  12.534  0.1150  0.4977  0.8611
  828MPD2    C212176   2.077   0.484  12.492  0.1907  0.8120 -0.5036
  828MPD2    C312177   2.173   0.440  12.592 -0.7297 -0.2189  0.5538
  828MPD2    C412178   2.149   0.483  12.720 -0.2425  0.2197  0.7510
  828MPD2    C512179   2.039   0.566  12.757 -1.3681 -0.0389  0.1173
  828MPD2     H12180   2.087   0.460  12.387  1.6196 -2.7259  0.4205
  828MPD2    H112181   2.221   0.451  12.795 -1.4532 -0.5596  1.5739
  828MPD2    H212182   1.860   0.658  12.699 -2.2560 -2.4793 -2.1552
  828MPD2    H312183   2.040   0.611  12.856  2.3841  0.0926 -0.0148
  828MPD2     N12184   2.283   0.365  12.557 -0.1625  0.7169  0.2540
  828MPD2    H512185   2.334   0.328  12.637 -2.2953  1.2678  1.8707
  828MPD2    N112186   1.874   0.584  12.430  0.2536  0.2268  0.0499
  828MPD2    H712187   1.897   0.547  12.338  2.4509  1.0984  0.2680
  829MPD2     C12188   2.154   0.561  11.612 -0.2926  0.2721  0.3292
  829MPD2    C112189   2.031   0.607  11.585 -1.2982  0.6752  0.3720
  829MPD2    C212190   1.942   0.621  11.696 -0.1614  0.0290 -0.0410
  829MPD2    C312191   1.969   0.588  11.823 -1.0817 -0.3432 -0.7243
  829MPD2    C412192   2.103   0.557  11.845 -0.4604  0.2944 -0.0129
  829MPD2    C512193   2.190   0.540  11.740  0.1614  0.2096  0.9597
  829MPD2     H12194   1.838   0.641  11.675 -0.0790  0.1884 -0.2905
  829MPD2    H112195   2.129   0.540  11.949  0.6368 -0.0176 -0.3418
  829MPD2    H212196   2.226   0.542  11.533 -1.3845  2.7953 -1.2571
  829MPD2    H312197   2.287   0.504  11.775  0.6357  0.5968  0.0282
  829MPD2     N12198   1.880   0.582  11.933 -0.0625  0.1295 -0.0572
  829MPD2    H512199   1.925   0.550  12.018 -1.6609 -1.3620  0.2386
  829MPD2    N112200   1.981   0.630  11.452  0.2541  0.0366  0.2345
  829MPD2    H712201   2.059   0.620  11.388  0.0810  0.2321 -0.0049
  830MPD2     C12202   1.836   3.283  15.571 -0.6520  0.1752 -0.1738
  830MPD2    C112203   1.779   3.410  15.586  0.3169 -0.3898 -0.0182
  830MPD2    C212204   1.816   3.505  15.488  0.4467  0.1672  0.1286
  830MPD2    C312205   1.910   3.477  15.390  0.4187  0.0856  0.0347
  830MPD2    C412206   1.958   3.345  15.370 -0.5627 -0.1837  0.2665
  830MPD2    C512207   1.917   3.248  15.461  0.3313 -0.4460  0.3513
  830MPD2     H12208   1.764   3.600  15.481  0.4281  0.2045  0.7383
  830MPD2    H112209   2.029   3.330  15.290  0.4641  1.3404  0.8867
  830MPD2    H212210   1.809   3.208  15.644  1.4629 -0.1627  0.2855
  830MPD2    H312211   1.947   3.145  15.447  1.8845  0.4022 -2.3926
  830MPD2     N12212   1.955   3.583  15.315 -0.3745  0.6154  0.1721
  830MPD2    H512213   1.921   3.675  15.341  0.5357  1.1426 -0.4988
  830MPD2    N112214   1.675   3.425  15.677  0.3263 -0.1131 -0.1853
  830MPD2    H712215   1.635   3.340  15.717 -0.4918  0.9746  1.3050
  831MPD2     C12216   1.788   0.611  16.106 -0.1082 -0.8922  0.3242
  831MPD2    C112217   1.753   0.540  15.995 -0.0797  0.6339  0.4324
  831MPD2    C212218   1.666   0.436  16.004 -0.9171 -0.3074 -0.1219
  831MPD2    C312219   1.616   0.411  16.133  0.2048  0.4113  0.3636
  831MPD2    C412220   1.656   0.489  16.240 -0.0207  0.1394  0.3599
  831MPD2    C512221   1.740   0.596  16.227 -0.1902  0.6453 -0.3201
  831MPD2     H12222   1.627   0.384  15.917  0.1191  0.2387 -0.9094
  831MPD2    H112223   1.646   0.459  16.343  2.4372 -3.7948 -0.5573
  831MPD2    H212224   1.856   0.694  16.089 -1.7351  0.7265  1.8279
  831MPD2    H312225   1.790   0.634  16.315  0.0362  1.7199 -0.9110
  831MPD2     N12226   1.523   0.304  16.165  0.0387  0.6481 -0.3807
  831MPD2    H512227   1.468   0.313  16.250  0.7691  1.0057  0.0551
  831MPD2    N112228   1.820   0.581  15.875 -0.6964  0.5125 -0.1495
  831MPD2    H712229   1.886   0.659  15.876  0.0444 -0.1170 -0.7103
  832MPD2     C12230   4.704   1.861  17.038 -0.5993 -0.3549 -0.4421
  832MPD2    C112231   4.654   1.987  17.050 -0.3979 -0.1256  0.5999
  832MPD2    C212232   4.537   2.026  16.985  0.6621 -0.6703 -0.9680
  832MPD2    C312233   4.486   1.930  16.900  0.3036 -1.2135  0.9294
  832MPD2    C412234   4.541   1.807  16.884 -0.1221  0.0533  0.3439
  832MPD2    C512235   4.643   1.768  16.959 -0.6701 -0.5748  0.0433
  832MPD2     H12236   4.505   2.130  16.986  0.1918 -0.8233 -0.0753
  832MPD2    H112237   4.509   1.724  16.823 -1.2402  1.2094 -0.6524
  832MPD2    H212238   0.078   1.836  17.080 -1.2741 -0.6897  0.9273
  832MPD2    H312239   4.670   1.665  16.940  1.9175 -0.1328  1.4278
  832MPD2     N12240   4.362   1.947  16.832  0.5471 -1.4451  0.4440
  832MPD2    H512241   4.331   1.872  16.772 -0.3905  0.0018 -0.9017
  832MPD2    N112242   0.011   2.069  17.136 -0.0559 -0.0430  0.4728
  832MPD2    H712243   0.086   2.018  17.181 -0.8176 -0.6550  1.0463
  833MPD2     C12244   2.892   2.555  12.507 -0.8423 -0.3733 -0.9877
  833MPD2    C112245   2.788   2.627  12.449 -0.4045  0.3957 -0.1422
  833MPD2    C212246   2.712   2.572  12.353 -0.3075  0.1964 -0.7451
  833MPD2    C312247   2.732   2.446  12.320 -0.4049 -0.2941  0.2967
  833MPD2    C412248   2.838   2.370  12.373  0.4120  0.3947 -0.6453
  833MPD2    C512249   2.917   2.432  12.463  0.1297  0.0677  0.5739
  833MPD2     H12250   2.633   2.628  12.305 -0.2623 -0.7029 -1.8516
  833MPD2    H112251   2.866   2.270  12.344  1.3384  0.3177  0.5110
  833MPD2    H212252   2.967   2.598  12.573 -2.2439 -0.5699  0.6918
  833MPD2    H312253   3.000   2.386  12.515  1.3952  0.7652 -0.7995
  833MPD2     N12254   2.661   2.381  12.217 -0.0461  0.2328 -0.6292
  833MPD2    H512255   2.694   2.286  12.204 -0.7223 -0.1263  0.2477
  833MPD2    N112256   2.776   2.765  12.491  0.1734  0.2865 -0.1048
  833MPD2    H712257   2.851   2.806  12.545 -0.0576  0.2118  0.2720
  834MPD2     C12258   2.962   1.779  11.514 -0.1386 -0.1673 -0.8878
  834MPD2    C112259   2.903   1.877  11.437 -0.6389 -0.1396  0.0084
  834MPD2    C212260   2.827   1.974  11.504 -0.1724  0.4544 -0.0304
  834MPD2    C312261   2.829   1.982  11.648  0.3671  0.6047  0.1938
  834MPD2    C412262   2.913   1.895  11.721  0.2765  0.6039 -0.2416
  834MPD2    C512263   2.972   1.793  11.646 -0.2580  0.2515 -0.6156
  834MPD2     H12264   2.765   2.044  11.450 -2.3887 -2.2170 -0.9517
  834MPD2    H112265   2.914   1.887  11.829 -0.9448 -0.6760 -0.3227
  834MPD2    H212266   3.023   1.700  11.471 -0.9014 -0.4827 -1.3846
  834MPD2    H312267   3.029   1.719  11.702  0.2504  2.2415  1.4880
  834MPD2     N12268   2.743   2.082  11.706 -0.5722  0.0918  0.3030
  834MPD2    H512269   2.667   2.128  11.657 -0.0811  0.0157 -0.5256
  834MPD2    N112270   2.898   1.867  11.294  0.2011  0.5686 -0.2976
  834MPD2    H712271   2.938   1.787  11.246 -1.1564 -1.7885  2.4825
  835MPD2     C12272   3.262   0.782  10.675 -0.7946  0.1616  0.1521
  835MPD2    C112273   3.135   0.736  10.639 -0.0534  0.1005 -0.3586
  835MPD2    C212274   3.074   0.639  10.720  0.7781  0.0155 -0.3881
  835MPD2    C312275   3.136   0.599  10.837 -0.0455  0.0597  0.1581
  835MPD2    C412276   3.253   0.655  10.871  0.7741 -0.4363  0.1410
  835MPD2    C512277   3.321   0.744  10.789 -0.2364  1.0691  0.0114
  835MPD2     H12278   2.977   0.596  10.699  1.3857 -0.7719 -1.6656
  835MPD2    H112279   3.292   0.627  10.968  2.0261 -0.3155 -0.3218
  835MPD2    H212280   3.313   0.857  10.615 -1.6441 -0.3456 -1.2162
  835MPD2    H312281   3.411   0.793  10.824  0.9792  0.2146 -1.9206
  835MPD2     N12282   3.069   0.515  10.934 -0.1691 -0.4876 -0.3822
  835MPD2    H512283   3.116   0.498  11.022  0.0627 -1.4166 -0.6808
  835MPD2    N112284   3.071   0.789  10.525  0.3710 -0.1250  0.2160
  835MPD2    H712285   2.980   0.751  10.501  0.1750 -1.0369  2.4965
  836MPD2     C12286   2.474   0.927  10.962 -0.7128 -0.1209  0.0521
  836MPD2    C112287   2.497   0.857  11.070  0.1621 -0.2482  0.4162
  836MPD2    C212288   2.417   0.892  11.184  0.6064 -0.3375  0.0578
  836MPD2    C312289   2.321   0.998  11.179 -0.6739 -0.4860  0.5693
  836MPD2    C412290   2.309   1.066  11.063 -0.0951 -0.6153 -0.1102
  836MPD2    C512291   2.385   1.028  10.954  0.2040 -0.6778  0.2706
  836MPD2     H12292   2.429   0.834  11.275 -0.2156  0.9722  0.9972
  836MPD2    H112293   2.239   1.148  11.053  0.3168 -0.4055 -1.2575
  836MPD2    H212294   2.529   0.897  10.874  0.3779  1.2705  0.2739
  836MPD2    H312295   2.368   1.083  10.862 -2.5643 -0.0801  1.1368
  836MPD2     N12296   2.227   1.026  11.285  0.0296 -0.2695  0.4530
  836MPD2    H512297   2.154   1.093  11.267  1.0021  0.9989  1.2343
  836MPD2    N112298   2.584   0.743  11.057 -0.1470  0.2296  0.3595
  836MPD2    H712299   2.624   0.727  10.965 -1.0260 -1.3146  0.2487
  837MPD2     C12300   0.838   0.910   9.910  0.3212  0.3103  0.2185
  837MPD2    C112301   0.777   0.953   9.796 -0.0533 -0.1337  0.4109
  837MPD2    C212302   0.788   1.084   9.756 -0.5051  0.1922 -0.7964
  837MPD2    C312303   0.865   1.177   9.827 -0.1571  0.8154  1.0133
  837MPD2    C412304   0.934   1.128   9.939 -0.6782 -0.0662  0.0081
  837MPD2    C512305   0.921   0.998   9.976 -0.8811  0.3997  0.3918
  837MPD2     H12306   0.734   1.112   9.666 -1.4925  2.3131  0.4683
  837MPD2    H112307   1.008   1.186   9.993  0.9355 -2.4175  0.3729
  837MPD2    H212308   0.840   0.809   9.949  2.3421  0.7822  1.3145
  837MPD2    H312309   0.982   0.959  10.057 -0.8033  1.3022  0.7623
  837MPD2     N12310   0.860   1.303   9.776 -0.3096 -0.4141  0.6546
  837MPD2    H512311   0.814   1.318   9.687  3.7519 -3.8790 -2.0264
  837MPD2    N112312   0.694   0.865   9.719  0.2514 -0.0574  0.0888
  837MPD2    H712313   0.646   0.917   9.646  0.8124 -0.9011 -0.8813
  838MPD2     C12314   3.665   3.454  11.664 -0.5074  0.4410  0.4822
  838MPD2    C112315   3.684   3.404  11.789  1.3239  0.9112 -0.1755
  838MPD2    C212316   3.590   3.317  11.834 -0.6778  0.0671  0.9001
  838MPD2    C312317   3.478   3.266  11.761 -0.5578 -0.2712  0.0969
  838MPD2    C412318   3.461   3.326  11.637  0.4865 -0.9570  0.4626
  838MPD2    C512319   3.557   3.421  11.593  0.3659  0.1644  0.0417
  838MPD2     H12320   3.612   3.262  11.925 -2.3776 -0.4156  1.0194
  838MPD2    H112321   3.377   3.302  11.574  0.0418 -2.8799  1.7921
  838MPD2    H212322   3.739   3.518  11.617 -0.7922 -0.5778 -1.3456
  838MPD2    H312323   3.542   3.462  11.493  1.1969  1.6662  0.5320
  838MPD2     N12324   3.386   3.180  11.822  0.4113 -0.0551 -0.1767
  838MPD2    H512325   3.417   3.147  11.913 -4.7952  1.8898  2.3069
  838MPD2    N112326   3.795   3.430  11.870 -0.6002 -0.0836  0.0401
  838MPD2    H712327   3.811   3.369  11.949 -0.1242  2.1906  1.7139
  839MPD2     C12328   3.739   2.791  11.745  0.0724  0.0207  0.3272
  839MPD2    C112329   3.742   2.891  11.655  0.1296  0.2375  0.2124
  839MPD2    C212330   3.849   2.983  11.655  0.2377 -0.0970 -0.4616
  839MPD2    C312331   3.950   2.980  11.753 -0.3473 -0.2608 -0.1367
  839MPD2    C412332   3.938   2.887  11.849 -0.5740  0.2237 -1.1677
  839MPD2    C512333   3.833   2.793  11.841 -0.2666  0.4805  0.2112
  839MPD2     H12334   3.847   3.059  11.578  0.0999 -2.5573 -2.9058
  839MPD2    H112335   4.003   2.881  11.935 -1.1443 -0.0426 -0.7555
  839MPD2    H212336   3.657   2.721  11.760  0.3914 -0.9064 -2.2835
  839MPD2    H312337   3.832   2.720  11.922  1.6830 -1.0768 -1.1662
  839MPD2     N12338   4.046   3.078  11.766 -0.1026 -0.3228  0.3970
  839MPD2    H512339   4.091   3.090  11.856  0.2364 -3.7217  0.6716
  839MPD2    N112340   3.641   2.906  11.551  0.0573 -0.7412 -0.6287
  839MPD2    H712341   3.647   2.990  11.494  1.6239  0.5205  1.3991
  840MPD2     C12342   4.623   0.710  10.257 -0.1393 -0.0329 -0.4487
  840MPD2    C112343   4.506   0.747  10.318  0.8043 -0.0141  0.6432
  840MPD2    C212344   4.523   0.852  10.413  0.3229  0.2955 -0.0005
  840MPD2    C312345   4.633   0.926  10.443 -0.6263 -0.4498 -0.0250
  840MPD2    C412346   0.023   0.896  10.366 -0.4929  0.2611 -0.3220
  840MPD2    C512347   0.013   0.791  10.275  0.0335  0.6936  0.3335
  840MPD2     H12348   4.436   0.883  10.470  0.9351  3.3524 -0.7640
  840MPD2    H112349   0.121   0.939  10.386  0.2269 -1.9712  0.9936
  840MPD2    H212350   4.625   0.626  10.189 -2.3824  1.0650 -1.8570
  840MPD2    H312351   0.104   0.771  10.219  0.1637  0.9111  0.4699
  840MPD2     N12352   4.634   1.025  10.541 -0.2575  0.6946  0.2188
  840MPD2    H512353   4.716   1.085  10.537  0.5031 -0.3503 -0.0203
  840MPD2    N112354   4.384   0.673  10.287  0.3949  0.0586 -0.0315
  840MPD2    H712355   4.399   0.585  10.239 -4.2662  0.2972 -1.8460
  841MPD2     C12356   2.978   0.679  14.701 -0.2561 -0.4375 -0.0819
  841MPD2    C112357   3.026   0.659  14.575  0.1328 -0.1963 -0.4616
  841MPD2    C212358   3.026   0.768  14.492  0.2506  0.4360  0.7753
  841MPD2    C312359   2.985   0.897  14.535  0.1449  0.9043  0.1686
  841MPD2    C412360   2.936   0.910  14.667  0.4255 -0.2526 -0.2885
  841MPD2    C512361   2.930   0.797  14.745  0.9059 -0.1302  0.5045
  841MPD2     H12362   3.054   0.759  14.388 -1.4798 -0.2264  0.3593
  841MPD2    H112363   2.926   1.006  14.716 -2.3950 -1.0050  0.6046
  841MPD2    H212364   2.976   0.603  14.779 -0.3949 -0.7496 -0.3859
  841MPD2    H312365   2.906   0.801  14.851 -2.1227 -0.9452 -0.1516
  841MPD2     N12366   3.000   0.999  14.436  0.1079 -0.5391  0.9746
  841MPD2    H512367   3.052   0.990  14.349  0.0626 -0.8618  0.9838
  841MPD2    N112368   3.060   0.532  14.516 -0.5738  0.2923 -0.4916
  841MPD2    H712369   3.102   0.538  14.424  0.1239  1.8444 -0.0741
  842MPD2     C12370   3.741   2.251  16.427 -0.5062 -0.6118 -0.4118
  842MPD2    C112371   3.758   2.117  16.468 -0.0708 -0.0991  0.2587
  842MPD2    C212372   3.760   2.086  16.604  0.1888  0.1704 -0.0170
  842MPD2    C312373   3.744   2.185  16.703 -0.1038 -0.1757  0.1993
  842MPD2    C412374   3.727   2.316  16.661  0.1489 -0.2516  0.6631
  842MPD2    C512375   3.732   2.349  16.527  0.4692 -0.3920 -0.2504
  842MPD2     H12376   3.759   1.981  16.631  1.2828  0.2115  0.1916
  842MPD2    H112377   3.710   2.397  16.732 -2.2374 -1.0423  0.9788
  842MPD2    H212378   3.751   2.288  16.326 -1.0099 -0.9758 -0.5940
  842MPD2    H312379   3.719   2.456  16.511  0.8757 -0.3338 -0.1904
  842MPD2     N12380   3.761   2.156  16.839  0.3384  0.8871 -0.0257
  842MPD2    H512381   3.749   2.234  16.903  2.3325  1.0238  0.1832
  842MPD2    N112382   3.775   2.016  16.370 -0.1060  0.0186 -0.0074
  842MPD2    H712383   3.773   2.052  16.275  1.3859  0.2926  0.0567
  843MPD2     C12384   1.049   1.914  17.276  0.1298 -0.9771 -0.0374
  843MPD2    C112385   0.997   1.941  17.404  0.2289 -0.2088  0.4191
  843MPD2    C212386   1.071   2.022  17.496 -0.4597 -0.4709  0.2288
  843MPD2    C312387   1.200   2.061  17.462  0.0265 -0.3740  0.5200
  843MPD2    C412388   1.253   2.023  17.338  0.1745 -0.1915  1.1021
  843MPD2    C512389   1.172   1.966  17.244  0.1623 -0.3387  0.2971
  843MPD2     H12390   1.024   2.051  17.590  0.9728  0.6207  0.6010
  843MPD2    H112391   1.351   2.037  17.294 -1.0631  0.3427 -1.4829
  843MPD2    H212392   0.985   1.864  17.203  0.0377 -1.3334  0.2897
  843MPD2    H312393   1.221   1.950  17.149 -1.8696  0.0489 -0.8284
  843MPD2     N12394   1.288   2.129  17.548  0.8536  0.2846  0.6028
  843MPD2    H512395   1.374   2.161  17.505  1.0078 -1.1572 -0.1646
  843MPD2    N112396   0.873   1.885  17.446 -0.0895  0.1374 -0.6697
  843MPD2    H712397   0.831   1.838  17.367  0.4151  1.3283 -1.6525
  844MPD2     C12398   4.172   1.184  16.409  0.5805 -0.0102 -0.4636
  844MPD2    C112399   4.268   1.180  16.319 -0.9450 -0.4432  0.4963
  844MPD2    C212400   4.394   1.237  16.344  0.7333  0.3788  0.1679
  844MPD2    C312401   4.415   1.313  16.456 -0.4672 -0.1439 -0.6054
  844MPD2    C412402   4.312   1.321  16.547 -0.0518 -0.7292 -0.1187
  844MPD2    C512403   4.193   1.246  16.531 -0.7013 -0.1060  0.4089
  844MPD2     H12404   4.464   1.229  16.262 -0.3300  0.9635 -0.8037
  844MPD2    H112405   4.318   1.387  16.633  0.5157 -1.4764  0.4152
  844MPD2    H212406   4.074   1.139  16.395  0.7015 -0.4476  0.0653
  844MPD2    H312407   4.109   1.253  16.599  0.1769 -0.7014  1.5651
  844MPD2     N12408   4.544   1.373  16.478 -0.3027  0.7908  0.1038
  844MPD2    H512409   4.614   1.371  16.405 -1.8924  2.7039 -1.4745
  844MPD2    N112410   4.248   1.118  16.192  0.1052  0.3876  0.2290
  844MPD2    H712411   4.320   1.127  16.121  0.0289  0.2541  0.1341
  845MPD2     C12412   0.103   2.271  16.832  0.3816  0.5946 -0.6711
  845MPD2    C112413   4.714   2.235  16.757 -0.2284 -0.1309  0.4891
  845MPD2    C212414   4.708   2.108  16.699  0.5063 -0.6954  0.0088
  845MPD2    C312415   0.092   2.027  16.693  0.5792  0.2009 -0.0337
  845MPD2    C412416   0.204   2.067  16.773  0.2984 -0.2336 -0.0869
  845MPD2    C512417   0.201   2.184  16.848  0.0564  0.1946  0.3630
  845MPD2     H12418   4.614   2.077  16.655  0.4886 -0.6853  0.0392
  845MPD2    H112419   0.292   2.004  16.780 -0.0262 -0.7558 -0.7690
  845MPD2    H212420   0.113   2.368  16.880  1.5665  1.5915 -2.9192
  845MPD2    H312421   0.286   2.209  16.911  2.5377 -1.3793 -2.3115
  845MPD2     N12422   0.085   1.894  16.642 -0.6941  0.1802  0.0254
  845MPD2    H512423   4.716   1.870  16.605 -0.5981 -1.2569  0.7497
  845MPD2    N112424   4.606   2.323  16.769 -0.0299 -0.0808 -0.5905
  845MPD2    H712425   4.616   2.402  16.832 -1.5400 -0.5743  0.2763
  846MPD2     C12426   1.650   2.634  13.291 -0.5224  0.1801 -0.0871
  846MPD2    C112427   1.580   2.749  13.279  0.2304  0.1082 -1.0158
  846MPD2    C212428   1.523   2.804  13.395 -0.0586 -0.6383  0.1037
  846MPD2    C312429   1.539   2.744  13.524 -0.0114  0.5748  0.4509
  846MPD2    C412430   1.601   2.622  13.532 -0.0843 -0.0868 -0.9074
  846MPD2    C512431   1.658   2.570  13.416  0.5016  0.2213  0.3544
  846MPD2     H12432   1.479   2.902  13.387 -1.4359 -1.4888 -2.7698
  846MPD2    H112433   1.622   2.565  13.621  0.3284  1.3826 -0.0584
  846MPD2    H212434   1.684   2.578  13.204 -0.0721 -0.6914  0.6515
  846MPD2    H312435   1.707   2.474  13.416  3.0302  1.4956  2.9890
  846MPD2     N12436   1.473   2.802  13.641 -0.4449  0.6060 -0.0617
  846MPD2    H512437   1.411   2.880  13.623 -0.3252  0.6014 -0.5150
  846MPD2    N112438   1.578   2.816  13.156  0.6694 -0.5429  0.5378
  846MPD2    H712439   1.544   2.911  13.169  2.8277 -0.0993  3.0163
  847MPD2     C12440   1.337   3.491  14.030 -0.5868  0.0184  0.4382
  847MPD2    C112441   1.467   3.517  14.034 -0.3629  0.9611 -0.4767
  847MPD2    C212442   1.540   3.474  14.144  0.7229 -0.4072 -0.4151
  847MPD2    C312443   1.476   3.420  14.251 -0.2287  0.1828  0.2819
  847MPD2    C412444   1.347   3.379  14.242  0.1568  0.2478  0.5251
  847MPD2    C512445   1.281   3.418  14.127 -0.3136 -0.2200  0.1916
  847MPD2     H12446   1.646   3.494  14.153  0.8014 -1.4118  0.8862
  847MPD2    H112447   1.286   3.330  14.318  1.6615 -1.0124  0.9213
  847MPD2    H212448   1.277   3.516  13.943  0.6471 -1.5602 -0.8635
  847MPD2    H312449   1.180   3.383  14.109 -0.3892 -0.3886  0.9340
  847MPD2     N12450   1.555   3.389  14.364  0.1756 -0.0480 -0.3215
  847MPD2    H512451   1.654   3.409  14.357 -0.1556  2.2977  1.8526
  847MPD2    N112452   1.546   3.602  13.950 -0.0672  0.1437  0.1195
  847MPD2    H712453   1.643   3.608  13.980  0.3990 -1.2925 -1.1454
  848MPD2     C12454   4.213   2.144  16.157  0.1046 -0.0307  0.3332
  848MPD2    C112455   4.136   2.214  16.254  0.0380 -0.3847 -0.4819
  848MPD2    C212456   4.087   2.345  16.227  0.6640 -0.8718 -0.3246
  848MPD2    C312457   4.110   2.403  16.102  0.1753 -0.5919  0.2643
  848MPD2    C412458   4.184   2.330  16.012  0.5206  0.3908  0.0136
  848MPD2    C512459   4.231   2.207  16.041 -0.1974  0.2261 -0.3779
  848MPD2     H12460   4.032   2.403  16.300  1.5978 -0.8982  0.3936
  848MPD2    H112461   4.221   2.372  15.919  2.5614 -1.2642  0.0991
  848MPD2    H212462   4.248   2.043  16.176 -0.6259 -0.3433 -0.0067
  848MPD2    H312463   4.296   2.165  15.965  0.5019  0.6088  0.0069
  848MPD2     N12464   4.060   2.527  16.061 -0.1504  0.0167  0.0771
  848MPD2    H512465   4.070   2.558  15.965 -1.1905 -1.2851 -0.4517
  848MPD2    N112466   4.115   2.158  16.381  1.1311 -0.0084  0.2700
  848MPD2    H712467   4.073   2.217  16.452 -2.0981 -1.5860 -0.2970
  849MPD2     C12468   3.187   1.912  13.860 -0.8950  0.1244  0.2394
  849MPD2    C112469   3.280   1.820  13.815 -0.0258 -0.0697  0.1730
  849MPD2    C212470   3.355   1.751  13.909  0.5790 -0.4182 -0.6518
  849MPD2    C312471   3.333   1.768  14.043 -0.2847  0.1057 -0.6297
  849MPD2    C412472   3.239   1.855  14.087 -0.0994 -0.6121  0.1627
  849MPD2    C512473   3.167   1.920  13.999 -1.1245  0.5813 -0.3345
  849MPD2     H12474   3.434   1.687  13.871  1.6493  0.7264 -0.3419
  849MPD2    H112475   3.217   1.845  14.193  0.1163 -0.5783  0.2106
  849MPD2    H212476   3.119   1.960  13.790 -0.4510  0.0610 -0.2355
  849MPD2    H312477   3.078   1.967  14.037 -0.4492  1.6797 -0.1077
  849MPD2     N12478   3.405   1.693  14.140  0.0214  0.7983  0.2827
  849MPD2    H512479   3.389   1.713  14.239 -0.0831 -0.4692  0.5210
  849MPD2    N112480   3.313   1.806  13.681 -0.1491 -0.1357 -0.1707
  849MPD2    H712481   3.391   1.746  13.654 -0.3689 -0.2652 -0.5222
  850MPD2     C12482   1.414   4.115  14.926 -0.1932  0.4562 -0.3166
  850MPD2    C112483   1.416   4.244  14.971 -0.3545 -1.4692  0.5791
  850MPD2    C212484   1.538   4.305  14.972  0.4963 -0.1256 -0.3656
  850MPD2    C312485   1.655   4.242  14.930 -0.5571 -0.4424  0.1596
  850MPD2    C412486   1.648   4.114  14.883  0.2029  0.6302  0.6452
  850MPD2    C512487   1.525   4.056  14.876  0.4990 -0.1731 -0.3477
  850MPD2     H12488   1.542   4.406  15.012 -1.7071  0.1894 -0.9365
  850MPD2    H112489   1.739   4.057  14.866 -1.4339 -1.4189 -1.1052
  850MPD2    H212490   1.327   4.050  14.928  0.3447 -0.1922  2.0619
  850MPD2    H312491   1.518   3.965  14.818  0.0477 -0.5990  0.3730
  850MPD2     N12492   1.787   4.295  14.940  0.1458  0.1640  0.1297
  850MPD2    H512493   1.862   4.231  14.916  1.0890  1.1744  0.4129
  850MPD2    N112494   1.285   4.293  15.011 -0.6688 -0.2334 -0.3681
  850MPD2    H712495   1.214   4.225  14.985  1.3356 -2.3534 -0.2733
  851MPD2     C12496   1.939   4.489  15.500 -0.6586  0.0418 -0.1372
  851MPD2    C112497   1.851   4.432  15.407  0.1627  0.4746 -0.1889
  851MPD2    C212498   1.883   4.311  15.346 -0.0871 -0.4124  0.0327
  851MPD2    C312499   1.997   4.233  15.383  0.2402 -0.8421 -0.1310
  851MPD2    C412500   2.084   4.297  15.473  0.2989 -0.3763  0.3595
  851MPD2    C512501   2.050   4.412  15.531 -0.6494  0.5801  0.0080
  851MPD2     H12502   1.817   4.277  15.267  1.3475  0.4820 -1.5347
  851MPD2    H112503   2.180   4.257  15.503 -0.1417  0.3978  2.7840
  851MPD2    H212504   1.928   4.581  15.556  1.4371 -0.6346  1.3829
  851MPD2    H312505   2.118   4.448  15.608 -0.0712 -0.6526  0.0600
  851MPD2     N12506   2.025   4.119  15.304 -0.3789 -0.0809  0.0457
  851MPD2    H512507   1.948   4.100  15.241  0.7279 -1.1133 -0.9804
  851MPD2    N112508   1.729   4.494  15.374 -0.0518 -0.0681  0.2272
  851MPD2    H712509   1.717   4.591  15.404  0.1657 -0.1617  0.6149
  852MPD2     C12510   1.139   2.762   9.564 -0.2188  0.7311 -0.9220
  852MPD2    C112511   1.206   2.776   9.681 -0.6672  0.5092  0.4434
  852MPD2    C212512   1.317   2.861   9.691  0.4315 -0.1648  0.0575
  852MPD2    C312513   1.365   2.926   9.578 -0.3130 -0.2210  0.5815
  852MPD2    C412514   1.295   2.908   9.456  0.2704  0.4902 -0.6515
  852MPD2    C512515   1.186   2.830   9.452 -0.2338  0.3616 -0.0740
  852MPD2     H12516   1.372   2.867   9.784  0.4451 -1.2160  0.1096
  852MPD2    H112517   1.322   2.966   9.368  0.6376 -0.6780 -1.3228
  852MPD2    H212518   1.047   2.707   9.548  0.1208 -0.1969  0.2996
  852MPD2    H312519   1.122   2.819   9.365 -0.8961 -3.1534  0.8481
  852MPD2     N12520   1.480   3.000   9.603 -0.4026 -1.0180  0.2533
  852MPD2    H512521   1.516   3.013   9.697  0.2383  3.2970 -0.5646
  852MPD2    N112522   1.158   2.711   9.802  0.4453 -0.1522  0.1844
  852MPD2    H712523   1.211   2.739   9.884  1.4185 -0.5037 -0.3330
  853MPD2     C12524   3.030   2.580  12.044 -0.6580 -1.0897  0.0111
  853MPD2    C112525   3.117   2.481  12.085  0.1059  0.0781  0.4743
  853MPD2    C212526   3.123   2.369  12.006  0.5041  0.2266  0.3546
  853MPD2    C312527   3.051   2.366  11.886 -0.1930  0.1636 -0.8054
  853MPD2    C412528   2.972   2.469  11.844 -0.8803  0.2347 -0.2564
  853MPD2    C512529   2.962   2.576  11.928  0.0704 -0.4825 -0.2577
  853MPD2     H12530   3.187   2.287  12.037  0.3515 -0.3935 -0.9328
  853MPD2    H112531   2.910   2.458  11.756 -0.1748 -1.0219 -0.5976
  853MPD2    H212532   3.005   2.667  12.104 -2.2105 -1.1283 -0.5731
  853MPD2    H312533   2.893   2.656  11.903 -0.4093 -0.1606  2.0985
  853MPD2     N12534   3.060   2.252  11.795 -0.0820 -0.2405 -0.1862
  853MPD2    H512535   3.019   2.268  11.703  0.7551  1.4795 -0.2561
  853MPD2    N112536   3.184   2.484  12.214 -0.3785  0.0752  0.2060
  853MPD2    H712537   3.174   2.568  12.270  1.3209 -0.9142  1.9685
  854MPD2     C12538   0.342   2.292  12.885 -0.1139 -0.1092 -0.8810
  854MPD2    C112539   0.390   2.229  12.774  0.8318  0.4267 -0.0530
  854MPD2    C212540   0.489   2.125  12.787  0.9160  0.4220  0.4575
  854MPD2    C312541   0.531   2.085  12.911  0.1222  0.1047  0.0375
  854MPD2    C412542   0.481   2.152  13.025  0.1889 -0.8333  0.5242
  854MPD2    C512543   0.386   2.248  13.013 -0.1547 -0.4933  0.4554
  854MPD2     H12544   0.526   2.083  12.694  1.0822  1.0134  0.2530
  854MPD2    H112545   0.513   2.127  13.126  1.1393 -0.2319  0.3691
  854MPD2    H212546   0.262   2.364  12.879  0.7214  0.8264 -0.7144
  854MPD2    H312547   0.342   2.285  13.104  1.0917  0.4467  0.6782
  854MPD2     N12548   0.631   1.986  12.930  0.2241 -0.7946  0.1768
  854MPD2    H512549   0.649   1.963  13.027  1.6153  1.2958  0.4284
  854MPD2    N112550   0.336   2.270  12.651  0.0196  0.0234  0.1541
  854MPD2    H712551   0.267   2.344  12.657 -0.4908 -0.3273 -1.4081
  855MPD2     C12552   1.106   1.462  13.622 -0.2155  0.0252  0.6025
  855MPD2    C112553   0.984   1.526  13.613  0.8416  0.2957  0.8435
  855MPD2    C212554   0.936   1.560  13.487  0.0910  0.3743 -0.6525
  855MPD2    C312555   1.015   1.543  13.377 -0.1245 -0.8680  0.6787
  855MPD2    C412556   1.124   1.471  13.386 -0.0127  0.3530 -0.6084
  855MPD2    C512557   1.171   1.428  13.505 -0.1295 -0.0375  0.0923
  855MPD2     H12558   0.835   1.594  13.469  0.1152  1.4403  1.2242
  855MPD2    H112559   1.174   1.431  13.299 -1.0667  1.6644 -1.8187
  855MPD2    H212560   1.135   1.417  13.717 -1.4410 -0.6776  0.6445
  855MPD2    H312561   1.265   1.376  13.519 -0.1850  0.1337  1.1023
  855MPD2     N12562   0.974   1.577  13.246 -0.6755 -0.0982 -0.2593
  855MPD2    H512563   1.019   1.528  13.169 -0.9023  1.0771 -1.1482
  855MPD2    N112564   0.904   1.573  13.718 -0.5319  0.3398  0.4349
  855MPD2    H712565   0.814   1.613  13.694  0.5274  0.1894 -3.8988
  856MPD2     C12566   2.852   2.764  13.424  0.1245  0.2659  0.1012
  856MPD2    C112567   2.900   2.858  13.512 -0.7242  0.1639  0.3074
  856MPD2    C212568   2.812   2.938  13.575 -0.1382 -0.5044 -0.9310
  856MPD2    C312569   2.680   2.947  13.534 -0.2335  0.1626 -0.6520
  856MPD2    C412570   2.636   2.864  13.440  0.6780  0.0027 -0.3857
  856MPD2    C512571   2.719   2.776  13.377  0.2440 -0.0057 -0.0259
  856MPD2     H12572   2.853   3.002  13.652 -0.6118 -0.5542 -0.6355
  856MPD2    H112573   2.536   2.885  13.403  0.1248 -2.7464 -0.4350
  856MPD2    H212574   2.920   2.694  13.376  1.0937  1.2932 -0.0284
  856MPD2    H312575   2.673   2.709  13.305  0.3435  0.7529 -0.7861
  856MPD2     N12576   2.582   3.034  13.592  0.4381 -0.4797  0.0418
  856MPD2    H512577   2.497   3.047  13.538  2.1251  1.6678 -2.0977
  856MPD2    N112578   3.037   2.857  13.551  0.1508 -0.1194  0.6407
  856MPD2    H712579   3.055   2.917  13.631 -0.8888  2.1025 -0.8039
  857MPD2     C12580   4.202   0.281  12.319  0.4015  0.0933 -0.2507
  857MPD2    C112581   4.332   0.298  12.352  0.9348 -0.6357 -0.1335
  857MPD2    C212582   4.376   0.426  12.383  0.3971 -0.1627 -0.5626
  857MPD2    C312583   4.296   0.533  12.379 -0.1172 -0.6062  0.1119
  857MPD2    C412584   4.166   0.515  12.338 -0.5672 -0.5356 -0.8584
  857MPD2    C512585   4.113   0.384  12.313  0.3391 -0.0005 -0.3323
  857MPD2     H12586   4.482   0.441  12.400  0.3822  0.8782 -1.3344
  857MPD2    H112587   4.090   0.592  12.345 -0.3591 -0.3590 -0.5401
  857MPD2    H212588   4.160   0.185  12.289  0.3358 -0.4052  1.4614
  857MPD2    H312589   4.008   0.360  12.302  1.0255 -2.0632 -2.4469
  857MPD2     N12590   4.340   0.663  12.421 -1.0359 -0.0799 -0.0532
  857MPD2    H512591   4.427   0.671  12.473 -1.3508  0.0290  0.4510
  857MPD2    N112592   4.408   0.182  12.365  0.5053 -0.1539 -0.0436
  857MPD2    H712593   4.365   0.095  12.335 -1.4992  0.4174  1.1614
  858MPD2     C12594   0.098   4.273  16.622 -0.0981 -0.1191  0.2521
  858MPD2    C112595   0.200   4.195  16.664 -0.1046 -0.1937 -0.6375
  858MPD2    C212596   0.261   4.241  16.786 -0.6107  0.6793  0.1934
  858MPD2    C312597   0.228   4.356  16.848 -0.3531  0.6470  0.5510
  858MPD2    C412598   0.123   4.431  16.796  0.7859 -0.5528  0.2372
  858MPD2    C512599   0.069   4.397  16.673 -0.7270 -1.5570 -0.6841
  858MPD2     H12600   0.347   4.184  16.817 -0.0545 -0.2457 -3.0660
  858MPD2    H112601   0.101   4.533  16.828  1.1084 -0.5716  0.5302
  858MPD2    H212602   0.034   4.225  16.548 -0.0829  0.4563 -0.1263
  858MPD2    H312603   4.710   4.455  16.632 -0.6995  0.0579  1.5374
  858MPD2     N12604   0.303   4.416  16.951 -0.2886  0.1362 -0.6304
  858MPD2    H512605   0.256   4.491  17.001 -0.2034 -0.9520  1.0738
  858MPD2    N112606   0.247   4.074  16.600  0.1099 -0.7933 -0.5716
  858MPD2    H712607   0.310   4.015  16.652 -0.3551 -1.6555 -0.9850
  859MPD2     C12608   3.160   1.362  14.873 -0.3908  0.0138 -0.4488
  859MPD2    C112609   3.293   1.405  14.874  0.9500  0.4537  0.5993
  859MPD2    C212610   3.399   1.324  14.838 -0.0168  0.2685 -0.4255
  859MPD2    C312611   3.368   1.194  14.791  0.1050  0.1473 -1.4029
  859MPD2    C412612   3.237   1.154  14.770  0.1228  0.0814 -0.5046
  859MPD2    C512613   3.133   1.235  14.816 -0.1960 -0.8217 -0.0772
  859MPD2     H12614   3.500   1.354  14.862 -0.5770  0.1780  2.0604
  859MPD2    H112615   3.211   1.052  14.744 -2.2942  0.7699 -0.8243
  859MPD2    H212616   3.077   1.429  14.895 -0.6300  0.1591 -1.7992
  859MPD2    H312617   3.030   1.203  14.812 -0.1337 -0.9290 -0.7033
  859MPD2     N12618   3.469   1.095  14.772  0.1363 -0.3893 -0.2155
  859MPD2    H512619   3.444   1.012  14.718 -0.8346 -0.8176  0.8741
  859MPD2    N112620   3.316   1.542  14.915  0.7862 -0.1146  0.4957
  859MPD2    H712621   3.245   1.600  14.959  0.1400 -1.7738  1.6057
  860MPD2     C12622   1.662   1.670  11.195  0.5321  0.4866  0.1832
  860MPD2    C112623   1.626   1.797  11.238  0.7443  0.3972 -0.4639
  860MPD2    C212624   1.526   1.815  11.333 -0.3261  0.5557 -0.1261
  860MPD2    C312625   1.478   1.707  11.402  0.4431  0.8885  0.2751
  860MPD2    C412626   1.508   1.579  11.354 -1.0919  0.4576  0.2998
  860MPD2    C512627   1.597   1.563  11.254 -0.1105  0.1879  0.4163
  860MPD2     H12628   1.500   1.913  11.369 -1.3356 -1.1596  3.8195
  860MPD2    H112629   1.472   1.486  11.397 -1.7435  0.5092 -0.1360
  860MPD2    H212630   1.745   1.644  11.131  2.1563  1.2836  1.9631
  860MPD2    H312631   1.628   1.465  11.218  0.5049  1.8410 -3.5567
  860MPD2     N12632   1.407   1.731  11.522  0.5192  0.0934  0.8079
  860MPD2    H512633   1.390   1.829  11.546  3.1172  0.5469  0.7731
  860MPD2    N112634   1.697   1.914  11.197  0.4434  0.1403  0.0552
  860MPD2    H712635   1.652   2.002  11.222 -0.0421  0.6377 -2.6360
  861MPD2     C12636   0.982   0.426  10.983 -0.1626 -0.5008  0.0615
  861MPD2    C112637   0.869   0.477  11.041 -0.3872 -0.0978 -0.0784
  861MPD2    C212638   0.760   0.488  10.954 -0.5551  0.1431  0.3169
  861MPD2    C312639   0.777   0.453  10.816  0.7153  0.4413 -0.6676
  861MPD2    C412640   0.887   0.394  10.771  0.0698  0.2681 -0.3916
  861MPD2    C512641   0.989   0.382  10.855 -0.3573  0.1904  0.0445
  861MPD2     H12642   0.671   0.525  11.003 -1.6341  0.4489 -1.8641
  861MPD2    H112643   0.889   0.348  10.673 -2.2151 -1.0353  0.1627
  861MPD2    H212644   1.076   0.429  11.038  0.1225  1.5278 -0.5156
  861MPD2    H312645   1.084   0.345  10.820 -0.3557 -1.0177  1.3349
  861MPD2     N12646   0.674   0.483  10.724  0.4047  0.3783  0.0440
  861MPD2    H512647   0.686   0.453  10.628 -2.3504  1.9552 -0.8050
  861MPD2    N112648   0.859   0.524  11.170 -0.1089  0.0300  0.0539
  861MPD2    H712649   0.763   0.546  11.192  0.3167 -1.9950  3.7941
  862MPD2     C12650   0.263   0.150  10.334 -0.8642 -0.1912 -0.1848
  862MPD2    C112651   0.357   0.199  10.420 -0.3077 -0.1543 -0.3381
  862MPD2    C212652   0.395   0.120  10.528  0.4898 -0.7913 -0.8287
  862MPD2    C312653   0.332   4.720  10.546 -0.2735  0.1256 -0.5019
  862MPD2    C412654   0.239   4.672  10.459  0.4974 -0.5484 -0.7890
  862MPD2    C512655   0.200   0.031  10.355 -0.9626 -0.3160  0.1840
  862MPD2     H12656   0.463   0.161  10.602  0.1976  1.1327 -1.6136
  862MPD2    H112657   0.193   4.575  10.473 -1.6817  0.8971  2.2251
  862MPD2    H212658   0.232   0.199  10.243 -0.9796 -0.2970 -0.2020
  862MPD2    H312659   0.120   4.721  10.290  0.3556  1.5804 -2.3832
  862MPD2     N12660   0.343   4.648  10.669  0.1172 -0.1387 -0.6846
  862MPD2    H512661   0.277   4.577  10.700 -0.5032 -0.0734 -1.8652
  862MPD2    N112662   0.410   0.331  10.420 -0.2980 -0.6999 -0.2228
  862MPD2    H712663   0.470   0.363  10.494 -1.2934 -3.9764  1.9763
  863MPD2     C12664   3.025   4.124  16.848  0.7496  0.3254 -0.0745
  863MPD2    C112665   2.997   4.037  16.948 -0.4697 -0.0694  0.1719
  863MPD2    C212666   3.094   3.957  17.000  0.5610  0.3273  0.8840
  863MPD2    C312667   3.226   3.963  16.950 -0.4847  0.0534  0.0131
  863MPD2    C412668   3.252   4.058  16.852  0.0559  0.0942 -0.7018
  863MPD2    C512669   3.149   4.131  16.802 -0.3698  0.3403  0.6912
  863MPD2     H12670   3.067   3.886  17.078  0.4511 -0.5125  0.0866
  863MPD2    H112671   3.351   4.064  16.808  0.6647  0.0892  0.6705
  863MPD2    H212672   2.953   4.187  16.798  0.0503  0.0015  0.5363
  863MPD2    H312673   3.178   4.192  16.717 -1.0241  0.6659  0.7027
  863MPD2     N12674   3.329   3.879  16.996 -0.5536  0.3249  1.1481
  863MPD2    H512675   3.419   3.895  16.952 -1.1218 -1.4637 -0.6218
  863MPD2    N112676   2.860   4.029  16.986 -0.0864  0.2456 -0.0137
  863MPD2    H712677   2.792   4.072  16.924  0.0284 -0.6375 -0.7468
  864MPD2     C12678   3.272   4.523  16.740  0.5004  0.4812 -0.3946
  864MPD2    C112679   3.384   4.592  16.781  0.1775  0.2100 -0.7646
  864MPD2    C212680   3.455   4.666  16.684 -0.1206  0.3691  0.1386
  864MPD2    C312681   3.422   4.652  16.546 -0.3734 -0.0966 -0.3328
  864MPD2    C412682   3.319   4.574  16.507 -0.4174 -0.4291  0.0913
  864MPD2    C512683   3.238   4.523  16.601  0.6829 -0.4992  0.6727
  864MPD2     H12684   3.536   0.009  16.713 -0.4133 -0.1775  2.2012
  864MPD2    H112685   3.292   4.561  16.403  2.1339 -1.5590 -0.4500
  864MPD2    H212686   3.212   4.480  16.819 -0.1824 -0.7183 -1.5766
  864MPD2    H312687   3.157   4.457  16.571  0.9449 -1.0644  1.2122
  864MPD2     N12688   3.490   0.001  16.445  0.8655  0.0056  0.6747
  864MPD2    H512689   3.449   0.003  16.352  0.9459  1.6046  0.6625
  864MPD2    N112690   3.428   4.585  16.917 -0.3576 -0.2985  0.1248
  864MPD2    H712691   3.388   4.513  16.976 -0.5675 -1.9241 -2.0522
  865MPD2     C12692   3.637   4.664  15.659  0.3200  0.0481  0.6736
  865MPD2    C112693   3.619   4.634  15.791  0.5181 -0.1894 -0.0348
  865MPD2    C212694   3.580   0.019  15.871  0.1907  0.1071 -0.5265
  865MPD2    C312695   3.567   0.144  15.811 -0.6382 -0.5177  0.6781
  865MPD2    C412696   3.602   0.172  15.681 -0.1898 -0.1260 -0.2573
  865MPD2    C512697   3.636   0.067  15.606 -0.2883 -0.1763 -0.5690
  865MPD2     H12698   3.556   4.720  15.974 -1.4165 -1.8320 -1.3292
  865MPD2    H112699   3.582   0.271  15.643 -0.2411  0.4246  1.1904
  865MPD2    H212700   3.661   4.584  15.589 -0.2266  3.0184 -2.9031
  865MPD2    H312701   3.662   0.089  15.503  0.8372 -1.5274 -0.5693
  865MPD2     N12702   3.500   0.244  15.886 -0.2577  0.1427 -0.1079
  865MPD2    H512703   3.459   0.320  15.832 -1.7992 -1.6369 -1.4494
  865MPD2    N112704   3.669   4.511  15.833  0.4457  0.4817 -0.3821
  865MPD2    H712705   3.695   4.450  15.755 -3.0072 -2.3112  0.6791
  866MPD2     C12706   1.177   0.841  11.440 -0.1357 -0.2227  0.0214
  866MPD2    C112707   1.165   0.820  11.303  1.1586 -0.1867 -0.1700
  866MPD2    C212708   1.060   0.879  11.228  0.2011  0.6828 -0.3485
  866MPD2    C312709   0.967   0.950  11.302 -0.0792  0.6500 -0.3058
  866MPD2    C412710   0.974   0.955  11.437 -1.0559 -0.4348  0.1535
  866MPD2    C512711   1.084   0.907  11.510  0.2894 -0.4083  0.1378
  866MPD2     H12712   1.058   0.874  11.120 -0.3652  1.2727 -0.3613
  866MPD2    H112713   0.897   1.009  11.491  0.4603  0.6395  1.2455
  866MPD2    H212714   1.245   0.789  11.507 -1.8138 -0.2913  1.6718
  866MPD2    H312715   1.086   0.918  11.618  0.3390 -0.5179  0.1493
  866MPD2     N12716   0.846   0.992  11.249 -0.5392  0.4217  0.8190
  866MPD2    H512717   0.780   1.033  11.314 -0.5106 -1.0145  1.7684
  866MPD2    N112718   1.262   0.733  11.248 -0.4043 -0.0330 -0.3508
  866MPD2    H712719   1.324   0.688  11.314 -0.3279 -1.4565 -1.3908
  867MPD2     C12720   2.229   0.107  16.424 -0.2162  0.3037 -0.2236
  867MPD2    C112721   2.312   0.047  16.517 -0.4966 -0.6574  0.1223
  867MPD2    C212722   2.407   0.125  16.573 -0.0818 -0.0953  0.1187
  867MPD2    C312723   2.405   0.266  16.560 -0.4219  0.5967 -0.2730
  867MPD2    C412724   2.313   0.320  16.475 -0.2193 -0.1980 -0.6445
  867MPD2    C512725   2.229   0.242  16.401  0.5370  1.0216  0.0041
  867MPD2     H12726   2.485   0.084  16.636  0.9264 -0.2252 -1.2400
  867MPD2    H112727   2.320   0.428  16.465  0.5445 -0.0210  1.6928
  867MPD2    H212728   2.172   0.047  16.354  2.1162 -4.1981  1.7366
  867MPD2    H312729   2.173   0.283  16.318  0.3777  0.7090 -0.0437
  867MPD2     N12730   2.495   0.354  16.633 -0.2528 -0.1329 -0.4923
  867MPD2    H512731   2.489   0.453  16.611  1.0403 -0.3629 -1.8808
  867MPD2    N112732   2.313   4.625  16.519  0.2678  0.3148  0.2636
  867MPD2    H712733   2.235   4.580  16.473  1.0157  2.2042 -2.8467
  868MPD2     C12734   0.143   3.557  12.786  0.6997  0.0735 -0.0014
  868MPD2    C112735   0.143   3.458  12.885 -0.8284 -0.2511 -0.8158
  868MPD2    C212736   0.027   3.431  12.956 -0.4032  0.4179 -0.5713
  868MPD2    C312737   4.640   3.513  12.938 -0.4094 -0.3996 -0.5776
  868MPD2    C412738   4.639   3.593  12.825  0.3437  0.4509 -0.5825
  868MPD2    C512739   0.029   3.615  12.748  0.0306 -0.0382  0.0516
  868MPD2     H12740   0.025   3.351  13.029  0.6158  0.8661 -0.0583
  868MPD2    H112741   4.549   3.641  12.790 -0.9742 -2.1098 -0.7457
  868MPD2    H212742   0.232   3.598  12.741  0.7850  1.2842  1.2771
  868MPD2    H312743   0.027   3.694  12.675  0.8685 -1.0352 -1.0424
  868MPD2     N12744   4.526   3.502  13.021  0.2807 -0.0860 -0.2496
  868MPD2    H512745   4.516   3.431  13.092 -1.9933 -1.3657 -1.8598
  868MPD2    N112746   0.264   3.402  12.920 -0.3365  0.3205  0.5566
  868MPD2    H712747   0.343   3.431  12.864  0.3209 -3.1719 -0.3295
  869MPD2     C12748   0.752   1.665   1.592 -0.4784 -0.4148 -0.3302
  869MPD2    C112749   0.660   1.581   1.525 -0.0705 -0.1990  0.0489
  869MPD2    C212750   0.602   1.614   1.404  0.3134 -0.4721  0.6580
  869MPD2    C312751   0.615   1.745   1.357  0.5690 -0.0051  0.7976
  869MPD2    C412752   0.698   1.836   1.429 -0.7291 -0.0601 -0.7374
  869MPD2    C512753   0.765   1.793   1.539 -0.2886 -0.1096 -0.3033
  869MPD2     H12754   0.535   1.542   1.358 -2.7012  0.5436  3.4972
  869MPD2    H112755   0.726   1.934   1.393 -0.7194 -0.6690 -2.3671
  869MPD2    H212756   0.792   1.629   1.686  1.7585  0.5161 -0.9485
  869MPD2    H312757   0.839   1.854   1.589 -0.6280  0.6882 -0.7752
  869MPD2     N12758   0.552   1.788   1.233 -0.7680 -0.0637 -0.2127
  869MPD2    H512759   0.582   1.878   1.197 -1.5811  0.3031  0.0225
  869MPD2    N112760   0.633   1.466   1.603 -0.1113  0.2843  0.0374
  869MPD2    H712761   0.692   1.467   1.685 -1.0715 -0.1865  0.7393
  870MPD2     C12762   0.098   0.540   1.566  0.3641  0.7161 -0.1455
  870MPD2    C112763   0.155   0.631   1.477 -0.5615  0.3642 -0.0091
  870MPD2    C212764   0.076   0.688   1.375  0.4398 -0.6820 -0.2048
  870MPD2    C312765   4.668   0.648   1.365 -0.1659  0.1820  0.0746
  870MPD2    C412766   4.617   0.564   1.458  0.3674 -0.2838  1.0321
  870MPD2    C512767   4.685   0.507   1.561 -0.2442 -0.6018  0.5414
  870MPD2     H12768   0.119   0.751   1.297 -0.7527  1.0416  0.5254
  870MPD2    H112769   4.516   0.528   1.445  0.9368 -1.0773 -1.2217
  870MPD2    H212770   0.162   0.490   1.637 -0.6394  0.3122  0.4691
  870MPD2    H312771   4.637   0.443   1.633 -1.2256 -2.2243 -1.5540
  870MPD2     N12772   4.586   0.695   1.259  0.1562 -0.0718  0.1883
  870MPD2    H512773   4.630   0.748   1.185 -1.0788 -1.7019 -1.7163
  870MPD2    N112774   0.293   0.659   1.494  0.3220  0.4363 -0.3985
  870MPD2    H712775   0.337   0.610   1.572 -0.3614 -0.4025 -0.5313
  871MPD2     C12776   1.524   4.508  16.196 -0.0797 -0.1686 -0.2198
  871MPD2    C112777   1.476   4.479  16.321 -0.4163 -0.7303  0.0128
  871MPD2    C212778   1.406   4.361  16.347  0.0316  0.1186 -0.2757
  871MPD2    C312779   1.414   4.264  16.251 -0.9263  0.3767  0.6630
  871MPD2    C412780   1.477   4.284  16.127  0.2838 -0.2836 -0.6105
  871MPD2    C512781   1.525   4.410  16.101 -0.1249 -0.2319  0.4789
  871MPD2     H12782   1.361   4.341  16.444 -1.0576  0.6839 -0.6614
  871MPD2    H112783   1.487   4.210  16.048  1.4130 -0.4053 -0.3568
  871MPD2    H212784   1.562   4.606  16.166  2.8948 -0.4975  2.3978
  871MPD2    H312785   1.565   4.435  16.003  0.0502 -2.6787 -0.0751
  871MPD2     N12786   1.368   4.135  16.269  0.0480 -0.2035 -0.4209
  871MPD2    H512787   1.380   4.068  16.194  0.9825  0.0757 -0.5142
  871MPD2    N112788   1.488   4.578  16.417 -0.5513 -0.0067 -0.1642
  871MPD2    H712789   1.539   4.663  16.392  0.8263 -0.8579 -0.2543
  872MPD2     C12790   2.419   2.251  13.957 -0.1277  0.4214 -0.3020
  872MPD2    C112791   2.357   2.322  13.853 -0.8041 -0.4682 -0.3793
  872MPD2    C212792   2.225   2.346  13.852 -0.2229 -0.6240  0.0472
  872MPD2    C312793   2.148   2.303  13.964 -0.2563 -0.1488 -0.2899
  872MPD2    C412794   2.201   2.232  14.065  0.5664 -0.0425  0.4265
  872MPD2    C512795   2.335   2.204  14.057 -0.3707 -1.1433  0.0448
  872MPD2     H12796   2.171   2.407  13.781 -1.1541  0.3571  1.5941
  872MPD2    H112797   2.134   2.191  14.140  1.8111 -1.4365  0.7693
  872MPD2    H212798   2.525   2.232  13.967 -0.0723 -0.6897 -2.9145
  872MPD2    H312799   2.379   2.148  14.139 -4.3126 -0.9788  2.3063
  872MPD2     N12800   2.013   2.334  13.981 -0.3406  0.1045 -0.4507
  872MPD2    H512801   1.972   2.289  14.062  2.3043  0.0869  0.8756
  872MPD2    N112802   2.435   2.384  13.750  0.8225  0.5808 -0.4933
  872MPD2    H712803   2.384   2.412  13.667 -0.5631 -0.8614 -0.1319
  873MPD2     C12804   4.703   2.611   1.520 -0.5493  0.0312 -0.1836
  873MPD2    C112805   4.608   2.517   1.475  0.4375 -0.0772 -0.1135
  873MPD2    C212806   4.646   2.408   1.411 -0.2793  1.0681  0.8019
  873MPD2    C312807   0.055   2.382   1.388  0.0375  0.4714 -0.1844
  873MPD2    C412808   0.154   2.463   1.431 -0.7538 -0.5681 -0.3947
  873MPD2    C512809   0.116   2.576   1.503  0.0292 -0.3639  0.1269
  873MPD2     H12810   4.568   2.334   1.395  0.2052  1.2066 -2.0901
  873MPD2    H112811   0.251   2.456   1.383 -0.4110 -3.3275  0.7425
  873MPD2    H212812   4.671   2.697   1.579  0.6819 -0.8992  1.8478
  873MPD2    H312813   0.191   2.640   1.546 -2.8455  1.8308  1.8726
  873MPD2     N12814   0.091   2.260   1.320 -0.2558  0.0375 -0.5184
  873MPD2    H512815   0.191   2.244   1.332 -0.0679  0.1598 -2.0020
  873MPD2    N112816   4.474   2.543   1.525 -0.7055  0.2965  0.4713
  873MPD2    H712817   4.459   2.620   1.589  0.4832  0.1499  0.9251
  874MPD2     C12818   3.375   2.229  15.837 -0.0557 -0.0983 -0.5036
  874MPD2    C112819   3.496   2.214  15.900  0.4131 -0.1731 -0.8995
  874MPD2    C212820   3.566   2.325  15.919 -0.4080  0.5261  0.2378
  874MPD2    C312821   3.526   2.452  15.874 -0.1984  0.4770 -0.0410
  874MPD2    C412822   3.407   2.466  15.802 -0.9315 -0.1645  0.3249
  874MPD2    C512823   3.324   2.351  15.802 -0.0386  0.1322  0.5706
  874MPD2     H12824   3.661   2.328  15.972  0.8502  1.1092 -2.0188
  874MPD2    H112825   3.382   2.565  15.767 -2.9592 -0.3840  1.1416
  874MPD2    H212826   3.323   2.136  15.820 -0.6691  0.1391  0.0363
  874MPD2    H312827   3.225   2.351  15.758  0.6560  2.1054 -0.9751
  874MPD2     N12828   3.617   2.557  15.893  0.3282 -0.3826 -0.2502
  874MPD2    H512829   3.702   2.543  15.948  1.9724  1.6459 -2.3081
  874MPD2    N112830   3.532   2.077  15.934  0.3485 -0.3214 -0.3122
  874MPD2    H712831   3.460   2.006  15.927 -0.0199  0.2995 -2.5832
  875MPD2     C12832   0.393   0.832  14.746 -0.6862 -0.1041  0.1445
  875MPD2    C112833   0.264   0.817  14.793 -0.1234  0.5789  0.0476
  875MPD2    C212834   0.229   0.838  14.925  0.1365 -0.8023  0.8171
  875MPD2    C312835   0.324   0.891  15.018  0.1601  0.1039  0.4440
  875MPD2    C412836   0.454   0.912  14.971  0.3221  0.5392 -0.5278
  875MPD2    C512837   0.480   0.894  14.831 -0.3557  0.2260 -0.4735
  875MPD2     H12838   0.129   0.816  14.959  0.1789 -0.5241  1.1211
  875MPD2    H112839   0.522   0.971  15.032 -0.6132  0.4451  0.6057
  875MPD2    H212840   0.416   0.819  14.641  0.4583  0.2896  0.3452
  875MPD2    H312841   0.581   0.912  14.798 -0.2803  1.7341  0.5894
  875MPD2     N12842   0.293   0.937  15.147 -0.4091 -0.1864  0.3022
  875MPD2    H512843   0.373   0.969  15.200  1.1809 -1.7113 -1.2192
  875MPD2    N112844   0.161   0.763  14.716 -0.3706  0.1303  0.1793
  875MPD2    H712845   0.070   0.755  14.761 -0.2403  1.5285  0.7064
  876MPD2     C12846   4.045   1.901  15.916 -0.3825 -0.1793  0.6118
  876MPD2    C112847   3.968   1.843  15.819 -0.7012  1.2477 -0.4791
  876MPD2    C212848   3.920   1.716  15.836 -0.1930 -0.6682  0.7354
  876MPD2    C312849   3.956   1.640  15.950 -0.5016  0.7134 -0.4998
  876MPD2    C412850   4.037   1.699  16.048 -0.4592 -0.3681 -0.4079
  876MPD2    C512851   4.088   1.824  16.027 -0.9435 -0.0573  0.0530
  876MPD2     H12852   3.860   1.673  15.757  0.2966 -0.0200  0.0155
  876MPD2    H112853   4.061   1.650  16.141 -1.3676  2.3499  1.2594
  876MPD2    H212854   4.077   2.004  15.904 -0.6332 -0.3053 -1.1483
  876MPD2    H312855   4.154   1.868  16.100 -1.1542  1.6883 -0.8246
  876MPD2     N12856   3.914   1.505  15.958 -0.2398  0.4780 -0.2600
  876MPD2    H512857   3.845   1.481  15.888 -1.1390 -0.0140  0.7760
  876MPD2    N112858   3.936   1.927  15.709 -0.4739 -0.3554 -0.2283
  876MPD2    H712859   4.000   2.005  15.701 -0.9732  0.0295 -0.4530
  877MPD2     C12860   3.481   2.266  15.044  0.2243 -0.5647 -0.0143
  877MPD2    C112861   3.620   2.274  15.047  0.3150  0.0770 -0.4830
  877MPD2    C212862   3.690   2.316  14.934  0.1377 -0.4267 -0.4065
  877MPD2    C312863   3.624   2.327  14.814 -0.1647 -0.3284 -0.5953
  877MPD2    C412864   3.492   2.303  14.808 -0.0100  0.0766  0.3504
  877MPD2    C512865   3.419   2.282  14.920  0.4408  0.0665 -0.9475
  877MPD2     H12866   3.797   2.329  14.947  0.0656  1.1729 -1.5276
  877MPD2    H112867   3.435   2.312  14.716 -0.2668  1.3750  0.6324
  877MPD2    H212868   3.423   2.238  15.131 -3.0789  2.5023 -1.2062
  877MPD2    H312869   3.315   2.259  14.904  0.4209  0.0900 -0.8540
  877MPD2     N12870   3.685   2.370  14.691 -0.0884 -0.8170  0.0631
  877MPD2    H512871   3.635   2.348  14.606 -0.2875  0.1927 -0.0907
  877MPD2    N112872   3.697   2.241  15.157  0.3219  0.1085  0.1598
  877MPD2    H712873   3.797   2.242  15.143  0.3016 -2.9450 -0.1747
  878MPD2     C12874   3.267   1.444  12.693 -0.8018 -0.2580 -0.4171
  878MPD2    C112875   3.369   1.528  12.718 -0.3530  0.5065 -0.4417
  878MPD2    C212876   3.403   1.564  12.846  0.0693 -0.0584  0.6523
  878MPD2    C312877   3.330   1.521  12.950  0.2233 -0.5533 -0.4060
  878MPD2    C412878   3.226   1.436  12.927 -0.5492  0.0665  0.2466
  878MPD2    C512879   3.187   1.396  12.799  0.3203  0.1392 -0.0892
  878MPD2     H12880   3.492   1.622  12.869 -0.3129  0.9652 -0.4375
  878MPD2    H112881   3.165   1.390  13.004 -0.6255  0.0213  0.1593
  878MPD2    H212882   3.248   1.406  12.594 -0.9974  2.1543 -1.2917
  878MPD2    H312883   3.098   1.337  12.782  1.1314 -0.7695 -1.1903
  878MPD2     N12884   3.360   1.575  13.078 -0.4953  0.0560 -0.1159
  878MPD2    H512885   3.450   1.622  13.087  0.0684 -1.4299  2.1499
  878MPD2    N112886   3.440   1.556  12.603  0.5751 -0.3013  0.1273
  878MPD2    H712887   3.381   1.530  12.525  1.0702 -0.0375 -0.3339
  879MPD2     C12888   4.512   3.399  16.860  0.6476  0.0300  0.3584
  879MPD2    C112889   4.489   3.452  16.988  0.1758  0.5761  0.3613
  879MPD2    C212890   4.389   3.396  17.071 -0.1774 -0.3589  0.3070
  879MPD2    C312891   4.326   3.275  17.030 -0.3670 -0.7010 -0.4921
  879MPD2    C412892   4.348   3.229  16.903 -0.5272 -0.1158  0.4618
  879MPD2    C512893   4.441   3.285  16.825  0.2020 -0.0160  0.3094
  879MPD2     H12894   4.388   3.424  17.176  1.8067  0.9669 -0.0269
  879MPD2    H112895   4.299   3.140  16.864  1.8162 -1.4073  0.4030
  879MPD2    H212896   4.592   3.436  16.796  1.0803 -1.9156 -0.2141
  879MPD2    H312897   4.463   3.237  16.730  1.2983  0.8517  0.1264
  879MPD2     N12898   4.221   3.207  17.096  0.0279  0.5983  0.3678
  879MPD2    H512899   4.162   3.145  17.042 -0.2012 -1.2111  2.6941
  879MPD2    N112900   4.571   3.562  17.020 -0.3165  0.9253  0.7232
  879MPD2    H712901   4.641   3.587  16.951 -0.5820  1.7076  0.7420
  880MPD2     C12902   0.685   0.179   0.628 -0.0118  0.3512  0.3898
  880MPD2    C112903   0.721   0.257   0.523  0.7703 -0.4282  0.4626
  880MPD2    C212904   0.845   0.230   0.466 -0.4606  0.3918  0.5360
  880MPD2    C312905   0.930   0.130   0.501  0.7790 -0.1950  0.1105
  880MPD2    C412906   0.892   0.063   0.611 -0.2009 -0.0596 -0.1332
  880MPD2    C512907   0.772   0.084   0.671  0.3959 -0.1227  0.7440
  880MPD2     H12908   0.877   0.275   0.373 -0.4918 -1.2701 -0.2751
  880MPD2    H112909   0.955   4.702   0.641  0.0983 -0.1709 -1.0774
  880MPD2    H212910   0.586   0.182   0.672  0.9167 -0.4044  2.5561
  880MPD2    H312911   0.735   0.012   0.743 -1.4347 -2.4673 -2.5260
  880MPD2     N12912   1.056   0.131   0.441  0.8020  0.5638  0.4387
  880MPD2    H512913   1.068   0.208   0.376 -0.5428  1.4037  1.1856
  880MPD2    N112914   0.641   0.364   0.486  0.4756  0.2135 -0.5119
  880MPD2    H712915   0.543   0.356   0.510  0.1159  0.1998 -2.0196
  881MPD2     C12916   0.958   1.021  17.507 -0.4149 -0.0191 -0.4919
  881MPD2    C112917   0.864   0.924  17.463  0.7934 -0.0074 -1.0996
  881MPD2    C212918   0.782   0.863  17.558 -0.2176 -0.6981 -0.3512
  881MPD2    C312919   0.783   0.906  17.690 -0.2432 -1.0238 -0.1728
  881MPD2    C412920   0.872   1.007   0.035 -0.5030 -0.2164  0.2936
  881MPD2    C512921   0.958   1.056  17.635 -0.4408  0.6819  0.4589
  881MPD2     H12922   0.712   0.788  17.523 -1.5853 -0.1766  1.3094
  881MPD2    H112923   0.861   1.045   0.136  0.4651 -0.9995  0.6903
  881MPD2    H212924   1.010   1.087  17.438 -0.5652 -0.2634 -0.8355
  881MPD2    H312925   1.014   1.146  17.661  0.5482  0.8650 -2.3021
  881MPD2     N12926   0.708   0.839   0.095 -0.5516 -0.3443  0.0209
  881MPD2    H512927   0.737   0.852   0.192  0.3477  2.9203 -0.6730
  881MPD2    N112928   0.895   0.871  17.331 -0.0976  0.3616  0.2760
  881MPD2    H712929   0.956   0.931  17.277  1.4003 -2.5733 -1.3256
  882MPD2     C12930   3.737   2.143  13.945 -0.6520  0.4069  0.2302
  882MPD2    C112931   3.681   2.239  14.026  0.1114 -0.2309 -0.2529
  882MPD2    C212932   3.549   2.268  14.005 -0.6181 -0.4760  0.1462
  882MPD2    C312933   3.472   2.198  13.912  0.7645 -0.2130 -0.3954
  882MPD2    C412934   3.534   2.107  13.829 -0.6504 -0.5153 -0.5586
  882MPD2    C512935   3.672   2.092  13.833 -0.7579 -0.1633 -0.1598
  882MPD2     H12936   3.508   2.345  14.070 -1.6216 -1.1511  0.3103
  882MPD2    H112937   3.472   2.049  13.761 -2.5476  0.2892  0.4794
  882MPD2    H212938   3.841   2.113  13.954 -1.4089 -1.6806  2.1649
  882MPD2    H312939   3.727   2.033  13.760  1.3585  1.9386 -0.2370
  882MPD2     N12940   3.330   2.213  13.900 -0.4117 -0.7256  0.1946
  882MPD2    H512941   3.284   2.136  13.854  1.1185 -1.0425 -0.8054
  882MPD2    N112942   3.759   2.303  14.126  0.3066  0.3582  0.3002
  882MPD2    H712943   3.854   2.276  14.149 -0.4373 -0.9257  1.8950
  883MPD2     C12944   1.719   2.645  16.620  0.2045 -0.4360  0.6358
  883MPD2    C112945   1.809   2.637  16.514  0.2478 -0.6615  0.1293
  883MPD2    C212946   1.940   2.655  16.543  0.5678  0.0566  0.1412
  883MPD2    C312947   1.993   2.672  16.672  0.5410  0.4562  0.3716
  883MPD2    C412948   1.905   2.674  16.772 -0.1280  0.5603 -0.8410
  883MPD2    C512949   1.770   2.671  16.744  0.0202 -0.5293  0.2379
  883MPD2     H12950   2.011   2.648  16.461  1.8057 -1.3833  1.3439
  883MPD2    H112951   1.933   2.694  16.875  2.7548  1.1131 -1.7362
  883MPD2    H212952   1.612   2.646  16.604  0.6987 -0.4431 -2.6109
  883MPD2    H312953   1.700   2.685  16.825 -0.8532  1.0925 -0.8132
  883MPD2     N12954   2.137   2.679  16.694  0.0897 -0.1848 -0.3801
  883MPD2    H512955   2.190   2.646  16.614  0.6594 -1.3721  0.5012
  883MPD2    N112956   1.767   2.601  16.385 -0.7914  0.3646  0.0674
  883MPD2    H712957   1.840   2.587  16.316 -2.0767  0.4248 -1.2830
  884MPD2     C12958   2.811   2.738  15.574  0.1959  0.3846  0.5046
  884MPD2    C112959   2.825   2.853  15.501  0.1434  0.2316 -0.0663
  884MPD2    C212960   2.719   2.913  15.441 -0.1248  0.2408  0.3166
  884MPD2    C312961   2.590   2.867  15.469  0.0082  0.1949  0.4289
  884MPD2    C412962   2.573   2.749  15.547 -0.7603 -0.7479  0.4581
  884MPD2    C512963   2.682   2.688  15.594 -0.4000 -0.6388 -0.0307
  884MPD2     H12964   2.742   2.999  15.379  0.4912  0.9485  1.5179
  884MPD2    H112965   2.476   2.712  15.578 -0.7832  1.0892  2.6179
  884MPD2    H212966   2.887   2.687  15.632 -0.5602  0.6720  1.7470
  884MPD2    H312967   2.680   2.612  15.672  0.2316  0.7863  1.3654
  884MPD2     N12968   2.484   2.945  15.421 -0.7180 -0.0768  0.0802
  884MPD2    H512969   2.520   3.033  15.386  0.3224 -1.2622 -1.8433
  884MPD2    N112970   2.949   2.919  15.497 -0.3612  0.2343 -0.3466
  884MPD2    H712971   2.946   3.010  15.453  0.4844  0.2399 -0.3926
  885MPD2     C12972   1.467   3.525   0.202 -0.4911  0.1982  0.0668
  885MPD2    C112973   1.544   3.420   0.150  0.5254 -0.0899 -0.2884
  885MPD2    C212974   1.571   3.420   0.017  0.5356 -0.0151  0.4999
  885MPD2    C312975   1.525   3.520  17.629  0.1076  0.2547  0.6765
  885MPD2    C412976   1.464   3.629  17.679 -0.4532  0.1899 -0.9390
  885MPD2    C512977   1.432   3.624   0.121  0.1598  0.2534  0.2791
  885MPD2     H12978   1.634   3.349  17.656 -1.6249  0.4262 -2.6145
  885MPD2    H112979   1.454   3.721  17.623  0.7840 -1.1124 -3.3018
  885MPD2    H212980   1.451   3.530   0.310  0.2926  0.4132  0.1674
  885MPD2    H312981   1.371   3.702   0.165  1.3466  0.9134  0.7534
  885MPD2     N12982   1.546   3.506  17.486  0.1456 -0.2868  0.1282
  885MPD2    H512983   1.608   3.432  17.454 -0.3997 -0.0848 -1.3456
  885MPD2    N112984   1.583   3.318   0.240 -0.1094 -0.0247 -0.5673
  885MPD2    H712985   1.556   3.323   0.338 -0.5373  3.5352 -0.8712
  886MPD2     C12986   2.166   1.462  14.765  0.1635  0.7790 -0.1990
  886MPD2    C112987   2.261   1.512  14.850  0.0512  0.1337 -0.4276
  886MPD2    C212988   2.275   1.648  14.854 -0.8314  0.3916 -0.4583
  886MPD2    C312989   2.199   1.732  14.781 -0.0622 -0.0808  0.1921
  886MPD2    C412990   2.100   1.679  14.702 -0.3272  0.3480 -0.3645
  886MPD2    C512991   2.082   1.546  14.693  0.0072  0.4139  0.1851
  886MPD2     H12992   2.338   1.688  14.933 -1.3344 -0.3225  0.3083
  886MPD2    H112993   2.033   1.736  14.637 -2.4056 -1.1383  0.4702
  886MPD2    H212994   2.136   1.358  14.760  1.4378  0.3148  2.0319
  886MPD2    H312995   2.001   1.503  14.635 -0.8329  0.5132  1.2823
  886MPD2     N12996   2.222   1.867  14.787 -0.7470 -0.5005  0.8025
  886MPD2    H512997   2.161   1.919  14.724 -1.0944 -0.6956  0.9799
  886MPD2    N112998   2.352   1.444  14.925 -0.1557  0.3259 -0.4329
  886MPD2    H712999   2.419   1.504  14.972  0.5143 -0.7366 -0.0196
  887MPD2     C13000   3.035   1.559  15.159 -0.2713  0.2649 -0.3385
  887MPD2    C113001   2.910   1.600  15.107  0.3961 -0.4688 -0.4283
  887MPD2    C213002   2.890   1.727  15.072  0.0050  0.0278 -0.5734
  887MPD2    C313003   2.991   1.820  15.083 -1.1504  0.2876 -0.2353
  887MPD2    C413004   3.110   1.790  15.142 -0.2173 -0.3790  0.5045
  887MPD2    C513005   3.127   1.659  15.186 -0.3763  0.3305 -0.1506
  887MPD2     H13006   2.790   1.761  15.046  0.0504  0.6468  0.0729
  887MPD2    H113007   3.185   1.865  15.165 -1.3069  1.1601 -1.0006
  887MPD2    H213008   3.047   1.453  15.179 -0.3783 -0.0981 -2.1422
  887MPD2    H313009   3.218   1.637  15.240 -0.1330  0.7104 -0.4039
  887MPD2     N13010   2.965   1.953  15.033 -0.2623  0.2502  0.3695
  887MPD2    H513011   2.882   1.966  14.975 -1.9434 -2.3284  2.2017
  887MPD2    N113012   2.803   1.506  15.092 -0.1909  0.8891  0.2671
  887MPD2    H713013   2.724   1.555  15.052 -2.3045 -3.8372 -1.2540
  888MPD2     C13014   0.127   1.976  14.508 -0.2923 -0.7204 -0.6687
  888MPD2    C113015   0.145   2.028  14.633 -0.0261  0.7047 -0.5370
  888MPD2    C213016   0.208   2.150  14.658 -0.2302  0.6775 -0.2783
  888MPD2    C313017   0.263   2.216  14.552 -0.5087  0.2312  0.1326
  888MPD2    C413018   0.253   2.160  14.424 -0.0348 -0.3196 -0.4247
  888MPD2    C513019   0.176   2.051  14.407 -0.7674  0.0516  0.0607
  888MPD2     H13020   0.213   2.191  14.758 -1.4326  0.0446  0.0437
  888MPD2    H113021   0.304   2.188  14.333  0.5238 -0.5646 -0.1885
  888MPD2    H213022   0.102   1.872  14.488 -1.2008 -0.6745  0.2660
  888MPD2    H313023   0.185   2.007  14.308  2.0243  3.2293 -1.0651
  888MPD2     N13024   0.323   2.339  14.569  0.3552  0.1871  0.9953
  888MPD2    H513025   0.341   2.368  14.665 -0.4086  5.1763 -0.3774
  888MPD2    N113026   0.105   1.954  14.751 -0.2047 -0.0546  0.4287
  888MPD2    H713027   0.135   1.988  14.842 -0.2625  1.5778 -0.1545
  889MPD2     C13028   4.029   1.389  12.294  0.0619  0.2489  0.0759
  889MPD2    C113029   4.103   1.380  12.414 -0.0062  0.0053  0.1167
  889MPD2    C213030   4.136   1.502  12.474  0.0918  0.4227 -0.0451
  889MPD2    C313031   4.073   1.620  12.440 -0.1861 -0.8631 -0.8003
  889MPD2    C413032   3.989   1.624  12.329 -1.3511 -0.0654  0.0147
  889MPD2    C513033   3.969   1.505  12.255  0.2054 -0.2188 -0.4890
  889MPD2     H13034   4.210   1.506  12.554 -1.0579  0.6216  0.9973
  889MPD2    H113035   3.933   1.711  12.298 -2.2428 -0.5135  0.3699
  889MPD2    H213036   4.007   1.300  12.236  0.4507 -0.4008  0.9054
  889MPD2    H313037   3.896   1.498  12.175 -0.4036  0.4619 -0.0003
  889MPD2     N13038   4.098   1.727  12.517  0.4259  0.1097  0.5435
  889MPD2    H513039   4.159   1.717  12.597  1.1517 -1.3070 -0.1808
  889MPD2    N113040   4.169   1.253  12.437  0.2465 -0.4983  0.0540
  889MPD2    H713041   4.147   1.181  12.369 -2.5097  0.2367  0.1452
  890MPD2     C13042   4.066   2.990  14.322  0.2234  0.1339 -1.3791
  890MPD2    C113043   4.126   3.079  14.406 -0.5519  0.2447  0.1450
  890MPD2    C213044   4.105   3.071  14.540  0.0438 -0.1922  0.8394
  890MPD2    C313045   3.994   2.996  14.586 -0.0607  0.7006 -1.0080
  890MPD2    C413046   3.922   2.919  14.498  0.1371 -0.0019 -0.2440
  890MPD2    C513047   3.961   2.911  14.371  0.4751  1.0028  0.5855
  890MPD2     H13048   4.167   3.127  14.609 -0.4184  0.9621  0.3031
  890MPD2    H113049   3.837   2.860  14.530  1.7481 -1.7943  0.7303
  890MPD2    H213050   4.087   2.992  14.216  1.7071  0.6739 -1.0750
  890MPD2    H313051   3.898   2.852  14.306 -0.4174  0.8147  1.6110
  890MPD2     N13052   3.964   2.996  14.725 -0.2258 -0.2458 -0.4557
  890MPD2    H513053   4.014   3.064  14.782 -1.2921 -0.2749  0.5158
  890MPD2    N113054   4.203   3.181  14.350  0.5585  0.0996  0.2503
  890MPD2    H713055   4.209   3.191  14.249 -0.8522 -0.3007  0.1350
  891MPD2     C13056   1.923   1.879  16.290  0.1602 -0.2953  0.1788
  891MPD2    C113057   1.924   1.859  16.430 -0.3891  0.2536 -0.0441
  891MPD2    C213058   2.039   1.886  16.500 -0.5170  0.2389 -0.1334
  891MPD2    C313059   2.150   1.930  16.437  0.7422 -0.4954  0.1024
  891MPD2    C413060   2.139   1.974  16.304  0.4322 -0.2163  0.0144
  891MPD2    C513061   2.026   1.945  16.232  0.3892 -0.5496  0.0864
  891MPD2     H13062   2.038   1.868  16.607  0.7549 -0.2020 -0.2005
  891MPD2    H113063   2.223   2.014  16.248  1.3163 -2.2178 -0.1216
  891MPD2    H213064   1.836   1.849  16.233 -0.9169 -0.2388  1.8144
  891MPD2    H313065   2.023   1.954  16.124 -0.8862  2.0771  0.3430
  891MPD2     N13066   2.266   1.943  16.521  0.1143 -0.1319  0.4932
  891MPD2    H513067   2.251   1.902  16.613  0.1307  1.3213  1.1301
  891MPD2    N113068   1.804   1.808  16.485 -0.7186  0.2019 -0.3490
  891MPD2    H713069   1.729   1.787  16.421 -0.3325 -0.1503 -0.6878
  892MPD2     C13070   2.834   2.471  14.690  0.2532  0.2473  0.0029
  892MPD2    C113071   2.741   2.501  14.589  0.5393 -0.0347 -0.0181
  892MPD2    C213072   2.773   2.466  14.460 -0.5919  0.3899 -0.4540
  892MPD2    C313073   2.898   2.416  14.422  0.4065 -0.3898 -0.9441
  892MPD2    C413074   2.998   2.419  14.514  0.7930 -0.8772  0.0845
  892MPD2    C513075   2.963   2.444  14.646  0.3912  0.2712 -0.3962
  892MPD2     H13076   2.702   2.491  14.382 -1.2504 -2.5043 -0.8155
  892MPD2    H113077   3.102   2.405  14.488  0.2751 -1.7452 -1.4983
  892MPD2    H213078   2.823   2.477  14.797 -1.2702  1.5872 -0.2359
  892MPD2    H313079   3.044   2.436  14.718 -0.2626 -1.9181  0.0924
  892MPD2     N13080   2.933   2.378  14.294 -0.2601  0.3786  0.3371
  892MPD2    H513081   3.031   2.354  14.286 -0.6121 -0.1848 -2.3601
  892MPD2    N113082   2.615   2.553  14.618  0.6792  0.2458  0.3631
  892MPD2    H713083   2.556   2.591  14.545  2.1470 -0.7522 -1.3307
  893MPD2     C13084   3.784   1.202   1.133 -1.0576  0.1377  0.2920
  893MPD2    C113085   3.842   1.107   1.210 -0.4422  0.2286  0.0450
  893MPD2    C213086   3.770   1.028   1.295 -0.2229 -0.3815  0.0095
  893MPD2    C313087   3.635   1.059   1.309 -0.2964  0.0959 -0.2413
  893MPD2    C413088   3.569   1.153   1.229 -0.1583  0.1327 -0.0250
  893MPD2    C513089   3.647   1.221   1.133 -0.9692 -0.4285 -0.1016
  893MPD2     H13090   3.819   0.953   1.355  0.3648 -0.6464 -0.7981
  893MPD2    H113091   3.464   1.179   1.233 -0.0504  0.5183  0.2825
  893MPD2    H213092   3.845   1.249   1.056  0.6523 -0.7758  1.0937
  893MPD2    H313093   3.599   1.296   1.071  0.0701 -0.0915 -0.5143
  893MPD2     N13094   3.550   0.999   1.407  0.2647  0.0669 -0.4252
  893MPD2    H513095   3.453   1.030   1.412  0.6842  1.3046  0.0402
  893MPD2    N113096   3.985   1.094   1.190  0.3665  0.5383 -0.0385
  893MPD2    H713097   4.019   1.144   1.108 -0.3578  2.0991  0.6058
  894MPD2     C13098   2.867   0.341   0.707 -0.0594 -0.5504 -0.0599
  894MPD2    C113099   2.943   0.347   0.820 -0.4340 -0.2904  0.0317
  894MPD2    C213100   3.027   0.240   0.842  0.8658 -0.0396  0.3835
  894MPD2    C313101   3.020   0.121   0.771 -1.3534  1.0202  0.2163
  894MPD2    C413102   2.929   0.112   0.670 -0.2152 -0.0238  0.1926
  894MPD2    C513103   2.856   0.226   0.636 -0.7867 -0.0631  0.5557
  894MPD2     H13104   3.101   0.241   0.921 -0.6162  1.6222  1.7384
  894MPD2    H113105   2.899   0.027   0.609 -0.6415 -0.1648  0.5981
  894MPD2    H213106   2.803   0.422   0.673 -0.3253  0.4912  3.0068
  894MPD2    H313107   2.794   0.218   0.548 -0.6322  0.9112  0.3535
  894MPD2     N13108   3.102   0.011   0.813 -0.1983 -0.0738 -0.6022
  894MPD2    H513109   3.180   0.028   0.875 -0.8763 -0.1604  0.2779
  894MPD2    N113110   2.958   0.468   0.898 -0.5124 -0.3650 -0.3877
  894MPD2    H713111   3.019   0.463   0.979 -0.7597 -0.8282 -0.2284
  895MPD2     C13112   1.779   2.110  13.550  0.1373  0.5736  0.2599
  895MPD2    C113113   1.816   2.126  13.420 -0.1046 -0.4088  0.7499
  895MPD2    C213114   1.946   2.111  13.379 -0.3967  0.2356 -0.2573
  895MPD2    C313115   2.045   2.087  13.474 -0.3289  0.3369  0.5562
  895MPD2    C413116   2.013   2.101  13.606 -0.1923  0.8323 -0.2632
  895MPD2    C513117   1.879   2.098  13.641 -0.2765  0.2469 -0.3515
  895MPD2     H13118   1.963   2.140  13.275 -0.9438 -0.1000 -0.4385
  895MPD2    H113119   2.085   2.103  13.687 -0.2087  0.8695 -0.2495
  895MPD2    H213120   1.675   2.110  13.580 -0.0747  1.2850 -0.4742
  895MPD2    H313121   1.840   2.101  13.742 -2.0343 -1.7343 -0.9512
  895MPD2     N13122   2.181   2.078  13.437  0.1404  0.6522  0.3479
  895MPD2    H513123   2.238   2.120  13.510 -0.0211 -0.8649  1.3676
  895MPD2    N113124   1.725   2.149  13.318 -0.0136  0.4401  0.3225
  895MPD2    H713125   1.757   2.126  13.225  1.8614  0.2739  0.9949
  896MPD2     C13126   0.007   4.535   1.858 -0.0726 -0.1096 -0.0481
  896MPD2    C113127   4.717   4.503   1.723  0.0109  0.0415 -0.2452
  896MPD2    C213128   4.592   4.455   1.682 -0.3071  0.0659 -0.5862
  896MPD2    C313129   4.481   4.447   1.774  0.8460  0.6881  0.3718
  896MPD2    C413130   4.497   4.489   1.902  0.2683 -0.1232 -0.1132
  896MPD2    C513131   4.618   4.537   1.943  0.4224 -0.3349 -0.2128
  896MPD2     H13132   4.581   4.415   1.582  2.7031 -0.1942 -0.7994
  896MPD2    H113133   4.416   4.484   1.974  0.9193 -1.4616  0.5313
  896MPD2    H213134   0.103   4.551   1.907 -0.5686  0.2850  0.8013
  896MPD2    H313135   4.630   4.564   2.047 -0.7809 -1.8159  0.3052
  896MPD2     N13136   4.362   4.379   1.732 -0.2020 -0.0339  0.3044
  896MPD2    H513137   4.360   4.334   1.641 -2.8117  0.1926  0.2554
  896MPD2    N113138   0.115   4.503   1.648  0.3929  0.1606 -0.5966
  896MPD2    H713139   0.206   4.520   1.692  0.6897  0.6776 -1.3951
  897MPD2     C13140   1.288   0.811  10.200  0.0891  0.3001 -0.2361
  897MPD2    C113141   1.258   0.938  10.183  0.2316  0.8417  0.4334
  897MPD2    C213142   1.178   1.007  10.274  0.1028  0.1470  0.0201
  897MPD2    C313143   1.141   0.935  10.386  0.0089 -0.1217 -0.2634
  897MPD2    C413144   1.188   0.802  10.411 -0.0249  0.2279  0.2205
  897MPD2    C513145   1.255   0.741  10.311  0.0304 -0.5800 -0.1279
  897MPD2     H13146   1.171   1.115  10.265 -3.5706 -0.0838  0.0900
  897MPD2    H113147   1.182   0.757  10.509 -0.6896  2.3452  1.1662
  897MPD2    H213148   1.348   0.777  10.117  0.5988  1.7464 -0.4700
  897MPD2    H313149   1.286   0.638  10.326 -0.1198 -0.2200  2.6562
  897MPD2     N13150   1.060   0.985  10.490  0.1735 -0.0312  0.1232
  897MPD2    H513151   1.059   0.936  10.579  0.6200  2.5509  1.5344
  897MPD2    N113152   1.305   1.001  10.069  0.3375  0.3157  0.6062
  897MPD2    H713153   1.314   0.943   9.986 -0.0593  1.9778 -0.5983
  898MPD2     C13154   3.754   2.021   0.216  0.0540  0.3490 -0.4835
  898MPD2    C113155   3.806   2.146   0.221  1.1563  0.1222  0.3491
  898MPD2    C213156   3.778   2.235   0.122 -0.5803  0.3701  0.1079
  898MPD2    C313157   3.701   2.203   0.012  0.0112  0.0902 -0.4286
  898MPD2    C413158   3.656   2.073   0.009  0.2588  0.4355 -0.3533
  898MPD2    C513159   3.682   1.989   0.106 -0.0367 -0.2778 -0.3991
  898MPD2     H13160   3.809   2.338   0.131 -1.1824  0.6617 -1.0834
  898MPD2    H113161   3.593   2.046  17.618  0.0293  3.0260 -1.0389
  898MPD2    H213162   3.770   1.950   0.296  1.1362  0.5607 -0.5137
  898MPD2    H313163   3.633   1.893   0.101  1.0393 -0.7780 -1.3108
  898MPD2     N13164   3.668   2.299  17.608 -0.5620 -0.0928 -0.2708
  898MPD2    H513165   3.715   2.388  17.619 -0.1054 -0.3768  0.0717
  898MPD2    N113166   3.888   2.186   0.332  0.1466 -0.8875  0.3748
  898MPD2    H713167   3.923   2.281   0.322 -1.1289 -0.3106  1.3424
  899MPD2     C13168   3.820   3.306  17.559  0.4091  0.4791 -0.9414
  899MPD2    C113169   3.726   3.408  17.551  0.1622  0.0982 -0.9083
  899MPD2    C213170   3.671   3.448  17.674  0.2967 -0.0907 -0.2518
  899MPD2    C313171   3.707   3.397   0.104 -0.1099 -0.1318 -0.1080
  899MPD2    C413172   3.802   3.298   0.106 -0.1155 -0.0516  0.1051
  899MPD2    C513173   3.858   3.253  17.680  0.3153 -0.5322  0.4952
  899MPD2     H13174   3.596   3.526  17.667 -0.5568 -0.8921 -0.0987
  899MPD2    H113175   3.838   3.255   0.199  1.6910  0.3716 -0.4052
  899MPD2    H213176   3.860   3.265  17.467  2.1170 -2.3326  1.0735
  899MPD2    H313177   3.938   3.181   0.001 -1.4279 -2.0641  2.7171
  899MPD2     N13178   3.646   3.447   0.220  0.5596 -0.1017  0.2476
  899MPD2    H513179   3.681   3.425   0.313 -2.9852  1.0200  1.8616
  899MPD2    N113180   3.690   3.460  17.421 -0.0956 -0.6638 -0.1746
  899MPD2    H713181   3.754   3.432  17.347 -0.9662 -1.2942 -0.6891
  900MPD2     C13182   3.231   4.178  12.646  0.6925  0.4625  0.0777
  900MPD2    C113183   3.239   4.064  12.570 -0.6447 -0.0678  0.4530
  900MPD2    C213184   3.130   4.021  12.499 -0.3298 -0.4202  0.0305
  900MPD2    C313185   3.008   4.087  12.524  0.1816 -0.2960  0.4616
  900MPD2    C413186   3.003   4.206  12.598  0.2674  0.4047  0.0534
  900MPD2    C513187   3.120   4.253  12.654 -0.4926  0.0430 -0.0958
  900MPD2     H13188   3.128   3.932  12.437 -1.2026  0.2952 -0.9805
  900MPD2    H113189   2.910   4.257  12.619 -0.4896 -0.3496 -1.4828
  900MPD2    H213190   3.314   4.203  12.712  0.8726 -0.9587  0.3855
  900MPD2    H313191   3.118   4.342  12.716 -0.5534  1.4631 -2.1491
  900MPD2     N13192   2.896   4.027  12.466  0.5091  0.4173  0.0264
  900MPD2    H513193   2.914   3.940  12.417  1.5938  1.1868 -0.9516
  900MPD2    N113194   3.350   3.987  12.593 -0.0330  0.1554  0.0013
  900MPD2    H713195   3.410   4.010  12.672  1.2868 -1.9084 -0.4115
  901MPD2     C13196   3.621   3.129  13.019 -0.2294  0.8219  0.6627
  901MPD2    C113197   3.678   3.132  12.891  0.0195  0.2261 -0.6356
  901MPD2    C213198   3.688   3.245  12.824  0.4602  0.1763 -0.1709
  901MPD2    C313199   3.637   3.365  12.862 -0.6651  0.0983  0.2691
  901MPD2    C413200   3.578   3.367  12.989  0.2445 -0.4966  0.4364
  901MPD2    C513201   3.571   3.251  13.066  0.0628  0.6129 -0.1632
  901MPD2     H13202   3.744   3.255  12.732 -0.9196  0.0659 -1.0209
  901MPD2    H113203   3.551   3.462  13.034  1.4440  0.1440 -0.1989
  901MPD2    H213204   3.617   3.032  13.068  0.0411  0.1223 -0.6762
  901MPD2    H313205   3.532   3.256  13.167 -0.4757 -0.8869 -0.3053
  901MPD2     N13206   3.634   3.477  12.770 -0.6428  0.0621 -0.6571
  901MPD2    H513207   3.669   3.459  12.677 -2.6623 -1.3827 -1.1352
  901MPD2    N113208   3.729   3.007  12.839 -0.5905  0.5117  0.0459
  901MPD2    H713209   3.711   2.926  12.897  2.4832 -0.0204  0.2495
  902MPD2     C13210   2.707   2.186  12.612  1.1189 -0.4302 -0.0543
  902MPD2    C113211   2.598   2.193  12.528  0.7077 -0.2392  0.8838
  902MPD2    C213212   2.593   2.106  12.421  0.7349  0.1867 -0.3630
  902MPD2    C313213   2.695   2.017  12.393 -0.2159  0.1422  0.2342
  902MPD2    C413214   2.806   2.018  12.473  0.0730  0.5464  0.3531
  902MPD2    C513215   2.805   2.097  12.585  0.3360  0.4768 -0.4693
  902MPD2     H13216   2.507   2.101  12.355  0.3199  2.2212  0.0126
  902MPD2    H113217   2.888   1.951  12.450 -1.0438 -1.0023  0.9006
  902MPD2    H213218   2.727   2.252  12.696 -2.6833  1.0849 -0.3666
  902MPD2    H313219   2.879   2.080  12.662 -1.5580 -1.9222  0.8153
  902MPD2     N13220   2.686   1.930  12.282  0.2869  0.6790  0.3524
  902MPD2    H513221   2.771   1.884  12.251 -0.8345 -1.0070 -0.2217
  902MPD2    N113222   2.507   2.296  12.552 -0.4300  0.4281 -0.0886
  902MPD2    H713223   2.519   2.363  12.627 -0.2937  0.2805  0.0215
  903MPD2     C13224   2.567   1.712  11.398  0.4466  0.0761 -0.2548
  903MPD2    C113225   2.500   1.759  11.503 -0.5819  0.4985  0.2778
  903MPD2    C213226   2.396   1.852  11.482  0.2400  0.3803 -0.5570
  903MPD2    C313227   2.364   1.895  11.351  0.4616 -0.1453 -0.5146
  903MPD2    C413228   2.440   1.851  11.247 -0.5166  0.5821 -0.1015
  903MPD2    C513229   2.543   1.759  11.273 -0.2048 -0.0015  0.1794
  903MPD2     H13230   2.333   1.881  11.565 -0.7180 -0.1962 -1.0761
  903MPD2    H113231   2.436   1.890  11.146 -1.7349  0.6753 -0.0124
  903MPD2    H213232   2.658   1.654  11.405  1.1759  1.0673 -1.4662
  903MPD2    H313233   2.618   1.739  11.197  1.3625 -0.1710  1.7894
  903MPD2     N13234   2.273   1.999  11.324 -0.4999  0.2199 -0.2348
  903MPD2    H513235   2.229   2.038  11.406  0.3135 -0.2843  0.4399
  903MPD2    N113236   2.555   1.738  11.630 -0.0087  0.2169 -0.0909
  903MPD2    H713237   2.638   1.679  11.629  0.2597  0.6019 -0.3865
  904MPD2     C13238   1.664   1.710  13.299 -0.7004  0.8138  0.0268
  904MPD2    C113239   1.646   1.582  13.355  0.4672  0.7569 -0.4180
  904MPD2    C213240   1.732   1.536  13.456 -0.4538  0.0942  0.3492
  904MPD2    C313241   1.839   1.620  13.499 -0.7819  0.8841  0.0244
  904MPD2    C413242   1.844   1.753  13.458  1.5076  0.5077 -0.0884
  904MPD2    C513243   1.748   1.795  13.363  0.8088 -0.0681  0.1471
  904MPD2     H13244   1.708   1.441  13.504 -2.1746 -0.8488 -2.3408
  904MPD2    H113245   1.912   1.824  13.503  0.1737  1.8186 -0.1087
  904MPD2    H213246   1.592   1.750  13.228 -1.0487 -0.2420 -0.2184
  904MPD2    H313247   1.755   1.899  13.332 -1.8992  0.1446  0.2818
  904MPD2     N13248   1.928   1.560  13.591  0.0313 -0.1103 -0.0080
  904MPD2    H513249   1.905   1.463  13.612 -0.1160 -0.3073 -1.1086
  904MPD2    N113250   1.551   1.481  13.302  0.1551  0.0819  0.2766
  904MPD2    H713251   1.568   1.382  13.319 -1.8688 -0.0047  1.7829
  905MPD2     C13252   1.492   1.865  12.727  0.3332  0.1113  0.7753
  905MPD2    C113253   1.505   1.890  12.862  0.2083  0.7347  0.8346
  905MPD2    C213254   1.634   1.911  12.913  0.4932 -0.3399 -0.6146
  905MPD2    C313255   1.746   1.895  12.838  0.6069 -0.0594  0.1297
  905MPD2    C413256   1.731   1.874  12.700  0.0164 -0.0492  0.6894
  905MPD2    C513257   1.607   1.860  12.643  0.4477 -0.0766  0.1236
  905MPD2     H13258   1.644   1.909  13.021  0.4585  0.1989 -0.6021
  905MPD2    H113259   1.814   1.859  12.633 -1.4928  0.7322 -1.3295
  905MPD2    H213260   1.393   1.854  12.685  0.5392  1.5407 -0.0628
  905MPD2    H313261   1.603   1.846  12.535 -1.1086  3.3700 -0.2521
  905MPD2     N13262   1.875   1.890  12.894  0.0195 -0.5402 -0.1850
  905MPD2    H513263   1.943   1.840  12.837  0.7192 -0.5777  0.6879
  905MPD2    N113264   1.386   1.871  12.940 -0.0673  0.3090 -0.4564
  905MPD2    H713265   1.300   1.858  12.888  0.1790  0.9725 -1.0205
  906MPD2     C13266   4.494   1.143  11.374 -0.2548  0.2323 -0.0067
  906MPD2    C113267   4.413   1.118  11.261 -0.0390  0.1013 -0.6403
  906MPD2    C213268   4.284   1.071  11.273 -0.1800  0.2489  0.0567
  906MPD2    C313269   4.228   1.035  11.394  0.2723  0.0526 -0.1410
  906MPD2    C413270   4.317   1.046  11.501  0.8204 -0.5360 -0.4413
  906MPD2    C513271   4.441   1.108  11.489 -0.0193  0.4740 -0.4066
  906MPD2     H13272   4.220   1.046  11.189 -2.3376  0.0247  1.7542
  906MPD2    H113273   4.294   1.009  11.601  0.9402 -0.4953 -0.3992
  906MPD2    H213274   4.593   1.187  11.365  0.0172 -0.4162 -0.2743
  906MPD2    H313275   4.506   1.122  11.574  1.6827 -0.8235 -1.5134
  906MPD2     N13276   4.099   0.976  11.419 -0.5573 -0.9208 -0.3951
  906MPD2    H513277   4.081   0.934  11.510  1.7094  3.7374  2.2178
  906MPD2    N113278   4.463   1.139  11.127  0.0001  0.2042 -0.2023
  906MPD2    H713279   4.399   1.107  11.054  1.0016  0.2845 -1.1129
  907MPD2     C13280   2.574   0.371  15.445  0.6499  0.0851  0.6216
  907MPD2    C113281   2.659   0.265  15.457  0.0714 -0.0900  0.1249
  907MPD2    C213282   2.739   0.244  15.569  0.1614  0.0806  0.4096
  907MPD2    C313283   2.728   0.339  15.674 -0.7348 -0.8968 -0.1600
  907MPD2    C413284   2.663   0.453  15.648 -0.1111 -0.1960 -0.3268
  907MPD2    C513285   2.585   0.472  15.537 -0.3443 -0.8356  0.4255
  907MPD2     H13286   2.792   0.150  15.576  0.1437  0.1308  1.2485
  907MPD2    H113287   2.669   0.538  15.716  1.3091 -1.3202  0.9627
  907MPD2    H213288   2.503   0.378  15.365  1.1672 -3.0970 -0.1170
  907MPD2    H313289   2.525   0.562  15.527  0.6916 -0.1161  0.6745
  907MPD2     N13290   2.807   0.306  15.794 -0.1103  0.5230  0.0443
  907MPD2    H513291   2.869   0.226  15.791 -3.4280 -2.0945  1.2063
  907MPD2    N113292   2.649   0.154  15.367  0.3909 -0.3748 -0.1014
  907MPD2    H713293   2.724   0.086  15.375 -0.4038 -0.9126  2.9889
  908MPD2     C13294   0.866   0.797   9.412 -0.2171  0.5189 -0.0982
  908MPD2    C113295   0.932   0.743   9.519 -0.2804  0.3345 -0.0348
  908MPD2    C213296   1.020   0.827   9.589  0.0097 -0.6983 -0.2847
  908MPD2    C313297   1.045   0.961   9.549  0.5382 -0.3363 -0.2864
  908MPD2    C413298   0.984   1.009   9.432 -0.0502  0.2944  0.0421
  908MPD2    C513299   0.893   0.925   9.371  0.0225 -0.9999 -0.5848
  908MPD2     H13300   1.090   0.778   9.656 -1.0939 -1.1201  0.5602
  908MPD2    H113301   1.000   1.104   9.383 -0.0249  0.8186  1.0698
  908MPD2    H213302   0.799   0.735   9.353  1.3975 -0.2367 -1.1634
  908MPD2    H313303   0.842   0.961   9.282  2.4277  1.1430 -1.0796
  908MPD2     N13304   1.136   1.036   9.625  0.5099 -0.3388  0.1487
  908MPD2    H513305   1.185   0.992   9.703 -0.2511 -2.4165 -0.5435
  908MPD2    N113306   0.920   0.608   9.554 -0.3901  0.2381  0.2557
  908MPD2    H713307   0.972   0.563   9.629 -0.3722  2.2262  1.4319
  909MPD2     C13308   1.357   4.117  11.755  0.4721 -0.6651 -0.2496
  909MPD2    C113309   1.408   4.248  11.755  0.3520  0.2589  0.3474
  909MPD2    C213310   1.397   4.321  11.875  0.1803  0.4724  0.6273
  909MPD2    C313311   1.321   4.273  11.979  0.5570  0.1436 -0.0565
  909MPD2    C413312   1.266   4.145  11.974 -0.0548 -0.1626 -0.2718
  909MPD2    C513313   1.290   4.063  11.868 -0.2431  0.0544  0.8147
  909MPD2     H13314   1.426   4.424  11.891 -1.6964  1.0311  0.3949
  909MPD2    H113315   1.213   4.099  12.056  2.1408 -0.9311  0.7242
  909MPD2    H213316   1.372   4.039  11.681 -1.1566 -0.0265 -1.2341
  909MPD2    H313317   1.247   3.964  11.865 -0.8764  0.3499 -0.1135
  909MPD2     N13318   1.305   4.360  12.092 -0.1123  0.0088 -0.2302
  909MPD2    H513319   1.361   4.445  12.098  0.7147 -0.3826 -2.2704
  909MPD2    N113320   1.457   4.302  11.635  0.6511 -0.2847  0.5139
  909MPD2    H713321   1.492   4.397  11.644 -1.8365  0.6188  0.4458
  910MPD2     C13322   1.999   1.048  15.596 -0.5898 -0.5854  0.8701
  910MPD2    C113323   2.083   0.964  15.522 -0.3141 -0.8325 -1.2186
  910MPD2    C213324   2.061   0.957  15.382  0.2800 -0.3113  0.2299
  910MPD2    C313325   1.942   1.017  15.331 -0.5169 -0.4775 -0.6121
  910MPD2    C413326   1.842   1.065  15.413  1.1200 -0.5855 -0.1536
  910MPD2    C513327   1.884   1.097  15.541 -0.1721 -0.2906  0.1200
  910MPD2     H13328   2.131   0.905  15.317  0.2817 -0.0668  0.0384
  910MPD2    H113329   1.747   1.105  15.378  1.1114 -0.2548  0.2609
  910MPD2    H213330   2.016   1.078  15.699 -1.0335 -1.7318  1.2720
  910MPD2    H313331   1.819   1.156  15.605  2.9512  1.6950  1.4495
  910MPD2     N13332   1.904   1.031  15.192  0.2008 -0.0374 -0.5714
  910MPD2    H513333   1.820   1.078  15.159  0.4051  0.2466 -0.6868
  910MPD2    N113334   2.211   0.920  15.568 -0.9600 -0.0855 -0.3923
  910MPD2    H713335   2.271   0.881  15.496  0.3727  1.4732 -0.1239
  911MPD2     C13336   0.137   1.359  16.192 -0.0416  0.4159  0.5322
  911MPD2    C113337   0.212   1.472  16.214  0.9607 -0.0684 -0.1691
  911MPD2    C213338   0.144   1.594  16.209 -0.1150  0.8853 -0.0267
  911MPD2    C313339   0.010   1.610  16.187 -0.3020  0.0327  0.2003
  911MPD2    C413340   4.659   1.489  16.182 -0.0869 -0.7338 -0.3743
  911MPD2    C513341   0.002   1.366  16.174  0.0442 -0.6094  0.5202
  911MPD2     H13342   0.204   1.682  16.226  1.0126  0.1573 -0.1859
  911MPD2    H113343   4.551   1.491  16.180 -0.0420 -0.1187 -1.9934
  911MPD2    H213344   0.183   1.261  16.187  2.0379  1.4591 -1.0656
  911MPD2    H313345   4.678   1.271  16.155  0.5719 -0.8346  0.3399
  911MPD2     N13346   4.658   1.730  16.175 -0.1581 -0.2562  0.4853
  911MPD2    H513347   4.568   1.727  16.128  0.2203  0.1540 -0.2516
  911MPD2    N113348   0.357   1.458  16.221  0.6460  0.8909  0.3486
  911MPD2    H713349   0.401   1.367  16.215 -1.1784  0.0221  0.2259
  912MPD2     C13350   4.211   1.695  15.603 -0.4226  0.8134 -0.3549
  912MPD2    C113351   4.268   1.670  15.727 -0.2231  0.4106 -0.4844
  912MPD2    C213352   4.268   1.541  15.783 -0.3129  0.2646  0.6747
  912MPD2    C313353   4.212   1.438  15.710 -0.0556 -0.8825 -0.3322
  912MPD2    C413354   4.136   1.470  15.600 -0.2104 -0.0365 -0.7259
  912MPD2    C513355   4.144   1.596  15.546  0.4381 -0.0548 -0.3284
  912MPD2     H13356   4.314   1.521  15.879  1.9510  3.0683  0.1910
  912MPD2    H113357   4.071   1.400  15.549 -2.5933 -0.4348  2.9034
  912MPD2    H213358   4.220   1.788  15.548 -0.7971  0.7291 -0.5525
  912MPD2    H313359   4.094   1.618  15.453 -0.0153  2.2599  0.4551
  912MPD2     N13360   4.211   1.310  15.765  0.4906  0.1509  0.3083
  912MPD2    H513361   4.279   1.297  15.840 -0.5609 -0.7432  1.1094
  912MPD2    N113362   4.335   1.778  15.788 -0.0377  0.0305  0.0049
  912MPD2    H713363   4.349   1.863  15.734 -2.8821 -0.0695 -0.8804
  913MPD2     C13364   0.531   3.058  10.162 -0.2761 -0.4117 -0.5170
  913MPD2    C113365   0.647   3.112  10.218  0.3917 -0.4715  0.2015
  913MPD2    C213366   0.717   3.206  10.143  0.3870  0.4163 -0.4055
  913MPD2    C313367   0.683   3.231  10.011 -0.2595 -0.0780  0.5639
  913MPD2    C413368   0.575   3.163   9.956  0.4063 -0.4012  0.3868
  913MPD2    C513369   0.501   3.078  10.035  0.0158  0.7061  0.3894
  913MPD2     H13370   0.795   3.261  10.194  0.4149  2.8757 -3.0707
  913MPD2    H113371   0.544   3.180   9.854 -1.5850  1.7331  1.3388
  913MPD2    H213372   0.467   2.987  10.214 -0.6339 -1.2099 -2.0662
  913MPD2    H313373   0.415   3.033   9.988  0.9823 -0.0746 -0.6382
  913MPD2     N13374   0.756   3.320   9.924  0.2396 -0.0839 -0.0854
  913MPD2    H513375   0.728   3.329   9.827 -2.1104  0.2856  0.6162
  913MPD2    N113376   0.684   3.076  10.347  1.0977  0.6623 -0.0375
  913MPD2    H713377   0.629   3.008  10.398 -1.7439  1.2685 -2.2468
  914MPD2     C13378   3.529   2.530  12.053  0.1605  0.3030 -0.5982
  914MPD2    C113379   3.508   2.658  12.103  0.4671 -0.0383  0.3059
  914MPD2    C213380   3.610   2.708  12.185  0.1222  0.1109  0.2738
  914MPD2    C313381   3.711   2.631  12.233 -0.3396  0.4019 -0.5312
  914MPD2    C413382   3.717   2.503  12.192  0.2712  0.0413  0.1115
  914MPD2    C513383   3.629   2.454  12.102 -0.5428  0.1232 -0.4590
  914MPD2     H13384   3.609   2.810  12.219 -0.0017  0.6519 -1.3596
  914MPD2    H113385   3.806   2.448  12.221  1.3340  0.4290 -2.4472
  914MPD2    H213386   3.468   2.488  11.974  1.4261  1.2991 -2.1004
  914MPD2    H313387   3.637   2.361  12.046  2.3015 -0.7015  1.2977
  914MPD2     N13388   3.783   2.682  12.339 -0.2522 -0.1149  0.1627
  914MPD2    H513389   3.775   2.783  12.351  4.1007  0.4233 -1.4297
  914MPD2    N113390   3.410   2.746  12.051  0.3624 -0.1996 -0.1738
  914MPD2    H713391   3.372   2.721  11.960 -0.4010  1.7805 -0.3973
  915MPD2     C13392   1.484   3.212  15.221 -0.6033 -0.3511  0.2328
  915MPD2    C113393   1.350   3.204  15.228  0.8263  0.2733 -0.1541
  915MPD2    C213394   1.296   3.201  15.359 -0.0559 -0.3069 -0.2737
  915MPD2    C313395   1.373   3.196  15.476  0.0836  0.5716  0.4579
  915MPD2    C413396   1.510   3.193  15.462  0.1465 -0.3368 -0.4185
  915MPD2    C513397   1.555   3.200  15.332 -0.3250  0.3470 -0.4195
  915MPD2     H13398   1.188   3.198  15.364 -0.1476  0.9943 -1.5822
  915MPD2    H113399   1.582   3.188  15.542 -0.4273  0.0375  0.1276
  915MPD2    H213400   1.531   3.233  15.125 -0.7956 -0.2690  0.1561
  915MPD2    H313401   1.663   3.190  15.333 -0.3544  0.0817 -0.0061
  915MPD2     N13402   1.313   3.211  15.602  0.3142 -0.7524  0.8245
  915MPD2    H513403   1.211   3.210  15.601  0.3279 -1.9074  0.6479
  915MPD2    N113404   1.265   3.189  15.114 -0.2208 -0.1364  1.1644
  915MPD2    H713405   1.165   3.188  15.135 -0.8414  0.3669 -1.7385
  916MPD2     C13406   3.721   1.171  15.416 -0.2968 -0.3605  0.3443
  916MPD2    C113407   3.765   1.080  15.513  0.1568 -1.1035  1.2180
  916MPD2    C213408   3.779   0.945  15.472 -0.3328 -0.5408  0.5271
  916MPD2    C313409   3.766   0.905  15.340  0.4855  0.0736  0.4187
  916MPD2    C413410   3.730   0.996  15.248 -0.6120  0.0677 -0.3776
  916MPD2    C513411   3.711   1.130  15.287 -0.0192 -0.7027  0.5764
  916MPD2     H13412   3.825   0.885  15.549  0.5582 -1.2395 -0.5497
  916MPD2    H113413   3.719   0.969  15.144 -0.1296  2.2499 -1.0044
  916MPD2    H213414   3.709   1.275  15.447  1.2899  0.2378 -1.0442
  916MPD2    H313415   3.686   1.200  15.208 -1.2388 -1.8294 -0.0448
  916MPD2     N13416   3.802   0.773  15.304 -0.2823  0.5644 -0.7467
  916MPD2    H513417   3.847   0.721  15.379 -2.4084  0.1004  0.2063
  916MPD2    N113418   3.771   1.123  15.643  0.2405 -0.7899 -0.0094
  916MPD2    H713419   3.748   1.221  15.653  3.9918  0.0260  0.3975
  917MPD2     C13420   0.163   3.779  11.036 -0.2577 -0.0043 -0.5909
  917MPD2    C113421   0.196   3.757  11.170  0.3507  0.1232  0.2888
  917MPD2    C213422   0.323   3.794  11.210 -0.2434  0.0733  1.1909
  917MPD2    C313423   0.415   3.845  11.123 -0.5799  0.4232  0.5675
  917MPD2    C413424   0.364   3.897  11.005  0.5315  0.4598 -0.2888
  917MPD2    C513425   0.244   3.854  10.961  0.8165 -0.1189  0.2243
  917MPD2     H13426   0.353   3.779  11.313 -1.1136 -0.5955  1.3463
  917MPD2    H113427   0.425   3.960  10.941 -0.0144 -0.9267 -2.1542
  917MPD2    H213428   0.068   3.755  10.991 -0.5551 -0.3512  0.2143
  917MPD2    H313429   0.214   3.876  10.859  0.7284  0.3412  0.3477
  917MPD2     N13430   0.549   3.885  11.156  0.3307  0.0695  0.4742
  917MPD2    H513431   0.611   3.924  11.085  0.2819  0.4326  0.6365
  917MPD2    N113432   0.105   3.683  11.255  0.1155  0.1451 -0.2988
  917MPD2    H713433   0.025   3.638  11.212 -0.3584  0.8928 -0.1904
  918MPD2     C13434   0.435   3.048  11.915  0.4920  0.5102  0.0234
  918MPD2    C113435   0.472   3.174  11.896  0.1537  0.0068 -0.1128
  918MPD2    C213436   0.382   3.265  11.832 -0.8264  0.5799  0.5347
  918MPD2    C313437   0.252   3.231  11.820  0.2077  0.4116  0.8490
  918MPD2    C413438   0.204   3.102  11.859 -0.9108 -0.1957 -0.0733
  918MPD2    C513439   0.299   3.017  11.908 -0.4798 -0.5978  0.7814
  918MPD2     H13440   0.413   3.366  11.806  0.2448  0.7623  2.4774
  918MPD2    H113441   0.097   3.087  11.867 -0.8079 -1.6879 -1.5922
  918MPD2    H213442   0.508   2.984  11.965  0.7267  0.2982 -0.5940
  918MPD2    H313443   0.265   2.927  11.958  1.0285 -1.0837  0.9387
  918MPD2     N13444   0.177   3.321  11.745  0.2591 -0.0555 -0.1824
  918MPD2    H513445   0.226   3.387  11.686  0.9809 -1.1674 -0.8331
  918MPD2    N113446   0.602   3.201  11.928 -0.5647 -0.0811  0.1217
  918MPD2    H713447   0.657   3.136  11.984 -0.5412  0.8732  1.2188
  919MPD2     C13448   1.059   2.568  11.516  0.0363  0.4795  0.2485
  919MPD2    C113449   0.935   2.523  11.482  0.1106  0.7894  0.1126
  919MPD2    C213450   0.850   2.616  11.433 -0.2737  0.3945 -0.4048
  919MPD2    C313451   0.877   2.756  11.430  0.2895  0.2555 -0.3921
  919MPD2    C413452   1.006   2.793  11.474 -0.1840  0.5145  0.5122
  919MPD2    C513453   1.100   2.699  11.506 -0.3154 -1.1706 -0.1269
  919MPD2     H13454   0.753   2.579  11.403 -1.0302  1.7036  0.4035
  919MPD2    H113455   1.040   2.896  11.480 -1.1377  0.9659 -1.5817
  919MPD2    H213456   1.135   2.496  11.544  1.4148  1.4463 -0.9654
  919MPD2    H313457   1.204   2.720  11.529 -0.7893  1.0998 -0.0434
  919MPD2     N13458   0.788   2.851  11.380 -0.3655 -0.3651  0.4096
  919MPD2    H513459   0.822   2.946  11.369 -0.7443 -0.1389  1.1664
  919MPD2    N113460   0.889   2.389  11.504 -0.0389 -0.0088 -0.3381
  919MPD2    H713461   0.788   2.375  11.495 -0.0538 -0.7527  0.9742
  920MPD2     C13462   0.698   3.422  10.565 -0.3354  0.6391  0.0955
  920MPD2    C113463   0.581   3.350  10.555  0.0164 -0.0833  0.3349
  920MPD2    C213464   0.536   3.270  10.657  0.4259  0.2117 -0.3277
  920MPD2    C313465   0.611   3.262  10.770 -0.2663  1.3066  1.0779
  920MPD2    C413466   0.737   3.319  10.773 -1.0863 -0.1708  0.1084
  920MPD2    C513467   0.779   3.398  10.668  0.2452 -0.1240 -0.5961
  920MPD2     H13468   0.450   3.205  10.648 -0.2435  1.0089  0.3398
  920MPD2    H113469   0.799   3.318  10.862  0.1133 -1.7908 -0.7632
  920MPD2    H213470   0.740   3.482  10.485 -1.2934  1.7508  0.4342
  920MPD2    H313471   0.879   3.440  10.657  0.3288 -0.4643 -1.1176
  920MPD2     N13472   0.564   3.184  10.874  0.1397  0.7398 -0.5264
  920MPD2    H513473   0.472   3.141  10.864 -0.1922  1.2495  0.3166
  920MPD2    N113474   0.497   3.357  10.440 -0.9570 -0.0896 -0.0434
  920MPD2    H713475   0.421   3.289  10.445 -1.7188  0.6563 -1.4462
  921MPD2     C13476   1.049   1.913  16.780  0.2768  0.0350  0.0856
  921MPD2    C113477   1.109   1.812  16.709  0.0326 -0.4983 -0.9516
  921MPD2    C213478   1.040   1.738  16.619 -0.0401 -0.0036 -0.3919
  921MPD2    C313479   0.901   1.743  16.605  0.1306  0.5201 -0.1675
  921MPD2    C413480   0.836   1.825  16.691  0.1070  0.3365 -0.3725
  921MPD2    C513481   0.908   1.920  16.769  0.2596  0.9098  0.2990
  921MPD2     H13482   1.093   1.661  16.565  3.0042  1.2280  0.8749
  921MPD2    H113483   0.734   1.856  16.677 -0.3831 -0.7201  0.9262
  921MPD2    H213484   1.102   1.973  16.853  1.7611  0.1127 -1.0519
  921MPD2    H313485   0.849   1.989  16.828  0.5983  0.1033  1.5870
  921MPD2     N13486   0.828   1.687  16.499  0.9639 -0.2907 -0.1376
  921MPD2    H513487   0.727   1.694  16.503  0.8261  0.2563 -3.7540
  921MPD2    N113488   1.245   1.766  16.732 -0.2691  0.4021  0.2419
  921MPD2    H713489   1.277   1.688  16.675  1.8847  0.5453  1.2387
  922MPD2     C13490   1.875   4.294  16.828 -0.5907  0.2546  0.0773
  922MPD2    C113491   1.924   4.337  16.945 -0.9222 -0.7475 -0.4146
  922MPD2    C213492   1.882   4.276  17.064 -0.3201  0.2753  0.4602
  922MPD2    C313493   1.797   4.162  17.069  0.7462  0.2798 -0.2191
  922MPD2    C413494   1.757   4.115  16.942 -0.2457  0.4704 -0.4762
  922MPD2    C513495   1.788   4.193  16.832 -0.5085  0.1771 -0.1576
  922MPD2     H13496   1.917   4.322  17.156 -0.1261 -3.9961  2.5100
  922MPD2    H113497   1.693   4.027  16.934  0.8557 -0.4169  0.6028
  922MPD2    H213498   1.886   4.341  16.731 -2.3037  1.9093  0.6773
  922MPD2    H313499   1.755   4.152  16.737 -1.3082  2.6883 -0.9509
  922MPD2     N13500   1.761   4.106  17.189 -0.5179 -0.8453 -0.6490
  922MPD2    H513501   1.784   4.150  17.277  1.1657 -2.0918 -0.4673
  922MPD2    N113502   2.025   4.442  16.950  0.0755  0.3047 -0.1710
  922MPD2    H713503   2.059   4.461  17.044 -3.6770 -0.0523  1.2799
  923MPD2     C13504   3.355   1.417   8.812  0.6088 -0.4549  0.3799
  923MPD2    C113505   3.331   1.541   8.868  0.3230 -0.6283  0.5019
  923MPD2    C213506   3.439   1.624   8.916  0.0301  0.7702 -0.5729
  923MPD2    C313507   3.572   1.567   8.908  0.0509  0.2326  0.8635
  923MPD2    C413508   3.591   1.435   8.874  0.3612 -0.7646  0.0868
  923MPD2    C513509   3.483   1.366   8.834  0.0359 -0.1981 -0.0240
  923MPD2     H13510   3.423   1.729   8.938  0.1844  0.9438 -1.3030
  923MPD2    H113511   3.691   1.394   8.886  1.1399  0.8361 -0.8422
  923MPD2    H213512   3.279   1.350   8.774 -0.2215  1.2093 -0.9502
  923MPD2    H313513   3.498   1.264   8.800 -1.9045  0.2665 -2.3104
  923MPD2     N13514   3.687   1.639   8.932 -0.6061  0.0738 -0.2648
  923MPD2    H513515   3.772   1.584   8.939 -0.2971  0.4186 -1.2719
  923MPD2    N113516   3.199   1.588   8.849 -0.0238  0.0567  0.1977
  923MPD2    H713517   3.130   1.536   8.796  0.2209 -0.0611 -0.0094
  924MPD2     C13518   2.868   4.263  16.137 -0.7091 -0.5380 -0.6096
  924MPD2    C113519   2.911   4.347  16.239 -0.9382 -0.5098  0.3481
  924MPD2    C213520   2.963   4.468  16.203 -0.2336  0.3037 -0.0972
  924MPD2    C313521   2.961   4.516  16.069  0.3244  0.5797  0.3583
  924MPD2    C413522   2.922   4.431  15.969  0.1314  0.5451  0.6093
  924MPD2    C513523   2.875   4.304  16.007 -0.2418  0.1853  0.0956
  924MPD2     H13524   3.010   4.533  16.276  0.1512  0.3427 -0.3785
  924MPD2    H113525   2.924   4.459  15.864  1.6910 -1.7603  0.0378
  924MPD2    H213526   2.836   4.162  16.160 -1.5133 -0.3318 -0.8247
  924MPD2    H313527   2.845   4.250  15.918 -2.2096 -0.0972  0.9279
  924MPD2     N13528   3.000   4.649  16.033 -0.1857 -0.4046 -0.8837
  924MPD2    H513529   2.987   4.679  15.937 -2.8285  2.2419  0.3037
  924MPD2    N113530   2.894   4.311  16.375  0.1266 -0.6477  0.2236
  924MPD2    H713531   2.871   4.213  16.390 -1.7305 -0.0868  0.9393
  925MPD2     C13532   1.830   2.574  14.626 -0.5364  0.0675  0.4306
  925MPD2    C113533   1.709   2.590  14.562  0.1075  0.0579 -0.2887
  925MPD2    C213534   1.605   2.655  14.631  0.0283 -0.1165 -0.7088
  925MPD2    C313535   1.619   2.676  14.768 -0.0121 -0.0033  0.1024
  925MPD2    C413536   1.742   2.656  14.828  0.3618 -0.7954  0.0545
  925MPD2    C513537   1.843   2.605  14.755 -0.3388  0.5175 -0.7374
  925MPD2     H13538   1.516   2.686  14.577 -0.1987  0.3086 -0.1007
  925MPD2    H113539   1.765   2.672  14.933  2.1185  1.9114 -0.7608
  925MPD2    H213540   1.914   2.517  14.587  0.2749  0.3041  1.8218
  925MPD2    H313541   1.933   2.566  14.802  0.2128  2.2826 -0.3112
  925MPD2     N13542   1.523   2.719  14.861 -0.1589 -0.1029  0.6926
  925MPD2    H513543   1.548   2.711  14.959 -1.3834 -2.4303  0.8129
  925MPD2    N113544   1.692   2.545  14.423 -0.0086 -0.2604  0.7159
  925MPD2    H713545   1.610   2.584  14.377  0.6252 -0.3102 -0.4786
  926MPD2     C13546   0.411   0.808  12.852 -0.1090 -0.3361  0.5079
  926MPD2    C113547   0.483   0.886  12.939  0.1358 -0.5545 -0.2543
  926MPD2    C213548   0.607   0.935  12.896 -0.2782  0.8153 -0.6382
  926MPD2    C313549   0.647   0.918  12.769 -0.0955  0.2563  0.4914
  926MPD2    C413550   0.572   0.841  12.684  0.0510 -0.1743 -0.1975
  926MPD2    C513551   0.452   0.790  12.722  0.2604  0.4546  0.0774
  926MPD2     H13552   0.673   0.986  12.966 -1.1527  0.3746  0.5129
  926MPD2    H113553   0.598   0.820  12.580 -0.6081 -1.8531 -0.0343
  926MPD2    H213554   0.323   0.750  12.875  0.0549 -1.4295 -1.6109
  926MPD2    H313555   0.388   0.728  12.661  0.4232 -0.0892  0.4602
  926MPD2     N13556   0.758   0.992  12.711 -0.4693  0.1812 -0.0396
  926MPD2    H513557   0.756   1.001  12.610 -1.6624 -3.6995 -0.3500
  926MPD2    N113558   0.443   0.903  13.069  0.2355 -0.0771  0.5857
  926MPD2    H713559   0.510   0.953  13.126 -0.7646  0.5606  1.2052
  927MPD2     C13560   1.104   2.709   0.588  0.4803 -0.1970  0.2283
  927MPD2    C113561   1.122   2.814   0.505  0.8399  0.0832  0.7662
  927MPD2    C213562   1.133   2.795   0.369 -0.2628  0.2998 -0.3301
  927MPD2    C313563   1.128   2.671   0.315 -0.2418 -0.1097  0.7772
  927MPD2    C413564   1.131   2.560   0.402 -0.3248 -0.8306 -0.3424
  927MPD2    C513565   1.117   2.583   0.537  0.2198  0.0958  0.0334
  927MPD2     H13566   1.151   2.879   0.304 -1.2382  0.6861 -0.1018
  927MPD2    H113567   1.137   2.456   0.370 -0.9649 -0.4845 -1.5551
  927MPD2    H213568   1.085   2.720   0.694  2.5896  1.2768  0.4521
  927MPD2    H313569   1.123   2.509   0.616  1.7733 -0.0103 -0.1902
  927MPD2     N13570   1.119   2.665   0.171  0.2805 -0.0881  0.2815
  927MPD2    H513571   1.111   2.745   0.110 -3.5115 -0.4709  0.3291
  927MPD2    N113572   1.116   2.945   0.567 -0.7432 -0.4028 -0.3381
  927MPD2    H713573   1.091   2.944   0.665 -0.1656  3.9965 -0.1632
  928MPD2     C13574   3.663   1.570   1.092 -0.3236 -0.2161  0.2414
  928MPD2    C113575   3.791   1.546   1.113 -0.3494 -0.0380  1.0079
  928MPD2    C213576   3.884   1.531   1.005 -0.5491  0.1212 -0.3705
  928MPD2    C313577   3.831   1.546   0.874 -0.4805  0.4629  0.0754
  928MPD2    C413578   3.702   1.575   0.862 -0.3106  0.2072 -0.0974
  928MPD2    C513579   3.615   1.587   0.963  0.0577 -0.0466  0.1756
  928MPD2     H13580   3.991   1.517   1.018 -0.7559  0.7190  1.9468
  928MPD2    H113581   3.664   1.589   0.762 -2.0350 -2.0770  0.2597
  928MPD2    H213582   3.591   1.583   1.172 -0.3866  0.2597  0.1118
  928MPD2    H313583   3.510   1.604   0.944  0.4990  1.4817 -0.9467
  928MPD2     N13584   3.902   1.533   0.753  0.5612  0.0068  0.4350
  928MPD2    H513585   3.852   1.552   0.667  0.7336  0.0681  0.3486
  928MPD2    N113586   3.824   1.513   1.250  0.0237  0.1606  0.3002
  928MPD2    H713587   3.741   1.512   1.309 -0.1929 -1.9155 -0.0591
  929MPD2     C13588   3.860   1.513   9.659 -0.2120 -0.7157 -0.2842
  929MPD2    C113589   3.784   1.401   9.688  0.7327 -0.9840  0.3945
  929MPD2    C213590   3.657   1.403   9.640 -0.1870 -0.0501  0.2571
  929MPD2    C313591   3.596   1.517   9.585 -0.2584 -0.1190 -0.2269
  929MPD2    C413592   3.671   1.628   9.557  0.0922 -0.3197  0.1553
  929MPD2    C513593   3.807   1.626   9.602 -0.2120  1.4206  0.6559
  929MPD2     H13594   3.598   1.318   9.673  1.7553 -1.7321 -0.6127
  929MPD2    H113595   3.638   1.708   9.492 -0.3476 -0.6174  0.0123
  929MPD2    H213596   3.962   1.523   9.693 -1.3848  2.4749  2.3771
  929MPD2    H313597   3.860   1.720   9.595  1.5009  0.2594 -1.8987
  929MPD2     N13598   3.453   1.523   9.558 -0.6761  0.0212 -0.1901
  929MPD2    H513599   3.421   1.619   9.545  0.1301  0.1177 -1.4820
  929MPD2    N113600   3.853   1.286   9.735  0.4666 -0.3016  0.2267
  929MPD2    H713601   3.946   1.299   9.775  1.0119  1.0431 -1.4613
  930MPD2     C13602   0.227   3.915  13.789  0.1502 -0.0439  0.1669
  930MPD2    C113603   0.246   3.981  13.672  0.3064  0.5360 -0.7478
  930MPD2    C213604   0.157   3.969  13.567  0.9452  0.3576  0.3759
  930MPD2    C313605   0.060   3.873  13.579 -0.8764 -0.0853  0.2689
  930MPD2    C413606   0.046   3.803  13.697  0.4444 -0.2549  0.0855
  930MPD2    C513607   0.133   3.824  13.802  0.7383  0.1694 -0.8887
  930MPD2     H13608   0.171   4.014  13.470  0.8498  1.2504  0.7762
  930MPD2    H113609   4.715   3.709  13.702  1.0903 -0.8435 -3.5971
  930MPD2    H213610   0.287   3.943  13.875  1.6412 -1.9383 -0.2606
  930MPD2    H313611   0.131   3.771  13.896 -3.1620  0.6355 -0.7313
  930MPD2     N13612   4.698   3.839  13.470 -0.0594 -0.6442  0.7532
  930MPD2    H513613   4.667   3.743  13.458  1.4566 -0.8765 -1.1832
  930MPD2    N113614   0.372   4.053  13.654  0.1049 -0.1084 -0.3566
  930MPD2    H713615   0.448   4.029  13.716 -0.6025 -0.0044  0.5502
  931MPD2     C13616   0.860   3.512   1.149 -0.5787 -0.0180 -0.1233
  931MPD2    C113617   0.851   3.394   1.072  0.1484 -0.8868 -0.0657
  931MPD2    C213618   0.757   3.295   1.101  0.1521  0.6105 -0.6008
  931MPD2    C313619   0.666   3.321   1.206 -0.0295  0.1839 -0.1713
  931MPD2    C413620   0.668   3.448   1.273 -0.2042  1.2815 -0.5865
  931MPD2    C513621   0.769   3.535   1.249  0.3085 -0.0317  0.1841
  931MPD2     H13622   0.759   3.194   1.062  0.1095  0.5811 -0.5285
  931MPD2    H113623   0.589   3.485   1.338 -0.8446  0.4994 -0.9356
  931MPD2    H213624   0.935   3.588   1.129 -1.0771  0.1656 -1.2619
  931MPD2    H313625   0.766   3.628   1.304 -0.6745 -1.4135  2.4557
  931MPD2     N13626   0.562   3.233   1.230 -0.6070  0.5033  0.7841
  931MPD2    H513627   0.490   3.262   1.296  1.0622  1.8945  1.9714
  931MPD2    N113628   0.945   3.376   0.965  0.0688 -0.2828 -0.8489
  931MPD2    H713629   1.004   3.456   0.945  0.6374 -0.6747 -0.7327
  932MPD2     C13630   2.803   1.353  10.805  0.3725  0.6852  0.6025
  932MPD2    C113631   2.874   1.405  10.916 -0.8144  0.3265 -0.5100
  932MPD2    C213632   2.939   1.318  11.005 -0.6525 -0.2149  1.0032
  932MPD2    C313633   2.922   1.180  10.985  0.1709  0.0054 -0.3339
  932MPD2    C413634   2.849   1.133  10.882 -0.7161 -0.4346 -0.6155
  932MPD2    C513635   2.791   1.221  10.787 -0.5655 -0.3142  0.8326
  932MPD2     H13636   2.985   1.359  11.094  0.0751  0.0498  0.4974
  932MPD2    H113637   2.826   1.029  10.865  1.6080 -0.8540 -1.2439
  932MPD2    H213638   2.761   1.413  10.725 -0.7556  0.8003  1.2832
  932MPD2    H313639   2.741   1.178  10.700 -0.1992  1.1166 -0.0985
  932MPD2     N13640   2.974   1.094  11.080  0.2649 -0.1699 -0.0319
  932MPD2    H513641   3.010   1.145  11.160  0.3203 -0.0094 -0.1582
  932MPD2    N113642   2.886   1.544  10.945 -0.3913  0.4633 -0.0821
  932MPD2    H713643   2.931   1.573  11.031 -3.9813 -1.2240  2.3615
  933MPD2     C13644   3.502   1.050   1.886  0.5568 -0.0702 -0.1644
  933MPD2    C113645   3.497   1.142   1.779  0.0597  0.2331 -0.2904
  933MPD2    C213646   3.370   1.194   1.740 -0.5766 -0.3925  0.0416
  933MPD2    C313647   3.256   1.146   1.804  0.2285 -0.4381 -0.2596
  933MPD2    C413648   3.269   1.057   1.903 -0.3145 -0.3460  0.6717
  933MPD2    C513649   3.388   1.005   1.939 -0.1555 -0.0804 -0.8511
  933MPD2     H13650   3.354   1.261   1.657  1.2733  0.2256  0.1855
  933MPD2    H113651   3.183   1.009   1.950 -1.9849  2.6131  0.6184
  933MPD2    H213652   3.594   1.018   1.933  0.8521  0.5651 -0.3036
  933MPD2    H313653   3.389   0.934   2.020  0.2871  1.1471  0.2282
  933MPD2     N13654   3.128   1.197   1.763 -0.5624 -0.2706 -0.4241
  933MPD2    H513655   3.123   1.253   1.678  0.2249 -1.3902 -1.1950
  933MPD2    N113656   3.622   1.171   1.721 -0.0604 -0.3352  0.1741
  933MPD2    H713657   3.695   1.115   1.764 -0.4770 -0.5224  0.6355
  934MPD2     C13658   4.184   4.145   2.024  0.3366 -0.8123 -0.6869
  934MPD2    C113659   4.245   4.060   1.930  0.5397  0.3519  0.6731
  934MPD2    C213660   4.165   3.971   1.859 -0.6318 -0.0910  0.7369
  934MPD2    C313661   4.023   3.985   1.860 -0.2048  0.0320 -0.3841
  934MPD2    C413662   3.968   4.081   1.942  0.4882 -0.4962 -0.9105
  934MPD2    C513663   4.048   4.150   2.027 -0.3323  0.1355 -0.5421
  934MPD2     H13664   4.207   3.900   1.790 -0.1742 -0.9694  1.9210
  934MPD2    H113665   3.862   4.097   1.957  1.2335  2.0268  1.6853
  934MPD2    H213666   4.241   4.219   2.078 -0.5106 -0.8682  0.2782
  934MPD2    H313667   3.995   4.204   2.106 -0.2597  1.5558 -1.4570
  934MPD2     N13668   3.935   3.905   1.778  0.4081 -0.4250 -0.0035
  934MPD2    H513669   3.837   3.930   1.775  0.4165 -0.4876 -0.8052
  934MPD2    N113670   4.386   4.046   1.914  0.0643 -0.2800 -0.0300
  934MPD2    H713671   4.413   3.983   1.839  0.0781 -0.6973  0.3223
  935MPD2     C13672   4.154   3.083   1.438  0.6845 -0.1128  0.6207
  935MPD2    C113673   4.103   3.157   1.324  0.3090  0.5481  0.6234
  935MPD2    C213674   4.009   3.249   1.354 -0.0935  0.2600 -0.0094
  935MPD2    C313675   3.961   3.263   1.479  0.1449 -0.3507 -0.4979
  935MPD2    C413676   3.998   3.188   1.581 -0.6448  0.6277  0.2924
  935MPD2    C513677   4.096   3.094   1.561  0.5325  0.3599  0.1681
  935MPD2     H13678   3.979   3.317   1.276  0.5938  0.2418 -0.2899
  935MPD2    H113679   3.952   3.196   1.679  0.6489  0.0669  0.9430
  935MPD2    H213680   4.239   3.016   1.433  1.0623  0.4150  0.1021
  935MPD2    H313681   4.128   3.039   1.649  0.8737  1.5802  0.8091
  935MPD2     N13682   3.879   3.367   1.514 -0.3545 -0.2007 -0.3985
  935MPD2    H513683   3.859   3.371   1.614  1.1843  0.1288 -0.1048
  935MPD2    N113684   4.163   3.159   1.201  0.0084  0.0992 -0.0459
  935MPD2    H713685   4.116   3.210   1.127  0.9227 -0.8039 -1.2453
  936MPD2     C13686   2.558   0.054  12.716  0.2930 -0.3031  0.7008
  936MPD2    C113687   2.646   0.101  12.814 -0.2480 -0.4402 -0.3695
  936MPD2    C213688   2.774   0.059  12.812 -0.0940  0.3577  1.4355
  936MPD2    C313689   2.824   4.689  12.722 -0.5381 -0.2369 -0.1788
  936MPD2    C413690   2.738   4.635  12.625  0.1268  0.2239 -0.2410
  936MPD2    C513691   2.612   4.690  12.626  0.1174 -0.0137 -0.9885
  936MPD2     H13692   2.833   0.105  12.890 -0.3805  0.9066  1.3249
  936MPD2    H113693   2.761   4.563  12.547  2.1127  0.3826  0.2197
  936MPD2    H213694   2.456   0.090  12.707  0.1795 -0.8221 -0.1163
  936MPD2    H313695   2.553   4.657  12.542  0.4346  0.7491 -1.5124
  936MPD2     N13696   2.962   4.667  12.719 -0.0657  0.1833  0.2917
  936MPD2    H513697   3.021   4.721  12.781  0.0506  0.4492 -0.0490
  936MPD2    N113698   2.614   0.203  12.906 -0.1537 -0.1809  0.4980
  936MPD2    H713699   2.691   0.227  12.967  0.0923 -0.3184  0.2416
  937MPD2     C13700   1.069   1.592  11.387  0.3510  0.2892 -0.2067
  937MPD2    C113701   1.090   1.724  11.356 -0.6166 -0.0915 -0.2228
  937MPD2    C213702   1.138   1.750  11.226  0.8690 -0.4321 -0.6070
  937MPD2    C313703   1.183   1.659  11.137 -0.6076  0.6319  0.2930
  937MPD2    C413704   1.175   1.529  11.180  0.2082 -0.2110 -0.6000
  937MPD2    C513705   1.110   1.493  11.299  0.3503  0.1827  0.3911
  937MPD2     H13706   1.142   1.855  11.199  1.3380 -1.0030 -2.6919
  937MPD2    H113707   1.224   1.452  11.123 -0.3507 -0.0150 -1.3375
  937MPD2    H213708   1.027   1.557  11.481 -0.6275 -1.1291 -1.1611
  937MPD2    H313709   1.102   1.390  11.330 -0.5898 -0.2213 -1.1422
  937MPD2     N13710   1.246   1.686  11.013 -0.6135  0.3189  0.3656
  937MPD2    H513711   1.301   1.613  10.970  1.1436  0.6141  2.1107
  937MPD2    N113712   1.025   1.828  11.421  0.4164  0.1669  0.0315
  937MPD2    H713713   1.031   1.912  11.366 -0.2871  1.2874  1.6732
  938MPD2     C13714   3.637   3.115   0.808 -0.0317  0.3484 -0.0647
  938MPD2    C113715   3.537   3.178   0.884 -0.1270 -0.2697  0.1379
  938MPD2    C213716   3.467   3.096   0.971 -0.3792 -0.1160 -0.1950
  938MPD2    C313717   3.498   2.960   0.996  0.2759  1.0037  0.3632
  938MPD2    C413718   3.601   2.903   0.927 -0.7260  0.0270  0.2520
  938MPD2    C513719   3.661   2.983   0.830 -0.8587  0.3405  0.1548
  938MPD2     H13720   3.382   3.136   1.024  0.3294  0.4775  0.4962
  938MPD2    H113721   3.631   2.800   0.918 -0.7599 -0.1248  1.8367
  938MPD2    H213722   3.706   3.169   0.744 -0.6759 -0.7743 -1.6903
  938MPD2    H313723   3.737   2.933   0.771 -0.8343 -1.9158  2.0667
  938MPD2     N13724   3.420   2.878   1.079 -0.9847 -1.3080 -0.0122
  938MPD2    H513725   3.474   2.797   1.105  0.4881  0.0577  1.1948
  938MPD2    N113726   3.500   3.314   0.871  0.0209  0.3298 -0.0732
  938MPD2    H713727   3.424   3.347   0.930  0.6076 -0.6304  1.1978
  939MPD2     C13728   4.456   4.513   1.229 -0.7898  0.1245  0.2072
  939MPD2    C113729   4.457   4.609   1.138 -0.2434  0.1677 -0.4999
  939MPD2    C213730   4.507   4.596   1.008  0.0760 -0.2555 -0.2024
  939MPD2    C313731   4.549   4.469   0.974 -0.1691 -0.4932  0.0961
  939MPD2    C413732   4.530   4.362   1.062 -0.6605 -0.1824 -0.2284
  939MPD2    C513733   4.493   4.383   1.193  0.3798  0.3817  0.4358
  939MPD2     H13734   4.535   4.685   0.953 -0.2610  0.5399  0.9408
  939MPD2    H113735   4.549   4.266   1.016  1.0080  0.3667 -0.7010
  939MPD2    H213736   4.416   4.530   1.329  0.9590  0.0391  0.9321
  939MPD2    H313737   4.479   4.303   1.265  1.2754  0.2103  0.4159
  939MPD2     N13738   4.597   4.460   0.844 -0.0692 -0.2678 -0.0609
  939MPD2    H513739   4.585   4.545   0.788 -1.0096 -0.5241 -0.2434
  939MPD2    N113740   4.413   0.007   1.190 -0.1297  0.7128 -0.8973
  939MPD2    H713741   4.380   4.722   1.286 -2.1645 -0.3863 -1.6862
  940MPD2     C13742   3.507   4.567  13.055 -0.2577 -0.7620 -0.0570
  940MPD2    C113743   3.625   4.638  13.046  0.0323  0.0362  0.8763
  940MPD2    C213744   3.667   4.657  12.914 -0.7502  0.2287 -0.2565
  940MPD2    C313745   3.616   4.585  12.804 -0.3818 -0.6472  0.2674
  940MPD2    C413746   3.506   4.503  12.823 -0.6375 -0.2295  0.2259
  940MPD2    C513747   3.457   4.496  12.952 -0.2280  0.0225 -0.3899
  940MPD2     H13748   3.751   4.723  12.892  1.2364 -2.3361 -0.2764
  940MPD2    H113749   3.446   4.452  12.749 -1.7862 -2.4179  2.6750
  940MPD2    H213750   3.466   4.564  13.155  0.3248 -0.1102  0.1961
  940MPD2    H313751   3.360   4.452  12.971 -0.6469  0.5150 -1.3677
  940MPD2     N13752   3.663   4.585  12.671  0.6432 -0.4899 -0.0918
  940MPD2    H513753   3.622   4.514  12.611  1.3129 -1.7986  1.0214
  940MPD2    N113754   3.684   4.713  13.153  1.0076  0.2029 -0.8540
  940MPD2    H713755   3.764   0.049  13.134  0.9112  0.9181  1.0268
  941MPD2     C13756   3.042   4.463   9.296  0.2357  0.0415  0.1088
  941MPD2    C113757   3.116   4.516   9.401  0.0246 -0.4651 -0.0465
  941MPD2    C213758   3.064   4.497   9.532 -0.0438  0.2342 -0.4231
  941MPD2    C313759   2.943   4.420   9.548 -0.7979 -0.4118  0.2831
  941MPD2    C413760   2.854   4.394   9.445  0.5917  0.6251 -0.0348
  941MPD2    C513761   2.914   4.421   9.322  0.4851 -0.6203 -0.6430
  941MPD2     H13762   3.130   4.534   9.610 -0.1887  0.2638 -0.3153
  941MPD2    H113763   2.754   4.354   9.455  1.0443 -0.2581  0.9159
  941MPD2    H213764   3.062   4.465   9.190 -0.0433  1.0785  0.0778
  941MPD2    H313765   2.854   4.386   9.239 -0.0881 -0.2466 -0.3869
  941MPD2     N13766   2.892   4.389   9.675  0.4235 -0.6670 -0.3872
  941MPD2    H513767   2.801   4.345   9.676  2.1064 -4.1612 -0.4624
  941MPD2    N113768   3.241   4.580   9.387  0.0922  0.1381  0.0764
  941MPD2    H713769   3.293   4.589   9.473  0.9264 -1.0710 -0.3041
  942MPD2     C13770   2.555   0.840   9.424  0.5330  0.1841 -0.7316
  942MPD2    C113771   2.490   0.892   9.315  0.5655 -1.3950 -0.4803
  942MPD2    C213772   2.530   1.013   9.270  0.5243  0.2298  0.0694
  942MPD2    C313773   2.627   1.086   9.333 -0.0146  0.0212 -0.1574
  942MPD2    C413774   2.683   1.035   9.448  0.3642 -0.2159  0.4597
  942MPD2    C513775   2.658   0.905   9.487 -0.0260 -0.1526 -0.6306
  942MPD2     H13776   2.465   1.065   9.200  1.1543 -0.3901 -0.9852
  942MPD2    H113777   2.766   1.089   9.493  0.3500 -0.4129  0.7215
  942MPD2    H213778   2.534   0.750   9.481  0.8653 -0.5989 -1.8517
  942MPD2    H313779   2.725   0.858   9.559  0.2520  3.5038  1.5123
  942MPD2     N13780   2.671   1.218   9.299 -0.1838  0.0697  0.2098
  942MPD2    H513781   2.743   1.274   9.344 -0.3303  0.9364 -0.6393
  942MPD2    N113782   2.393   0.825   9.242  0.4635 -0.6414 -0.0786
  942MPD2    H713783   2.369   0.876   9.157 -2.6672 -0.8489  0.6906
  943MPD2     C13784   1.938   4.091   9.112  0.4210 -0.3279  0.5022
  943MPD2    C113785   1.898   3.981   9.176  0.0262 -0.1403  0.3673
  943MPD2    C213786   1.818   3.990   9.295 -0.2150  0.1723 -0.3948
  943MPD2    C313787   1.775   4.112   9.340  0.0569  0.3443  0.1868
  943MPD2    C413788   1.814   4.225   9.273  1.5170 -0.6758  1.0490
  943MPD2    C513789   1.893   4.212   9.159  0.9419 -0.4748 -0.0875
  943MPD2     H13790   1.778   3.901   9.340 -1.4365 -0.1614 -2.1487
  943MPD2    H113791   1.781   4.322   9.309  1.4557 -0.2626 -0.1473
  943MPD2    H213792   2.006   4.085   9.028 -1.0011 -1.1209 -0.5935
  943MPD2    H313793   1.927   4.303   9.110  1.6806 -1.2253 -0.9827
  943MPD2     N13794   1.702   4.133   9.460  0.0362 -0.4131 -0.0135
  943MPD2    H513795   1.690   4.226   9.497  2.3434  0.5068 -1.6082
  943MPD2    N113796   1.959   3.859   9.134 -0.1717  0.0784 -0.6834
  943MPD2    H713797   1.992   3.861   9.038  0.5831  0.4532 -0.4222
  944MPD2     C13798   1.866   3.574  10.648 -0.0881  0.1667 -0.3664
  944MPD2    C113799   1.751   3.535  10.580 -0.2393 -0.0336  0.2121
  944MPD2    C213800   1.633   3.520  10.655  0.0095 -0.1911  0.0043
  944MPD2    C313801   1.634   3.548  10.786 -0.3564  0.0809 -0.1596
  944MPD2    C413802   1.752   3.582  10.852 -0.7177 -0.4641  0.0628
  944MPD2    C513803   1.868   3.596  10.784  0.3807  0.0215  0.1265
  944MPD2     H13804   1.540   3.499  10.603 -1.8205 -0.3333  3.3089
  944MPD2    H113805   1.749   3.620  10.953  1.0331 -1.3444  0.4528
  944MPD2    H213806   1.966   3.572  10.607  0.4907  2.2821  0.9709
  944MPD2    H313807   1.956   3.633  10.836 -0.0216  0.1362  0.7280
  944MPD2     N13808   1.511   3.568  10.850 -0.2591  0.4551 -0.1027
  944MPD2    H513809   1.433   3.533  10.794  0.6396  1.3738 -1.9263
  944MPD2    N113810   1.751   3.504  10.441  0.3368  0.5695  0.1487
  944MPD2    H713811   1.661   3.485  10.399  1.1617 -0.8483 -0.9729
    1TCq1    O113812   4.314   3.637  14.604 -0.3998  0.2404  0.2416
    1TCq1    C113813   4.188   3.587  14.584  0.4954  0.4178  1.1223
    1TCq1    O213814   4.144   3.477  14.564  0.4277 -0.5034  0.8267
    1TCq1    C213815   4.135   3.714  14.541 -0.0540  0.2308 -0.1069
    1TCq1    C313816   4.041   3.711  14.441  0.0395  0.6137 -0.2788
    1TCq1    C413817   3.978   3.823  14.411 -0.1389 -0.5523 -0.2359
    1TCq1    C513818   4.026   3.941  14.456 -0.4498 -0.0714  0.4790
    1TCq1    C613819   4.114   3.938  14.558 -0.5197  0.1211 -0.1698
    1TCq1    C713820   4.167   3.822  14.609 -0.8945 -0.2383  0.6532
    1TCq1    C813821   4.175   4.057  14.611 -0.4343 -0.7126  0.0811
    1TCq1    O413822   4.239   4.039  14.716  0.4338 -0.1688 -0.0497
    1TCq1    C913823   3.883   3.821  14.305  0.3287  0.2321 -0.0185
    1TCq1    O513824   3.780   3.897  14.325 -0.1698  0.3522  0.5533
    1TCq1    O613825   3.885   3.722  14.231  0.0150 -0.1186  0.6414
    1TCq1    H113826   4.313   3.728  14.568  1.0898 -0.2532 -1.0339
    1TCq1    H213827   4.012   3.617  14.397 -0.4412  0.7680 -0.2856
    1TCq1    H313828   3.981   4.031  14.414  1.1255 -0.3391 -1.7767
    1TCq1    H413829   4.229   3.827  14.697 -1.4134  1.4173  0.9296
    2MPD2     C13830   4.250   4.564  14.666  0.8311  0.1526  0.4458
    2MPD2    C113831   4.203   4.534  14.535  0.2156  0.0647 -0.4919
    2MPD2    C213832   4.174   4.404  14.500 -0.2996  0.1107 -0.1008
    2MPD2    C313833   4.187   4.301  14.586 -0.2434  0.1714 -0.6434
    2MPD2    C413834   4.236   4.326  14.716 -0.4887 -0.1455  0.2923
    2MPD2    C513835   4.259   4.458  14.754 -0.3802 -0.5928  0.3686
    2MPD2     H13836   4.154   4.387  14.395  0.1332  1.1235 -0.3578
    2MPD2    H113837   4.264   4.256  14.794 -1.1820 -2.4352 -1.5300
    2MPD2    H213838   4.285   4.665  14.683 -2.6538  1.4456 -0.0774
    2MPD2    H313839   4.299   4.477  14.853  0.6355 -0.8063 -0.0068
    2MPD2     N13840   4.152   4.174  14.537 -0.4812 -0.2493  0.5484
    2MPD2    H513841   4.078   4.175  14.468 -1.3801  1.4692  1.5194
    2MPD2    N113842   4.204   4.640  14.439  1.1793  0.2986 -0.3051
    2MPD2    H713843   4.243   0.000  14.483 -1.4239  0.9376  0.7836
    3TMC2    C113844   4.147   0.048  14.256  0.0178  0.2223 -0.2838
    3TMC2    C213845   4.157   0.159  14.334 -0.0849  0.5693  1.0762
    3TMC2    C313846   4.189   0.267  14.258  0.4767  0.0463  0.2139
    3TMC2    C413847   4.173   0.036  14.121 -1.2038 -0.5390 -0.0823
    3TMC2    C513848   4.180   0.148  14.058  0.2381 -0.2071  0.4912
    3TMC2    C613849   4.203   0.264  14.124  0.1651 -0.2159  0.2605
    3TMC2     C13850   4.127   4.643  14.322  0.2663 -0.0665  0.3348
    3TMC2     O13851   4.074   4.553  14.256  0.3761 -0.0024  0.0994
    3TMC2     H13852   4.122   0.164  14.436  2.3071  0.7481  1.8923
    3TMC2    H113853   4.180   4.658  14.083 -2.4122 -0.8947  0.6060
    3TMC2    H213854   4.220   0.357  14.071  1.0357  0.0282  0.9656
    3TMC2    C713855   4.177   0.138  13.917  0.1427  0.1801  0.1246
    3TMC2    C813856   4.214   0.392  14.318  0.4376 -0.1924  0.1458
    3TMC2    O113857   4.215   0.035  13.866  0.7643 -0.0262  0.3095
    3TMC2    O213858   4.223   0.498  14.257  0.1519 -0.3544  0.2735
    3TMC2    O513859   4.287   0.358  14.432 -0.4639  0.0925 -0.0111
    3TMC2    H513860   4.277   0.265  14.461 -0.5471 -0.2055 -0.9806
    4MPD2     C13861   3.059   1.149  13.505 -0.0266  0.6806 -0.9983
    4MPD2    C113862   3.076   1.106  13.370 -0.1004  0.3375 -0.4905
    4MPD2    C213863   3.198   1.047  13.342 -0.2481 -0.3307  0.0193
    4MPD2    C313864   3.295   1.030  13.443 -0.0893  0.8991 -0.4511
    4MPD2    C413865   3.277   1.085  13.572 -0.2342 -0.5039 -0.2522
    4MPD2    C513866   3.158   1.149  13.594 -0.4164  0.2390  0.9199
    4MPD2     H13867   3.215   1.010  13.241  0.0772 -1.6011  0.5364
    4MPD2    H113868   3.344   1.086  13.657 -1.0010  1.6813  0.3454
    4MPD2    H213869   2.967   1.197  13.537 -0.2948  0.5602 -1.5780
    4MPD2    H313870   3.127   1.198  13.685 -0.3746  0.2049  0.9520
    4MPD2     N13871   3.411   0.957  13.406  0.5287 -0.4707 -0.1723
    4MPD2    H513872   3.414   0.921  13.311 -1.0190  0.1204 -0.4511
    4MPD2    N113873   2.973   1.128  13.273 -0.1604 -0.5788 -0.0233
    4MPD2    H713874   2.888   1.170  13.310  1.3690  2.4365  0.0845
    5TCq2    C113875   3.492   0.905  13.509  0.2500 -0.1128  0.3780
    5TCq2    O213876   3.495   0.919  13.633 -0.5626 -0.1018 -0.3343
    5TCq2    C213877   3.609   0.836  13.449  0.3529 -0.2271 -0.1457
    5TCq2    C313878   3.661   0.863  13.323 -0.5331 -0.1102 -0.1397
    5TCq2    C413879   3.788   0.826  13.289  0.1678  0.1045 -0.5232
    5TCq2    C513880   3.861   0.756  13.374  0.0657  0.2394 -0.2351
    5TCq2    C613881   3.797   0.712  13.490 -0.4460  0.1706  0.1603
    5TCq2    C713882   3.673   0.745  13.529 -0.9148 -0.0837 -0.4986
    5TCq2    C813883   3.871   0.611  13.567 -0.4421 -0.3320  0.0389
    5TCq2    O413884   3.840   0.589  13.684  0.2193  0.4012  0.2231
    5TCq2    C913885   3.843   0.858  13.157  0.3820  0.0383  0.5342
    5TCq2    O513886   3.771   0.907  13.065  0.1860 -0.3305 -0.0644
    5TCq2    O613887   3.964   0.818  13.137 -0.1454 -0.0726 -0.7339
    5TCq2    H213888   3.618   0.941  13.261  2.8149  1.9142  0.0639
    5TCq2    H313889   3.962   0.725  13.347  0.1960 -0.5444  1.1497
    5TCq2    H413890   3.644   0.721  13.631 -0.7836  1.5463 -0.0649
    6MPD1     C13891   1.939   2.537  13.105 -0.4239 -0.2080  0.7980
    6MPD1    C113892   1.964   2.506  12.971  0.6097  1.3578  0.8682
    6MPD1    C213893   2.077   2.423  12.949 -0.0113  0.1988 -0.0775
    6MPD1    C313894   2.144   2.355  13.048  0.3007  0.5270 -0.0899
    6MPD1    C413895   2.116   2.384  13.180 -0.2751  0.2534 -0.0079
    6MPD1    C513896   2.013   2.474  13.203 -0.4244 -0.3058  0.1219
    6MPD1     H13897   2.091   2.394  12.846 -0.8330  3.5494 -1.1319
    6MPD1    H113898   2.166   2.339  13.265 -0.6763 -0.7932 -0.3229
    6MPD1    H213899   1.867   2.616  13.123 -0.5000 -0.2123  0.5061
    6MPD1    H313900   1.994   2.506  13.305  0.1455  0.6967 -0.0866
    6MPD1     N13901   2.244   2.262  13.017 -0.2282  0.1345 -0.1265
    6MPD1    H513902   2.285   2.210  13.093  1.9763 -0.8420 -1.9891
    6MPD1    N113903   1.906   2.578  12.864  0.4760 -0.2231  0.0917
    6MPD1    H613904   1.907   2.533  12.773  2.1124  1.4962 -0.7464
    6MPD1    H713905   1.813   2.609  12.892 -0.0479 -0.7574 -1.0717
    7MPD2     C13906   2.365   1.748  13.011 -0.3974 -0.3415 -0.1063
    7MPD2    C113907   2.463   1.720  13.103 -0.5364  0.0315 -0.4357
    7MPD2    C213908   2.485   1.583  13.125  0.3702  0.2719  0.5559
    7MPD2    C313909   2.414   1.484  13.059 -0.4322 -0.4250  0.1593
    7MPD2    C413910   2.313   1.527  12.965 -0.2520  0.0022 -0.2129
    7MPD2    C513911   2.288   1.659  12.950  0.2132 -0.2062  0.2270
    7MPD2     H13912   2.566   1.559  13.193  0.3930 -0.2091  0.3603
    7MPD2    H113913   2.243   1.457  12.919  0.5212 -0.4190 -0.7610
    7MPD2    H213914   2.339   1.852  12.996 -2.2815 -0.9597 -1.1338
    7MPD2    H313915   2.211   1.692  12.882  1.2074 -1.5818 -1.5845
    7MPD2     N13916   2.438   1.349  13.071 -0.9143  0.0050  0.3320
    7MPD2    H513917   2.389   1.283  13.012 -0.0147 -0.2932 -0.0773
    7MPD2    N113918   2.543   1.818  13.163  0.6230 -0.2828 -0.3095
    7MPD2    H713919   2.602   1.780  13.237  1.8963 -0.7717 -1.5630
    8TMC3    C113920   2.621   1.195  13.084 -0.7913 -0.7190 -0.6052
    8TMC3    C213921   2.733   1.156  13.151  0.6310  0.3814  0.2159
    8TMC3    C313922   2.848   1.121  13.082 -0.1406  0.6660  0.5754
    8TMC3    C413923   2.609   1.184  12.951 -0.1527 -0.1622 -0.3195
    8TMC3    C513924   2.731   1.155  12.886 -0.0223  0.8816 -0.4655
    8TMC3    C613925   2.849   1.126  12.947 -0.2232 -0.6001 -0.3410
    8TMC3     C13926   2.538   1.297  13.147 -0.1747  0.6618 -0.3625
    8TMC3     O13927   2.581   1.345  13.248 -0.3488 -0.0802 -0.0132
    8TMC3     H13928   2.729   1.176  13.258 -0.1616 -4.9402  1.1703
    8TMC3    H113929   2.518   1.209  12.897 -0.6355  1.4573  1.2466
    8TMC3    H213930   2.942   1.125  12.892 -0.4456  2.5348 -0.7953
    8TMC3    C713931   2.749   1.273  12.800  0.2274 -0.8126  0.1602
    8TMC3    C813932   2.970   1.090  13.141  0.9278  0.8649 -1.3448
    8TMC3    O113933   2.825   1.362  12.830  0.1982 -0.5308  0.0431
    8TMC3    O213934   3.046   1.018  13.075 -0.2403  0.4144  0.0715
    9TMC3    C113935   2.415   2.152  12.896 -0.2231  0.4952 -0.2640
    9TMC3    C213936   2.432   2.083  12.784 -0.4207 -0.2495  0.2837
    9TMC3    C313937   2.502   1.968  12.788  0.6598 -0.2350  0.1740
    9TMC3    C413938   2.475   2.128  13.015  0.0191 -0.0519  0.3804
    9TMC3    C513939   2.541   2.009  13.014  0.1320  0.0004  0.4081
    9TMC3    C613940   2.565   1.932  12.907 -0.5539  0.5471  0.3580
    9TMC3     C13941   2.297   2.237  12.890  0.1686 -0.0444  0.0937
    9TMC3     O13942   2.283   2.293  12.781  0.5648 -0.0054  0.1054
    9TMC3     H13943   2.369   2.102  12.698 -0.1331 -0.3584  0.0507
    9TMC3    H113944   2.464   2.189  13.104  2.2367 -0.9661  1.2796
    9TMC3    H213945   2.617   1.839  12.925 -0.9934  0.0225 -1.0857
    9TMC3    C713946   2.567   1.953  13.142 -0.6971  0.2872 -0.6076
    9TMC3    C813947   2.469   1.867  12.690  0.0888  0.6475  0.5106
    9TMC3    O113948   2.623   2.028  13.225  0.1338  0.2375  0.2088
    9TMC3    O213949   2.359   1.871  12.636  0.3385  0.4103  0.5953
   10MPD2     C13950   2.516   1.378  12.534  0.1024  0.0601  0.1429
   10MPD2    C113951   2.606   1.401  12.640 -0.0836  0.1519  0.3109
   10MPD2    C213952   2.624   1.532  12.683 -0.0957  0.1096  0.0354
   10MPD2    C313953   2.548   1.635  12.638 -0.2329  0.7446 -0.4447
   10MPD2    C413954   2.459   1.608  12.533 -0.0754 -0.5981 -0.0444
   10MPD2    C513955   2.446   1.481  12.483 -0.2044 -0.5826 -0.5341
   10MPD2     H13956   2.678   1.547  12.776  0.9525  0.3928 -0.6266
   10MPD2    H113957   2.413   1.692  12.482 -2.1619 -0.7893  1.5560
   10MPD2    H213958   2.497   1.281  12.488  0.2299  0.7168 -1.3122
   10MPD2    H313959   2.381   1.465  12.398  2.5870 -1.9191 -2.4066
   10MPD2     N13960   2.555   1.763  12.701  0.0784 -0.0558  0.0163
   10MPD2    H513961   2.629   1.778  12.768  1.2720  0.1739 -1.3708
   10MPD2    N113962   2.653   1.283  12.701  0.0932 -0.3317 -0.0283
   10MPD2    H713963   2.622   1.192  12.669  1.2413  0.4603 -3.3971
   11MPD2     C13964   4.156   0.183  13.619 -0.4868  0.0094 -0.4418
   11MPD2    C113965   4.083   0.253  13.715 -0.6517  0.4848  0.2690
   11MPD2    C213966   4.013   0.362  13.669 -0.1058 -0.3107 -0.1662
   11MPD2    C313967   4.003   0.402  13.536  0.2261  0.4834  0.1846
   11MPD2    C413968   4.066   0.324  13.443 -0.7154 -0.2152 -0.4380
   11MPD2    C513969   4.142   0.216  13.482 -0.4300 -0.4254  0.0110
   11MPD2     H13970   3.962   0.422  13.743  1.3971 -0.1371  0.7284
   11MPD2    H113971   4.052   0.344  13.337 -2.0787 -0.8108 -0.3697
   11MPD2    H213972   4.226   0.106  13.648  0.4874  2.1953  3.0878
   11MPD2    H313973   4.199   0.150  13.417  1.1234  0.1164  0.8351
   11MPD2     N13974   3.935   0.518  13.486 -0.2754  0.0288 -0.3062
   11MPD2    H513975   3.947   0.539  13.388  1.5650  1.6710  0.2718
   11MPD2    N113976   4.105   0.240  13.854 -0.0647 -0.2697 -0.4644
   11MPD2    H713977   4.056   0.308  13.912 -0.9461  1.1569 -2.8986
    1MPD1     C13978   2.716   2.339  16.578  0.5721  1.1143  0.1094
    1MPD1    C113979   2.649   2.333  16.701  0.0814 -0.7068 -0.1070
    1MPD1    C213980   2.512   2.342  16.693 -0.7314  0.4541 -0.2027
    1MPD1    C313981   2.445   2.361  16.574  1.1155 -0.3517  0.6997
    1MPD1    C413982   2.514   2.361  16.454  0.4320 -0.2546  0.4633
    1MPD1    C513983   2.646   2.354  16.454 -0.5356  0.3555  0.2552
    1MPD1     H13984   2.460   2.333  16.789  0.2953  2.0466  0.5015
    1MPD1    H113985   2.472   2.353  16.355  0.4396 -2.0649  0.6086
    1MPD1    H213986   2.823   2.322  16.574  0.2506 -0.7739 -0.4664
    1MPD1    H313987   2.704   2.353  16.362 -1.8023 -0.9563 -0.5313
    1MPD1     N13988   2.305   2.352  16.565 -0.6522  0.0875  0.2290
    1MPD1    H513989   2.262   2.376  16.477 -0.8077  3.8093  1.2860
    1MPD1    N113990   2.722   2.333  16.821 -0.5294  0.0251 -0.7701
    1MPD1    H613991   2.657   2.313  16.897  0.0923 -0.4155 -0.3564
    1MPD1    H713992   2.800   2.268  16.817 -1.1282 -0.8412  1.8672
    2MPD1     C13993   1.763   2.083  15.868 -0.3720 -0.5836 -0.4857
    2MPD1    C113994   1.675   2.034  15.962 -0.6961  0.0226 -0.2555
    2MPD1    C213995   1.677   2.088  16.088 -0.0963  0.4140 -0.4357
    2MPD1    C313996   1.770   2.185  16.124  0.1063 -0.4206 -0.2444
    2MPD1    C413997   1.846   2.242  16.028 -0.2170 -0.1676  0.0762
    2MPD1    C513998   1.849   2.192  15.897  0.1441 -0.2646 -1.0663
    2MPD1     H13999   1.604   2.051  16.159 -2.3267  1.4791 -2.1625
    2MPD1    H114000   1.909   2.327  16.049  0.8084 -0.0967 -3.3896
    2MPD1    H214001   1.774   2.035  15.771  1.5140 -1.2905  0.0745
    2MPD1    H314002   1.912   2.242  15.824 -0.4815  3.8967  1.2659
    2MPD1     N14003   1.777   2.219  16.264 -0.0606  0.0644 -0.0229
    2MPD1    H514004   1.714   2.172  16.328  0.5916  0.1667  0.6947
    2MPD1    N114005   1.598   1.913  15.938 -0.2470 -0.2783  0.6149
    2MPD1    H614006   1.559   1.917  15.844 -1.3221  2.4705  1.1650
    2MPD1    H714007   1.515   1.900  15.996  0.8380 -0.4638  2.1323
    3TMC3    C114008   1.920   2.258  16.456  0.4672  0.0929 -0.0607
    3TMC3    C214009   1.822   2.273  16.544 -0.3031 -0.7432  0.0509
    3TMC3    C314010   1.860   2.302  16.677 -0.1581  0.0774 -0.2429
    3TMC3    C414011   2.054   2.278  16.491 -0.2554 -0.2500  0.1075
    3TMC3    C514012   2.081   2.308  16.623 -0.0702 -0.1884 -0.2819
    3TMC3    C614013   1.988   2.324  16.715  0.0416  0.0285  0.0388
    3TMC3     C14014   1.891   2.285  16.312 -0.1245  0.2303 -0.7423
    3TMC3     O14015   1.972   2.364  16.262  0.5369 -0.4094  0.1440
    3TMC3     H14016   1.717   2.263  16.521 -0.8332 -1.6557  2.8350
    3TMC3    H114017   2.136   2.248  16.426 -1.4362 -2.0245 -0.5452
    3TMC3    H214018   2.014   2.367  16.812  0.6591  0.6135 -0.3905
    3TMC3    C714019   2.217   2.331  16.667 -0.3829  0.1009  0.4067
    3TMC3    C814020   1.756   2.305  16.770  0.7340  0.0819  0.9939
    3TMC3    O114021   2.244   2.295  16.781 -0.0015  0.4742  0.9496
    3TMC3    O214022   1.642   2.298  16.728  0.5912  0.0976 -0.1898
    4MPD1     C14023   1.536   2.418  17.216  0.7415 -0.3744  0.8354
    4MPD1    C114024   1.673   2.413  17.248  0.5642 -0.0724  0.6442
    4MPD1    C214025   1.754   2.379  17.136 -0.6720  0.7151 -0.5860
    4MPD1    C314026   1.705   2.371  17.006 -0.3139  0.7652  0.2486
    4MPD1    C414027   1.565   2.396  16.985 -0.0898 -0.4987 -0.0186
    4MPD1    C514028   1.487   2.424  17.089 -0.1749 -0.1550  0.0579
    4MPD1     H14029   1.860   2.365  17.148 -0.2299  1.6500 -3.4137
    4MPD1    H114030   1.517   2.381  16.889  2.4991  0.9116 -1.5229
    4MPD1    H214031   1.459   2.428  17.292  2.0304  0.1827  2.0717
    4MPD1    H314032   1.379   2.434  17.076 -0.0481  0.2399 -0.7323
    4MPD1     N14033   1.791   2.329  16.904 -0.2286 -0.1254 -0.2287
    4MPD1    H514034   1.888   2.309  16.925  0.0389  0.0928 -1.2306
    4MPD1    N114035   1.730   2.408  17.380  0.0408 -0.4146  0.3464
    4MPD1    H614036   1.671   2.469  17.437 -1.0195 -0.3998 -0.7724
    4MPD1    H714037   1.817   2.459  17.391  0.4353 -0.6383 -1.8637
    1TCq1    O114038   3.250   1.099  11.456 -0.2153 -0.3075  0.0599
    1TCq1    C114039   3.229   1.200  11.374  0.8038  0.2373 -0.1643
    1TCq1    O214040   3.136   1.207  11.294 -0.0250 -0.4191  0.0964
    1TCq1    C214041   3.324   1.314  11.394 -0.4075 -0.0118  0.5676
    1TCq1    C314042   3.280   1.441  11.352 -0.1649  0.3661 -0.1839
    1TCq1    C414043   3.358   1.550  11.378 -1.1160  0.0940  0.5554
    1TCq1    C514044   3.457   1.534  11.466  0.3476 -0.1496 -0.0632
    1TCq1    C614045   3.493   1.407  11.511  0.2190 -0.4717 -0.4114
    1TCq1    C714046   3.436   1.291  11.469 -0.5304  0.8748  0.4386
    1TCq1    C814047   3.602   1.404  11.616 -0.2737 -0.4126  0.0992
    1TCq1    O414048   3.645   1.295  11.649  0.4377 -0.0406 -0.0119
    1TCq1    C914049   3.323   1.682  11.332 -0.0919 -0.2184  0.3330
    1TCq1    O514050   3.419   1.765  11.328  0.1340 -0.1469 -0.1783
    1TCq1    O614051   3.199   1.700  11.296 -0.3767  0.5143  0.2452
    1TCq1    H114052   3.320   1.119  11.522  0.5150  1.5808 -1.2984
    1TCq1    H214053   3.199   1.446  11.281 -0.2098 -3.1414 -0.3971
    1TCq1    H314054   3.516   1.624  11.480  0.0374 -0.0337  0.4715
    1TCq1    H414055   3.474   1.198  11.510 -1.9208  0.2509  0.3138
    2MPD1     C14056   3.950   1.618  11.925  0.4324 -0.0918 -0.2839
    2MPD1    C114057   3.834   1.698  11.928 -0.1993  0.4990 -0.7592
    2MPD1    C214058   3.740   1.664  11.836  0.9085  0.0557 -0.1554
    2MPD1    C314059   3.742   1.545  11.757  0.5189 -0.5588  0.4002
    2MPD1    C414060   3.855   1.466  11.759  0.0096  0.4776  0.3352
    2MPD1    C514061   3.956   1.507  11.841  0.0075 -0.1473 -0.0921
    2MPD1     H14062   3.647   1.719  11.846 -0.4170 -2.2168  0.2294
    2MPD1    H114063   3.879   1.372  11.709 -1.6791 -0.0155  0.4356
    2MPD1    H214064   4.038   1.637  11.985 -0.0446  0.8675  0.1179
    2MPD1    H314065   4.045   1.446  11.836  0.4194  0.5074 -0.8589
    2MPD1     N14066   3.626   1.521  11.673  0.4459 -0.1758  0.8219
    2MPD1    H514067   3.563   1.601  11.670  0.3318 -0.2426  1.5160
    2MPD1    N114068   3.820   1.815  11.995 -0.0720  0.3546 -0.7063
    2MPD1    H614069   3.875   1.817  12.081 -1.0654  0.9502 -0.0832
    2MPD1    H714070   3.723   1.838  12.016 -0.1428 -1.6150  1.0632
    1TCq1    O114071   3.119   1.836   1.735 -0.1136  0.5591 -0.6178
    1TCq1    C114072   3.220   1.768   1.673 -0.1700  0.0957  0.1038
    1TCq1    O214073   3.261   1.802   1.565  0.1401 -0.1498 -0.2127
    1TCq1    C214074   3.275   1.660   1.756  0.2892  0.0348  0.2584
    1TCq1    C314075   3.204   1.598   1.851  0.1246  0.6758 -0.4128
    1TCq1    C414076   3.275   1.505   1.928  0.4386 -0.1811 -0.0699
    1TCq1    C514077   3.412   1.507   1.933  0.5229 -0.3550  0.6353
    1TCq1    C614078   3.480   1.583   1.844  0.2039 -0.4017 -0.0023
    1TCq1    C714079   3.409   1.653   1.750  0.1668  0.2094  0.2817
    1TCq1    C814080   3.625   1.572   1.831  0.5709  0.8358 -0.8810
    1TCq1    O414081   3.671   1.639   1.738 -0.4757  0.2165 -1.1799
    1TCq1    C914082   3.205   1.445   2.041  0.5025  0.1362 -0.1954
    1TCq1    O514083   3.095   1.491   2.078 -0.2065 -0.0208  0.2691
    1TCq1    O614084   3.260   1.356   2.112  0.2663  0.6380  0.9168
    1TCq1    H114085   3.098   1.808   1.826 -0.5307  3.4523  0.1748
    1TCq1    H214086   3.096   1.605   1.848 -0.0900 -2.0702  1.2591
    1TCq1    H314087   3.456   1.430   1.995  1.1993 -0.4361  0.0494
    1TCq1    H414088   3.467   1.719   1.685 -0.3800 -0.8281 -1.2515
    2MPD1     C14089   4.097   1.416   1.915 -0.6865  0.1462  0.5884
    2MPD1    C114090   4.006   1.328   1.974 -0.1786  0.3903  0.2637
    2MPD1    C214091   3.876   1.364   1.983  0.3633 -0.5876 -0.1371
    2MPD1    C314092   3.828   1.475   1.917 -0.1977 -0.2042  0.2318
    2MPD1    C414093   3.916   1.554   1.845 -0.2112 -0.2028  0.2253
    2MPD1    C514094   4.048   1.529   1.849  0.0183  0.3929  0.0850
    2MPD1     H14095   3.800   1.308   2.036 -0.3002 -0.3721 -0.8560
    2MPD1    H114096   3.886   1.649   1.801  1.0207 -0.7662 -1.8725
    2MPD1    H214097   4.205   1.402   1.915 -1.0561 -2.7606  1.2934
    2MPD1    H314098   4.117   1.606   1.816 -0.3786  0.8033  0.2084
    2MPD1     N14099   3.692   1.494   1.920 -0.5611  0.0123 -0.0115
    2MPD1    H514100   3.637   1.432   1.979  1.2402 -1.5420  0.0333
    2MPD1    N114101   4.048   1.213   2.047 -0.3941  0.2580 -0.4333
    2MPD1    H614102   4.132   1.171   2.008 -0.8686 -0.8182 -0.2755
    2MPD1    H714103   3.976   1.143   2.055  0.9375 -0.8918  1.4634
    1MPD1     C14104   0.268   1.289  11.204  0.2256  0.9340 -0.0061
    1MPD1    C114105   0.251   1.425  11.214  0.0221 -0.2068  0.9473
    1MPD1    C214106   0.366   1.507  11.235 -0.2891 -0.1691  0.4823
    1MPD1    C314107   0.489   1.453  11.206 -0.6764 -0.8806  0.2861
    1MPD1    C414108   0.506   1.317  11.187  0.3102 -0.1899 -0.3134
    1MPD1    C514109   0.396   1.236  11.196 -0.5860  0.7662  1.0670
    1MPD1     H14110   0.341   1.611  11.247  1.3265  0.4013 -1.0202
    1MPD1    H114111   0.604   1.272  11.197 -0.1888 -1.2543 -0.3099
    1MPD1    H214112   0.188   1.217  11.213  2.7833 -1.9426 -0.4432
    1MPD1    H314113   0.410   1.129  11.191  0.3716  0.9033  0.7899
    1MPD1     N14114   0.603   1.536  11.218  0.2152 -0.1101 -0.0741
    1MPD1    H514115   0.688   1.482  11.223  1.0059  1.2282  0.7136
    1MPD1    N114116   0.127   1.486  11.248 -0.5151  0.2946 -0.4738
    1MPD1    H614117   0.057   1.426  11.205 -2.5668  1.3573  1.3491
    1MPD1    H714118   0.123   1.575  11.199 -2.1361 -0.8921 -2.4748
    2MPD1     C14119   4.300   1.525  11.328  0.0490 -0.0559 -1.3493
    2MPD1    C114120   4.210   1.429  11.282  0.3285 -0.7300 -0.2761
    2MPD1    C214121   4.202   1.397  11.149  0.2558  0.4631 -0.0534
    2MPD1    C314122   4.291   1.465  11.063 -0.0378 -0.5462  0.3349
    2MPD1    C414123   4.385   1.550  11.109 -0.8604 -0.4338  0.5264
    2MPD1    C514124   4.386   1.586  11.240 -0.3980  0.5742 -0.3981
    2MPD1     H14125   4.127   1.329  11.111  1.3709 -0.6394 -0.3114
    2MPD1    H114126   4.442   1.609  11.039 -1.8931 -0.1059 -0.0507
    2MPD1    H214127   4.306   1.561  11.430 -1.2539 -1.4038 -0.8021
    2MPD1    H314128   4.446   1.666  11.280  0.8793 -1.5559  1.9235
    2MPD1     N14129   4.282   1.453  10.923  0.0800 -0.2527  0.4777
    2MPD1    H514130   4.336   1.523  10.873  1.5291 -0.1324  2.1975
    2MPD1    N114131   4.116   1.366  11.370 -0.0290 -0.6307 -0.0780
    2MPD1    H614132   4.133   1.360  11.471  1.5152 -0.1657 -0.3162
    2MPD1    H714133   4.081   1.275  11.341 -0.2045 -0.5723 -0.0528
    3MPD1     C14134   3.742   1.440  10.006  0.3987  0.4090  0.4788
    3MPD1    C114135   3.856   1.516  10.013  0.5159  0.3002 -0.0427
    3MPD1    C214136   3.941   1.498  10.120  0.0904 -0.9239 -0.3620
    3MPD1    C314137   3.926   1.394  10.209 -0.1716  0.4208 -0.3567
    3MPD1    C414138   3.816   1.308  10.201 -0.3047  0.0966 -0.4648
    3MPD1    C514139   3.733   1.341  10.097  0.3177  0.3587 -0.2334
    3MPD1     H14140   4.023   1.567  10.134 -1.1945  0.0557  2.3296
    3MPD1    H114141   3.795   1.226  10.269  2.1290  1.8746  2.3881
    3MPD1    H214142   3.662   1.456   9.935  0.5585 -1.2349 -0.0585
    3MPD1    H314143   3.639   1.286  10.097  0.2906  0.4035 -0.9893
    3MPD1     N14144   4.022   1.379  10.306 -0.2044  0.1116  0.3503
    3MPD1    H514145   4.083   1.460  10.316  0.3392 -0.0912 -1.3815
    3MPD1    N114146   3.856   1.635   9.948  0.3893  0.5308  0.0342
    3MPD1    H614147   3.815   1.623   9.856 -0.4657 -0.9337  0.6142
    3MPD1    H714148   3.955   1.651   9.929  0.3365  0.3917 -0.3485
    4MPD2     C14149   0.487   2.183  10.959  0.0300 -0.1085 -0.3753
    4MPD2    C114150   0.574   2.089  10.912  0.2394  0.1869  0.9859
    4MPD2    C214151   0.578   2.036  10.780  0.3341  0.7456  0.1757
    4MPD2    C314152   0.484   2.088  10.689 -0.2400  0.9199  0.4160
    4MPD2    C414153   0.401   2.187  10.735 -0.5292 -0.2372  0.1276
    4MPD2    C514154   0.405   2.233  10.859 -0.7466  0.1832  0.3220
    4MPD2     H14155   0.641   1.952  10.754 -0.0566  0.4028  0.3283
    4MPD2    H114156   0.335   2.233  10.663  1.3700 -0.3283 -1.6746
    4MPD2    H214157   0.488   2.226  11.058  1.6843 -0.9484 -0.0281
    4MPD2    H314158   0.351   2.322  10.888 -0.8774  0.3769 -0.5169
    4MPD2     N14159   0.483   2.028  10.563  0.0812  0.0848 -0.1399
    4MPD2    H514160   0.544   1.949  10.546 -0.9363 -1.1068  1.7925
    4MPD2    N114161   0.673   2.032  10.997 -0.2857  0.2452  0.7604
    4MPD2    H714162   0.736   1.965  10.954 -0.4154 -0.6218  1.9376
    5TMC3    C114163   0.789   1.952  11.175 -0.6674  0.1794  0.1018
    5TMC3    C214164   0.720   1.859  11.249  0.5245 -0.2320 -0.3015
    5TMC3    C314165   0.736   1.721  11.235 -0.3387  0.2302  0.0993
    5TMC3    C414166   0.869   1.909  11.079 -0.1067 -0.3327 -0.0376
    5TMC3    C514167   0.887   1.779  11.049 -0.0139 -0.4510 -0.0161
    5TMC3    C614168   0.814   1.683  11.127 -0.1551 -0.4884  0.1373
    5TMC3     C14169   0.688   2.043  11.131  0.0495  0.1422 -0.1514
    5TMC3     O14170   0.637   2.112  11.224 -0.2795 -0.4158  0.3549
    5TMC3     H14171   0.649   1.897  11.322 -1.3953 -0.3470 -2.1171
    5TMC3    H114172   0.931   1.983  11.029 -0.2094 -0.5610 -0.4969
    5TMC3    H214173   0.842   1.578  11.130 -0.9049 -0.6781  0.4721
    5TMC3    C714174   0.897   1.766  10.908  0.0257  0.4439 -0.3667
    5TMC3    C814175   0.604   1.670  11.206  0.4707 -0.6656  0.4276
    5TMC3    O114176   0.853   1.862  10.840  0.3191 -0.3129  0.5610
    5TMC3    O214177   0.513   1.755  11.218 -0.3768  0.2220 -0.0769
    6TMC3    C114178   4.208   1.380  10.709 -0.1007  0.3567  0.5111
    6TMC3    C214179   4.124   1.309  10.631 -0.4064 -0.6855 -0.4291
    6TMC3    C314180   4.144   1.318  10.495 -0.4780  0.0750  0.0396
    6TMC3    C414181   4.327   1.431  10.658 -0.4446  0.7809 -0.1244
    6TMC3    C514182   4.356   1.416  10.523 -0.4960 -0.1466 -0.5498
    6TMC3    C614183   4.264   1.357  10.438 -0.4165  0.1924  0.7811
    6TMC3     C14184   4.201   1.372  10.848  0.3407 -0.3770 -0.0578
    6TMC3     O14185   4.120   1.296  10.890  0.3018 -0.1471 -0.3756
    6TMC3     H14186   4.035   1.266  10.675  0.5401 -2.1166  0.0853
    6TMC3    H114187   4.393   1.495  10.716 -0.0138 -1.0762  1.3964
    6TMC3    H214188   4.284   1.355  10.332  0.5431 -0.4564  0.9719
    6TMC3    C714189   4.492   1.425  10.483 -0.1145  0.4842 -0.2818
    6TMC3    C814190   4.023   1.294  10.413 -0.0338 -0.0019 -0.3618
    6TMC3    O114191   4.553   1.515  10.544 -0.3196 -0.2451 -0.2458
    6TMC3    O214192   3.942   1.212  10.451  0.5631 -0.0730  0.3789
    7MPD2     C14193   0.955   1.516  10.467 -0.2716 -0.0435 -0.0433
    7MPD2    C114194   0.853   1.595  10.511 -0.7185  0.3381  0.9085
    7MPD2    C214195   0.870   1.646  10.640  0.4443 -0.2433 -0.3201
    7MPD2    C314196   0.966   1.607  10.735  0.4716  0.0064 -0.4269
    7MPD2    C414197   1.063   1.525  10.689  0.1933  0.7471  0.2124
    7MPD2    C514198   1.062   1.487  10.558  0.8066 -0.2183 -0.3972
    7MPD2     H14199   0.794   1.709  10.685  0.8732  1.2399 -1.7175
    7MPD2    H114200   1.153   1.493  10.741  0.5179  0.8151 -0.3080
    7MPD2    H214201   0.953   1.468  10.369  1.6718 -2.4977  1.1278
    7MPD2    H314202   1.136   1.420  10.516  0.9600 -0.2112 -0.1395
    7MPD2     N14203   0.970   1.655  10.866  0.2676 -0.6692  0.3569
    7MPD2    H514204   1.033   1.615  10.936 -2.3069 -0.1576  2.9264
    7MPD2    N114205   0.751   1.635  10.419  0.0877  0.4404 -0.3434
    7MPD2    H714206   0.762   1.615  10.320 -1.9228 -0.2473 -0.4397
    8TMC3    C114207   0.586   1.773  10.344 -0.0782  0.5425  0.6419
    8TMC3    C214208   0.485   1.679  10.333 -0.0635 -0.0282  0.0876
    8TMC3    C314209   0.355   1.728  10.330 -0.1352 -0.1788  0.0047
    8TMC3    C414210   0.554   1.906  10.353 -0.1036 -0.3564  0.1521
    8TMC3    C514211   0.423   1.954  10.358  0.0871 -0.3484 -0.2020
    8TMC3    C614212   0.323   1.863  10.346  0.3632 -0.2504  0.0169
    8TMC3     C14213   0.670   1.746  10.450 -0.1981 -0.7327  0.4756
    8TMC3     O14214   0.661   1.815  10.549 -0.1533  0.0053  0.6253
    8TMC3     H14215   0.498   1.576  10.363  2.0838  0.7151  1.6886
    8TMC3    H114216   0.633   1.979  10.370 -0.8171  0.3912  0.2678
    8TMC3    H214217   0.223   1.903  10.334 -0.5716 -2.4141  0.4775
    8TMC3    C714218   0.400   2.052  10.455  0.1158  0.7734  0.5411
    8TMC3    C814219   0.242   1.641  10.354 -0.1502  0.2683  0.7255
    8TMC3    O114220   0.298   2.117  10.458 -0.0297 -0.3936 -0.1956
    8TMC3    O214221   0.151   1.701  10.412 -0.8121  0.0033  0.0559
    9MPD2     C14222   0.183   1.302  10.220  0.2647  0.1497 -0.7604
    9MPD2    C114223   0.153   1.412  10.300 -0.2797 -0.0304 -0.1990
    9MPD2    C214224   0.031   1.424  10.364 -0.3710 -0.4836  0.1225
    9MPD2    C314225   4.665   1.318  10.348 -0.5078 -0.1787  0.1978
    9MPD2    C414226   4.688   1.210  10.267 -0.5002  0.2633  0.3262
    9MPD2    C514227   0.092   1.197  10.205 -0.3133  0.1175 -0.2003
    9MPD2     H14228   0.009   1.516  10.417  0.8549 -0.4373  0.5748
    9MPD2    H114229   4.624   1.123  10.272  0.8150 -0.7430 -0.1474
    9MPD2    H214230   0.273   1.292  10.160  0.6496  0.1528 -0.1807
    9MPD2    H314231   0.110   1.117  10.134 -1.8038  0.5787 -1.0986
    9MPD2     N14232   4.532   1.319  10.404  0.0666  0.1714  0.5879
    9MPD2    H514233   4.469   1.242  10.382  0.3260 -0.1755  1.0641
    9MPD2    N114234   0.251   1.516  10.301 -0.1373 -0.4754  0.6682
    9MPD2    H714235   0.345   1.495  10.269 -0.2313 -2.3770  1.6405
    1MPD1     C14236   4.613   0.948  16.403  0.1096 -0.8498 -0.1145
    1MPD1    C114237   4.552   0.924  16.286 -0.0486  0.2600  0.3516
    1MPD1    C214238   4.433   0.848  16.293  0.4875  0.9111  0.4084
    1MPD1    C314239   4.398   0.783  16.409  0.3250 -0.2157  0.5347
    1MPD1    C414240   4.476   0.799  16.520  0.2581  0.0515  0.1382
    1MPD1    C514241   4.584   0.881  16.516  0.2366 -0.6791  0.0236
    1MPD1     H14242   4.366   0.838  16.209  0.4853 -0.8757  0.6267
    1MPD1    H114243   4.455   0.746  16.613  0.4469 -1.4977 -0.7155
    1MPD1    H214244   4.703   1.008  16.416  0.1667 -0.5910 -1.6979
    1MPD1    H314245   4.657   0.891  16.596 -1.0719 -0.6756  1.2162
    1MPD1     N14246   4.296   0.692  16.421  0.0954 -0.0068 -0.2691
    1MPD1    H514247   4.279   0.655  16.515  1.4018 -1.7675 -0.7378
    1MPD1    N114248   4.580   0.995  16.172  0.3028 -0.4610  0.0981
    1MPD1    H614249   4.541   0.960  16.085  1.3434  0.4649 -0.7430
    1MPD1    H714250   4.678   1.011  16.151  0.3475  1.3916  1.7434
    2MPD1     C14251   3.457   0.715  16.009 -0.2543 -0.6368  0.2845
    2MPD1    C114252   3.580   0.714  15.949 -0.2926 -0.5368  0.9284
    2MPD1    C214253   3.682   0.644  16.008  0.3445  0.1091  0.4266
    2MPD1    C314254   3.662   0.592  16.136 -0.0453 -1.0101  0.2540
    2MPD1    C414255   3.540   0.605  16.196  0.0812 -0.0105  1.0737
    2MPD1    C514256   3.441   0.669  16.135  0.2075  0.4799 -0.0639
    2MPD1     H14257   3.774   0.631  15.953 -0.6060 -0.7580 -0.9510
    2MPD1    H114258   3.517   0.570  16.296 -2.2295 -0.1756  0.4714
    2MPD1    H214259   3.368   0.757  15.963 -0.0451 -2.2956 -1.5978
    2MPD1    H314260   3.340   0.669  16.175  0.6672 -0.4923  1.1193
    2MPD1     N14261   3.773   0.529  16.189  0.1620 -0.5280  0.4392
    2MPD1    H514262   3.857   0.524  16.133  0.6705 -0.8168  1.2327
    2MPD1    N114263   3.602   0.739  15.812 -0.4370  0.0371  0.0679
    2MPD1    H614264   3.700   0.764  15.801 -1.0855  2.1489 -1.0703
    2MPD1    H714265   3.544   0.814  15.775  0.1946 -0.1717 -1.3630
    3TCq2    C114266   3.780   0.486  16.320 -0.5411  0.1443 -0.4789
    3TCq2    O214267   3.689   0.458  16.397 -0.5070 -0.4136  0.3820
    3TCq2    C214268   3.916   0.456  16.352  0.5004 -0.2157 -0.2284
    3TCq2    C314269   3.944   0.374  16.456 -0.8202 -0.4114 -0.5389
    3TCq2    C414270   4.068   0.368  16.507 -0.3340 -0.3151 -0.4515
    3TCq2    C514271   4.163   0.458  16.461 -0.3583 -0.4629 -0.0353
    3TCq2    C614272   4.128   0.546  16.369 -0.2086  0.1527 -0.1567
    3TCq2    C714273   4.004   0.549  16.311  0.0548  0.1721 -0.1882
    3TCq2    C814274   4.223   0.644  16.322 -0.4130  0.4762  0.3020
    3TCq2    O414275   4.219   0.676  16.202 -0.1521  0.2651  0.2033
    3TCq2    C914276   4.109   0.284  16.615  0.1807  0.1749 -0.2682
    3TCq2    O514277   4.230   0.281  16.644  0.3901  0.1716  0.0029
    3TCq2    O614278   4.011   0.231  16.671 -0.1530  0.2629 -0.1569
    3TCq2    H214279   3.876   0.292  16.478  0.0968 -0.6629  1.4289
    3TCq2    H314280   4.263   0.461  16.502  0.3253  0.1892 -1.7257
    3TCq2    H414281   3.979   0.637  16.254  0.4969  0.2044 -0.3240
    1TCq1    O114282   2.347   4.617  13.261  0.1938  0.1076  0.2989
    1TCq1    C114283   2.306   0.003  13.324  0.1795  0.5048 -0.9297
    1TCq1    O214284   2.205   0.004  13.393  0.5210  0.1849  0.1360
    1TCq1    C214285   2.393   0.114  13.315 -0.4484 -0.7702 -0.0361
    1TCq1    C314286   2.339   0.234  13.322  0.3850  0.1526 -0.4404
    1TCq1    C414287   2.407   0.344  13.278  0.0546  0.2420  0.3301
    1TCq1    C514288   2.535   0.332  13.237 -0.1050 -0.2953 -0.3159
    1TCq1    C614289   2.595   0.209  13.242 -0.3341 -0.6937  0.1269
    1TCq1    C714290   2.528   0.097  13.282  0.1833 -0.1187 -0.1060
    1TCq1    C814291   2.737   0.200  13.223  0.3182 -0.4647 -0.3146
    1TCq1    O414292   2.778   0.264  13.127  0.1336 -0.2002 -0.2199
    1TCq1    C914293   2.350   0.477  13.292  0.4763 -0.2540 -0.3419
    1TCq1    O514294   2.226   0.488  13.311  0.0982  0.3550  0.1552
    1TCq1    O614295   2.414   0.576  13.244  0.0713 -0.1114  0.7936
    1TCq1    H114296   2.420   4.631  13.197 -1.2005  0.8714 -1.1252
    1TCq1    H214297   2.242   0.258  13.362  0.7529  0.0591  0.5091
    1TCq1    H314298   2.587   0.422  13.206 -1.7218  0.3465 -1.1823
    1TCq1    H414299   2.573   4.721  13.286  0.3782 -0.0298 -0.0973
    2MPD2     C14300   3.008   0.064  13.197 -0.0308 -0.2132 -0.0133
    2MPD2    C114301   2.918   0.046  13.303  0.1111  0.4661 -0.5114
    2MPD2    C214302   2.957   4.691  13.413 -0.1991 -0.5329  0.2618
    2MPD2    C314303   3.073   4.618  13.411  0.1988  0.0399 -0.2430
    2MPD2    C414304   3.162   4.634  13.307  0.2709 -0.4266  0.1731
    2MPD2    C514305   3.123   4.715  13.201 -0.1348  0.1246  0.0040
    2MPD2     H14306   2.883   4.681  13.492 -1.4628 -1.6376 -1.0843
    2MPD2    H114307   3.259   4.586  13.310 -0.4144 -1.9396 -1.4679
    2MPD2    H214308   2.992   0.111  13.101  1.5487  1.2499  0.4397
    2MPD2    H314309   3.180   4.713  13.109 -1.3830  0.8613 -0.7845
    2MPD2     N14310   3.092   4.537  13.529  0.0571 -0.0410  0.1250
    2MPD2    H514311   3.022   4.545  13.602  0.9468  0.4034  0.9502
    2MPD2    N114312   2.788   0.099  13.306  0.0828  0.5067 -0.2264
    2MPD2    H714313   2.730   0.060  13.380  1.5451 -1.5988 -0.1951
    3TCq1    O114314   2.909   4.250  14.041 -0.0612  0.2080  0.0430
    3TCq1    C114315   2.901   4.307  13.915  0.4293 -0.3205  0.5329
    3TCq1    O214316   2.821   4.393  13.895  0.1809 -0.3675  0.7133
    3TCq1    C214317   3.038   4.308  13.859 -0.1063 -0.4107 -0.0386
    3TCq1    C314318   3.139   4.239  13.921 -0.3885 -0.2896 -0.0770
    3TCq1    C414319   3.265   4.263  13.867 -0.3044 -0.0741  0.3108
    3TCq1    C514320   3.289   4.346  13.762  0.2861  0.2969  0.4818
    3TCq1    C614321   3.184   4.413  13.703  1.1193 -0.0069  0.3571
    3TCq1    C714322   3.057   4.395  13.750  0.1293 -0.2280  0.5056
    3TCq1    C814323   3.195   4.457  13.566 -0.0070  0.0165  0.4796
    3TCq1    O414324   3.292   4.424  13.501  0.2718  0.2092  0.0187
    3TCq1    C914325   3.384   4.205  13.936  0.3291 -0.1130 -0.3238
    3TCq1    O514326   3.361   4.123  14.036  0.0367 -0.0213 -0.7646
    3TCq1    O614327   3.496   4.217  13.874 -0.0375 -0.5751  0.4500
    3TCq1    H114328   3.000   4.254  14.078 -0.8639  1.7076  1.9070
    3TCq1    H214329   3.126   4.164  13.998  1.2125 -1.0188 -0.5210
    3TCq1    H314330   3.394   4.365  13.742 -0.1753  0.9008 -1.3338
    3TCq1    H414331   2.973   4.437  13.697  0.0553 -3.2922 -1.7965
    1MPD2     C14332   1.721   0.796  14.676  0.6456 -0.3864 -0.6109
    1MPD2    C114333   1.643   0.685  14.683  0.2273 -0.1390 -0.1651
    1MPD2    C214334   1.702   0.570  14.734 -0.4072  0.0444  0.5144
    1MPD2    C314335   1.831   0.573  14.787 -0.2730 -0.0101  1.0135
    1MPD2    C414336   1.911   0.690  14.774 -0.2708  0.1161  0.1105
    1MPD2    C514337   1.851   0.797  14.706  0.0696  0.3855  0.4949
    1MPD2     H14338   1.651   0.480  14.766  0.5934 -1.3866 -1.9175
    1MPD2    H114339   2.007   0.698  14.821 -0.3028 -2.2943  0.6083
    1MPD2    H214340   1.684   0.890  14.638 -0.2660 -0.6170 -0.2818
    1MPD2    H314341   1.913   0.884  14.689  1.0670 -0.0458  1.9016
    1MPD2     N14342   1.869   0.459  14.853 -0.3297  0.0794  0.9343
    1MPD2    H514343   1.810   0.379  14.835 -2.4240  1.8111  0.1458
    1MPD2    N114344   1.515   0.692  14.629  0.2604 -0.3034  0.1126
    1MPD2    H714345   1.477   0.784  14.608 -0.9848 -0.9592 -0.5315
    2TMC3    C114346   1.312   0.583  14.559 -0.0047  0.0040  0.4343
    2TMC3    C214347   1.269   0.457  14.536 -0.6727 -0.2772 -0.1473
    2TMC3    C314348   1.148   0.415  14.596  0.5999  0.4081 -0.1120
    2TMC3    C414349   1.235   0.679  14.613 -0.1062 -0.2265  0.8354
    2TMC3    C514350   1.109   0.636  14.656 -0.7243 -0.5742 -0.4233
    2TMC3    C614351   1.062   0.511  14.646 -0.1702  0.6378  0.2746
    2TMC3     C14352   1.448   0.580  14.609  0.0906 -0.9126 -0.3680
    2TMC3     O14353   1.470   0.461  14.635 -0.0348 -0.0184  0.3942
    2TMC3     H14354   1.332   0.383  14.488 -1.7241 -2.4836  1.8358
    2TMC3    H114355   1.282   0.768  14.655  0.3937  0.3653 -0.9299
    2TMC3    H214356   0.974   0.477  14.700 -0.4961  2.0871  0.6661
    2TMC3    C714357   1.022   0.730  14.716  0.0849 -0.0803 -0.0344
    2TMC3    C814358   1.152   0.281  14.657 -0.4341 -0.3101 -0.3907
    2TMC3    O114359   0.915   0.691  14.764 -0.3183 -0.3920  0.2553
    2TMC3    O214360   1.048   0.221  14.686 -0.2870  0.2226  0.0732
    3TCq1    O114361   1.391   1.930  14.718  0.0353  0.2457  0.0606
    3TCq1    C114362   1.258   1.911  14.751 -0.2113  0.0932 -0.4902
    3TCq1    O214363   1.193   1.969  14.833 -0.1300 -0.5149  0.0570
    3TCq1    C214364   1.231   1.778  14.694  0.0625 -0.1846  0.5311
    3TCq1    C314365   1.258   1.768  14.562  0.3972 -0.0225  0.2693
    3TCq1    C414366   1.237   1.644  14.505 -0.3862  0.1168 -0.3856
    3TCq1    C514367   1.197   1.535  14.581  0.0663 -0.0003 -0.2437
    3TCq1    C614368   1.161   1.552  14.716  0.4361 -0.2618  0.3742
    3TCq1    C714369   1.175   1.679  14.771  0.2727  0.2572  0.6414
    3TCq1    C814370   1.067   1.463  14.772 -0.3374 -0.8853  0.2604
    3TCq1    O414371   0.955   1.509  14.793  0.5901  0.2984  0.2785
    3TCq1    C914372   1.262   1.635  14.364 -0.2966 -0.2828  0.1352
    3TCq1    O514373   1.242   1.520  14.312  0.3489  0.5788  0.6174
    3TCq1    O614374   1.330   1.730  14.310 -0.2611 -0.5823  0.3430
    3TCq1    H114375   1.422   1.851  14.669  0.0204 -0.3034  0.9267
    3TCq1    H214376   1.288   1.842  14.488 -0.4403 -1.0349 -1.1007
    3TCq1    H314377   1.182   1.437  14.537 -1.9698  0.3500 -0.3266
    3TCq1    H414378   1.134   1.702  14.868 -1.4571  3.6126 -0.8680
    4MPD2     C14379   0.914   1.216  14.840  0.4824 -0.5152  0.4054
    4MPD2    C114380   1.042   1.216  14.792 -0.5009 -0.0053 -0.1423
    4MPD2    C214381   1.093   1.097  14.738 -0.7487  0.5794 -0.1104
    4MPD2    C314382   1.025   0.980  14.768  0.1489 -0.5209  0.1548
    4MPD2    C414383   0.902   0.980  14.834  0.5483  0.6551 -0.1170
    4MPD2    C514384   0.848   1.098  14.863  0.1406  0.2043  0.7366
    4MPD2     H14385   1.185   1.097  14.681 -0.3864 -1.2683  0.5098
    4MPD2    H114386   0.846   0.890  14.855 -0.5051  1.3909  0.2720
    4MPD2    H214387   0.858   1.302  14.871  1.4200 -0.1707  1.1462
    4MPD2    H314388   0.752   1.105  14.912  1.2237 -0.2812  2.8874
    4MPD2     N14389   1.080   0.857  14.724  0.1435  0.3133 -0.2925
    4MPD2    H514390   1.163   0.869  14.667  0.8254  0.2909  0.7033
    4MPD2    N114391   1.112   1.333  14.765  0.2903 -0.0075 -0.3346
    4MPD2    H714392   1.204   1.310  14.730  1.2379  0.8299  1.6033
    5TMC2    C114393   1.863   0.109  14.926 -0.0905  0.6569 -0.2413
    5TMC2    C214394   1.836   0.098  15.062  0.0846  0.8530  0.3275
    5TMC2    C314395   1.874   0.201  15.145  0.1019  0.5018 -0.0658
    5TMC2    C414396   1.945   0.219  14.887  0.4139 -0.1165 -0.0570
    5TMC2    C514397   1.988   0.309  14.979  0.1657  0.9524  0.5783
    5TMC2    C614398   1.954   0.305  15.104 -0.0611 -0.0126 -0.5549
    5TMC2     C14399   1.752   0.117  14.842  0.0143  0.1190  0.1395
    5TMC2     O14400   1.749   0.214  14.767 -0.4276 -0.9482  0.2704
    5TMC2     H14401   1.749   0.047  15.102 -0.1742 -0.1065 -1.4585
    5TMC2    H114402   1.984   0.235  14.787 -0.3634  1.0146 -0.1838
    5TMC2    H214403   1.964   0.393  15.166  2.0341  0.2611 -1.2630
    5TMC2    C714404   1.990   0.436  14.914 -0.0128  0.1214  0.3456
    5TMC2    C814405   1.829   0.195  15.285 -0.0119 -0.0393  0.4067
    5TMC2    O114406   2.075   0.515  14.944  0.4582  0.1197  0.1449
    5TMC2    O214407   1.814   0.092  15.349  0.0494 -0.0917  0.0448
    5TMC2    O514408   1.787   0.315  15.325  0.1339  0.6551 -0.6501
    5TMC2    H514409   1.761   0.364  15.244  0.1271 -1.0861 -1.7154
    6MPD2     C14410   1.269   0.010  14.737 -0.3950 -0.6897 -0.2405
    6MPD2    C114411   1.338   0.128  14.731 -1.0956 -0.0952 -0.0570
    6MPD2    C214412   1.468   0.135  14.767  0.6512 -0.3660 -0.3312
    6MPD2    C314413   1.529   0.019  14.815  0.3686  0.2715 -1.0536
    6MPD2    C414414   1.466   4.617  14.813  0.6218  0.5303  0.1995
    6MPD2    C514415   1.335   4.619  14.772 -0.4093 -0.4121 -0.2586
    6MPD2     H14416   1.519   0.231  14.771 -1.2262  0.6135 -0.0995
    6MPD2    H114417   1.517   4.522  14.826  2.4359  1.2567 -1.4389
    6MPD2    H214418   1.173   0.003  14.688 -0.4001 -1.7640 -0.0873
    6MPD2    H314419   1.273   4.531  14.775  0.7667 -1.3773 -3.7701
    6MPD2     N14420   1.662   0.014  14.859  0.3819 -0.4608 -0.0823
    6MPD2    H514421   1.695   4.658  14.914  0.9724 -0.5284 -0.5387
    6MPD2    N114422   1.285   0.248  14.680  0.1793 -0.2056  0.0349
    6MPD2    H714423   1.352   0.324  14.677 -0.0316  0.1218  3.1357
  945NH3     N114424   2.589   4.454  15.852  0.0312 -0.5991 -0.1132
  945NH3     H214425   2.611   4.550  15.829 -0.4318 -0.1184  1.4454
  945NH3     H314426   2.669   4.429  15.909  1.9670 -0.2113 -2.6665
  945NH3     H414427   2.508   4.458  15.913  0.3228  0.9657  0.1520
  946SOD     NA14428   4.220   1.017  14.946  0.0351 -0.6180  0.1286
  947SOD     NA14429   3.582   4.061  14.001 -0.1781 -0.3744 -0.0075
  948SOD     NA14430   4.538   4.187  17.452 -0.3958  0.8032 -0.5469
  949SOD     NA14431   2.255   4.224  10.032 -0.3299  0.8063  0.2513
  950SOD     NA14432   4.181   4.676   1.997  0.0551 -0.1651  0.1126
  951SOD     NA14433   2.931   2.538   4.694  0.4903 -0.1126 -0.5647
  952SOD     NA14434   1.071   4.043  10.833  0.3302 -0.4051  0.0474
  953SOD     NA14435   4.714   2.473   0.460 -0.1123  0.1380 -0.1289
  954SOD     NA14436   1.852   0.399  10.712  0.6742 -0.2891  0.3019
  955SOD     NA14437   4.521   3.081  14.636  0.3456 -0.0452  0.2777
  956SOD     NA14438   4.652   4.047   0.804  0.2420  0.0934 -0.2227
  957SOD     NA14439   2.602   4.469  10.835  0.0964 -0.8998  0.2822
  958SOD     NA14440   2.284   0.588  14.986  0.8651 -0.3078  0.4445
  959SOD     NA14441   3.674   3.772  14.162  0.0612 -0.0789 -0.1354
  960SOD     NA14442   2.827   4.351  11.851  0.1332 -0.1397 -0.4399
  961SOD     NA14443   2.852   4.576  12.094 -0.4067  0.0488 -0.0665
  962SOD     NA14444   3.759   1.135  12.701  0.0470  0.1566  0.4397
  963SOD     NA14445   3.072   1.359   2.260 -0.4401 -0.2702  0.1687
  964SOD     NA14446   0.573   0.515   7.496 -0.2180 -0.0483  0.0322
  965SOD     NA14447   3.053   2.312   0.156  0.1026 -0.1562  0.2609
  966SOD     NA14448   0.554   1.220  15.854 -0.0668  0.1884 -0.1357
  967SOD     NA14449   0.989   1.884   8.873 -0.1624 -0.4630  0.3263
  968SOD     NA14450   4.222   0.616  14.787 -0.0310 -0.1789 -0.2135
  969SOD     NA14451   1.864   4.514  10.076 -0.0284  0.2433  0.3021
  970SOD     NA14452   2.308   2.055   8.316 -0.0406  0.2930 -0.0632
  971SOD     NA14453   1.724   1.416  15.358  0.1791 -0.2066 -0.7825
  972SOD     NA14454   4.350   1.256   9.886 -0.0415  0.1624 -0.0594
  973SOD     NA14455   2.133   4.679  10.021 -0.0115  0.3564 -0.8197
  974SOD     NA14456   2.099   4.189  12.698  0.3612 -0.2822  0.4813
  975SOD     NA14457   2.111   0.212   0.756  0.4067  0.1960  0.5541
  976SOD     NA14458   4.365   1.636  12.881  0.5297 -0.3217 -0.2576
  977SOD     NA14459   0.458   4.023  12.978  0.4945 -0.1684 -0.2088
  978SOD     NA14460   3.335   4.192  14.490 -0.5325 -0.0897  0.1522
  979SOD     NA14461   3.532   0.121  11.019  0.5487  0.2273  0.2047
  980SOD     NA14462   3.605   4.298  13.717  0.0697 -0.2470 -0.2012
  981SOD     NA14463   0.177   3.867   0.638 -0.2349  0.1654 -0.1982
  982SOD     NA14464   3.907   0.323  16.831  0.2314  0.5667 -0.3168
  983SOD     NA14465   2.616   0.984   0.603  0.1235  0.1891  0.0521
  984SOD     NA14466   3.109   3.796  11.052  0.1860 -0.2979  0.2826
  985SOD     NA14467   2.338   4.020  11.764  0.0244  0.1937  0.0793
  986SOD     NA14468   4.145   3.147  10.389 -0.1047  0.2398 -0.1874
  987SOD     NA14469   0.484   2.661   3.207  0.1683 -0.6417  0.0426
  988SOD     NA14470   3.079   1.715   2.158  0.1644 -0.3591 -0.4646
  989SOD     NA14471   2.445   2.750   3.239 -0.2807  0.0701 -0.0079
  990SOD     NA14472   1.676   3.892   7.088  0.5341  0.1352  0.0423
  991SOD     NA14473   2.047   0.771  14.238  0.0633  0.0043  0.1702
  992SOD     NA14474   3.476   4.576  15.268 -0.0238  0.1799 -0.0561
  993SOD     NA14475   2.357   3.725  10.838 -0.2762  0.0779 -0.2534
  994SOD     NA14476   4.709   3.142   9.862  0.0232  0.0587 -0.6876
  995SOD     NA14477   3.963   3.614  14.066 -0.2721 -0.2365  0.3142
  996SOD     NA14478   1.755   0.597  14.231 -0.1974 -0.4620  0.1812
  997SOD     NA14479   3.663   4.248   9.855  0.1585 -0.0859 -0.0754
  998SOD     NA14480   2.682   3.131   1.276 -0.5136  0.2748 -0.0412
  999SOD     NA14481   0.518   3.392   8.719  0.3274  0.2397 -0.5631
 1000SOD     NA14482   0.409   0.572  17.594  0.4722 -0.1165  0.2061
 1001SOD     NA14483   2.508   0.884   2.723  0.3699  0.1375 -0.2560
 1002SOD     NA14484   3.605   1.009  10.681 -0.2791 -0.2441  0.1270
 1003SOD     NA14485   0.053   0.692  12.964  0.5796 -0.2898 -0.0839
 1004SOD     NA14486   2.186   3.142  12.520 -0.0308 -0.5301 -0.2478
 1005SOD     NA14487   0.217   3.766  15.102  0.1761  0.5491  0.0559
 1006SOD     NA14488   2.267   0.583  14.482 -0.7431 -0.7421  0.5460
 1007SOD     NA14489   4.681   2.146  11.046  0.1847 -0.2473  0.2772
 1008SOD     NA14490   3.824   0.812   4.722 -0.2698  0.6094  0.2606
 1009SOD     NA14491   2.995   3.128   9.713  0.0094 -0.4780  0.0689
 1010SOD     NA14492   1.890   3.242   3.246 -0.0695 -0.1934 -0.1297
 1011SOD     NA14493   2.010   0.016  10.294  0.1541 -0.4534  0.3104
 1012SOL     OW14494   4.583   0.119   2.596  0.1722 -0.0940  0.0787
 1012SOL    HW114495   4.583   0.051   2.529 -0.6699 -1.9231  1.9421
 1012SOL    HW214496   4.530   0.076   2.663  0.9839 -0.1582  0.6779
 1013SOL     OW14497   0.149   2.388   7.359 -0.5454  0.5111  0.9273
 1013SOL    HW114498   0.211   2.320   7.382  0.2255  0.0628 -2.5404
 1013SOL    HW214499   0.214   2.445   7.318  1.0987 -0.6104  1.9717
 1014SOL     OW14500   2.400   1.958   3.953 -0.7350 -0.0024 -0.2019
 1014SOL    HW114501   2.411   1.927   4.042  1.2430  1.4178  0.0596
 1014SOL    HW214502   2.306   1.944   3.949 -0.9006  0.9614  0.2892
 1015SOL     OW14503   3.287   0.975  12.814 -0.8208 -0.0235  1.0329
 1015SOL    HW114504   3.231   1.050  12.796 -0.1938 -0.2423 -1.9473
 1015SOL    HW214505   3.224   0.916  12.855 -2.2767  0.8709  0.0919
 1016SOL     OW14506   2.406   4.139   4.015 -0.1567  0.5083  0.4547
 1016SOL    HW114507   2.389   4.114   4.106  1.4478  0.5522  0.7755
 1016SOL    HW214508   2.320   4.155   3.978  0.7247  1.0815 -1.3331
 1017SOL     OW14509   4.157   4.626   5.729  0.1042 -0.8461 -0.0029
 1017SOL    HW114510   4.177   4.535   5.707 -1.1653 -1.5854  1.9121
 1017SOL    HW214511   4.117   4.616   5.815  0.4772  0.5666  0.3310
 1018SOL     OW14512   0.498   3.114   8.400  0.1849  0.2863 -0.1945
 1018SOL    HW114513   0.578   3.067   8.427 -1.3842 -1.9629  0.5602
 1018SOL    HW214514   0.532   3.191   8.354 -1.2866  0.4185 -1.0550
 1019SOL     OW14515   2.003   1.327   5.287  0.0207  0.7853 -0.1144
 1019SOL    HW114516   1.980   1.258   5.225 -2.4315  1.0950  0.4397
 1019SOL    HW214517   1.966   1.408   5.251  0.0119  0.2267 -1.3955
 1020SOL     OW14518   2.180   3.348   0.654  0.0545  0.0618 -0.9152
 1020SOL    HW114519   2.258   3.349   0.599  1.0618  1.4865  0.5286
 1020SOL    HW214520   2.204   3.403   0.729  1.3703  0.1092 -1.3743
 1021SOL     OW14521   1.339   3.619   3.897 -0.2600 -0.5916 -0.0586
 1021SOL    HW114522   1.331   3.714   3.903  0.3807 -0.4769 -1.0565
 1021SOL    HW214523   1.425   3.604   3.857 -0.8494 -0.9134 -1.2163
 1022SOL     OW14524   1.377   1.504   8.272 -0.2856  0.3362  0.2854
 1022SOL    HW114525   1.345   1.589   8.243  0.4559  0.8261  0.9116
 1022SOL    HW214526   1.472   1.516   8.264 -0.3292  0.0923 -0.5756
 1023SOL     OW14527   2.918   4.661   7.235  0.2489 -0.1743 -0.1319
 1023SOL    HW114528   2.984   0.001   7.206 -0.2630  0.6292  0.4071
 1023SOL    HW214529   2.957   4.610   7.306  0.9692 -0.0718 -0.4595
 1024SOL     OW14530   2.400   2.264   8.227 -0.6472 -0.0450 -0.3720
 1024SOL    HW114531   2.488   2.294   8.205 -0.0967 -0.1795  1.6091
 1024SOL    HW214532   2.350   2.338   8.192 -2.4293 -1.4611 -0.7842
 1025SOL     OW14533   3.991   0.213   1.531  0.3840  0.1422 -0.0603
 1025SOL    HW114534   3.940   0.172   1.601 -2.7391  1.0306 -1.8226
 1025SOL    HW214535   4.059   0.253   1.586  2.5601 -3.3698 -0.1460
 1026SOL     OW14536   1.311   0.970  17.636  0.0253 -0.2102  0.1458
 1026SOL    HW114537   1.235   1.022  17.661 -0.0412 -0.6677  0.8976
 1026SOL    HW214538   1.371   0.987   0.017 -1.6102  2.1478  0.9456
 1027SOL     OW14539   4.079   1.044   5.832  0.8965 -0.3255 -0.4065
 1027SOL    HW114540   4.032   1.055   5.914 -1.8839  0.9244 -2.1828
 1027SOL    HW214541   4.147   1.110   5.841 -1.8346  2.5118 -0.6508
 1028SOL     OW14542   3.642   1.321   6.359  0.6801 -0.0458 -0.6546
 1028SOL    HW114543   3.557   1.311   6.403  0.3382  1.5579 -0.9650
 1028SOL    HW214544   3.642   1.235   6.316  0.8332 -0.5671  0.3819
 1029SOL     OW14545   1.786   2.281  14.608 -0.1347 -0.5191 -0.6285
 1029SOL    HW114546   1.783   2.376  14.598  1.5636 -0.4194 -0.1747
 1029SOL    HW214547   1.700   2.242  14.587 -0.5925 -0.1300  0.5308
 1030SOL     OW14548   1.537   4.349   9.432 -0.0923  0.7629 -0.1899
 1030SOL    HW114549   1.522   4.360   9.339 -0.8693 -2.9350 -0.4856
 1030SOL    HW214550   1.574   4.434   9.459  0.2864  0.4740  0.2091
 1031SOL     OW14551   2.866   1.569  14.690  0.5141 -0.1560  0.0446
 1031SOL    HW114552   2.818   1.488  14.678  0.7818 -0.1920 -0.7929
 1031SOL    HW214553   2.812   1.616  14.625 -1.3357  0.1579  1.8131
 1032SOL     OW14554   2.124   4.290   4.546 -0.4935 -0.3008  0.7351
 1032SOL    HW114555   2.219   4.299   4.542 -0.6086  0.0644 -1.2182
 1032SOL    HW214556   2.098   4.308   4.636 -2.1602  0.6902  0.0528
 1033SOL     OW14557   3.542   0.413  11.497  0.3921 -0.1206  0.0265
 1033SOL    HW114558   3.631   0.449  11.498  0.0146  0.6852  2.9398
 1033SOL    HW214559   3.537   0.366  11.581 -2.2612  1.7672  0.9007
 1034SOL     OW14560   1.523   3.707  12.327  0.4407 -0.0459  0.3179
 1034SOL    HW114561   1.480   3.700  12.412 -0.5163 -0.4036 -0.1915
 1034SOL    HW214562   1.460   3.648  12.284  2.0579 -2.2283  0.9292
 1035SOL     OW14563   3.426   1.971   3.177  0.2166 -0.2684  0.3053
 1035SOL    HW114564   3.404   1.997   3.266  0.2678 -0.6845  0.4360
 1035SOL    HW214565   3.416   2.056   3.132 -0.6201 -1.1867 -1.2644
 1036SOL     OW14566   0.834   2.466  16.970  0.7778 -0.4442  0.8569
 1036SOL    HW114567   0.825   2.444  17.063  1.6686  2.2391  1.5830
 1036SOL    HW214568   0.754   2.517  16.961  1.0804 -0.3805 -1.6409
 1037SOL     OW14569   1.743   1.257  10.392  0.8531  0.4481  0.7605
 1037SOL    HW114570   1.794   1.337  10.381  2.1652 -0.6481 -1.0831
 1037SOL    HW214571   1.655   1.278  10.361  2.4093  1.7841 -2.7539
 1038SOL     OW14572   0.277   0.508   8.581  0.6635  0.5027  0.5748
 1038SOL    HW114573   0.339   0.497   8.509  0.3000  1.5302  0.1011
 1038SOL    HW214574   0.235   0.586   8.544  0.4651 -1.0755 -2.5435
 1039SOL     OW14575   1.966   0.509   4.905 -0.1678  0.0373 -0.1974
 1039SOL    HW114576   1.992   0.532   4.816  1.9693 -0.4253  0.3033
 1039SOL    HW214577   1.896   0.572   4.919 -0.5666 -0.4024 -0.2065
 1040SOL     OW14578   2.942   1.921  10.066 -0.2809 -0.3037  0.0772
 1040SOL    HW114579   2.855   1.893  10.040 -0.3669 -0.2105  0.2693
 1040SOL    HW214580   2.946   1.862  10.141  0.2184  0.9388  1.0311
 1041SOL     OW14581   3.119   2.140  12.540 -0.2518  0.0573  0.1219
 1041SOL    HW114582   3.134   2.046  12.554 -0.6910  0.1774  1.3880
 1041SOL    HW214583   3.197   2.184  12.574 -0.3365  0.0707  0.3005
 1042SOL     OW14584   1.274   1.597  15.757 -0.2401 -0.0156  0.3526
 1042SOL    HW114585   1.187   1.558  15.759  0.2475 -1.2293 -1.8433
 1042SOL    HW214586   1.265   1.690  15.737  0.3704  0.1305  0.7457
 1043SOL     OW14587   3.278   0.444   7.257  0.1906 -0.0048 -0.1278
 1043SOL    HW114588   3.277   0.402   7.171 -0.5386 -2.0713  0.8900
 1043SOL    HW214589   3.311   0.380   7.319  0.4929  0.8888  0.6353
 1044SOL     OW14590   2.054   4.017   6.067  0.3478 -0.0697  0.6674
 1044SOL    HW114591   1.965   4.044   6.046  0.0711 -1.0799  0.5010
 1044SOL    HW214592   2.036   3.923   6.060 -3.5996  0.8826 -1.8128
 1045SOL     OW14593   1.163   0.649   1.148 -0.0869 -0.0824 -0.4506
 1045SOL    HW114594   1.243   0.597   1.158 -0.9608 -1.2723  0.4260
 1045SOL    HW214595   1.147   0.633   1.055  0.6976  1.1077 -0.7852
 1046SOL     OW14596   1.314   2.379   4.114 -0.2857 -0.8683  0.3487
 1046SOL    HW114597   1.259   2.343   4.045  1.0107 -0.9490 -0.6497
 1046SOL    HW214598   1.252   2.405   4.182 -0.8672  0.9234 -0.8868
 1047SOL     OW14599   3.372   0.480   5.726  0.6794 -0.1751  0.2805
 1047SOL    HW114600   3.375   0.392   5.688 -1.3613 -0.2869  0.3440
 1047SOL    HW214601   3.280   0.494   5.749  0.3795  0.5438 -1.3458
 1048SOL     OW14602   0.760   3.405   7.985  0.0648  0.3811  0.2514
 1048SOL    HW114603   0.729   3.352   7.912 -0.1071  0.0421  0.5705
 1048SOL    HW214604   0.848   3.431   7.957  0.1865 -0.8744 -0.5328
 1049SOL     OW14605   1.129   1.910   4.671 -0.1977  0.1357  0.5464
 1049SOL    HW114606   1.193   1.861   4.723 -0.2897 -0.2259  0.3220
 1049SOL    HW214607   1.156   1.874   4.586 -1.4937  0.3075  0.0672
 1050SOL     OW14608   3.144   1.213   6.701 -0.2753  0.4327  0.0215
 1050SOL    HW114609   3.074   1.156   6.733  1.2858  0.1765  2.9816
 1050SOL    HW214610   3.101   1.298   6.703  0.9876  1.0676 -0.0561
 1051SOL     OW14611   2.234   0.367   4.178 -0.0305  0.1230 -0.5321
 1051SOL    HW114612   2.234   0.336   4.087  0.1186  0.4730 -0.6506
 1051SOL    HW214613   2.172   0.312   4.225  0.4164  0.8855  0.9691
 1052SOL     OW14614   2.868   0.814  13.771  0.1282  0.5168  0.0039
 1052SOL    HW114615   2.927   0.766  13.712  1.6746  0.8320  1.2997
 1052SOL    HW214616   2.850   0.898  13.729 -1.1736  0.4927  0.5251
 1053SOL     OW14617   1.256   0.360   2.180 -0.5148  0.3518  0.1956
 1053SOL    HW114618   1.224   0.409   2.256 -1.0504 -1.2771  1.0166
 1053SOL    HW214619   1.176   0.334   2.135 -0.2771  1.4507 -0.8576
 1054SOL     OW14620   0.839   1.741   6.773 -0.5425 -0.1404  0.1850
 1054SOL    HW114621   0.829   1.821   6.721  0.0350 -1.1209 -1.4658
 1054SOL    HW214622   0.935   1.739   6.772 -0.5424  0.0384 -0.2958
 1055SOL     OW14623   0.909   2.332   0.376 -0.5413  0.0686 -0.5921
 1055SOL    HW114624   0.910   2.410   0.321  3.3233 -0.8105 -1.8177
 1055SOL    HW214625   0.962   2.274   0.321  1.0186 -1.0446  2.0595
 1056SOL     OW14626   4.663   0.454   7.188 -0.7723  0.0758  0.1656
 1056SOL    HW114627   4.578   0.479   7.150 -1.0612 -0.4689  0.4620
 1056SOL    HW214628   4.638   0.436   7.279 -0.4686 -1.1166  0.0108
 1057SOL     OW14629   0.472   2.662   6.118  0.6367 -1.2283 -0.3120
 1057SOL    HW114630   0.548   2.604   6.120 -0.4417 -2.6174  0.5862
 1057SOL    HW214631   0.417   2.595   6.078 -1.5771 -0.8278  2.1059
 1058SOL     OW14632   4.438   3.889   4.112 -0.3592  0.9459 -0.0998
 1058SOL    HW114633   4.522   3.843   4.116 -1.7746 -1.5683  0.7576
 1058SOL    HW214634   4.440   3.928   4.199  0.4427  1.6658 -0.4410
 1059SOL     OW14635   0.757   2.853   7.301  0.3494 -0.0621  0.0432
 1059SOL    HW114636   0.687   2.830   7.362 -1.3171 -0.2132 -1.9341
 1059SOL    HW214637   0.764   2.771   7.252 -0.4929  0.2083 -0.5311
 1060SOL     OW14638   3.196   3.920   3.502 -0.0944  0.5014 -0.5062
 1060SOL    HW114639   3.195   3.888   3.592 -0.5932  2.0712  0.0393
 1060SOL    HW214640   3.287   3.925   3.473 -1.0946  2.7190 -3.2409
 1061SOL     OW14641   0.501   3.693  11.838 -0.0996 -1.1387  0.2431
 1061SOL    HW114642   0.487   3.643  11.758  2.5492 -3.3637  1.1934
 1061SOL    HW214643   0.591   3.718  11.820 -0.6150  0.1962 -0.5033
 1062SOL     OW14644   3.962   0.414   4.241  0.0943  0.0035  0.0429
 1062SOL    HW114645   3.935   0.397   4.331 -1.5930 -1.9048 -0.8400
 1062SOL    HW214646   4.003   0.333   4.212  0.5856  0.1987  0.1939
 1063SOL     OW14647   0.601   2.596   7.544  0.2557 -0.3693 -0.2244
 1063SOL    HW114648   0.626   2.537   7.615  2.4453  0.7710 -0.0362
 1063SOL    HW214649   0.685   2.617   7.503  0.6569  0.1800  0.8740
 1064SOL     OW14650   3.252   1.324   1.227  0.1997  0.1340 -0.4794
 1064SOL    HW114651   3.292   1.399   1.182 -0.1160 -0.6810 -2.1433
 1064SOL    HW214652   3.179   1.313   1.166 -0.2210  1.2684 -0.1899
 1065SOL     OW14653   1.176   2.210   2.384 -0.4185  0.5850  0.2031
 1065SOL    HW114654   1.249   2.158   2.350  0.1095  1.4288  0.0571
 1065SOL    HW214655   1.123   2.209   2.304 -0.3884  1.0811  0.1777
 1066SOL     OW14656   0.017   4.078   8.974  0.5040  0.0190  0.7385
 1066SOL    HW114657   0.051   4.099   8.887  1.4184 -0.5192  0.9727
 1066SOL    HW214658   0.074   4.005   8.999  2.3490  1.5324  0.9451
 1067SOL     OW14659   1.508   1.460   7.793  0.2138  0.5770  0.5998
 1067SOL    HW114660   1.566   1.443   7.868 -2.0738 -3.7116  1.3896
 1067SOL    HW214661   1.568   1.447   7.720 -2.2891 -0.5757 -1.2411
 1068SOL     OW14662   2.621   3.214  16.005 -0.1498 -0.0973 -0.1037
 1068SOL    HW114663   2.593   3.137  16.055  3.4487 -0.5978  1.0972
 1068SOL    HW214664   2.700   3.184  15.960 -0.7072 -0.4221 -0.8736
 1069SOL     OW14665   3.597   2.134   4.863 -0.5295  0.8271 -0.6819
 1069SOL    HW114666   3.683   2.166   4.835  0.4094 -0.6773  0.5260
 1069SOL    HW214667   3.610   2.112   4.955 -2.3122 -1.3389 -0.9566
 1070SOL     OW14668   3.449   0.200   7.159  0.4952 -0.1835  0.3222
 1070SOL    HW114669   3.434   0.159   7.074 -0.1699 -2.4079  1.5173
 1070SOL    HW214670   3.544   0.192   7.163  0.6553  1.0234 -0.9143
 1071SOL     OW14671   3.714   4.695   2.339  0.4302  0.3230  0.2910
 1071SOL    HW114672   3.761   0.014   2.266 -1.0238  1.5717  0.0685
 1071SOL    HW214673   3.634   0.022   2.352 -0.9275 -1.5456 -0.8925
 1072SOL     OW14674   4.652   2.063   2.361  0.3763 -0.6079  0.2363
 1072SOL    HW114675   4.667   2.157   2.371 -1.1883 -0.0933 -2.2738
 1072SOL    HW214676   0.013   2.032   2.394  0.5090 -0.3647  0.1278
 1073SOL     OW14677   2.249   3.466  11.677  0.0115  0.8839 -0.3803
 1073SOL    HW114678   2.308   3.430  11.743 -0.1927 -0.5177 -0.9498
 1073SOL    HW214679   2.311   3.503  11.615  2.8424  1.1418  2.5930
 1074SOL     OW14680   3.441   2.609   2.398 -0.1296 -0.1828  0.5040
 1074SOL    HW114681   3.380   2.592   2.327  2.1549 -0.6023 -1.3477
 1074SOL    HW214682   3.525   2.597   2.355  0.4074  2.6731  0.7664
 1075SOL     OW14683   2.648   1.107  14.704 -0.0031 -0.4930  0.1403
 1075SOL    HW114684   2.730   1.104  14.654 -1.5754 -1.2066 -2.3795
 1075SOL    HW214685   2.630   1.201  14.699  1.1642 -0.2028  1.2487
 1076SOL     OW14686   2.405   3.685   6.691  0.0726  0.6099 -0.1680
 1076SOL    HW114687   2.378   3.719   6.776  0.1574 -1.7570  0.8104
 1076SOL    HW214688   2.498   3.669   6.706 -0.8385 -2.9263  1.8409
 1077SOL     OW14689   1.346   0.525   7.266  0.5650 -0.1138 -0.2162
 1077SOL    HW114690   1.282   0.469   7.222  0.3669  0.8592 -1.1508
 1077SOL    HW214691   1.401   0.558   7.195 -1.0589  0.9551 -0.9569
 1078SOL     OW14692   2.239   2.994   2.230 -1.1779 -0.5441 -0.2787
 1078SOL    HW114693   2.176   3.066   2.223 -0.3558  0.2447  0.3374
 1078SOL    HW214694   2.212   2.926   2.168  0.7442  0.7742 -2.5826
 1079SOL     OW14695   4.406   0.442   2.574 -0.2440 -0.2218 -0.3723
 1079SOL    HW114696   4.469   0.504   2.538  4.1075 -4.8768 -0.8759
 1079SOL    HW214697   4.395   0.382   2.500 -0.7290  0.9586 -1.2501
 1080SOL     OW14698   3.976   1.034  11.921 -0.4713  0.6188 -0.1704
 1080SOL    HW114699   3.967   0.968  11.853 -0.4762  1.3502 -0.8900
 1080SOL    HW214700   4.064   1.064  11.899  0.9512 -1.7076  2.4040
 1081SOL     OW14701   1.066   3.355   2.986  0.5124 -0.0548  0.2888
 1081SOL    HW114702   1.154   3.365   2.951  0.1649 -0.5360 -0.7226
 1081SOL    HW214703   1.084   3.311   3.069 -0.6828 -0.5520  0.2837
 1082SOL     OW14704   2.583   3.627  10.939 -0.3860 -0.3609 -0.2812
 1082SOL    HW114705   2.660   3.683  10.928 -1.5978  0.9829 -1.9165
 1082SOL    HW214706   2.622   3.540  10.927 -2.9125 -1.7359  1.4568
 1083SOL     OW14707   1.302   4.000   5.183  0.2919 -0.3453  0.0270
 1083SOL    HW114708   1.295   4.045   5.099 -2.8265  2.1006  1.6041
 1083SOL    HW214709   1.217   4.014   5.226  1.3177 -0.2783  2.0315
 1084SOL     OW14710   3.467   1.790   2.433 -0.6681 -0.3421 -0.4304
 1084SOL    HW114711   3.511   1.728   2.375 -0.5866 -0.4150 -0.2901
 1084SOL    HW214712   3.469   1.872   2.385 -0.1022  1.2037  2.2184
 1085SOL     OW14713   4.289   1.879  11.579 -1.1396 -0.1265 -0.3406
 1085SOL    HW114714   4.301   1.805  11.639 -0.3429 -0.2037 -0.6023
 1085SOL    HW214715   4.377   1.905  11.554 -1.2577  0.3493 -0.2620
 1086SOL     OW14716   3.596   2.699  14.626  0.1747 -0.2723 -0.4677
 1086SOL    HW114717   3.608   2.741  14.541 -0.8316 -2.9912 -1.9310
 1086SOL    HW214718   3.628   2.775  14.676 -1.5803 -1.3245  2.2736
 1087SOL     OW14719   2.967   1.203   6.218 -0.5986  0.6677 -0.0860
 1087SOL    HW114720   2.953   1.261   6.293  0.6203 -0.4438  0.9896
 1087SOL    HW214721   3.041   1.247   6.176 -0.7915  0.6382 -0.4595
 1088SOL     OW14722   1.107   2.661  15.593  0.2662  0.2833 -0.2418
 1088SOL    HW114723   1.183   2.639  15.539  1.6726 -3.4622  3.2351
 1088SOL    HW214724   1.082   2.742  15.548 -3.0225 -0.2583  0.6505
 1089SOL     OW14725   0.723   0.924  16.839  0.2264  0.3824 -0.4549
 1089SOL    HW114726   0.660   0.940  16.909  0.1554  1.2021 -0.7050
 1089SOL    HW214727   0.788   0.993  16.855 -0.1147  0.9560 -1.5709
 1090SOL     OW14728   2.276   2.224  16.041 -0.6029 -0.2954  0.2608
 1090SOL    HW114729   2.259   2.202  15.950  0.2176  1.4249 -0.3146
 1090SOL    HW214730   2.325   2.148  16.072  1.7200  2.0075  2.2764
 1091SOL     OW14731   0.956   2.644   4.305 -0.2228 -0.0763 -0.3024
 1091SOL    HW114732   0.937   2.690   4.387 -0.8025 -0.0135 -0.4668
 1091SOL    HW214733   0.868   2.608   4.290  0.4378 -1.5912 -0.5084
 1092SOL     OW14734   0.102   4.655   2.271  0.0583 -0.2936 -0.1932
 1092SOL    HW114735   0.176   4.622   2.220  0.8676 -0.9007  1.3798
 1092SOL    HW214736   0.128   0.024   2.283  0.6930 -0.3724 -0.9202
 1093SOL     OW14737   0.353   2.398   8.126 -0.2859 -0.0753 -0.2870
 1093SOL    HW114738   0.271   2.352   8.148 -0.0788 -0.2551  0.1187
 1093SOL    HW214739   0.402   2.384   8.207 -1.0662 -0.9081  0.0419
 1094SOL     OW14740   0.052   0.203   7.797  0.0105  0.3080  0.1636
 1094SOL    HW114741   0.078   0.271   7.735 -0.7072  1.5738  1.2677
 1094SOL    HW214742   0.110   0.222   7.870 -1.5824  1.7003  1.0769
 1095SOL     OW14743   0.825   1.630   4.871  0.0738 -0.5039  0.1585
 1095SOL    HW114744   0.793   1.666   4.954  2.9088  1.8782  0.2173
 1095SOL    HW214745   0.871   1.551   4.897  0.6381  1.0999  3.9869
 1096SOL     OW14746   4.635   3.986   4.910  0.0345 -0.1797  0.5200
 1096SOL    HW114747   4.556   3.975   4.856  0.9017 -3.0335 -0.1671
 1096SOL    HW214748   4.622   3.925   4.983 -0.8462  0.9756  1.3335
 1097SOL     OW14749   3.939   1.724   8.589 -0.2686 -0.2352  0.3167
 1097SOL    HW114750   3.966   1.720   8.497 -1.5928  0.1834 -0.1030
 1097SOL    HW214751   3.851   1.762   8.589 -0.6553 -1.1308  1.4753
 1098SOL     OW14752   1.064   0.010  15.125  0.2356 -0.2163  0.5334
 1098SOL    HW114753   1.070   4.641  15.097  1.2092  0.2512 -0.7979
 1098SOL    HW214754   1.014   0.039  15.048  1.3438 -0.3163 -0.2282
 1099SOL     OW14755   3.045   2.563   6.846  0.2220 -0.0630  0.4022
 1099SOL    HW114756   3.049   2.469   6.832  0.4966  0.1786 -1.1724
 1099SOL    HW214757   3.086   2.573   6.931 -0.8441  0.4074  0.8572
 1100SOL     OW14758   1.714   0.146   8.296  0.6302 -0.1392  0.8535
 1100SOL    HW114759   1.694   0.238   8.281  1.1672 -0.3360 -1.1476
 1100SOL    HW214760   1.643   0.113   8.350  2.5445 -0.1729  3.3623
 1101SOL     OW14761   2.569   3.604  11.802  0.2503 -0.2007 -0.1672
 1101SOL    HW114762   2.593   3.663  11.874 -0.9851  1.0157 -0.7717
 1101SOL    HW214763   2.638   3.618  11.737  2.5263 -2.3241  1.7381
 1102SOL     OW14764   0.878   4.515  16.474  0.2387 -0.0370  0.1742
 1102SOL    HW114765   0.798   4.568  16.475 -1.1237 -2.0610 -1.9858
 1102SOL    HW214766   0.940   4.587  16.460  2.1347 -1.9814 -1.3750
 1103SOL     OW14767   2.801   1.962   0.709 -1.0306  0.4928 -0.7428
 1103SOL    HW114768   2.708   1.974   0.688 -1.8533 -2.8260  0.8333
 1103SOL    HW214769   2.812   1.978   0.803 -0.1203  1.4207 -1.0117
 1104SOL     OW14770   3.687   4.159   3.727 -0.2261  0.6517  0.3337
 1104SOL    HW114771   3.637   4.223   3.777 -2.3140 -0.4880 -0.2868
 1104SOL    HW214772   3.646   4.167   3.641  0.7307  2.2025  0.0172
 1105SOL     OW14773   2.277   0.868   4.775 -0.0612  0.4091 -0.4858
 1105SOL    HW114774   2.358   0.910   4.805 -0.6896  0.2155  1.4430
 1105SOL    HW214775   2.239   0.945   4.732  2.3602  1.4961 -0.6962
 1106SOL     OW14776   1.522   2.643   9.360 -1.0110  0.4543  0.1225
 1106SOL    HW114777   1.605   2.606   9.330  0.6130  2.3400  2.2589
 1106SOL    HW214778   1.535   2.678   9.449 -1.1057  0.1152  0.2690
 1107SOL     OW14779   4.212   1.810   8.643 -0.1350 -0.2874  0.1273
 1107SOL    HW114780   4.245   1.742   8.584  2.8569  0.4880  0.9065
 1107SOL    HW214781   4.118   1.793   8.634 -0.4047  0.2058  2.0186
 1108SOL     OW14782   1.101   4.025   4.086  0.5925 -0.1329  0.4503
 1108SOL    HW114783   1.109   4.113   4.049 -1.1729 -0.3813 -0.5173
 1108SOL    HW214784   1.074   4.056   4.172  2.9402 -0.5209  1.3226
 1109SOL     OW14785   1.762   1.968  14.563  0.1794  0.0966 -0.0035
 1109SOL    HW114786   1.835   2.006  14.611  0.0512 -1.3955  1.3505
 1109SOL    HW214787   1.691   2.031  14.564  0.9479  0.9332  1.4224
 1110SOL     OW14788   2.772   3.041   8.037  0.5067 -0.3797  0.1556
 1110SOL    HW114789   2.697   3.053   8.096 -0.8358 -0.5489 -1.5165
 1110SOL    HW214790   2.756   3.089   7.956  3.8070 -0.6585 -0.6441
 1111SOL     OW14791   3.424   2.068   6.606 -0.2742  0.3171 -0.3196
 1111SOL    HW114792   3.411   2.007   6.534 -0.7743 -0.3320  0.3188
 1111SOL    HW214793   3.338   2.104   6.629  0.5503  2.3357 -0.4566
 1112SOL     OW14794   3.302   0.877   5.088 -0.3324 -0.4050  0.1687
 1112SOL    HW114795   3.217   0.916   5.108 -1.0674 -0.9853 -1.7684
 1112SOL    HW214796   3.325   0.930   5.011 -0.2839  1.4086  1.4465
 1113SOL     OW14797   3.238   0.676   8.088  0.1610 -0.1363  0.0400
 1113SOL    HW114798   3.271   0.755   8.130 -0.2167  0.0814 -0.0809
 1113SOL    HW214799   3.201   0.628   8.162 -1.5162  2.6504  1.0008
 1114SOL     OW14800   1.982   3.835   5.774 -0.4143 -0.1052  0.1363
 1114SOL    HW114801   2.056   3.778   5.752 -1.7147 -1.7747  0.1152
 1114SOL    HW214802   1.985   3.908   5.711 -3.6821  1.2821  1.5942
 1115SOL     OW14803   3.834   1.175   8.948 -0.1762  0.1418 -0.1757
 1115SOL    HW114804   3.831   1.168   8.853  2.3517 -0.2233 -0.2244
 1115SOL    HW214805   3.806   1.086   8.969  1.9915 -0.9769 -2.1181
 1116SOL     OW14806   2.480   4.396   7.834  0.2783  0.3098 -0.0273
 1116SOL    HW114807   2.555   4.438   7.875  1.0521  0.4829 -1.6153
 1116SOL    HW214808   2.417   4.409   7.905  0.0100 -2.0339  0.1593
 1117SOL     OW14809   4.265   0.021   4.418  0.0496  0.0389  0.0825
 1117SOL    HW114810   4.300   4.674   4.363 -1.8578 -2.4990  2.0553
 1117SOL    HW214811   4.301   0.090   4.362 -0.6434  2.2232  2.3446
 1118SOL     OW14812   3.883   3.834   8.507  0.0954 -0.4214  0.3153
 1118SOL    HW114813   3.791   3.836   8.531  0.5614 -0.5246  2.1191
 1118SOL    HW214814   3.921   3.878   8.583 -1.2029  0.8493  0.2219
 1119SOL     OW14815   2.146   2.999   3.869 -0.1706  0.3439  0.4249
 1119SOL    HW114816   2.230   2.993   3.823 -0.7814 -0.2499 -0.6348
 1119SOL    HW214817   2.182   3.007   3.957 -2.4878 -1.8336  1.5520
 1120SOL     OW14818   2.247   2.451   2.482  0.4034 -0.0918 -0.3158
 1120SOL    HW114819   2.281   2.477   2.567 -1.3221  1.7776 -0.2086
 1120SOL    HW214820   2.259   2.356   2.489 -0.1202 -0.1254  0.1170
 1121SOL     OW14821   3.772   1.275   7.024 -0.0904 -0.2333 -0.1386
 1121SOL    HW114822   3.813   1.360   7.038 -1.5835  0.6264 -1.0215
 1121SOL    HW214823   3.791   1.232   7.108  0.1375 -1.8655 -1.0299
 1122SOL     OW14824   1.950   2.117   3.707  0.8049  0.5353  0.0807
 1122SOL    HW114825   1.884   2.158   3.651  0.3059  2.1603  1.8815
 1122SOL    HW214826   1.926   2.025   3.706 -1.9929  1.2751  0.0927
 1123SOL     OW14827   3.789   3.538   5.473 -0.8413 -0.2072 -0.2785
 1123SOL    HW114828   3.791   3.578   5.560 -0.2008 -2.9031  0.9525
 1123SOL    HW214829   3.696   3.541   5.452 -0.4014 -1.6082 -2.5049
 1124SOL     OW14830   1.356   4.644   3.099  0.5960 -0.1666  0.4918
 1124SOL    HW114831   1.365   0.017   3.104 -0.3821  0.0351 -1.8192
 1124SOL    HW214832   1.393   4.633   3.012  1.1221  3.2606  0.2802
 1125SOL     OW14833   0.969   0.003   7.497  0.0169 -0.6371 -0.1419
 1125SOL    HW114834   1.017   4.672   7.560  1.2035 -0.5973 -0.9934
 1125SOL    HW214835   1.036   0.064   7.464  1.4842 -2.3881 -0.4139
 1126SOL     OW14836   1.828   3.917   1.466 -0.4255  0.3593  0.0682
 1126SOL    HW114837   1.906   3.968   1.490  0.0151  0.6894 -2.0934
 1126SOL    HW214838   1.859   3.828   1.483  2.0969  1.5978  2.0773
 1127SOL     OW14839   2.008   2.897   3.626  0.0740  0.1570  0.7782
 1127SOL    HW114840   1.923   2.895   3.669  0.0352  0.9175  0.7345
 1127SOL    HW214841   2.070   2.934   3.690 -0.5742  2.0667  0.3140
 1128SOL     OW14842   1.770   2.977  10.690  0.5541  0.1511  0.0812
 1128SOL    HW114843   1.861   2.980  10.719  0.7936 -0.0103 -0.6352
 1128SOL    HW214844   1.720   3.013  10.763  0.4422 -1.3610  0.7370
 1129SOL     OW14845   2.735   0.781   2.302 -0.2066 -0.1389  0.2622
 1129SOL    HW114846   2.761   0.826   2.222 -1.2518 -0.6495 -0.3667
 1129SOL    HW214847   2.706   0.697   2.268  1.2509 -1.4960  2.3882
 1130SOL     OW14848   3.400   2.711   5.705  0.3151 -0.6887 -0.0237
 1130SOL    HW114849   3.327   2.760   5.669 -1.2329 -0.9971  2.7206
 1130SOL    HW214850   3.465   2.708   5.634  0.1109  1.5190 -0.2948
 1131SOL     OW14851   2.301   0.684   0.218  0.4071 -0.2195  0.7184
 1131SOL    HW114852   2.355   0.727   0.152 -0.7800 -0.1019 -0.1758
 1131SOL    HW214853   2.323   0.591   0.212  1.8279  0.0874  1.1547
 1132SOL     OW14854   0.500   3.786  13.875  0.3504  0.1829  0.6952
 1132SOL    HW114855   0.547   3.869  13.883 -0.8516  0.9107  0.1855
 1132SOL    HW214856   0.572   3.727  13.851 -0.2078 -0.3268  0.2721
 1133SOL     OW14857   0.932   3.430   8.720 -0.3314 -0.3042  0.4828
 1133SOL    HW114858   1.010   3.466   8.761 -0.1844 -0.2397  0.1444
 1133SOL    HW214859   0.899   3.509   8.677  0.5457 -0.5351 -0.6150
 1134SOL     OW14860   3.497   3.648  10.500  0.0830 -0.3795  0.5869
 1134SOL    HW114861   3.592   3.656  10.507  0.1332 -1.4797  1.2419
 1134SOL    HW214862   3.469   3.669  10.589  1.6497  0.4095  0.8897
 1135SOL     OW14863   0.819   4.559   4.972 -0.4477  0.3855  0.5806
 1135SOL    HW114864   0.867   4.642   4.963  3.2756 -1.7665  0.6986
 1135SOL    HW214865   0.843   4.506   4.896  0.1861  0.4088  0.7703
 1136SOL     OW14866   2.100   3.418   5.777  0.0394 -0.3152  0.2617
 1136SOL    HW114867   2.124   3.354   5.711 -0.7195  0.6701 -0.9845
 1136SOL    HW214868   2.004   3.425   5.782  0.0787  1.0050 -0.9842
 1137SOL     OW14869   0.076   2.155   0.180  0.7094 -0.0072 -0.1148
 1137SOL    HW114870   0.115   2.099   0.246  0.1493  0.5717  0.7120
 1137SOL    HW214871   0.099   2.244   0.207  0.4762  0.6042 -1.9326
 1138SOL     OW14872   2.772   2.359   4.194 -0.9554 -0.2710  0.2481
 1138SOL    HW114873   2.727   2.442   4.177 -2.5527 -1.2581 -0.3553
 1138SOL    HW214874   2.851   2.377   4.143  0.3234  0.9813  2.6969
 1139SOL     OW14875   0.906   0.182   6.745 -0.6685  0.0496 -0.4778
 1139SOL    HW114876   0.943   0.242   6.810  0.8526 -0.8353 -0.5348
 1139SOL    HW214877   0.874   0.124   6.814  1.0398  0.7566  0.9027
 1140SOL     OW14878   1.704   0.260   0.688 -0.0665  0.0382 -0.3857
 1140SOL    HW114879   1.609   0.248   0.691 -0.0186 -0.8363 -2.6359
 1140SOL    HW214880   1.728   0.177   0.648 -1.6601 -1.3712  1.5913
 1141SOL     OW14881   2.695   3.103   4.527  0.2937 -0.3435  0.2515
 1141SOL    HW114882   2.734   3.127   4.611 -0.2049 -1.9998  0.9679
 1141SOL    HW214883   2.650   3.020   4.548  0.8821 -0.5778  0.5864
 1142SOL     OW14884   0.709   1.213   9.243  0.2004 -0.1410  0.4124
 1142SOL    HW114885   0.662   1.183   9.165 -1.4714 -0.1102  1.4178
 1142SOL    HW214886   0.698   1.307   9.229 -1.7164 -0.5903 -1.1780
 1143SOL     OW14887   3.570   0.210   4.477  0.2027  0.5174 -0.0136
 1143SOL    HW114888   3.506   0.191   4.408 -0.0692  1.7664 -0.1039
 1143SOL    HW214889   3.511   0.211   4.552 -0.3385  1.6543 -0.4501
 1144SOL     OW14890   3.541   1.250   8.127 -0.2516  0.4323 -0.2695
 1144SOL    HW114891   3.624   1.297   8.116  0.3355 -0.6124 -0.3306
 1144SOL    HW214892   3.481   1.312   8.086  0.7938  0.8880 -1.1027
 1145SOL     OW14893   1.825   1.183   5.593 -0.6487 -0.8204 -0.0254
 1145SOL    HW114894   1.764   1.223   5.656  0.1966  0.6226 -0.1395
 1145SOL    HW214895   1.770   1.140   5.527 -3.0710  0.2483  1.2697
 1146SOL     OW14896   4.540   0.174   7.618  0.5281  0.0939  0.6696
 1146SOL    HW114897   4.508   0.083   7.621  1.9668 -0.4564 -0.5133
 1146SOL    HW214898   4.625   0.158   7.659  0.8356  0.0481  0.0186
 1147SOL     OW14899   3.800   0.529  12.323  0.3127  0.4594  0.0403
 1147SOL    HW114900   3.862   0.550  12.254  1.9679 -1.2912  1.0052
 1147SOL    HW214901   3.762   0.449  12.285 -1.6225  1.0040  0.8244
 1148SOL     OW14902   0.782   3.971   0.007 -0.5603  0.2358  0.2471
 1148SOL    HW114903   0.748   3.968  17.610  1.1170  1.8611 -0.4148
 1148SOL    HW214904   0.828   4.054  17.692 -1.6434  0.7069 -1.1696
 1149SOL     OW14905   1.667   0.183   4.106 -0.8769 -0.2635 -0.0380
 1149SOL    HW114906   1.688   0.269   4.143  0.3640 -0.3587 -0.5044
 1149SOL    HW214907   1.664   0.204   4.013  1.8739  0.0178 -0.0836
 1150SOL     OW14908   0.829   0.032  14.263  0.1195  0.6406  0.5568
 1150SOL    HW114909   0.749   4.709  14.236  1.2273 -0.6061 -0.5769
 1150SOL    HW214910   0.810   0.059  14.353  1.1758  0.3919  0.8470
 1151SOL     OW14911   1.467   3.812   2.205 -0.0948  0.1301 -0.5687
 1151SOL    HW114912   1.539   3.875   2.206  1.6593 -1.8613  1.4199
 1151SOL    HW214913   1.417   3.854   2.136  1.1221  0.8757 -0.9922
 1152SOL     OW14914   1.753   3.780  13.387 -0.2135 -0.5218  0.0540
 1152SOL    HW114915   1.829   3.781  13.329 -1.5187  0.5801 -1.6343
 1152SOL    HW214916   1.686   3.806  13.323  0.8978  0.6442 -0.6225
 1153SOL     OW14917   4.629   0.152   8.399  0.1081 -0.2387 -0.1527
 1153SOL    HW114918   4.666   0.148   8.311  0.7734  1.4919  0.0556
 1153SOL    HW214919   4.537   0.133   8.383  1.2703 -3.6019 -2.7273
 1154SOL     OW14920   1.839   1.114   4.217  0.2855 -0.2305  0.6852
 1154SOL    HW114921   1.898   1.066   4.275 -1.5985 -1.3480  1.7024
 1154SOL    HW214922   1.887   1.119   4.135 -1.2927 -0.8662 -0.2824
 1155SOL     OW14923   0.509   4.189   6.248 -0.2093 -0.0927  0.2524
 1155SOL    HW114924   0.516   4.261   6.311  1.3928  1.2836 -1.5344
 1155SOL    HW214925   0.586   4.135   6.263 -0.8725 -1.0286  0.3363
 1156SOL     OW14926   0.744   2.982   8.486 -0.4305  0.2068 -0.3516
 1156SOL    HW114927   0.793   2.905   8.515  0.9644  1.0653 -0.3968
 1156SOL    HW214928   0.808   3.015   8.422 -0.9013  0.8469 -0.4876
 1157SOL     OW14929   1.093   0.625   1.825 -0.3788  0.3847  0.5125
 1157SOL    HW114930   1.058   0.596   1.741  0.9920 -2.1232  0.7791
 1157SOL    HW214931   1.046   0.708   1.830  2.4888  2.0639 -0.2649
 1158SOL     OW14932   3.731   0.724   2.781  0.1256 -0.4482  0.4633
 1158SOL    HW114933   3.710   0.761   2.866 -0.7282 -1.5806  0.7552
 1158SOL    HW214934   3.665   0.655   2.772  0.3317 -0.6421  0.4329
 1159SOL     OW14935   3.504   0.122   6.244 -0.6420 -1.1265  0.2833
 1159SOL    HW114936   3.599   0.137   6.236 -1.4121  3.5177 -0.3076
 1159SOL    HW214937   3.506   0.044   6.299  1.2175 -0.6714  0.8747
 1160SOL     OW14938   4.676   1.489  17.230 -0.2812 -0.3874  0.0493
 1160SOL    HW114939   0.024   1.425  17.222 -0.4720 -0.5762 -0.1127
 1160SOL    HW214940   0.001   1.558  17.275 -1.6624 -0.7317  2.0193
 1161SOL     OW14941   1.576   1.804  16.319  0.4665  0.0038 -0.0553
 1161SOL    HW114942   1.572   1.730  16.259  1.5163 -0.9693  1.0777
 1161SOL    HW214943   1.485   1.833  16.319  1.0722  1.9210  1.7730
 1162SOL     OW14944   3.259   2.870  14.202 -0.8310  0.2273 -0.0206
 1162SOL    HW114945   3.338   2.864  14.147 -0.4948 -0.5966  0.5508
 1162SOL    HW214946   3.285   2.941  14.261 -0.6323  0.9588 -0.9818
 1163SOL     OW14947   2.700   0.520   6.426  0.4269 -0.4580 -0.5563
 1163SOL    HW114948   2.726   0.612   6.422  0.9323 -0.5720  0.1106
 1163SOL    HW214949   2.695   0.514   6.521  2.5971  2.9096 -0.2297
 1164SOL     OW14950   1.662   2.977   4.106  0.0905 -0.0941  0.4713
 1164SOL    HW114951   1.635   2.950   4.019  0.0232  3.3225 -0.5729
 1164SOL    HW214952   1.751   2.944   4.096 -0.8845 -1.7978 -2.4152
 1165SOL     OW14953   0.232   2.976   4.928 -0.1076  0.5048 -0.0147
 1165SOL    HW114954   0.209   2.934   4.845 -1.1391 -2.1178  1.5936
 1165SOL    HW214955   0.326   2.984   4.915  0.0654 -2.4732 -0.6596
 1166SOL     OW14956   2.895   1.410   2.373  0.1692  0.5308  0.4305
 1166SOL    HW114957   2.807   1.376   2.390 -0.2385  0.3506 -2.0643
 1166SOL    HW214958   2.920   1.434   2.463  2.7295 -1.6630  0.2983
 1167SOL     OW14959   4.406   1.752  12.388 -0.0829 -0.2929  0.3222
 1167SOL    HW114960   4.348   1.784  12.319 -1.2171 -1.2946  0.8119
 1167SOL    HW214961   4.492   1.792  12.377 -0.5130  0.5727  0.0984
 1168SOL     OW14962   0.382   4.510   2.697  0.2118  0.1321 -0.2596
 1168SOL    HW114963   0.310   4.570   2.680  1.9956  2.0471 -1.1105
 1168SOL    HW214964   0.394   4.475   2.609 -2.4239 -1.3995  0.0053
 1169SOL     OW14965   0.413   3.307  13.484  0.0360 -0.1370  0.1381
 1169SOL    HW114966   0.367   3.225  13.503  1.4648 -1.2880 -1.3699
 1169SOL    HW214967   0.350   3.368  13.523 -1.5738  0.0890 -2.8039
 1170SOL     OW14968   1.981   0.398   6.908  0.3068 -0.1241 -0.1397
 1170SOL    HW114969   1.890   0.424   6.920 -0.1831 -1.9715  0.1965
 1170SOL    HW214970   1.991   0.381   6.814 -1.3292 -1.0159 -0.1546
 1171SOL     OW14971   4.484   3.938   1.211 -0.0624  0.4877  0.7362
 1171SOL    HW114972   4.470   3.904   1.299 -0.3165  0.2264  0.5963
 1171SOL    HW214973   4.410   3.999   1.212  0.2063  0.7922  1.4532
 1172SOL     OW14974   4.613   0.680  15.205 -0.2693 -0.2088  0.1921
 1172SOL    HW114975   4.686   0.741  15.197  1.0480 -1.5995  1.7040
 1172SOL    HW214976   4.576   0.694  15.117 -0.1500  2.3832  0.5504
 1173SOL     OW14977   1.825   1.511   5.700 -0.0876  0.6665  0.0686
 1173SOL    HW114978   1.775   1.574   5.648 -1.2756  0.2608  0.7302
 1173SOL    HW214979   1.899   1.493   5.641  0.2969 -0.4706  0.8973
 1174SOL     OW14980   1.723   1.198   2.366  0.0084  0.4915 -0.5700
 1174SOL    HW114981   1.769   1.204   2.282 -0.4376  0.8424 -0.7950
 1174SOL    HW214982   1.648   1.255   2.350 -0.6298 -0.1699  0.0894
 1175SOL     OW14983   3.927   2.876   3.228  0.3689  0.4375  0.3557
 1175SOL    HW114984   3.898   2.794   3.188 -2.6761 -0.0847  3.6631
 1175SOL    HW214985   3.891   2.939   3.165  0.4232  1.0651  0.9535
 1176SOL     OW14986   0.536   0.109   4.282 -0.8350 -0.1725 -0.2108
 1176SOL    HW114987   0.617   0.080   4.325 -0.9767  0.1786  0.2933
 1176SOL    HW214988   0.522   0.188   4.333  1.5008  0.5833 -0.7507
 1177SOL     OW14989   3.359   2.770   3.379 -0.0879  0.1547  0.0475
 1177SOL    HW114990   3.416   2.744   3.306 -1.9477  1.1667 -1.7456
 1177SOL    HW214991   3.346   2.681   3.413  0.2525  0.3807  0.7696
 1178SOL     OW14992   4.623   2.428   5.121  0.2563  0.3822 -0.5385
 1178SOL    HW114993   4.674   2.504   5.150  0.0939  0.2898 -0.0029
 1178SOL    HW214994   4.560   2.456   5.055 -0.4156 -0.4749 -0.2504
 1179SOL     OW14995   3.047   0.890   3.841  0.0866  0.0486  0.3034
 1179SOL    HW114996   2.953   0.870   3.838 -0.1176  0.9300  1.1376
 1179SOL    HW214997   3.070   0.895   3.933  1.1688  0.1527  0.0266
 1180SOL     OW14998   4.508   2.761   5.971  0.4636 -0.3491  0.7891
 1180SOL    HW114999   4.470   2.801   6.049  0.9969  0.5384  0.5947
 1180SOL    HW215000   4.590   2.810   5.967 -0.5592  1.3670  0.7665
 1181SOL     OW15001   1.305   0.404   1.051  0.0703 -0.1006  0.7947
 1181SOL    HW115002   1.256   0.348   0.991  2.6429 -1.3674 -0.1293
 1181SOL    HW215003   1.394   0.396   1.016 -0.0105  2.2243  0.0649
 1182SOL     OW15004   1.529   4.394   3.842 -0.0471 -0.3049 -0.4523
 1182SOL    HW115005   1.466   4.331   3.806 -1.7767  1.0541  0.1948
 1182SOL    HW215006   1.480   4.419   3.920  0.7172  1.4490 -0.5434
 1183SOL     OW15007   4.269   2.771   3.575 -0.4111 -0.1560  0.2359
 1183SOL    HW115008   4.175   2.790   3.574 -0.1304  1.2361  1.1739
 1183SOL    HW215009   4.300   2.845   3.523  1.0683 -0.3975  0.7898
 1184SOL     OW15010   3.237   3.279   7.839 -0.3357 -0.0862 -0.1055
 1184SOL    HW115011   3.234   3.188   7.808  1.6599 -0.1168 -0.1994
 1184SOL    HW215012   3.153   3.322   7.824 -1.9926 -4.4651 -3.4383
 1185SOL     OW15013   0.283   3.988  12.531  0.5226 -0.4557 -0.1087
 1185SOL    HW115014   0.309   4.005  12.441  1.3009  0.6865  0.3192
 1185SOL    HW215015   0.188   3.995  12.517  0.6300 -0.8409 -0.9843
 1186SOL     OW15016   3.021   1.191   0.118  0.3259  0.3079  0.1509
 1186SOL    HW115017   3.111   1.163   0.131  0.9706  2.4806  0.2644
 1186SOL    HW215018   3.012   1.183   0.023 -0.8301 -1.3409  0.3907
 1187SOL     OW15019   4.264   0.571   6.122 -0.3393  0.1354 -0.2318
 1187SOL    HW115020   4.248   0.549   6.214 -0.8553  0.7314 -0.1743
 1187SOL    HW215021   4.329   0.508   6.092  0.8157  1.8922 -1.4516
 1188SOL     OW15022   0.584   3.892   4.154  0.1174  0.3325 -0.2010
 1188SOL    HW115023   0.616   3.887   4.244  1.0044 -1.0641 -0.5790
 1188SOL    HW215024   0.614   3.808   4.119 -0.7194  0.4464 -1.2078
 1189SOL     OW15025   2.307   2.197   9.589 -0.3472  0.3051 -0.5414
 1189SOL    HW115026   2.384   2.219   9.642 -0.9586  0.0918  0.4455
 1189SOL    HW215027   2.324   2.107   9.564  3.2200  0.0685  2.7402
 1190SOL     OW15028   2.748   3.468   4.755  0.7303 -0.0803  0.0531
 1190SOL    HW115029   2.687   3.540   4.773  0.3227 -0.0155 -1.5749
 1190SOL    HW215030   2.821   3.522   4.724  0.2258  0.3391 -0.4063
 1191SOL     OW15031   4.006   3.465  15.249 -0.2839  0.2409 -0.2375
 1191SOL    HW115032   3.953   3.543  15.233  1.1456  0.7027 -2.6044
 1191SOL    HW215033   3.958   3.399  15.201 -0.2919 -0.5404  0.8397
 1192SOL     OW15034   3.732   0.551   3.163 -0.4579 -0.8646 -0.1546
 1192SOL    HW115035   3.637   0.559   3.162 -0.6226 -2.8663 -0.0132
 1192SOL    HW215036   3.744   0.474   3.108  0.9181 -1.6220  1.2324
 1193SOL     OW15037   0.940   2.437   7.011  0.3574 -0.6665 -0.1570
 1193SOL    HW115038   0.944   2.514   6.954  0.9626 -1.1772 -0.8210
 1193SOL    HW215039   0.909   2.358   6.966 -2.2651 -1.1820  2.5368
 1194SOL     OW15040   2.696   1.679   7.475 -0.0183 -0.4863  0.0680
 1194SOL    HW115041   2.779   1.644   7.510 -0.8366 -2.5640 -0.0828
 1194SOL    HW215042   2.686   1.725   7.558  1.9110  0.1415 -0.0347
 1195SOL     OW15043   2.883   2.962   5.572 -0.2313  0.2106 -0.3815
 1195SOL    HW115044   2.961   3.007   5.541 -0.7915  1.7363  0.4048
 1195SOL    HW215045   2.926   2.915   5.643  0.2943  1.7031  0.2826
 1196SOL     OW15046   1.218   2.263   3.325  0.0935  0.1073  0.5279
 1196SOL    HW115047   1.299   2.236   3.368  0.4542 -1.0443 -0.8636
 1196SOL    HW215048   1.232   2.227   3.237  1.3147 -2.4117  1.7331
 1197SOL     OW15049   4.670   1.823   3.824  0.6602 -0.2161 -0.2900
 1197SOL    HW115050   0.040   1.841   3.841  0.5702 -0.7368  0.7170
 1197SOL    HW215051   4.673   1.731   3.796 -1.9752 -0.1383 -0.8165
 1198SOL     OW15052   1.390   3.227   5.294 -0.1499  0.8584  0.4236
 1198SOL    HW115053   1.425   3.238   5.383 -1.5688 -0.0156  1.0845
 1198SOL    HW215054   1.414   3.136   5.275  1.2948  1.4647 -0.6963
 1199SOL     OW15055   0.514   2.420   8.368  0.3326 -0.3418 -0.4149
 1199SOL    HW115056   0.534   2.344   8.422 -0.4998 -1.1880 -1.2805
 1199SOL    HW215057   0.589   2.479   8.374  0.0491 -0.0009 -0.2519
 1200SOL     OW15058   2.473   1.081   3.918  0.3382  0.1572 -0.5165
 1200SOL    HW115059   2.509   1.152   3.972 -2.5249  0.8806  0.4740
 1200SOL    HW215060   2.534   1.012   3.943  0.4926  1.3348  2.4314
 1201SOL     OW15061   4.115   3.388   3.555  0.5506  0.3582  0.5506
 1201SOL    HW115062   4.069   3.305   3.567 -2.1388  2.0906  2.0965
 1201SOL    HW215063   4.086   3.424   3.471 -1.7900  0.8430  1.5719
 1202SOL     OW15064   2.333   4.025   4.285 -0.0530 -0.8555  0.4816
 1202SOL    HW115065   2.406   3.965   4.293  0.4613 -0.2231  0.5742
 1202SOL    HW215066   2.321   4.045   4.378  0.0815  1.6354 -0.0390
 1203SOL     OW15067   2.851   4.710   2.445 -0.0557  0.6070  0.8198
 1203SOL    HW115068   2.848   0.031   2.360 -0.5049  0.3438  0.6971
 1203SOL    HW215069   2.846   0.059   2.507  1.3077  0.8805  0.6155
 1204SOL     OW15070   0.393   0.161   8.247 -0.2042 -0.0592 -0.1551
 1204SOL    HW115071   0.337   0.097   8.291  0.1075 -0.8954 -1.0075
 1204SOL    HW215072   0.481   0.129   8.267  0.1523  1.8777  1.4107
 1205SOL     OW15073   1.316   3.493   5.205 -0.4666 -0.2686  0.5002
 1205SOL    HW115074   1.374   3.421   5.228 -1.5380 -1.6608 -1.1366
 1205SOL    HW215075   1.376   3.535   5.144  0.2207 -0.0905  1.2932
 1206SOL     OW15076   2.004   0.350   8.326  0.7163 -0.2119  0.3402
 1206SOL    HW115077   1.917   0.362   8.288 -0.3070 -4.1117  1.4337
 1206SOL    HW215078   1.982   0.296   8.402 -0.3975  0.4173  0.4673
 1207SOL     OW15079   1.414   1.300   8.453 -0.1964  0.1429 -0.4765
 1207SOL    HW115080   1.418   1.377   8.395  0.5116 -0.6021 -1.4114
 1207SOL    HW215081   1.503   1.280   8.480 -0.6061 -1.5124 -0.3829
 1208SOL     OW15082   3.090   1.100  12.659  0.1357 -0.0449  0.3358
 1208SOL    HW115083   3.052   1.180  12.622  3.5756  0.7990 -1.3573
 1208SOL    HW215084   3.019   1.049  12.698 -0.7423  2.3086  1.8182
 1209SOL     OW15085   1.112   1.674  15.357  0.1153 -0.3552 -0.4601
 1209SOL    HW115086   1.042   1.696  15.294  1.8080  0.3804 -2.0814
 1209SOL    HW215087   1.062   1.677  15.438  1.4406  0.7012  0.3046
 1210SOL     OW15088   4.602   3.711   4.325  0.0348  0.1549  0.1917
 1210SOL    HW115089   4.639   3.717   4.236  0.8199 -0.7914  0.4606
 1210SOL    HW215090   4.665   3.764   4.374 -1.1718  1.9768 -0.2244
 1211SOL     OW15091   3.532   3.828   3.771 -0.1065  0.4822  0.0211
 1211SOL    HW115092   3.584   3.788   3.840 -0.0215 -1.1555 -0.9961
 1211SOL    HW215093   3.487   3.894   3.824  1.8199  2.0048 -0.2685
 1212SOL     OW15094   2.701   2.050   6.536 -0.4324  0.2689  0.1397
 1212SOL    HW115095   2.612   2.018   6.524 -0.6495  0.9615 -0.0708
 1212SOL    HW215096   2.714   2.124   6.478  0.0127 -0.0434 -0.1630
 1213SOL     OW15097   2.442   0.201   1.338  0.1416  0.2794  0.2411
 1213SOL    HW115098   2.446   0.204   1.433  0.1307 -0.8263  0.2666
 1213SOL    HW215099   2.502   0.128   1.325 -1.0571 -0.5960 -0.4211
 1214SOL     OW15100   2.368   0.226   0.662  0.0306 -0.2047  0.0280
 1214SOL    HW115101   2.379   0.321   0.654 -0.2569 -0.0736  1.2348
 1214SOL    HW215102   2.386   0.192   0.574  0.4186 -1.1198  0.4646
 1215SOL     OW15103   3.610   3.252   8.027 -0.1754 -0.3103  0.0591
 1215SOL    HW115104   3.575   3.224   8.112 -0.0395  3.0852  1.2066
 1215SOL    HW215105   3.688   3.303   8.048  0.7359 -1.2997 -0.9323
 1216SOL     OW15106   3.102   0.277   4.474 -0.1035  0.3141  0.1331
 1216SOL    HW115107   3.144   0.362   4.486  2.0851 -0.9699  1.4598
 1216SOL    HW215108   3.159   0.236   4.409  0.6466  1.6402 -0.0525
 1217SOL     OW15109   2.192   0.478   5.151 -0.6049  0.1614 -0.5745
 1217SOL    HW115110   2.193   0.562   5.106 -0.8604  0.0333 -0.8213
 1217SOL    HW215111   2.285   0.474   5.170 -0.6282 -1.8176 -0.8920
 1218SOL     OW15112   2.920   3.689  15.817  0.0164 -0.4770  0.4807
 1218SOL    HW115113   2.838   3.653  15.785 -0.1206  2.7809 -2.8093
 1218SOL    HW215114   2.977   3.667  15.743  0.6877  0.4630  0.7047
 1219SOL     OW15115   1.144   1.205   1.570 -0.6815 -0.1233  0.5064
 1219SOL    HW115116   1.138   1.109   1.568  1.7754 -0.2128 -2.2658
 1219SOL    HW215117   1.218   1.219   1.511 -0.0978  0.6964  1.4326
 1220SOL     OW15118   3.328   3.720   7.215  0.2896 -0.8862  0.0591
 1220SOL    HW115119   3.333   3.708   7.120 -0.5335  3.5296 -0.5646
 1220SOL    HW215120   3.242   3.757   7.233  0.0532 -1.2142 -0.4135
 1221SOL     OW15121   3.663   4.170   4.422 -0.2453 -0.4168 -0.0977
 1221SOL    HW115122   3.724   4.244   4.419 -2.1227  1.0871 -1.9529
 1221SOL    HW215123   3.722   4.103   4.458 -1.5914 -1.8069 -0.4862
 1222SOL     OW15124   0.187   4.636   5.191 -0.2535  0.0233 -0.0560
 1222SOL    HW115125   0.205   4.542   5.184 -0.3926  0.0242 -0.4253
 1222SOL    HW215126   0.231   4.676   5.117 -0.5682  3.0447  1.4121
 1223SOL     OW15127   1.628   3.108  11.881 -0.6021  0.9313  0.6406
 1223SOL    HW115128   1.720   3.133  11.871  0.1187 -1.8226  0.5045
 1223SOL    HW215129   1.605   3.163  11.956 -0.2153 -0.8064  2.0429
 1224SOL     OW15130   1.950   3.226   2.926  0.3757  0.0807 -0.3638
 1224SOL    HW115131   1.861   3.200   2.902  0.3076 -0.7688  0.8383
 1224SOL    HW215132   1.997   3.164   2.869  2.8152  0.1825  1.5248
 1225SOL     OW15133   0.749   4.079  11.864  0.1149  0.2777 -0.2926
 1225SOL    HW115134   0.684   4.095  11.795  0.9989  1.6254 -0.8256
 1225SOL    HW215135   0.743   3.985  11.878 -2.8353  0.6288  0.7292
 1226SOL     OW15136   3.042   0.968   4.121 -0.1747 -0.7581  0.4581
 1226SOL    HW115137   3.115   0.984   4.181 -0.0675  3.0041 -0.6384
 1226SOL    HW215138   2.979   0.926   4.180 -0.3966 -1.5028 -0.3158
 1227SOL     OW15139   2.382   1.255  12.245 -0.2479  0.0696 -0.1770
 1227SOL    HW115140   2.470   1.221  12.225 -0.8617 -1.2524 -0.6029
 1227SOL    HW215141   2.378   1.315  12.170 -1.6028  1.5424  1.0989
 1228SOL     OW15142   0.778   0.427  12.004 -0.1679 -0.1334  0.0553
 1228SOL    HW115143   0.823   0.368  12.064  0.1087  0.1502  0.1254
 1228SOL    HW215144   0.850   0.458  11.950  0.5475 -1.8416  0.0316
 1229SOL     OW15145   1.447   4.407   1.283  0.2419 -0.3608  0.2602
 1229SOL    HW115146   1.400   4.423   1.201  1.6572 -1.7908 -0.8317
 1229SOL    HW215147   1.379   4.387   1.347 -0.0721 -2.1927 -0.6504
 1230SOL     OW15148   3.558   1.766   6.267 -0.9500 -0.3776 -0.2685
 1230SOL    HW115149   3.615   1.831   6.226  0.6084 -0.7047  1.3476
 1230SOL    HW215150   3.551   1.707   6.192 -0.0012  0.6128 -1.1457
 1231SOL     OW15151   3.401   3.350   5.238 -0.0792 -0.4898 -0.4266
 1231SOL    HW115152   3.339   3.371   5.308  2.1705 -2.2495  2.1115
 1231SOL    HW215153   3.448   3.277   5.279 -0.2843 -0.1567  0.3898
 1232SOL     OW15154   1.793   2.672   5.681  0.3896 -0.1033  0.0674
 1232SOL    HW115155   1.879   2.712   5.667  0.4622 -0.4928 -0.5702
 1232SOL    HW215156   1.821   2.581   5.675 -0.9014 -0.4334 -0.8642
 1233SOL     OW15157   1.523   4.223   3.016 -0.2829 -0.8412 -0.7092
 1233SOL    HW115158   1.447   4.250   3.068  1.6438 -1.1233  2.2887
 1233SOL    HW215159   1.535   4.292   2.951 -2.3650  1.1630  1.0181
 1234SOL     OW15160   0.974   2.250   8.639  0.8197 -0.2754  0.4215
 1234SOL    HW115161   0.902   2.283   8.693 -0.0598 -2.1662  0.4164
 1234SOL    HW215162   0.929   2.256   8.555 -1.1458  2.2230  1.6693
 1235SOL     OW15163   1.482   0.623  11.483 -0.3361 -0.4854  0.1765
 1235SOL    HW115164   1.518   0.540  11.513  0.4880 -0.9426 -2.0610
 1235SOL    HW215165   1.550   0.676  11.525  0.6249 -1.6467  0.0841
 1236SOL     OW15166   1.963   1.340   9.455  0.2697 -0.1963  0.3010
 1236SOL    HW115167   2.043   1.393   9.453 -2.0458  3.1977 -1.4555
 1236SOL    HW215168   1.952   1.307   9.366  3.6050  0.1643 -0.2449
 1237SOL     OW15169   3.452   2.010   4.254 -0.1673 -0.0452 -0.1454
 1237SOL    HW115170   3.357   1.997   4.249  0.0933 -1.6647 -1.0879
 1237SOL    HW215171   3.450   2.102   4.279 -2.6358  0.2183 -1.3135
 1238SOL     OW15172   0.815   4.322   6.183  0.1053  0.4909  0.0946
 1238SOL    HW115173   0.828   4.297   6.275 -1.0074  0.4854  0.2532
 1238SOL    HW215174   0.882   4.264   6.148 -0.6453 -0.3702  0.0802
 1239SOL     OW15175   4.195   2.666   1.129 -0.3963 -0.0654  0.0976
 1239SOL    HW115176   4.116   2.662   1.183  1.3841  0.2846  2.7711
 1239SOL    HW215177   4.161   2.734   1.070  0.4284  0.9942  0.8266
 1240SOL     OW15178   1.627   4.278   7.368 -0.1207  0.0263  0.0947
 1240SOL    HW115179   1.554   4.327   7.406  0.0083 -0.4885  1.0090
 1240SOL    HW215180   1.605   4.278   7.275  1.2696 -0.2080 -0.2315
 1241SOL     OW15181   2.499   0.872   0.143 -0.0054  0.6631  0.4591
 1241SOL    HW115182   2.593   0.889   0.135 -0.3027  1.4778 -1.2982
 1241SOL    HW215183   2.464   0.952   0.103  1.6483  0.7561 -0.8063
 1242SOL     OW15184   2.924   4.584   1.842  0.1401 -0.1785  0.0971
 1242SOL    HW115185   2.925   4.581   1.746  1.2830  0.2688  0.1002
 1242SOL    HW215186   2.953   4.671   1.870  1.3880 -0.8767  0.9754
 1243SOL     OW15187   2.810   3.455   5.636  0.2140  0.0647  0.9796
 1243SOL    HW115188   2.787   3.364   5.655 -0.0035  0.4164  2.3939
 1243SOL    HW215189   2.845   3.484   5.721  0.5539  1.4253  0.3675
 1244SOL     OW15190   3.324   2.556   0.128 -0.2712 -0.6415 -0.6452
 1244SOL    HW115191   3.406   2.577   0.172 -1.7240  5.0490 -0.7360
 1244SOL    HW215192   3.337   2.465   0.100 -1.0100 -0.9844  0.1066
 1245SOL     OW15193   3.800   1.105   4.055 -0.1512  0.2836 -0.1838
 1245SOL    HW115194   3.722   1.116   4.000  0.0445 -0.1970 -0.5531
 1245SOL    HW215195   3.876   1.138   4.007  0.0451 -0.9242 -0.7084
 1246SOL     OW15196   1.885   2.754  13.630 -0.2591  0.0578 -0.3229
 1246SOL    HW115197   1.812   2.764  13.692 -0.2560 -2.6807  0.0935
 1246SOL    HW215198   1.873   2.826  13.567  0.0562  0.8709  0.5454
 1247SOL     OW15199   4.617   3.392   1.999 -0.0320 -0.5013 -0.1597
 1247SOL    HW115200   4.605   3.487   2.000 -0.0424 -0.5474  3.3044
 1247SOL    HW215201   4.547   3.371   1.937 -2.1069  2.3884  1.1702
 1248SOL     OW15202   0.111   2.009   6.850 -0.0146  0.2777  0.0748
 1248SOL    HW115203   0.163   1.929   6.844 -3.5118 -2.1312  2.4170
 1248SOL    HW215204   0.028   1.968   6.826  1.1435 -1.9940 -0.1146
 1249SOL     OW15205   4.688   1.834   6.257 -0.2211 -0.2910  0.5200
 1249SOL    HW115206   4.654   1.746   6.273  0.3502 -0.2549  1.9542
 1249SOL    HW215207   4.710   1.875   6.341 -0.2630 -1.3306  1.0326
 1250SOL     OW15208   4.589   1.878   1.955  0.2707  0.7544 -0.7821
 1250SOL    HW115209   4.605   1.881   2.049 -0.9533  1.7248 -0.5970
 1250SOL    HW215210   4.649   1.937   1.909  2.8931 -2.4910 -1.4979
 1251SOL     OW15211   3.981   1.276  12.721 -0.0041 -0.3744  0.2011
 1251SOL    HW115212   3.995   1.314  12.808 -1.0991  0.9213 -0.1866
 1251SOL    HW215213   4.070   1.283  12.689  0.0849  0.4808  0.6279
 1252SOL     OW15214   0.358   0.371   4.645  0.6465 -0.3041  0.0641
 1252SOL    HW115215   0.269   0.364   4.612  0.9353  1.2480 -1.0309
 1252SOL    HW215216   0.333   0.371   4.737  0.9116 -0.4672  0.1378
 1253SOL     OW15217   1.078   2.126   2.643  0.3781 -0.4143  0.3416
 1253SOL    HW115218   1.072   2.148   2.549 -1.3861  1.7646  0.9637
 1253SOL    HW215219   1.169   2.100   2.651  0.4288  0.3547  2.2061
 1254SOL     OW15220   2.328   3.622   8.395  0.2224  0.0413 -0.0081
 1254SOL    HW115221   2.244   3.652   8.362 -0.2024  0.7663  1.7550
 1254SOL    HW215222   2.384   3.623   8.317 -1.1451 -0.8377 -0.9969
 1255SOL     OW15223   3.563   2.629   3.968  0.1661 -0.4318  0.2468
 1255SOL    HW115224   3.525   2.660   4.050  1.9250 -0.7279  1.1685
 1255SOL    HW215225   3.535   2.693   3.903  2.4130  0.6701  0.3654
 1256SOL     OW15226   2.108   1.589   9.859  0.2892 -0.1121  0.2589
 1256SOL    HW115227   2.063   1.565   9.778  3.3614 -1.2287 -1.1129
 1256SOL    HW215228   2.187   1.638   9.839 -0.2135  0.5056 -0.1924
 1257SOL     OW15229   1.758   3.698   5.810  0.1324  0.1735  0.2892
 1257SOL    HW115230   1.840   3.747   5.818  0.2243  0.1195 -0.3318
 1257SOL    HW215231   1.784   3.609   5.785  3.4102  1.2663 -0.1895
 1258SOL     OW15232   1.052   2.789  11.080  0.1149 -0.7638  0.3163
 1258SOL    HW115233   1.073   2.875  11.045  0.9813 -1.1665 -0.1364
 1258SOL    HW215234   0.967   2.808  11.121 -0.3616 -0.6752 -0.7205
 1259SOL     OW15235   1.096   4.162   9.415  0.4013 -0.1533 -0.1035
 1259SOL    HW115236   1.167   4.171   9.478 -0.5850 -2.8896  1.3858
 1259SOL    HW215237   1.033   4.110   9.465  2.1989 -0.6005  1.7064
 1260SOL     OW15238   3.702   1.499  17.023  0.1994 -0.0665  0.2960
 1260SOL    HW115239   3.686   1.569  16.959  0.5995 -0.0922  0.1680
 1260SOL    HW215240   3.752   1.551  17.086 -1.0163  1.6936 -0.1720
 1261SOL     OW15241   0.669   3.096   7.561 -0.2284 -0.7910 -0.2918
 1261SOL    HW115242   0.661   3.029   7.629  0.8142 -0.8728 -0.2451
 1261SOL    HW215243   0.748   3.063   7.518  0.3966  1.0004 -0.4870
 1262SOL     OW15244   2.857   0.735  15.940 -0.1356  0.3874  0.2141
 1262SOL    HW115245   2.835   0.642  15.939 -1.5279  0.6983  1.8076
 1262SOL    HW215246   2.783   0.773  15.988  0.0666 -1.0510  1.6963
 1263SOL     OW15247   1.402   0.553  17.652  0.0523  0.4792 -0.1634
 1263SOL    HW115248   1.431   0.507   0.038  1.8127 -0.7249 -1.4949
 1263SOL    HW215249   1.423   0.485  17.587 -2.1134 -1.1870  0.8611
 1264SOL     OW15250   2.655   4.395  12.926  0.2576 -0.5634 -0.8900
 1264SOL    HW115251   2.652   4.394  12.830 -0.8478 -2.4028 -0.8365
 1264SOL    HW215252   2.681   4.303  12.937  3.2435  0.2405 -1.2215
 1265SOL     OW15253   0.947   1.986   6.148  0.0893  0.1766 -0.0324
 1265SOL    HW115254   0.862   2.026   6.134 -0.4308 -1.4680 -1.5619
 1265SOL    HW215255   1.006   2.030   6.087 -1.6096  0.3053 -1.5640
 1266SOL     OW15256   2.382   1.401   5.778  0.3510 -0.5790 -0.3271
 1266SOL    HW115257   2.451   1.459   5.808 -2.1413  1.1781  1.9812
 1266SOL    HW215258   2.330   1.410   5.857 -0.0669 -0.9982 -0.5527
 1267SOL     OW15259   4.029   1.210   0.937  0.4338 -0.1896  0.4447
 1267SOL    HW115260   4.110   1.235   0.894 -0.5039 -3.1864 -3.0468
 1267SOL    HW215261   3.962   1.244   0.878  1.2478  1.1706  0.3113
 1268SOL     OW15262   2.115   3.475  14.048  0.6687  0.5202 -0.2607
 1268SOL    HW115263   2.075   3.390  14.032 -0.3040  0.9607 -0.1250
 1268SOL    HW215264   2.042   3.534  14.032  0.3649  0.8204  2.1309
 1269SOL     OW15265   3.833   2.527  15.139  0.0997 -0.1139  0.3217
 1269SOL    HW115266   3.784   2.542  15.057 -0.5951  0.6562  0.8808
 1269SOL    HW215267   3.762   2.521  15.203 -0.2520  1.4163  0.0601
 1270SOL     OW15268   2.340   3.121   7.789  1.1221  0.2040  0.4485
 1270SOL    HW115269   2.251   3.086   7.790  0.8233  1.0325  1.9508
 1270SOL    HW215270   2.353   3.130   7.695  1.5135  1.5104  0.6314
 1271SOL     OW15271   4.696   2.216   6.071  0.4495 -0.4409 -0.2983
 1271SOL    HW115272   4.701   2.295   6.125  1.0944  0.4227 -1.6264
 1271SOL    HW215273   4.633   2.160   6.116  0.6521  1.1250  1.9167
 1272SOL     OW15274   0.441   1.597  16.809 -0.0497 -0.3266 -0.1567
 1272SOL    HW115275   0.407   1.675  16.853  1.5630  0.0719  0.3859
 1272SOL    HW215276   0.391   1.524  16.847  1.4634 -0.8101  0.8660
 1273SOL     OW15277   3.053   1.700   2.836 -0.2876 -0.2929 -0.1071
 1273SOL    HW115278   3.113   1.762   2.877 -3.0772  2.4205 -0.1690
 1273SOL    HW215279   3.093   1.680   2.751 -2.1294  0.8971 -1.2506
 1274SOL     OW15280   4.346   4.289   7.888 -0.1252 -0.2505 -0.4036
 1274SOL    HW115281   4.422   4.272   7.944 -0.8357  1.7302  1.1980
 1274SOL    HW215282   4.351   4.229   7.814  0.3042 -2.3083  1.3003
 1275SOL     OW15283   3.273   1.590   1.177  0.8825  0.3162 -0.4287
 1275SOL    HW115284   3.315   1.669   1.212 -0.6271  1.5486 -1.4246
 1275SOL    HW215285   3.192   1.623   1.138  0.7360 -0.1268 -0.4977
 1276SOL     OW15286   4.049   4.125   9.323  0.1500 -0.0649  0.0461
 1276SOL    HW115287   4.109   4.192   9.290  0.2162  0.9545  2.2506
 1276SOL    HW215288   4.026   4.161   9.409  1.6630 -1.0102  0.8502
 1277SOL     OW15289   1.227   1.068   4.839  0.5976  0.1771 -0.1845
 1277SOL    HW115290   1.265   0.981   4.829  1.8882  0.8885 -1.5552
 1277SOL    HW215291   1.135   1.053   4.861  1.0318  1.7488  2.7391
 1278SOL     OW15292   3.273   4.461  14.743  0.4968 -0.0584 -0.9289
 1278SOL    HW115293   3.243   4.416  14.664  0.7729 -1.5585 -0.1645
 1278SOL    HW215294   3.219   4.540  14.732  1.6973  1.0236  0.8575
 1279SOL     OW15295   0.851   1.836  12.403  0.2158 -0.2058 -0.0542
 1279SOL    HW115296   0.824   1.747  12.426  0.3317 -0.1525  0.2832
 1279SOL    HW215297   0.771   1.883  12.426  0.9371  0.7009  0.6176
 1280SOL     OW15298   4.161   0.878   6.830 -0.0075 -0.0918  0.2560
 1280SOL    HW115299   4.084   0.822   6.823 -1.8426  2.7663 -2.2997
 1280SOL    HW215300   4.133   0.947   6.890  0.7346  0.4344  0.0004
 1281SOL     OW15301   4.340   1.182   6.327  0.1226  0.0092  0.0640
 1281SOL    HW115302   4.273   1.197   6.394  0.4976  0.7018  0.2853
 1281SOL    HW215303   4.331   1.269   6.288 -0.5425 -0.5747 -1.0812
 1282SOL     OW15304   4.227   4.175   4.315 -0.3568 -0.4966 -0.1324
 1282SOL    HW115305   4.183   4.091   4.300 -0.5183 -0.6618  1.3397
 1282SOL    HW215306   4.245   4.188   4.222  1.0889 -0.0194  0.2203
 1283SOL     OW15307   0.431   0.360   2.212 -0.1049 -0.0725  0.0453
 1283SOL    HW115308   0.472   0.404   2.286 -2.1743 -0.7125  1.5565
 1283SOL    HW215309   0.373   0.432   2.190  0.7913  0.3339 -1.0114
 1284SOL     OW15310   0.371   2.136  11.291  0.6874 -0.2859  0.3111
 1284SOL    HW115311   0.364   2.043  11.271  1.6377  0.0126 -1.4031
 1284SOL    HW215312   0.452   2.163  11.247  1.0008 -2.2556 -0.3056
 1285SOL     OW15313   3.237   0.400  12.157  0.3906 -0.5619  0.0455
 1285SOL    HW115314   3.327   0.429  12.168 -0.6048  2.7434 -0.5372
 1285SOL    HW215315   3.228   0.332  12.224  1.2035 -0.5723  0.1508
 1286SOL     OW15316   4.043   3.608   6.548 -0.4573 -0.4529  0.6367
 1286SOL    HW115317   4.091   3.528   6.524 -0.8809  0.3492 -2.8341
 1286SOL    HW215318   3.968   3.603   6.489  0.6350  2.3620 -0.9622
 1287SOL     OW15319   0.109   3.074   8.388  0.0349  0.0963 -0.2047
 1287SOL    HW115320   0.042   3.042   8.448  0.3224  1.1055  0.6660
 1287SOL    HW215321   0.126   3.153   8.440  1.3752  0.7334 -1.5974
 1288SOL     OW15322   1.011   0.981  16.586 -0.0962  0.1985  0.0869
 1288SOL    HW115323   1.051   0.914  16.532  2.0810  1.8901 -0.3988
 1288SOL    HW215324   1.041   0.959  16.674  0.5992  2.2364  0.3525
 1289SOL     OW15325   1.310   1.063  16.266  0.1766  0.3504 -0.2913
 1289SOL    HW115326   1.350   1.135  16.216  0.8206 -1.2396 -2.0430
 1289SOL    HW215327   1.245   1.116  16.313  1.8713  1.2810  1.0038
 1290SOL     OW15328   3.724   4.498   7.936  0.0364 -0.3677 -0.3470
 1290SOL    HW115329   3.794   4.510   8.000 -0.7638  1.0535  0.2622
 1290SOL    HW215330   3.714   4.403   7.940  0.3149 -0.3759  0.1913
 1291SOL     OW15331   2.236   4.494   9.299 -0.6756 -0.3414  0.3667
 1291SOL    HW115332   2.263   4.583   9.321  1.1078 -0.8004  0.0358
 1291SOL    HW215333   2.174   4.473   9.369 -1.4206 -3.2376 -1.1751
 1292SOL     OW15334   4.024   2.815   2.900  0.9214 -0.2763 -0.3873
 1292SOL    HW115335   4.042   2.726   2.931 -1.1500 -0.8985 -0.9424
 1292SOL    HW215336   4.066   2.833   2.816  0.8458 -3.2374 -1.0607
 1293SOL     OW15337   0.784   2.050   4.081 -0.6376  0.2471  0.0441
 1293SOL    HW115338   0.843   2.074   4.152 -1.0637 -0.4414  0.6406
 1293SOL    HW215339   0.704   2.016   4.122 -0.7213 -3.5440 -3.2683
 1294SOL     OW15340   4.392   4.361  12.075 -0.3003  0.1729  0.3223
 1294SOL    HW115341   4.447   4.439  12.080 -2.2191  1.7894 -3.9189
 1294SOL    HW215342   4.431   4.321  12.153 -0.3655  0.7946  0.6780
 1295SOL     OW15343   4.122   1.767   1.494  0.2847 -0.0418 -0.2825
 1295SOL    HW115344   4.156   1.720   1.570 -0.7945  1.0791  0.9119
 1295SOL    HW215345   4.195   1.763   1.432 -0.0223 -0.1179 -0.6367
 1296SOL     OW15346   3.889   4.647   9.834  0.1989 -0.0765 -0.8478
 1296SOL    HW115347   3.838   4.646   9.753  0.9163  0.8361 -1.3084
 1296SOL    HW215348   3.941   0.003   9.815 -1.8311  1.0058 -1.8767
 1297SOL     OW15349   2.108   2.847   5.012  0.0112 -0.0416 -0.0919
 1297SOL    HW115350   2.154   2.858   4.929  2.7043 -0.6561  1.3052
 1297SOL    HW215351   2.111   2.751   5.018 -0.9923  0.0210  1.6130
 1298SOL     OW15352   3.010   2.789  16.977 -0.0764 -0.0404 -0.5255
 1298SOL    HW115353   2.944   2.858  16.986 -1.5732 -1.4804 -0.4578
 1298SOL    HW215354   3.048   2.811  16.892 -0.2851 -0.4525 -0.7287
 1299SOL     OW15355   1.056   1.936   7.508 -0.1776  0.0653  0.2789
 1299SOL    HW115356   1.047   1.920   7.414 -3.4882 -1.5457  0.8417
 1299SOL    HW215357   1.125   2.002   7.518  1.9225 -2.2411  0.9830
 1300SOL     OW15358   3.786   2.519   4.346  0.4658 -0.3667 -0.7322
 1300SOL    HW115359   3.827   2.459   4.284 -1.3584 -2.5471  0.1804
 1300SOL    HW215360   3.730   2.570   4.286  0.3745  0.2577 -0.1081
 1301SOL     OW15361   4.289   3.764   3.883  0.5661 -0.2524  0.4906
 1301SOL    HW115362   4.332   3.785   3.965  0.3891  1.8261  0.0410
 1301SOL    HW215363   4.350   3.704   3.840 -0.6480 -2.5602  1.9679
 1302SOL     OW15364   1.123   2.484   2.934 -0.0493  0.3121 -0.2008
 1302SOL    HW115365   1.062   2.454   2.866  0.7937 -0.9171 -0.4048
 1302SOL    HW215366   1.145   2.568   2.893  0.8051  0.0433 -0.2952
 1303SOL     OW15367   3.238   3.495   3.943  0.2017 -0.3630  0.6482
 1303SOL    HW115368   3.166   3.497   3.880 -1.2641  0.4050  2.3297
 1303SOL    HW215369   3.311   3.483   3.882 -0.5523 -0.0839 -0.3103
 1304SOL     OW15370   2.594   2.421   7.658  0.2593 -0.2907  0.2050
 1304SOL    HW115371   2.534   2.368   7.709 -1.0978 -0.6783 -1.8029
 1304SOL    HW215372   2.620   2.488   7.722  1.9224 -1.0137  0.2673
 1305SOL     OW15373   0.562   1.999   8.694  0.1128  0.1044 -0.2369
 1305SOL    HW115374   0.562   1.917   8.646 -2.4745 -1.1074  1.7768
 1305SOL    HW215375   0.474   2.000   8.733  0.0834 -0.1285 -0.2982
 1306SOL     OW15376   1.579   1.645   5.218  0.3146 -0.3797 -0.1260
 1306SOL    HW115377   1.561   1.737   5.198  3.0165  0.5535  1.7560
 1306SOL    HW215378   1.531   1.635   5.300 -0.3712  2.6125 -0.1914
 1307SOL     OW15379   1.516   0.861   2.948  0.3679  0.0677 -0.6724
 1307SOL    HW115380   1.568   0.814   2.883  1.3297  1.3214 -0.8076
 1307SOL    HW215381   1.586   0.863   3.014  0.3629 -1.2336 -0.6216
 1308SOL     OW15382   3.311   1.107   2.679  0.3328  0.2004 -0.2370
 1308SOL    HW115383   3.399   1.114   2.642  0.6317 -2.5289 -0.0899
 1308SOL    HW215384   3.323   1.145   2.766  0.6523  0.7592 -0.5311
 1309SOL     OW15385   0.392   3.395   2.110 -0.1028  0.1007 -0.5743
 1309SOL    HW115386   0.301   3.418   2.088 -0.2292 -1.0664 -1.2700
 1309SOL    HW215387   0.427   3.482   2.131 -2.3039  0.6449  0.8939
 1310SOL     OW15388   3.274   3.069  10.320 -0.5991  0.0552 -0.0462
 1310SOL    HW115389   3.210   3.052  10.250 -0.5044 -1.5040  0.2528
 1310SOL    HW215390   3.243   3.152  10.356  1.5154  0.0586  1.7548
 1311SOL     OW15391   3.513   2.339   4.008  0.5774  0.7484 -0.0038
 1311SOL    HW115392   3.532   2.433   4.005 -3.2221  1.5622  1.1414
 1311SOL    HW215393   3.601   2.310   3.983  0.5518  1.6337 -1.1609
 1312SOL     OW15394   0.441   2.363   4.737  0.3787  0.5194  0.6814
 1312SOL    HW115395   0.378   2.364   4.808 -1.3375  0.1536 -0.8305
 1312SOL    HW215396   0.507   2.297   4.759 -0.1153  0.4036  1.7940
 1313SOL     OW15397   0.332   1.296   7.043  0.3349  0.4716 -0.1038
 1313SOL    HW115398   0.405   1.271   7.098 -0.6947 -2.2283  0.0126
 1313SOL    HW215399   0.382   1.305   6.961  0.3578 -1.5260 -0.2909
 1314SOL     OW15400   4.348   3.446   4.292 -0.1982 -0.1803  0.6660
 1314SOL    HW115401   4.360   3.461   4.386  1.4299 -0.0979  0.4467
 1314SOL    HW215402   4.344   3.352   4.279 -0.3201 -0.2138  0.9544
 1315SOL     OW15403   1.194   4.169  10.444  0.0256  0.7373  0.1808
 1315SOL    HW115404   1.191   4.244  10.385  2.5080  0.3585 -0.3983
 1315SOL    HW215405   1.253   4.105  10.404 -1.2860 -0.5201  0.2636
 1316SOL     OW15406   4.387   2.192   3.647  0.2661 -0.3178 -0.0680
 1316SOL    HW115407   4.429   2.145   3.719 -0.0840  1.3621  1.2497
 1316SOL    HW215408   4.419   2.139   3.574  0.4389  0.2154 -0.3833
 1317SOL     OW15409   2.193   2.826  16.294  0.0679 -0.0875 -0.3276
 1317SOL    HW115410   2.127   2.806  16.228 -3.0115  3.8596  1.5100
 1317SOL    HW215411   2.233   2.907  16.261 -1.8303  0.8694 -0.2463
 1318SOL     OW15412   4.701   1.857  13.099  0.2659 -0.0476 -0.4683
 1318SOL    HW115413   4.641   1.895  13.162  0.6592 -2.6600  1.4872
 1318SOL    HW215414   0.059   1.892  13.136  0.0853 -0.9048  0.7463
 1319SOL     OW15415   2.630   1.411   3.437  0.6180 -0.8937  0.6052
 1319SOL    HW115416   2.713   1.417   3.389  0.9156 -0.5072  1.1685
 1319SOL    HW215417   2.606   1.319   3.431 -3.4008 -0.1329  4.9996
 1320SOL     OW15418   4.546   3.747   5.356  0.0540  0.5493  0.3105
 1320SOL    HW115419   4.491   3.669   5.355 -0.3828  0.8815 -2.9163
 1320SOL    HW215420   4.535   3.773   5.447 -0.2199 -1.0134  0.7352
 1321SOL     OW15421   0.324   4.529   2.418 -0.1360 -0.2273 -0.1736
 1321SOL    HW115422   0.331   4.528   2.323  0.3045  0.3472 -0.1458
 1321SOL    HW215423   0.230   4.529   2.436 -0.1102  1.6783 -0.1118
 1322SOL     OW15424   4.120   4.190   2.706 -0.2563  0.5935  0.2157
 1322SOL    HW115425   4.187   4.126   2.683 -0.5256 -0.0022  1.0616
 1322SOL    HW215426   4.070   4.174   2.626 -0.2337 -1.2950  0.5845
 1323SOL     OW15427   3.090   0.683   2.008 -0.0099 -0.0765 -0.1176
 1323SOL    HW115428   3.060   0.594   1.995 -0.6513  0.2518 -0.8883
 1323SOL    HW215429   3.178   0.667   1.974 -0.2024 -2.3103  0.4635
 1324SOL     OW15430   1.152   1.471   2.069  0.0371 -0.1208 -0.7334
 1324SOL    HW115431   1.116   1.382   2.073  0.3659 -0.2138  0.2547
 1324SOL    HW215432   1.090   1.516   2.127 -1.3138 -4.0068  0.8756
 1325SOL     OW15433   1.853   1.466   2.267 -0.0292 -0.2244 -0.0765
 1325SOL    HW115434   1.890   1.390   2.222 -0.3867  0.7289 -1.9589
 1325SOL    HW215435   1.869   1.440   2.358 -0.7435 -1.6734 -0.3647
 1326SOL     OW15436   0.090   2.476  14.262 -0.6607 -0.1089 -0.5654
 1326SOL    HW115437   0.130   2.524  14.190 -2.8126 -0.0586 -1.7455
 1326SOL    HW215438   0.168   2.429  14.291 -1.0657  0.0075  0.7281
 1327SOL     OW15439   3.932   0.539  16.786  0.1436  0.4742 -0.1972
 1327SOL    HW115440   3.880   0.596  16.729 -1.6460 -0.0438  0.9241
 1327SOL    HW215441   4.014   0.588  16.792  0.0597  0.6283 -0.2941
 1328SOL     OW15442   4.089   0.062   7.661 -0.1032 -0.1556  0.3050
 1328SOL    HW115443   4.164   0.058   7.720  0.4397 -1.0728 -0.4418
 1328SOL    HW215444   4.032   4.716   7.695 -0.1081 -1.6134 -2.5766
 1329SOL     OW15445   1.785   0.947   3.069  0.1304  0.4277 -0.4207
 1329SOL    HW115446   1.735   1.017   3.110  0.6560 -0.7293  2.2040
 1329SOL    HW215447   1.771   0.981   2.981 -0.9781 -2.2552 -1.2859
 1330SOL     OW15448   4.308   0.445   3.890  0.6509 -0.4181  0.0263
 1330SOL    HW115449   4.380   0.384   3.874  2.3141  1.1257  1.4648
 1330SOL    HW215450   4.339   0.480   3.974 -0.4515 -1.8051  1.0105
 1331SOL     OW15451   3.930   4.255   6.373 -0.1912  0.6517 -0.3424
 1331SOL    HW115452   3.969   4.274   6.458 -0.1886  1.2762 -0.4822
 1331SOL    HW215453   4.004   4.262   6.314  0.6931  2.4685  0.9792
 1332SOL     OW15454   4.267   4.071   0.561 -0.3176 -0.4791 -0.6073
 1332SOL    HW115455   4.293   4.156   0.526 -1.0663  0.5773  1.4324
 1332SOL    HW215456   4.186   4.102   0.601  1.0716  1.8170  0.4113
 1333SOL     OW15457   3.152   1.042   0.957  0.4906  0.6086  0.0711
 1333SOL    HW115458   3.091   0.992   0.902 -0.2624  2.3803 -0.6755
 1333SOL    HW215459   3.159   1.129   0.919 -0.0680  0.5921 -0.0642
 1334SOL     OW15460   0.288   2.672   4.695  0.2338 -0.6755 -0.1871
 1334SOL    HW115461   0.307   2.761   4.664  0.6086 -0.4478  0.6675
 1334SOL    HW215462   0.283   2.633   4.608 -0.4806 -1.2213  0.0933
 1335SOL     OW15463   3.875   0.560   2.100 -0.1728  0.0261  0.3862
 1335SOL    HW115464   3.850   0.553   2.192 -1.8584 -0.6263 -0.1236
 1335SOL    HW215465   3.965   0.539   2.123  0.4556  1.9329 -0.3186
 1336SOL     OW15466   4.691   3.295  12.567 -0.1149  0.5093  0.5081
 1336SOL    HW115467   4.717   3.378  12.526  0.0722 -0.3234 -1.0724
 1336SOL    HW215468   0.050   3.272  12.612  0.3532  0.9778 -0.0857
 1337SOL     OW15469   0.718   3.026   3.347 -0.2029  0.4913 -0.1381
 1337SOL    HW115470   0.702   3.117   3.372  1.6587  0.6609  0.4366
 1337SOL    HW215471   0.704   2.983   3.431  1.0548 -2.1145 -1.2608
 1338SOL     OW15472   3.024   2.340   8.401 -0.0728  0.1635 -0.0071
 1338SOL    HW115473   3.072   2.297   8.330  0.0965  0.9079 -0.3388
 1338SOL    HW215474   2.989   2.419   8.360  0.5942  0.3232 -0.2674
 1339SOL     OW15475   1.412   0.547   9.115 -0.0540  0.2328 -0.5634
 1339SOL    HW115476   1.407   0.515   9.205  2.7166  0.6181 -0.2553
 1339SOL    HW215477   1.502   0.578   9.106 -0.3817  1.3580 -0.0708
 1340SOL     OW15478   0.752   2.629   8.097 -0.3578 -0.6780  0.5108
 1340SOL    HW115479   0.677   2.685   8.116  1.8668  2.5044  0.0141
 1340SOL    HW215480   0.751   2.632   8.002  0.5105  1.0577  0.5509
 1341SOL     OW15481   1.474   1.501   5.970 -0.0829 -0.7184  0.7884
 1341SOL    HW115482   1.521   1.534   6.046 -1.6507  2.4327  0.3884
 1341SOL    HW215483   1.491   1.573   5.909  2.6171 -0.2325  2.1237
 1342SOL     OW15484   2.355   0.653   9.794  0.2787 -0.4625  0.0054
 1342SOL    HW115485   2.411   0.577   9.812  0.3772 -0.0997  1.2116
 1342SOL    HW215486   2.303   0.614   9.724 -0.0222 -1.8650  1.0166
 1343SOL     OW15487   0.007   0.884   3.408  0.3265  0.6549 -0.2319
 1343SOL    HW115488   0.096   0.910   3.385 -0.2238  3.0177  0.2958
 1343SOL    HW215489   4.683   0.965   3.389  0.2920  0.6292 -0.2577
 1344SOL     OW15490   2.340   2.811  12.177 -0.3359 -0.2909  0.2744
 1344SOL    HW115491   2.411   2.755  12.209  0.2621  0.7311  0.7176
 1344SOL    HW215492   2.391   2.873  12.125 -0.3171 -2.1353 -1.9516
 1345SOL     OW15493   3.656   3.360   1.752  0.0306 -0.5987 -0.4659
 1345SOL    HW115494   3.576   3.382   1.704  0.4173 -1.3742 -1.4751
 1345SOL    HW215495   3.637   3.275   1.790  0.9485 -1.0721 -1.0660
 1346SOL     OW15496   2.786   4.124   0.567 -0.2430  0.0492  0.4496
 1346SOL    HW115497   2.793   4.030   0.578  0.8479 -0.0840 -1.2326
 1346SOL    HW215498   2.750   4.149   0.651  2.1219 -0.5504  1.6506
 1347SOL     OW15499   3.591   3.145   6.716 -0.0592 -0.0591  0.3031
 1347SOL    HW115500   3.519   3.205   6.696  0.4602  0.1053 -1.1126
 1347SOL    HW215501   3.614   3.175   6.803 -1.6786  3.8207 -0.6100
 1348SOL     OW15502   3.884   0.706   4.283  0.4634  0.1133  0.1513
 1348SOL    HW115503   3.887   0.627   4.229  0.0158  0.0659  0.1986
 1348SOL    HW215504   3.936   0.678   4.359  1.4212 -0.7730 -0.8332
 1349SOL     OW15505   1.835   0.546   6.276  0.8969  0.1694 -0.4048
 1349SOL    HW115506   1.862   0.472   6.222 -2.5323 -2.1490  1.0704
 1349SOL    HW215507   1.909   0.564   6.333 -0.1410  3.0039  0.0737
 1350SOL     OW15508   1.610   3.761   4.230  0.3930  0.4422 -0.3930
 1350SOL    HW115509   1.578   3.844   4.264 -0.6625 -0.5322  1.0028
 1350SOL    HW215510   1.691   3.796   4.193  0.7195 -0.4662 -0.5484
 1351SOL     OW15511   4.302   3.680   8.455 -0.3377 -0.1368  0.1169
 1351SOL    HW115512   4.218   3.658   8.495 -1.5304  0.0635 -2.2623
 1351SOL    HW215513   4.309   3.772   8.481 -0.0160  0.0779 -0.7178
 1352SOL     OW15514   1.620   2.156   8.573  0.3164  0.1303 -0.0992
 1352SOL    HW115515   1.653   2.169   8.661 -1.1838  0.6562  0.3851
 1352SOL    HW215516   1.700   2.166   8.521 -0.9143  0.5017 -1.9302
 1353SOL     OW15517   3.904   2.179   6.250 -0.0224  0.3641 -0.7003
 1353SOL    HW115518   3.919   2.254   6.308 -4.1538 -0.2316  1.1471
 1353SOL    HW215519   3.893   2.112   6.317 -0.3478  0.9035 -0.2120
 1354SOL     OW15520   1.141   4.354  17.314 -0.4770  0.4009  0.2513
 1354SOL    HW115521   1.100   4.366  17.400  0.9688  0.4447  0.9341
 1354SOL    HW215522   1.071   4.387  17.257 -0.3833  0.0226 -0.0840
 1355SOL     OW15523   4.024   0.061   6.491  0.3074  0.8889  0.6858
 1355SOL    HW115524   3.931   0.041   6.504  1.0267 -1.6955  1.7506
 1355SOL    HW215525   4.038   0.070   6.397 -2.8555  3.1431  0.4151
 1356SOL     OW15526   0.227   2.359   2.901 -0.7635 -0.1787 -0.5614
 1356SOL    HW115527   0.168   2.413   2.954  1.4509  1.8412 -0.1289
 1356SOL    HW215528   0.176   2.303   2.842 -1.1301 -2.5445  2.0416
 1357SOL     OW15529   2.969   4.446  14.801  0.9966 -0.3825 -0.0463
 1357SOL    HW115530   2.882   4.484  14.788  0.7165 -0.4547  1.6256
 1357SOL    HW215531   3.013   4.500  14.735 -0.9652  2.1201  0.6871
 1358SOL     OW15532   0.968   1.492   7.889  0.0296 -0.3476 -0.2676
 1358SOL    HW115533   1.061   1.475   7.874  0.0956 -1.4193  1.3832
 1358SOL    HW215534   0.931   1.430   7.827  0.4144  0.1171 -0.9594
 1359SOL     OW15535   4.358   4.624  13.348  0.3771 -0.3104 -0.0434
 1359SOL    HW115536   4.354   4.534  13.380 -1.3331 -0.6535 -1.2139
 1359SOL    HW215537   4.408   4.659  13.422  0.8692 -1.1022 -0.0053
 1360SOL     OW15538   3.239   2.278   0.285  0.9454 -0.8857 -0.6770
 1360SOL    HW115539   3.331   2.302   0.283  0.8586 -0.5165 -0.2052
 1360SOL    HW215540   3.242   2.183   0.301  0.4764 -0.6008  1.0535
 1361SOL     OW15541   1.693   2.946   5.506 -0.1945  0.7684 -0.1688
 1361SOL    HW115542   1.720   2.966   5.416  1.8686 -1.4598 -0.0365
 1361SOL    HW215543   1.644   2.865   5.495 -0.4342  0.8503  0.3062
 1362SOL     OW15544   0.316   0.218   3.609  0.3388 -0.2745  0.1004
 1362SOL    HW115545   0.332   0.284   3.542 -1.6135  0.1245  0.0240
 1362SOL    HW215546   0.246   0.176   3.559 -0.8621  2.8840 -0.8697
 1363SOL     OW15547   1.478   4.621   2.862 -0.0766 -0.0073  0.0126
 1363SOL    HW115548   1.553   4.563   2.875 -0.4188 -0.5594 -0.4679
 1363SOL    HW215549   1.480   4.624   2.767  2.2319 -1.7869  0.0015
 1364SOL     OW15550   0.037   3.450   3.254  0.0995 -0.4068 -0.2497
 1364SOL    HW115551   0.062   3.483   3.168  0.5770 -0.9238 -0.3095
 1364SOL    HW215552   0.068   3.360   3.263  0.3315 -0.5037 -2.0853
 1365SOL     OW15553   2.695   0.319   5.757  0.0218  0.4362 -0.4535
 1365SOL    HW115554   2.672   0.255   5.689 -0.5392 -3.2834  3.1746
 1365SOL    HW215555   2.679   0.260   5.830  0.6193  1.9532  0.8931
 1366SOL     OW15556   0.860   2.946   8.087 -0.3053  0.8453  0.0539
 1366SOL    HW115557   0.887   2.857   8.108 -1.0878  1.0760  2.0904
 1366SOL    HW215558   0.908   2.950   8.005  1.4357 -0.0903  1.0405
 1367SOL     OW15559   3.540   3.045   2.233 -0.1916  0.2451  0.2839
 1367SOL    HW115560   3.529   2.961   2.277  0.6103 -0.8876 -1.6879
 1367SOL    HW215561   3.634   3.052   2.219 -0.0995  0.6299  1.1199
 1368SOL     OW15562   4.028   2.460  10.797  0.0919  0.0907 -0.9103
 1368SOL    HW115563   3.984   2.527  10.850  0.8402  1.8941 -2.5725
 1368SOL    HW215564   3.981   2.459  10.714  1.4532  2.6288 -1.7133
 1369SOL     OW15565   1.243   2.615   2.718 -0.1517 -0.4712 -0.4272
 1369SOL    HW115566   1.315   2.662   2.676 -0.2971  1.4946  1.5582
 1369SOL    HW215567   1.264   2.526   2.687 -1.1510 -1.1907  0.9836
 1370SOL     OW15568   4.494   2.903  14.787 -0.0461  0.0204  0.0011
 1370SOL    HW115569   4.415   2.860  14.818  0.8022 -1.0506  0.7087
 1370SOL    HW215570   4.509   2.856  14.705 -1.4638 -1.4736  0.5991
 1371SOL     OW15571   3.453   2.917   4.398  0.4178  0.6276 -0.1566
 1371SOL    HW115572   3.457   2.936   4.304 -0.1679 -1.3795 -0.5819
 1371SOL    HW215573   3.471   3.006   4.429  0.4207  1.7010 -3.3168
 1372SOL     OW15574   1.971   4.213   6.649  0.6380 -0.2640 -0.3332
 1372SOL    HW115575   1.914   4.163   6.708 -0.0949  0.3408 -0.5296
 1372SOL    HW215576   2.036   4.144   6.631  0.7642 -0.2985  0.2494
 1373SOL     OW15577   1.309   4.242   7.463  0.3335  0.1238 -0.2603
 1373SOL    HW115578   1.239   4.183   7.491 -1.6435  1.3521 -2.6056
 1373SOL    HW215579   1.326   4.193   7.383 -1.4713 -1.1848  0.1453
 1374SOL     OW15580   1.394   2.547   7.893  0.1640  0.6279  0.0913
 1374SOL    HW115581   1.442   2.551   7.810 -1.0958  1.2953 -0.6069
 1374SOL    HW215582   1.389   2.452   7.908  0.7607  0.1524 -2.6434
 1375SOL     OW15583   0.407   2.255   1.344  0.0217 -0.7841  0.4745
 1375SOL    HW115584   0.492   2.217   1.320 -0.3604 -0.8496 -0.7603
 1375SOL    HW215585   0.383   2.280   1.255  1.7466  2.3260  0.8616
 1376SOL     OW15586   3.199   0.664  12.424 -0.1317  0.3204 -0.3150
 1376SOL    HW115587   3.194   0.750  12.466  0.1342  0.6208 -0.9049
 1376SOL    HW215588   3.108   0.635  12.428 -0.7569  2.2558 -0.2246
 1377SOL     OW15589   2.943   0.432  15.371 -0.4706  0.4960 -0.3767
 1377SOL    HW115590   2.979   0.442  15.459 -0.9477  1.1139 -0.2559
 1377SOL    HW215591   2.935   0.337  15.363  1.2212  0.4900 -1.8917
 1378SOL     OW15592   0.051   0.722   7.948 -0.1120  0.1766 -0.0935
 1378SOL    HW115593   0.005   0.654   7.997  1.0733 -0.9786 -0.5768
 1378SOL    HW215594   0.089   0.781   8.012  0.9081  1.7216 -2.1184
 1379SOL     OW15595   2.924   4.429   8.175 -0.2755  0.1090 -0.2580
 1379SOL    HW115596   3.008   4.468   8.199  0.2737 -3.0144  2.8122
 1379SOL    HW215597   2.903   4.369   8.247 -1.5217  0.5022 -0.2889
 1380SOL     OW15598   2.129   1.733   3.971 -0.0832  0.4322 -0.5362
 1380SOL    HW115599   2.177   1.652   3.986 -0.0668  0.8788  1.8701
 1380SOL    HW215600   2.085   1.734   4.056 -0.1280 -0.2564 -0.5530
 1381SOL     OW15601   3.261   3.228  11.290  0.3013  0.1805  0.6774
 1381SOL    HW115602   3.213   3.153  11.325 -0.3006 -0.6196 -1.7984
 1381SOL    HW215603   3.227   3.306  11.333  0.1475  0.7170 -0.4182
 1382SOL     OW15604   4.654   1.420   5.341  0.1920 -0.8406 -0.1299
 1382SOL    HW115605   4.666   1.485   5.410  2.7696 -1.8655  0.3682
 1382SOL    HW215606   4.560   1.407   5.328  0.0759 -0.0977 -0.0258
 1383SOL     OW15607   1.996   2.804  16.124  0.2937 -0.5713  0.6400
 1383SOL    HW115608   2.019   2.878  16.067 -0.7385 -1.9603 -1.5946
 1383SOL    HW215609   1.915   2.782  16.077 -0.6349  1.4640  1.2704
 1384SOL     OW15610   4.125   2.322   2.431  0.7233  0.0864 -0.4747
 1384SOL    HW115611   4.194   2.258   2.413  0.2088 -0.7185  0.4081
 1384SOL    HW215612   4.126   2.366   2.346  0.5492 -1.4055 -1.2566
 1385SOL     OW15613   3.633   1.696  16.847  0.2573  0.5036  0.1282
 1385SOL    HW115614   3.542   1.725  16.847  0.5447  1.4119  0.1291
 1385SOL    HW215615   3.669   1.783  16.831  1.1297  0.0453 -0.4478
 1386SOL     OW15616   0.514   2.657   4.899  0.3061 -0.0096 -0.5375
 1386SOL    HW115617   0.461   2.630   4.824  2.1542 -0.7643 -1.5723
 1386SOL    HW215618   0.477   2.738   4.935  1.4506  0.6618 -0.8813
 1387SOL     OW15619   1.543   2.978   6.365 -0.1267  0.4504  0.3387
 1387SOL    HW115620   1.499   3.058   6.338  2.9043  1.6892 -0.9218
 1387SOL    HW215621   1.473   2.933   6.412  1.3978 -0.9168  1.3001
 1388SOL     OW15622   2.416   2.051   0.981 -0.0347  0.2539 -0.4858
 1388SOL    HW115623   2.455   2.099   1.053  3.0669 -1.6181 -0.9031
 1388SOL    HW215624   2.434   2.115   0.912 -0.0836 -1.4477 -2.0981
 1389SOL     OW15625   2.150   0.276   4.733 -0.0731  0.7699  0.3091
 1389SOL    HW115626   2.167   0.326   4.653  1.5841  0.3609  0.4046
 1389SOL    HW215627   2.057   0.256   4.728  0.2476 -0.4522 -0.6104
 1390SOL     OW15628   3.671   0.375   0.314 -0.4903  0.0686 -0.3558
 1390SOL    HW115629   3.692   0.432   0.240 -0.8766  1.3397  0.5119
 1390SOL    HW215630   3.684   0.293   0.265 -1.5064 -0.0636 -0.3994
 1391SOL     OW15631   2.203   3.675   5.724 -0.2571  0.5479 -0.9129
 1391SOL    HW115632   2.294   3.648   5.739 -0.1585  0.5901 -1.4476
 1391SOL    HW215633   2.161   3.601   5.767  3.0473 -0.2942  0.8820
 1392SOL     OW15634   0.169   2.043   4.553  0.4334 -0.0050 -0.1715
 1392SOL    HW115635   0.100   2.098   4.517 -1.1387 -2.0409 -0.2507
 1392SOL    HW215636   0.183   2.098   4.630 -1.1157 -0.4321  0.4028
 1393SOL     OW15637   0.826   3.463  11.341 -0.6864  0.2207 -0.1420
 1393SOL    HW115638   0.786   3.453  11.427  0.9533 -0.2240  0.5785
 1393SOL    HW215639   0.883   3.536  11.365 -2.1468  1.2335  0.2047
 1394SOL     OW15640   3.045   0.073   8.416  0.1315 -0.1087  0.4531
 1394SOL    HW115641   3.075   0.163   8.427  0.2928 -0.2730  1.2946
 1394SOL    HW215642   2.958   0.074   8.455  0.2312  0.7814  0.6545
 1395SOL     OW15643   1.543   0.723   9.878  0.3794  0.0035  0.0629
 1395SOL    HW115644   1.611   0.726   9.811 -0.5071 -0.6844 -0.8633
 1395SOL    HW215645   1.583   0.779   9.944 -0.0202  1.5943 -1.0232
 1396SOL     OW15646   1.801   3.891   8.645  0.2747 -0.2574 -0.0374
 1396SOL    HW115647   1.762   3.931   8.723 -0.8568 -0.7501 -0.3517
 1396SOL    HW215648   1.794   3.798   8.665  1.3385 -0.3571 -0.1180
 1397SOL     OW15649   4.510   0.140   4.302  0.2120  0.6694  0.6235
 1397SOL    HW115650   4.572   0.164   4.233  0.5329 -1.5508  0.1239
 1397SOL    HW215651   4.536   0.050   4.323 -0.1913  0.1631 -1.0408
 1398SOL     OW15652   0.583   4.489   5.634 -0.2393 -0.1221 -0.0269
 1398SOL    HW115653   0.650   4.505   5.700  0.1146  1.0115 -0.6785
 1398SOL    HW215654   0.505   4.522   5.679 -0.4277 -1.3819  0.5886
 1399SOL     OW15655   4.069   2.484   4.050  0.0068 -0.0567 -0.1493
 1399SOL    HW115656   4.125   2.418   4.009 -0.9836 -0.4417 -0.8578
 1399SOL    HW215657   4.108   2.490   4.137  1.5730 -0.7246 -0.8006
 1400SOL     OW15658   1.405   2.288   7.956  0.0208 -0.3768 -0.7568
 1400SOL    HW115659   1.399   2.194   7.940  0.7148 -0.6351  0.5243
 1400SOL    HW215660   1.457   2.298   8.036 -2.1452 -1.1596  0.7407
 1401SOL     OW15661   4.655   2.736   7.896 -0.5416 -0.2480 -0.5221
 1401SOL    HW115662   4.636   2.808   7.956  2.3059  0.2091 -0.1869
 1401SOL    HW215663   0.011   2.766   7.849  0.1373 -2.4553 -0.7939
 1402SOL     OW15664   0.770   2.942   0.374 -0.6109 -0.0511  0.0816
 1402SOL    HW115665   0.834   2.888   0.419  0.2184  1.3134  0.5334
 1402SOL    HW215666   0.804   2.936   0.285 -0.7262 -2.0512  0.1610
 1403SOL     OW15667   0.606   1.664   5.484  0.2779  0.1078 -0.1839
 1403SOL    HW115668   0.643   1.659   5.572 -0.4338 -2.0882 -0.0063
 1403SOL    HW215669   0.516   1.643   5.510  0.1148  1.7545  0.5472
 1404SOL     OW15670   2.073   1.622   5.048  0.5416  0.5981 -0.4665
 1404SOL    HW115671   2.064   1.700   4.993 -0.5374  0.8352  0.0487
 1404SOL    HW215672   1.980   1.614   5.069  0.6083  0.6671 -0.1395
 1405SOL     OW15673   1.818   1.475  13.078 -0.5638  0.7065 -0.0359
 1405SOL    HW115674   1.868   1.494  12.998  2.0708 -3.5840  0.5942
 1405SOL    HW215675   1.726   1.494  13.058 -1.1937 -0.8608  1.4117
 1406SOL     OW15676   3.634   2.111  11.936 -0.4534 -0.5670  0.3113
 1406SOL    HW115677   3.619   2.057  11.858  0.0604  0.4820 -0.5106
 1406SOL    HW215678   3.567   2.081  11.998 -0.0875  0.7820  1.3608
 1407SOL     OW15679   0.045   1.577   2.721  0.5255  0.4416  0.3258
 1407SOL    HW115680   4.690   1.588   2.776  1.3431  3.0730  0.9789
 1407SOL    HW215681   0.114   1.576   2.788  0.2910 -1.4382  0.5323
 1408SOL     OW15682   3.022   0.254  15.036 -0.5199  0.2809 -0.0064
 1408SOL    HW115683   3.016   0.169  14.994  3.2997  0.5748 -1.1087
 1408SOL    HW215684   3.106   0.246  15.081 -0.8949 -1.0788  0.4459
 1409SOL     OW15685   4.487   2.610   2.984  0.1963 -0.4589  0.4983
 1409SOL    HW115686   4.496   2.702   2.961 -0.0115 -1.1624 -2.3642
 1409SOL    HW215687   4.427   2.615   3.059 -1.8359 -1.0831 -1.0844
 1410SOL     OW15688   0.680   0.195  11.066  0.3064  0.0945 -0.5988
 1410SOL    HW115689   0.592   0.223  11.040 -0.4054  0.2325  1.9784
 1410SOL    HW215690   0.739   0.268  11.044  2.4004 -2.0123 -1.9098
 1411SOL     OW15691   1.308   0.694   8.599 -0.4205 -0.4654 -0.4144
 1411SOL    HW115692   1.315   0.763   8.666  1.0229 -0.8814 -0.1355
 1411SOL    HW215693   1.318   0.620   8.659  1.5363  1.4178  1.5806
 1412SOL     OW15694   2.541   0.889   4.226  0.1235 -0.1298  0.1855
 1412SOL    HW115695   2.588   0.969   4.202 -0.8781  0.9820  1.9260
 1412SOL    HW215696   2.566   0.831   4.153 -1.2839 -1.0723  0.4423
 1413SOL     OW15697   3.554   1.649  15.696 -0.0759 -0.5462  0.5584
 1413SOL    HW115698   3.484   1.700  15.654 -1.0188 -1.6414  0.8146
 1413SOL    HW215699   3.621   1.717  15.687 -0.2311 -0.2352  1.8054
 1414SOL     OW15700   2.358   4.717   9.387 -0.3636 -0.3089  0.0037
 1414SOL    HW115701   2.308   0.064   9.344  0.6685  0.3610 -0.1140
 1414SOL    HW215702   2.330   0.004   9.478 -0.3580  0.9899 -0.1269
 1415SOL     OW15703   4.247   2.349   3.886 -0.2308  0.2550  0.0942
 1415SOL    HW115704   4.285   2.437   3.881  1.7531 -0.6906 -2.0048
 1415SOL    HW215705   4.313   2.295   3.840  0.5843  1.0251  0.3569
 1416SOL     OW15706   3.287   3.560   6.278  0.2679  0.1605  0.2690
 1416SOL    HW115707   3.218   3.497   6.297  1.7696 -1.3228  0.8182
 1416SOL    HW215708   3.267   3.587   6.189 -1.1181  2.5133  1.3048
 1417SOL     OW15709   4.591   1.437  11.453 -0.7810  0.4078 -1.1334
 1417SOL    HW115710   4.685   1.451  11.467 -0.7061  0.8892 -2.1267
 1417SOL    HW215711   4.577   1.434  11.358  1.3254  1.5319 -1.4902
 1418SOL     OW15712   1.179   1.047   7.996  0.5860  0.0556  0.2153
 1418SOL    HW115713   1.239   1.102   7.947  1.2155 -0.0838  0.8330
 1418SOL    HW215714   1.194   1.078   8.085 -1.6818 -0.9770  0.9721
 1419SOL     OW15715   0.901   0.103   4.919 -0.1787 -0.4128 -0.2839
 1419SOL    HW115716   0.916   0.194   4.895  1.8663 -0.7071 -0.1302
 1419SOL    HW215717   0.899   0.110   5.014  2.5638 -0.7005 -0.1890
 1420SOL     OW15718   0.268   1.446  16.946  0.5020 -0.1273  0.5685
 1420SOL    HW115719   0.249   1.471  17.036  4.1090  2.7151  0.5642
 1420SOL    HW215720   0.248   1.352  16.949  0.5643 -0.0893  1.9018
 1421SOL     OW15721   0.216   0.133  16.599 -0.2286 -0.4752  0.2699
 1421SOL    HW115722   0.291   0.165  16.648 -0.3235  1.0988 -0.6056
 1421SOL    HW215723   0.143   0.164  16.653 -1.2998  0.1194 -1.5232
 1422SOL     OW15724   3.293   4.172  15.330  0.4771  0.4955 -0.0744
 1422SOL    HW115725   3.292   4.200  15.239 -0.4183  1.2460  0.1619
 1422SOL    HW215726   3.298   4.078  15.315  1.9583  0.2925  1.6598
 1423SOL     OW15727   2.421   3.391  15.965  0.3030 -0.0270 -0.0115
 1423SOL    HW115728   2.492   3.326  15.970 -0.6885 -1.1167 -0.1344
 1423SOL    HW215729   2.439   3.447  16.041  0.7789 -0.2188  0.0244
 1424SOL     OW15730   2.764   1.752  14.521 -0.1128  0.2391  0.3738
 1424SOL    HW115731   2.676   1.751  14.557 -0.5928 -1.1509 -0.8597
 1424SOL    HW215732   2.800   1.840  14.536 -2.4948  1.8124 -3.3088
 1425SOL     OW15733   1.036   4.168   0.084  0.3222 -0.1249 -0.6121
 1425SOL    HW115734   1.077   4.084   0.103 -0.8110 -0.0158  2.3111
 1425SOL    HW215735   0.991   4.189   0.166  1.0554  0.3821 -0.3397
 1426SOL     OW15736   4.278   0.074   9.203 -0.1101  0.5982  0.1947
 1426SOL    HW115737   4.184   0.082   9.186 -0.2165 -0.8927  0.0786
 1426SOL    HW215738   4.297   4.716   9.156  3.2899  1.8578 -0.5665
 1427SOL     OW15739   1.480   2.472   1.232 -0.1043 -0.1618 -0.4555
 1427SOL    HW115740   1.563   2.483   1.187 -0.7138  2.6223 -0.8993
 1427SOL    HW215741   1.496   2.520   1.314  3.1398 -1.9154 -0.0467
 1428SOL     OW15742   3.006   2.650   8.755  0.2581 -0.2658 -0.6649
 1428SOL    HW115743   3.051   2.705   8.820 -1.5654  1.3246 -0.7387
 1428SOL    HW215744   2.920   2.692   8.764  0.6157  0.6601 -1.6682
 1429SOL     OW15745   2.169   4.541   2.294  0.1875 -0.0374 -0.4748
 1429SOL    HW115746   2.118   4.489   2.233 -0.0895  0.3422 -0.5635
 1429SOL    HW215747   2.253   4.525   2.249  0.8203  1.5086  0.1635
 1430SOL     OW15748   0.126   1.436   8.280 -0.2039 -0.1622  0.0771
 1430SOL    HW115749   0.081   1.398   8.355  0.9293 -0.4700  0.6051
 1430SOL    HW215750   0.180   1.507   8.313  0.8395  1.2139 -4.5024
 1431SOL     OW15751   1.986   2.438   6.818 -0.4509  0.1071 -0.4591
 1431SOL    HW115752   1.950   2.359   6.777  1.0556 -1.9511  2.2022
 1431SOL    HW215753   2.052   2.391   6.869  0.4858  1.3423 -0.5484
 1432SOL     OW15754   4.590   4.104  11.856 -0.3617  0.3558  0.3166
 1432SOL    HW115755   4.660   4.042  11.875 -0.1287  0.1512 -1.2154
 1432SOL    HW215756   4.649   4.172  11.824  0.1522 -0.4838 -0.5265
 1433SOL     OW15757   1.751   0.996   2.796  0.1517 -0.5884 -0.3106
 1433SOL    HW115758   1.782   1.050   2.723  0.8079 -0.8446 -0.2172
 1433SOL    HW215759   1.735   0.913   2.751 -3.0203 -0.6170  0.8473
 1434SOL     OW15760   1.088   1.209   5.049 -0.5414  0.4180  0.2251
 1434SOL    HW115761   1.153   1.207   4.979 -0.2347  0.6160  0.5039
 1434SOL    HW215762   1.013   1.255   5.011 -0.0001  0.9963 -0.1489
 1435SOL     OW15763   2.942   1.165  17.301 -0.0109 -0.1983 -0.4024
 1435SOL    HW115764   2.966   1.123  17.218  5.6250 -0.4727  1.3748
 1435SOL    HW215765   2.946   1.254  17.268  0.5224 -0.2025 -0.3439
 1436SOL     OW15766   2.303   4.051   9.087 -0.4554  0.3365  0.6603
 1436SOL    HW115767   2.246   4.115   9.128 -1.3197 -0.1722  0.2518
 1436SOL    HW215768   2.325   3.986   9.155 -0.5523 -0.4014 -0.0085
 1437SOL     OW15769   0.754   2.503  16.456 -0.1766  0.2378  0.6368
 1437SOL    HW115770   0.755   2.458  16.372  0.8221  3.3121 -0.9996
 1437SOL    HW215771   0.679   2.461  16.497 -0.3962 -2.5660 -2.7259
 1438SOL     OW15772   2.850   1.448   2.007  0.1384  0.3418 -0.6974
 1438SOL    HW115773   2.809   1.534   2.005 -1.3929 -0.3666  0.5448
 1438SOL    HW215774   2.940   1.469   2.031  0.6184 -2.3684 -0.1526
 1439SOL     OW15775   0.085   3.117   6.184 -0.2363  0.2785 -0.4025
 1439SOL    HW115776   0.068   3.212   6.187 -2.3118 -0.0694 -1.1540
 1439SOL    HW215777   0.176   3.115   6.211  0.1496 -1.4152 -1.8757
 1440SOL     OW15778   2.396   1.991   8.970  0.1787  0.1270  0.0478
 1440SOL    HW115779   2.387   1.919   9.033  1.8670  1.2387  1.5614
 1440SOL    HW215780   2.488   2.016   8.966  0.0393  0.8805  1.4171
 1441SOL     OW15781   4.502   4.412  17.502  0.0140 -0.2626  0.4507
 1441SOL    HW115782   4.500   4.465  17.582  0.4872 -0.4136  0.5659
 1441SOL    HW215783   4.410   4.432  17.485  0.6773  0.5276 -2.1065
 1442SOL     OW15784   1.753   0.876   8.136  0.3340  0.1477 -0.6338
 1442SOL    HW115785   1.715   0.844   8.053  0.7265  0.2903 -0.8677
 1442SOL    HW215786   1.685   0.941   8.154  3.1228  2.2263  2.2841
 1443SOL     OW15787   0.132   4.234   7.622 -0.1552 -0.3043 -0.0356
 1443SOL    HW115788   0.222   4.235   7.652 -0.4662  0.6392  0.8368
 1443SOL    HW215789   0.122   4.139   7.610  0.1278 -0.6284  2.3666
 1444SOL     OW15790   1.881   1.552   2.750  0.1749  0.4741 -0.1562
 1444SOL    HW115791   1.878   1.468   2.796 -0.7642  1.4793  1.5664
 1444SOL    HW215792   1.963   1.593   2.777  1.0146 -1.2813  0.0120
 1445SOL     OW15793   3.610   1.564   6.472 -0.0272  0.0436 -0.0394
 1445SOL    HW115794   3.587   1.624   6.401  0.1416  0.8122  0.5489
 1445SOL    HW215795   3.618   1.474   6.441  0.9159 -0.2455  1.0375
 1446SOL     OW15796   2.445   3.015   6.993 -0.3911 -0.1682 -0.8187
 1446SOL    HW115797   2.451   2.920   6.986 -1.8757 -0.4363  1.7603
 1446SOL    HW215798   2.529   3.052   6.963 -0.2424  2.6508  3.1743
 1447SOL     OW15799   0.457   1.989   5.755  0.2563  1.0299 -0.0138
 1447SOL    HW115800   0.397   1.915   5.759  0.9744  0.4874  0.8462
 1447SOL    HW215801   0.476   1.995   5.662 -2.6505  0.5969 -0.6195
 1448SOL     OW15802   1.120   0.683   8.876 -0.2427 -0.3908  0.2135
 1448SOL    HW115803   1.125   0.711   8.967 -1.2665 -0.8621  0.4185
 1448SOL    HW215804   1.112   0.767   8.831 -0.4789 -0.2649  0.4882
 1449SOL     OW15805   3.176   3.785   4.743 -0.0551  0.6215 -0.5912
 1449SOL    HW115806   3.162   3.868   4.788 -0.5813  0.4411 -0.4228
 1449SOL    HW215807   3.271   3.792   4.754  0.6260 -2.9605 -4.1412
 1450SOL     OW15808   2.684   2.804   6.060 -0.3206 -0.6957 -0.7264
 1450SOL    HW115809   2.614   2.761   6.108  0.9161 -1.7156  0.1442
 1450SOL    HW215810   2.695   2.876   6.122  2.3706 -0.7700 -1.1205
 1451SOL     OW15811   1.691   0.747   7.115  0.5998  0.0860  0.2485
 1451SOL    HW115812   1.712   0.685   7.045 -3.9132 -0.4649 -0.5706
 1451SOL    HW215813   1.757   0.816   7.115  0.3013  0.3570 -1.6112
 1452SOL     OW15814   1.124   1.005   2.286 -0.5697 -0.7715  1.1799
 1452SOL    HW115815   1.035   1.031   2.263  0.4999  1.0064 -0.9972
 1452SOL    HW215816   1.159   1.085   2.326  1.9703 -0.0197 -2.4590
 1453SOL     OW15817   2.681   0.181   3.499  0.1913 -0.1901  0.2128
 1453SOL    HW115818   2.721   0.172   3.586  1.3676 -1.5751 -0.4737
 1453SOL    HW215819   2.588   0.165   3.517  0.7167  1.6993  4.5889
 1454SOL     OW15820   2.302   1.016  13.184  0.1763 -0.0915  0.4877
 1454SOL    HW115821   2.233   0.971  13.135 -0.2642  0.2384  0.8036
 1454SOL    HW215822   2.379   0.960  13.173  1.3900  1.6043  0.1942
 1455SOL     OW15823   2.994   3.298   3.510 -0.2458 -0.1277 -0.1557
 1455SOL    HW115824   3.064   3.332   3.454  1.0041  0.1867  1.5837
 1455SOL    HW215825   2.935   3.276   3.438  0.8710 -1.1189 -0.7692
 1456SOL     OW15826   0.789   4.369  14.399  0.4059  0.0953  0.1542
 1456SOL    HW115827   0.785   4.437  14.466  0.1895  1.6450 -1.4436
 1456SOL    HW215828   0.769   4.421  14.322  0.5306  0.9131  0.6761
 1457SOL     OW15829   2.983   2.346   4.853  0.1110  0.2621  0.4454
 1457SOL    HW115830   2.910   2.306   4.899 -1.0749  0.9498 -0.8340
 1457SOL    HW215831   3.044   2.350   4.927 -0.9169 -0.3572  1.3180
 1458SOL     OW15832   3.397   1.062  11.673  0.2716  0.0031 -0.3730
 1458SOL    HW115833   3.419   1.087  11.762 -0.2650  0.5898 -0.4014
 1458SOL    HW215834   3.355   0.981  11.699  2.1552  0.1551  3.1803
 1459SOL     OW15835   3.440   0.600   3.173 -0.3700 -0.2679  0.5981
 1459SOL    HW115836   3.431   0.694   3.186 -0.3023 -0.3495  1.2229
 1459SOL    HW215837   3.395   0.573   3.252 -0.7817 -0.6054  0.2479
 1460SOL     OW15838   3.779   1.471   8.523 -0.3248 -0.2356  0.0476
 1460SOL    HW115839   3.803   1.558   8.554 -0.7059 -0.7087  1.7037
 1460SOL    HW215840   3.770   1.478   8.428 -1.3069 -0.6029  0.1126
 1461SOL     OW15841   2.052   1.938   5.745 -0.3533 -0.2746 -0.0053
 1461SOL    HW115842   2.013   1.851   5.744  0.2900 -0.5602 -0.2470
 1461SOL    HW215843   2.075   1.938   5.838 -0.2130  1.2782 -0.0277
 1462SOL     OW15844   1.790   0.950   9.530  0.2045 -0.3918 -1.0118
 1462SOL    HW115845   1.850   0.897   9.477  0.8350 -2.1174  1.4591
 1462SOL    HW215846   1.847   1.016   9.571  0.0195 -1.0479  0.2709
 1463SOL     OW15847   3.324   1.338  13.901  0.1495  0.3888  0.5700
 1463SOL    HW115848   3.255   1.401  13.921  0.2878 -0.0808  2.4712
 1463SOL    HW215849   3.367   1.369  13.821  0.2215 -1.5438 -0.1717
 1464SOL     OW15850   2.033   2.632   6.614  0.3434  0.1628  0.1568
 1464SOL    HW115851   1.944   2.666   6.618 -0.1579 -0.9390 -1.8247
 1464SOL    HW215852   2.019   2.567   6.684  0.7258  0.7960  0.8244
 1465SOL     OW15853   3.197   1.444   6.487  0.0691  0.1928  0.0434
 1465SOL    HW115854   3.223   1.357   6.456  1.7495  1.4950 -2.1792
 1465SOL    HW215855   3.104   1.464   6.472 -0.3121  0.6064  2.9047
 1466SOL     OW15856   0.081   3.771   9.245  0.3911 -0.6116  0.3765
 1466SOL    HW115857   0.001   3.821   9.257  0.4810 -0.7353  1.4737
 1466SOL    HW215858   0.053   3.715   9.172  1.9449 -0.8381 -0.0526
 1467SOL     OW15859   4.306   1.069   4.076 -0.2638  0.1825 -0.8046
 1467SOL    HW115860   4.282   1.021   3.997 -2.0172  0.3940 -0.4092
 1467SOL    HW215861   4.260   1.012   4.138  2.3552  0.8009  1.6917
 1468SOL     OW15862   3.168   2.199   6.020 -0.6667 -1.0626 -0.0744
 1468SOL    HW115863   3.197   2.176   6.108  0.2936  1.4793  0.2662
 1468SOL    HW215864   3.080   2.162   6.030 -0.3391 -2.2069 -1.4005
 1469SOL     OW15865   2.011   1.368   5.549  0.0204  0.2167  0.3026
 1469SOL    HW115866   2.018   1.356   5.454  2.1708 -3.2626  0.9004
 1469SOL    HW215867   1.938   1.307   5.559 -0.5482  0.7439 -0.6191
 1470SOL     OW15868   3.305   4.475  15.159 -0.3087 -0.1015 -0.3436
 1470SOL    HW115869   3.291   4.507  15.070 -2.1083 -0.5638 -0.2219
 1470SOL    HW215870   3.287   4.384  15.138 -2.4823  0.0514  0.8368
 1471SOL     OW15871   1.401   2.953   8.135 -0.2509  0.3247 -0.0451
 1471SOL    HW115872   1.479   3.009   8.132 -0.2750  0.2566 -2.3847
 1471SOL    HW215873   1.337   3.011   8.095 -0.1710  1.2268  1.1426
 1472SOL     OW15874   1.869   0.121   5.104 -0.7047 -0.3877 -0.1152
 1472SOL    HW115875   1.945   0.171   5.075  0.2771 -1.7365  0.1273
 1472SOL    HW215876   1.835   0.180   5.172  1.0413 -1.1569  1.4306
 1473SOL     OW15877   4.011   4.071   7.289  0.8031 -0.2480 -0.1501
 1473SOL    HW115878   3.939   4.093   7.230 -0.4159 -0.8060  1.1425
 1473SOL    HW215879   3.983   4.107   7.373 -0.9735 -1.2570 -0.3220
 1474SOL     OW15880   4.293   2.520   7.580 -0.1062 -0.5801  0.1182
 1474SOL    HW115881   4.292   2.603   7.531  0.2415 -1.5115 -1.4798
 1474SOL    HW215882   4.387   2.515   7.599  0.2433 -1.3983 -1.7382
 1475SOL     OW15883   2.816   2.654   7.577 -0.2670  0.3571  0.4583
 1475SOL    HW115884   2.762   2.637   7.654  0.9212 -2.1006  0.7240
 1475SOL    HW215885   2.863   2.731   7.608  0.3700  0.2026 -0.1377
 1476SOL     OW15886   0.335   0.110  16.337 -0.3266 -0.1975 -0.2003
 1476SOL    HW115887   0.295   0.118  16.424  0.4289  1.4189  0.0116
 1476SOL    HW215888   0.256   0.120  16.284  0.4357  0.8582 -1.1383
 1477SOL     OW15889   0.070   3.591   2.511 -0.5927  0.1358  1.0469
 1477SOL    HW115890   0.149   3.641   2.530 -0.1218  0.0280 -0.6445
 1477SOL    HW215891   0.076   3.568   2.418 -1.2728  1.1859  0.7563
 1478SOL     OW15892   4.285   4.561  13.690 -0.2801  0.2675  0.2550
 1478SOL    HW115893   4.372   4.577  13.656 -1.1394 -0.1309 -2.0824
 1478SOL    HW215894   4.263   4.634  13.749  1.0568  1.8351 -1.2027
 1479SOL     OW15895   0.887   3.295   0.466 -0.5461  0.2141  0.4825
 1479SOL    HW115896   0.878   3.249   0.382 -2.1476 -0.7031  1.1623
 1479SOL    HW215897   0.915   3.381   0.435 -1.9432  0.9763  1.3628
 1480SOL     OW15898   3.445   3.743   6.390 -0.2022  0.0145 -0.9574
 1480SOL    HW115899   3.520   3.747   6.331 -0.0444 -0.3404 -0.7814
 1480SOL    HW215900   3.390   3.675   6.351  0.8283 -1.1268 -0.4297
 1481SOL     OW15901   2.593   2.600   8.238  0.7006  0.6809  1.1217
 1481SOL    HW115902   2.606   2.540   8.312 -0.0454 -0.0088  0.6943
 1481SOL    HW215903   2.573   2.684   8.280  2.2956  0.6329  1.9872
 1482SOL     OW15904   1.653   1.688  12.078  0.0805  0.1662  0.3325
 1482SOL    HW115905   1.679   1.676  11.987 -2.2974 -1.8364 -0.0705
 1482SOL    HW215906   1.564   1.653  12.084 -0.1865  0.4634 -2.0236
 1483SOL     OW15907   0.580   3.876  12.358 -0.7810  0.3598 -1.2022
 1483SOL    HW115908   0.549   3.840  12.441  3.3465  1.3084  0.7304
 1483SOL    HW215909   0.520   3.950  12.347  0.3684  1.0490 -2.7733
 1484SOL     OW15910   4.341   3.642   3.347  0.4819 -0.1659 -0.6154
 1484SOL    HW115911   4.327   3.626   3.254 -1.7346 -1.8514  0.0283
 1484SOL    HW215912   4.429   3.679   3.357  0.0974  0.7110 -0.4899
 1485SOL     OW15913   1.661   0.479  10.195 -0.1157 -0.1004  0.5679
 1485SOL    HW115914   1.654   0.394  10.239 -0.4449 -1.6088 -2.4120
 1485SOL    HW215915   1.616   0.537  10.257 -0.4255 -1.7820  1.9254
 1486SOL     OW15916   0.909   2.195   5.498  0.3109 -0.6352 -0.3301
 1486SOL    HW115917   1.004   2.187   5.507  0.3416  0.9271  0.7667
 1486SOL    HW215918   0.903   2.163   5.408  1.3394 -0.8619 -0.3184
 1487SOL     OW15919   4.615   4.697  10.082  0.9120  0.6471  0.6733
 1487SOL    HW115920   4.626   4.644  10.003  0.9439  2.3637 -0.4733
 1487SOL    HW215921   4.619   4.623  10.142  1.9745  0.7979  0.7971
 1488SOL     OW15922   0.157   4.452  10.695  0.2733  0.2872 -0.0562
 1488SOL    HW115923   0.141   4.377  10.752  1.1430  0.3248  0.2329
 1488SOL    HW215924   0.136   4.418  10.608  0.4397 -2.5263  0.9964
 1489SOL     OW15925   0.121   0.073   3.478  0.3509  0.1629  0.2537
 1489SOL    HW115926   0.087   0.001   3.425 -0.3518 -0.0731  1.0301
 1489SOL    HW215927   0.124   0.137   3.407 -0.7598  0.1500  0.1943
 1490SOL     OW15928   1.901   2.056   9.270 -0.0565  0.3311  0.0936
 1490SOL    HW115929   1.982   2.008   9.254  0.2666  0.6907  0.6216
 1490SOL    HW215930   1.931   2.133   9.320  0.4572 -2.3297  3.8944
 1491SOL     OW15931   2.116   1.807   3.355  0.1124 -0.0628 -0.2257
 1491SOL    HW115932   2.093   1.899   3.370 -1.1066 -0.2498 -0.9103
 1491SOL    HW215933   2.211   1.814   3.356 -0.0087  1.4337  0.5473
 1492SOL     OW15934   0.209   3.157   7.554  0.0261 -0.0522  0.2140
 1492SOL    HW115935   0.144   3.087   7.561  1.5629 -1.5099 -0.1203
 1492SOL    HW215936   0.155   3.235   7.566 -0.2093 -0.2399  0.3843
 1493SOL     OW15937   3.793   3.098   7.482  0.1922  0.7225 -0.5664
 1493SOL    HW115938   3.716   3.143   7.447 -0.4493  0.2101  0.1812
 1493SOL    HW215939   3.785   3.114   7.576 -0.8848  2.3795 -0.9362
 1494SOL     OW15940   0.445   2.238   1.924  0.4575 -0.3830  0.1643
 1494SOL    HW115941   0.464   2.191   1.843  1.2088  1.1304 -0.5343
 1494SOL    HW215942   0.532   2.271   1.944 -0.6384  1.1699  2.4975
 1495SOL     OW15943   2.697   4.209   0.817 -0.3181 -0.1719  0.4204
 1495SOL    HW115944   2.654   4.275   0.871  1.3411 -0.7593  2.4579
 1495SOL    HW215945   2.736   4.145   0.877  0.1988 -2.4924 -2.3645
 1496SOL     OW15946   2.430   4.595  10.057 -0.1001 -0.3777 -0.1005
 1496SOL    HW115947   2.364   4.527  10.056  0.5396 -0.9883 -0.7909
 1496SOL    HW215948   2.454   4.598   9.965 -0.9071  3.2004 -0.1882
 1497SOL     OW15949   3.259   0.256   5.322 -0.1348 -0.0998 -0.5971
 1497SOL    HW115950   3.180   0.202   5.324 -0.1086 -0.0996  0.7464
 1497SOL    HW215951   3.229   0.343   5.297  1.2951  1.1761  2.1710
 1498SOL     OW15952   4.289   4.250   2.973  0.7623 -0.0695  0.5435
 1498SOL    HW115953   4.355   4.308   2.935  1.4810 -0.2296  1.5243
 1498SOL    HW215954   4.278   4.196   2.894  2.4742  1.6175 -0.8426
 1499SOL     OW15955   3.544   2.468   2.154 -0.0180  0.4086 -0.4062
 1499SOL    HW115956   3.490   2.389   2.150  0.3645  0.2996 -3.1176
 1499SOL    HW215957   3.477   2.531   2.128  0.1761  0.7926  0.0237
 1500SOL     OW15958   2.963   0.453  12.247  0.4953 -0.7271 -0.5509
 1500SOL    HW115959   2.925   0.424  12.164  0.5594  1.6158 -1.4076
 1500SOL    HW215960   3.056   0.435  12.233  0.3767 -1.4883 -0.3593
 1501SOL     OW15961   1.851   0.007   2.083  0.2845  0.4567  0.4913
 1501SOL    HW115962   1.926   0.051   2.123 -0.1772  1.3577  0.3639
 1501SOL    HW215963   1.789   0.075   2.056 -0.0668  0.0884  0.3779
 1502SOL     OW15964   4.613   4.017   3.237 -0.2932 -0.1144 -0.4259
 1502SOL    HW115965   4.681   4.055   3.181 -0.3054 -2.0548 -1.7634
 1502SOL    HW215966   4.661   3.997   3.317  0.1039  0.4312 -0.5256
 1503SOL     OW15967   1.723   2.755   7.974 -0.5199 -0.0207 -0.0237
 1503SOL    HW115968   1.786   2.785   8.040  0.5692 -0.2683 -0.9502
 1503SOL    HW215969   1.765   2.803   7.902  1.3654  0.6645  1.5145
 1504SOL     OW15970   2.540   1.555   3.858  0.6983 -0.0504  0.3515
 1504SOL    HW115971   2.615   1.561   3.799  2.5945  0.1508  2.7646
 1504SOL    HW215972   2.543   1.647   3.883 -3.2105  0.3271 -0.6252
 1505SOL     OW15973   3.641   4.248   9.201  0.0900 -0.2125  0.1612
 1505SOL    HW115974   3.590   4.292   9.134 -0.3957 -1.1861 -0.0974
 1505SOL    HW215975   3.572   4.236   9.266  0.7805 -0.8880  0.7800
 1506SOL     OW15976   3.428   2.490  13.254 -0.3184 -0.1698 -0.1997
 1506SOL    HW115977   3.376   2.499  13.175 -1.8355  0.9344  0.9233
 1506SOL    HW215978   3.416   2.401  13.289  0.3417  0.5387  1.8116
 1507SOL     OW15979   1.381   3.596   6.598  0.1349 -0.1836 -0.7120
 1507SOL    HW115980   1.389   3.645   6.680 -1.3975 -1.8269  0.4369
 1507SOL    HW215981   1.285   3.593   6.602  0.2212  0.8986  2.0189
 1508SOL     OW15982   0.234   0.674   0.792  0.0654  0.2124 -0.7534
 1508SOL    HW115983   0.240   0.654   0.699 -0.5297  1.3333 -1.0301
 1508SOL    HW215984   0.140   0.670   0.804  0.2786  0.1448  0.8531
 1509SOL     OW15985   3.561   4.132  15.052 -0.0843 -0.3190 -0.2448
 1509SOL    HW115986   3.559   4.199  14.983  1.1930  1.8977  1.8869
 1509SOL    HW215987   3.593   4.057  15.002 -2.1627 -0.9208 -0.6781
 1510SOL     OW15988   2.465   4.524   3.977  0.3074  0.4676  0.6360
 1510SOL    HW115989   2.522   4.506   4.052  0.0348  0.8258  0.9328
 1510SOL    HW215990   2.396   4.579   4.014 -0.0119 -0.8328  1.9967
 1511SOL     OW15991   4.347   4.149   5.960 -0.1089  0.2990 -0.5708
 1511SOL    HW115992   4.358   4.057   5.936 -2.0604 -0.3459  1.0260
 1511SOL    HW215993   4.388   4.160   6.046 -1.5766  0.3714  0.1259
 1512SOL     OW15994   4.107   1.271   8.382  0.5426 -0.3911  0.3254
 1512SOL    HW115995   4.077   1.203   8.322 -2.3028 -0.4820  1.8669
 1512SOL    HW215996   4.101   1.234   8.470  0.7596 -3.1115 -0.8251
 1513SOL     OW15997   3.473   0.046  15.161  0.1550 -0.1561  0.5220
 1513SOL    HW115998   3.546   0.107  15.172 -0.4677  0.4874  1.0337
 1513SOL    HW215999   3.399   0.092  15.199  1.0613  3.0140 -1.6049
 1514SOL     OW16000   2.160   2.532  11.869 -0.9734 -0.7560 -0.2711
 1514SOL    HW116001   2.092   2.516  11.804  0.4085  1.4747 -2.2793
 1514SOL    HW216002   2.181   2.440  11.888 -1.2258 -1.0736 -1.5250
 1515SOL     OW16003   0.504   4.315   2.264  0.4369  0.5973  0.3162
 1515SOL    HW116004   0.432   4.252   2.260  0.6752  0.2769  1.1536
 1515SOL    HW216005   0.542   4.290   2.180  1.9993 -0.8477  1.4326
 1516SOL     OW16006   4.429   2.838   2.843 -0.1466 -0.4544 -0.0503
 1516SOL    HW116007   4.434   2.818   2.749 -0.1586 -0.7467  0.0121
 1516SOL    HW216008   4.359   2.900   2.860  1.6410  1.1417  1.5966
 1517SOL     OW16009   3.554   2.858  14.361 -0.3252 -0.2881  0.2784
 1517SOL    HW116010   3.596   2.878  14.278 -0.1209  0.2865  0.5247
 1517SOL    HW216011   3.495   2.787  14.335 -0.6497 -0.9520  2.8293
 1518SOL     OW16012   2.357   0.864   3.800 -0.2973 -0.7144  0.0973
 1518SOL    HW116013   2.276   0.879   3.752 -0.1907 -0.9498 -0.1633
 1518SOL    HW216014   2.380   0.948   3.839 -1.5002 -0.6982  0.7494
 1519SOL     OW16015   0.408   2.858   8.492 -0.3499  0.5428  0.4501
 1519SOL    HW116016   0.422   2.949   8.468  0.6804  0.0584 -0.7439
 1519SOL    HW216017   0.454   2.808   8.425 -0.9635 -0.4014  0.7351
 1520SOL     OW16018   3.075   4.290   0.472 -0.3672  0.1657  0.1874
 1520SOL    HW116019   3.051   4.278   0.380 -0.2247  1.3809 -0.0133
 1520SOL    HW216020   3.014   4.361   0.492  1.5824  1.9574 -0.1858
 1521SOL     OW16021   2.618   0.900  11.474 -0.2049 -0.0350  0.1111
 1521SOL    HW116022   2.694   0.902  11.415 -0.2449 -1.8832  0.0098
 1521SOL    HW216023   2.542   0.908  11.416  1.8460 -0.7342 -2.6925
 1522SOL     OW16024   1.440   1.725   7.850 -0.0137  0.3082 -0.4205
 1522SOL    HW116025   1.449   1.633   7.827 -0.7110  0.8735 -3.0030
 1522SOL    HW216026   1.363   1.751   7.799  0.3299  2.7638  0.2886
 1523SOL     OW16027   4.621   1.888   5.163  1.0934 -0.4711  0.1025
 1523SOL    HW116028   4.608   1.979   5.135  1.8167  0.0329  1.3639
 1523SOL    HW216029   4.653   1.902   5.253 -0.3461 -0.5251  0.6207
 1524SOL     OW16030   1.144   3.916   0.111 -0.4150 -0.8335 -0.8321
 1524SOL    HW116031   1.176   3.895   0.024  1.1560 -2.2729  0.0790
 1524SOL    HW216032   1.226   3.920   0.160 -0.8186  1.2834 -0.3261
 1525SOL     OW16033   4.059   0.391   3.794 -0.6655  0.0361  0.3937
 1525SOL    HW116034   4.046   0.466   3.736  1.9134  0.4198  0.3111
 1525SOL    HW216035   4.136   0.408   3.847  0.0934 -0.7011 -0.4810
 1526SOL     OW16036   4.058   1.017  12.247 -0.0131 -0.0224 -0.3586
 1526SOL    HW116037   4.086   0.929  12.273 -0.6111 -0.9507 -2.8436
 1526SOL    HW216038   4.140   1.052  12.213  0.4111  0.6513  1.3700
 1527SOL     OW16039   3.556   4.503   8.952 -0.2687 -0.3053  1.0017
 1527SOL    HW116040   3.496   4.571   8.923  1.2747 -0.2121 -1.9342
 1527SOL    HW216041   3.487   4.446   8.985 -0.8129  0.1994  0.7305
 1528SOL     OW16042   2.493   3.347   4.864 -0.2302 -0.8739  0.3372
 1528SOL    HW116043   2.568   3.382   4.816 -1.6098  0.2868 -0.9447
 1528SOL    HW216044   2.532   3.359   4.950  1.5536  0.3097 -0.6519
 1529SOL     OW16045   1.374   0.256   4.149  0.0896 -0.1657  0.0887
 1529SOL    HW116046   1.462   0.246   4.112 -1.2438 -1.5142 -2.6367
 1529SOL    HW216047   1.326   0.174   4.138 -1.0021  0.6429 -1.1065
 1530SOL     OW16048   3.501   4.089   0.994 -0.1209  0.3146  0.2886
 1530SOL    HW116049   3.414   4.066   0.960  0.1378 -0.0404 -0.1318
 1530SOL    HW216050   3.559   4.013   0.988  0.9068  1.1215  0.0007
 1531SOL     OW16051   1.940   1.559  12.846 -0.0161  0.1769  0.1719
 1531SOL    HW116052   1.931   1.530  12.755 -0.7546  1.3048 -0.1184
 1531SOL    HW216053   1.999   1.631  12.823 -1.5995  2.0748  1.9764
 1532SOL     OW16054   0.221   0.662   1.073  0.0781  0.1380 -0.2031
 1532SOL    HW116055   0.247   0.632   0.987 -0.5970 -2.2270  0.4159
 1532SOL    HW216056   0.299   0.708   1.104  0.0372  0.7483 -1.0053
 1533SOL     OW16057   2.345   0.237   5.609 -0.1613  0.3151 -0.3246
 1533SOL    HW116058   2.396   0.316   5.594  2.5229 -1.5544 -1.1286
 1533SOL    HW216059   2.303   0.221   5.525 -0.8326 -1.8172  0.4053
 1534SOL     OW16060   3.066   0.679  15.318 -0.0647 -0.4438 -0.1463
 1534SOL    HW116061   3.005   0.606  15.305 -0.4599  0.0264 -0.9563
 1534SOL    HW216062   3.097   0.673  15.408  1.3789  0.5305 -0.5855
 1535SOL     OW16063   0.598   1.736   8.612  0.2706 -0.1151  0.0162
 1535SOL    HW116064   0.591   1.731   8.517  1.1242 -0.3263 -0.0373
 1535SOL    HW216065   0.579   1.648   8.644  2.6210 -0.9539 -0.8770
 1536SOL     OW16066   0.209   4.308   9.237 -0.0192 -0.0303 -0.3577
 1536SOL    HW116067   0.279   4.242   9.235  0.5553  0.5139  1.2113
 1536SOL    HW216068   0.144   4.271   9.297  0.2873  1.1626  0.7140
 1537SOL     OW16069   0.157   3.279   0.115  0.3353 -0.0082 -0.0955
 1537SOL    HW116070   0.210   3.203   0.139  1.7814  0.7303 -0.9601
 1537SOL    HW216071   0.077   3.239   0.149 -0.3478  0.8752 -0.6522
 1538SOL     OW16072   1.274   4.709   9.002  0.4879  0.1683 -0.2498
 1538SOL    HW116073   1.270   4.624   9.046  1.8089  0.4387  0.4032
 1538SOL    HW216074   1.184   0.013   9.021 -0.0451  0.1282 -2.7014
 1539SOL     OW16075   3.578   3.070   1.857  0.2920 -0.0977  0.0889
 1539SOL    HW116076   3.641   3.001   1.879  1.1323  0.1748 -1.5243
 1539SOL    HW216077   3.513   3.025   1.804  1.5115 -0.0391 -1.4573
 1540SOL     OW16078   4.307   0.684   9.939 -0.3498  0.5334 -0.3554
 1540SOL    HW116079   4.354   0.675   9.856  1.5141  0.5505  0.7037
 1540SOL    HW216080   4.371   0.728   9.994  0.0561  0.0180 -0.4146
 1541SOL     OW16081   4.041   0.880  14.182  0.4087 -0.0400 -0.0053
 1541SOL    HW116082   3.988   0.890  14.261  0.4467 -0.0071  0.0161
 1541SOL    HW216083   4.066   0.973  14.173  0.7852 -0.0817  0.5755
 1542SOL     OW16084   2.641   2.853   0.388  0.4290 -0.2433 -0.2919
 1542SOL    HW116085   2.617   2.762   0.409 -0.4117  0.4356  1.6774
 1542SOL    HW216086   2.655   2.890   0.475  2.6002  0.8476 -1.1203
 1543SOL     OW16087   2.244   0.940  14.802  0.2019 -0.2661 -0.6107
 1543SOL    HW116088   2.271   1.030  14.816  0.2025 -0.8255  3.0275
 1543SOL    HW216089   2.243   0.921  14.896  1.5888  0.8571 -0.3801
 1544SOL     OW16090   3.012   3.365   3.804 -0.1700 -0.0964 -0.5869
 1544SOL    HW116091   3.012   3.324   3.718 -1.8821 -2.1635  0.4122
 1544SOL    HW216092   3.037   3.455   3.783  1.4694 -0.0640  1.5086
 1545SOL     OW16093   1.737   2.420   8.324  0.4403  0.6673 -0.3522
 1545SOL    HW116094   1.809   2.466   8.368 -1.1539  1.5041  1.4000
 1545SOL    HW216095   1.711   2.479   8.253 -4.0062 -0.9879 -0.0560
 1546SOL     OW16096   1.185   0.538   8.399 -0.3332  0.0973 -0.0962
 1546SOL    HW116097   1.145   0.475   8.459  1.9144  0.6023  1.9262
 1546SOL    HW216098   1.223   0.598   8.464 -1.5818  0.0044  0.7104
 1547SOL     OW16099   1.178   0.273  12.836 -0.1623 -0.4375  0.0754
 1547SOL    HW116100   1.129   0.236  12.763 -1.2497 -1.7877  1.4921
 1547SOL    HW216101   1.215   0.197  12.879  0.8930  0.5427  0.9098
 1548SOL     OW16102   0.230   0.481   2.740  0.5751  0.5366 -0.4027
 1548SOL    HW116103   0.288   0.508   2.669  0.9795 -1.7987 -0.9709
 1548SOL    HW216104   0.177   0.414   2.695 -1.7304  0.3179  2.6180
 1549SOL     OW16105   2.475   3.512   2.656  0.3651  0.1779 -0.1790
 1549SOL    HW116106   2.497   3.532   2.565 -0.1217 -2.0189 -0.8063
 1549SOL    HW216107   2.381   3.494   2.650  0.7390 -1.6353 -0.7319
 1550SOL     OW16108   2.406   3.483  10.282 -0.5616 -0.2360 -0.1619
 1550SOL    HW116109   2.501   3.468  10.281 -0.5603 -0.2184 -0.3268
 1550SOL    HW216110   2.387   3.438  10.364  0.1117 -0.1287  0.0532
 1551SOL     OW16111   4.065   2.241   8.209  0.5311 -0.0257 -0.2805
 1551SOL    HW116112   4.114   2.213   8.131  0.6179  1.8927 -0.9344
 1551SOL    HW216113   4.068   2.163   8.264 -0.7347  0.4446  0.4479
 1552SOL     OW16114   3.278   0.253  11.436  0.0337  0.5586  0.3805
 1552SOL    HW116115   3.329   0.192  11.384  1.4071 -1.3465  3.9938
 1552SOL    HW216116   3.338   0.303  11.492  1.1681 -0.4815  0.0848
 1553SOL     OW16117   2.116   0.936  17.458  0.5305  0.1354 -0.7592
 1553SOL    HW116118   2.176   0.976  17.521  0.0539  0.0595 -0.2511
 1553SOL    HW216119   2.170   0.945  17.380 -1.8702 -0.7471 -2.5105
 1554SOL     OW16120   4.308   4.493   0.660  0.2702  0.4730  0.0149
 1554SOL    HW116121   4.353   4.521   0.580  0.1733  0.9859  0.1416
 1554SOL    HW216122   4.259   4.571   0.684 -0.1253  1.9441 -5.4230
 1555SOL     OW16123   3.903   1.089   7.253  0.2844 -0.4083  0.4550
 1555SOL    HW116124   3.927   1.022   7.317  0.4397  0.7054  1.5537
 1555SOL    HW216125   3.971   1.152   7.275  2.0298 -2.8362  1.9854
 1556SOL     OW16126   2.077   0.423   0.679 -0.6251  0.0376 -0.1091
 1556SOL    HW116127   2.090   0.487   0.608  1.7177  0.8371  1.0449
 1556SOL    HW216128   2.115   0.462   0.758  0.6698  0.2085 -0.8087
 1557SOL     OW16129   4.052   2.007   6.067 -0.0452 -0.7656  0.1729
 1557SOL    HW116130   3.998   2.070   6.114  0.1428 -0.7126  0.3201
 1557SOL    HW216131   4.113   1.969   6.130  2.2265  1.1707 -0.7999
 1558SOL     OW16132   0.931   0.004  10.827 -0.2449  0.3588 -0.4978
 1558SOL    HW116133   0.997   4.662  10.851 -0.6243 -0.4336 -1.6457
 1558SOL    HW216134   0.863   4.693  10.885  1.1831  0.5312  1.2933
 1559SOL     OW16135   0.698   2.333   3.341 -0.1578  0.3009 -0.0164
 1559SOL    HW116136   0.720   2.348   3.249  0.7645  0.1578  0.1854
 1559SOL    HW216137   0.786   2.304   3.364  0.3613  1.0016 -1.0902
 1560SOL     OW16138   2.788   2.237   5.003 -0.0209 -0.5547  0.3175
 1560SOL    HW116139   2.747   2.177   4.941  0.1191 -0.1164 -0.1996
 1560SOL    HW216140   2.869   2.191   5.025 -1.1060 -2.2106  0.7766
 1561SOL     OW16141   2.067   2.513  17.040  0.1142  0.1910 -0.2937
 1561SOL    HW116142   2.068   2.585  16.977 -0.3771  0.4247 -0.0372
 1561SOL    HW216143   1.987   2.535  17.088 -0.8944 -0.7783 -1.5259
 1562SOL     OW16144   1.985   2.033  12.123 -0.5218  0.2981 -0.1154
 1562SOL    HW116145   2.076   2.048  12.149 -1.5132  4.5945  0.8779
 1562SOL    HW216146   1.992   2.033  12.028  0.4298 -1.7213 -0.0498
 1563SOL     OW16147   4.561   0.840   7.815  0.3389 -0.4806 -0.4259
 1563SOL    HW116148   4.610   0.766   7.850  0.1286 -1.2182 -1.6941
 1563SOL    HW216149   4.608   0.922   7.830 -0.8174  0.3253 -1.1283
 1564SOL     OW16150   1.603   0.684   9.345  0.0246 -0.0609  0.2987
 1564SOL    HW116151   1.628   0.612   9.402  0.2754  0.3912  0.7651
 1564SOL    HW216152   1.655   0.670   9.265 -1.2817  1.0978 -0.7575
 1565SOL     OW16153   0.138   1.681  17.376  0.0013  0.2148 -0.1494
 1565SOL    HW116154   0.154   1.769  17.412 -1.5346  0.2682  0.3897
 1565SOL    HW216155   0.213   1.632  17.408  0.1414 -0.1871 -1.1055
 1566SOL     OW16156   4.590   3.796  14.805 -0.3795  0.4106 -0.0639
 1566SOL    HW116157   4.596   3.836  14.719  1.9374  1.3757  0.5588
 1566SOL    HW216158   4.510   3.835  14.841  1.1396  0.5489  3.2089
 1567SOL     OW16159   0.447   1.675   2.772  0.4152  0.0992 -0.2572
 1567SOL    HW116160   0.473   1.734   2.843 -0.5323  1.4382 -1.0357
 1567SOL    HW216161   0.521   1.684   2.712  1.0957 -0.8937  0.4297
 1568SOL     OW16162   1.004   0.241  10.050  0.2951 -0.3726  0.3797
 1568SOL    HW116163   0.970   0.193   9.974  1.7060  0.0594 -0.5167
 1568SOL    HW216164   1.079   0.290  10.016  0.7143 -2.1695 -1.2649
 1569SOL     OW16165   2.494   0.147  17.417  0.0070 -0.2361  0.7875
 1569SOL    HW116166   2.576   0.151  17.466  1.0728  1.2900 -1.1288
 1569SOL    HW216167   2.503   0.062  17.373 -1.4662  2.4040 -4.5648
 1570SOL     OW16168   1.127   1.690   8.868  0.1500  0.0070  0.4181
 1570SOL    HW116169   1.190   1.655   8.806 -0.4807 -0.4892  0.0578
 1570SOL    HW216170   1.124   1.631   8.943 -2.3015  1.1671  1.2308
 1571SOL     OW16171   3.388   3.470  12.607 -0.1728  0.7208  0.1188
 1571SOL    HW116172   3.465   3.449  12.555  0.0036  0.7180  0.3821
 1571SOL    HW216173   3.342   3.392  12.576  1.3874 -0.1102 -0.0815
 1572SOL     OW16174   2.746   4.285   5.045  0.5139  0.3611 -0.1731
 1572SOL    HW116175   2.777   4.218   4.985 -1.7026 -1.9337  1.2648
 1572SOL    HW216176   2.742   4.358   4.983  1.7083  1.2527  0.8023
 1573SOL     OW16177   3.297   4.663  15.386 -0.2737 -0.3203 -0.2448
 1573SOL    HW116178   3.221   4.608  15.369  0.9875 -1.5000 -2.1376
 1573SOL    HW216179   3.265   4.722  15.454 -0.8178  1.7713 -2.3188
 1574SOL     OW16180   1.952   1.753   5.486 -0.1629  0.2180  0.3296
 1574SOL    HW116181   1.988   1.827   5.437 -2.1591  2.0029  1.5646
 1574SOL    HW216182   1.862   1.782   5.474  0.3915  0.8721 -2.2148
 1575SOL     OW16183   2.710   0.550  14.477 -0.4165 -0.3512  0.0871
 1575SOL    HW116184   2.721   0.556  14.572  0.7358  0.7535 -0.1183
 1575SOL    HW216185   2.776   0.608  14.440  1.0758 -0.7184  2.1702
 1576SOL     OW16186   4.170   4.111   8.069 -0.0589 -0.5610  0.7539
 1576SOL    HW116187   4.242   4.155   8.025  1.4776 -2.0221  1.7821
 1576SOL    HW216188   4.149   4.173   8.139 -0.3843 -0.2755  0.4062
 1577SOL     OW16189   1.913   0.305   8.019 -0.3766  0.6084  0.2791
 1577SOL    HW116190   1.903   0.211   8.011  2.5271  0.1854  1.5781
 1577SOL    HW216191   1.836   0.324   8.072 -0.9458 -0.6202 -0.1116
 1578SOL     OW16192   4.600   3.116   7.275 -0.1294  0.0117 -0.0114
 1578SOL    HW116193   4.584   3.116   7.369 -2.1171  1.4682 -0.3559
 1578SOL    HW216194   4.511   3.102   7.240 -0.4599 -0.4747  1.0361
 1579SOL     OW16195   1.394   4.331  13.231  0.5262  0.3017  0.1807
 1579SOL    HW116196   1.362   4.335  13.321  1.1603 -0.8594  0.4584
 1579SOL    HW216197   1.466   4.394  13.237  0.9926 -0.3109  1.0361
 1580SOL     OW16198   3.693   0.281   6.492 -0.6067 -0.8412 -0.0991
 1580SOL    HW116199   3.669   0.352   6.433 -0.4826  0.7559  1.7498
 1580SOL    HW216200   3.732   0.223   6.427  0.5164 -0.9518  0.6518
 1581SOL     OW16201   2.940   4.123   2.685  0.1511 -0.2900 -0.6989
 1581SOL    HW116202   3.024   4.154   2.650 -1.1425  2.3664 -1.4774
 1581SOL    HW216203   2.932   4.176   2.764  1.1714 -1.7649  0.3913
 1582SOL     OW16204   2.554   1.048   2.386 -0.0805  0.3071  0.1182
 1582SOL    HW116205   2.615   1.043   2.312  0.7438 -0.7848  0.8790
 1582SOL    HW216206   2.598   0.977   2.432 -1.8888 -0.3557  0.8320
 1583SOL     OW16207   3.951   2.060   3.869 -0.1434  0.0931  0.4322
 1583SOL    HW116208   4.043   2.039   3.883  0.6110  3.9164  1.1648
 1583SOL    HW216209   3.958   2.080   3.776  1.1599  2.3241  1.0143
 1584SOL     OW16210   2.057   4.265   9.889  0.0507  0.8894 -0.2880
 1584SOL    HW116211   2.032   4.172   9.895 -0.1512  0.8996 -0.9306
 1584SOL    HW216212   1.976   4.312   9.905 -0.5238 -0.1630 -0.0625
 1585SOL     OW16213   4.350   0.518   4.153  0.1185 -0.3745  0.2706
 1585SOL    HW116214   4.445   0.508   4.141 -0.0042 -0.2076 -0.8256
 1585SOL    HW216215   4.329   0.445   4.211  2.0362 -0.2815  1.0912
 1586SOL     OW16216   4.018   3.062   1.952  0.0687 -0.1793  0.0254
 1586SOL    HW116217   4.083   3.008   1.909  1.0945  0.9921  0.1176
 1586SOL    HW216218   3.947   2.998   1.958 -0.8059  0.7829 -0.0428
 1587SOL     OW16219   3.209   1.454   1.481 -0.0693  0.2967  0.5565
 1587SOL    HW116220   3.151   1.507   1.535 -0.6241 -0.5773  0.8225
 1587SOL    HW216221   3.174   1.477   1.395  1.2420  2.4799  0.6122
 1588SOL     OW16222   2.449   2.330  10.659  0.3439 -0.0503 -0.3769
 1588SOL    HW116223   2.503   2.389  10.711  1.1851 -1.3742  0.2463
 1588SOL    HW216224   2.470   2.245  10.698 -0.3636  0.0056  0.1312
 1589SOL     OW16225   0.041   3.177   3.321 -0.2110  0.0084 -1.2354
 1589SOL    HW116226   0.028   3.087   3.350 -1.3919  1.0264  1.4742
 1589SOL    HW216227   4.696   3.187   3.254 -1.6729  0.2178  0.2669
 1590SOL     OW16228   1.189   2.207  10.524  0.1552  0.0545 -0.1099
 1590SOL    HW116229   1.095   2.193  10.517  0.2073 -0.9771  1.1541
 1590SOL    HW216230   1.222   2.118  10.515 -0.3683 -0.1448 -0.0665
 1591SOL     OW16231   1.600   4.599   4.134 -0.1517  0.3021 -0.4906
 1591SOL    HW116232   1.603   4.692   4.153  1.8759  0.1666 -0.1406
 1591SOL    HW216233   1.635   4.569   4.218 -0.7591 -2.0170 -1.0457
 1592SOL     OW16234   0.552   0.763   2.962  0.1702 -0.0046  0.4387
 1592SOL    HW116235   0.506   0.731   3.039  2.2643 -1.4854  1.0861
 1592SOL    HW216236   0.523   0.854   2.966  0.6821  0.1597  0.4263
 1593SOL     OW16237   3.744   2.048  14.593 -0.0789  0.0993 -0.4033
 1593SOL    HW116238   3.664   2.095  14.569  0.3855  1.2796  0.3334
 1593SOL    HW216239   3.749   1.984  14.523  1.0664 -0.9242  0.6046
 1594SOL     OW16240   1.364   2.684   1.383  0.0412  0.3398  0.5634
 1594SOL    HW116241   1.331   2.724   1.464 -3.5056 -0.9598 -0.2382
 1594SOL    HW216242   1.291   2.626   1.363  0.4974  0.0898 -0.3922
 1595SOL     OW16243   2.329   2.745   5.286  0.1969  0.0125 -0.1457
 1595SOL    HW116244   2.391   2.814   5.311  1.4680 -1.0626 -0.3480
 1595SOL    HW216245   2.386   2.686   5.237 -0.8469 -0.9481 -0.1784
 1596SOL     OW16246   0.106   1.674   2.433 -0.0443 -0.3376 -0.1270
 1596SOL    HW116247   0.136   1.764   2.422 -0.0117 -0.2411  0.7667
 1596SOL    HW216248   0.101   1.657   2.527 -0.1353  1.4759  0.1937
 1597SOL     OW16249   3.575   4.257   7.264 -0.1599 -0.2423  0.2115
 1597SOL    HW116250   3.515   4.325   7.293 -1.6181 -1.8553  0.9322
 1597SOL    HW216251   3.512   4.209   7.211 -1.0750 -1.0521  2.0554
 1598SOL     OW16252   4.038   3.740   3.777 -0.1509 -0.3215 -0.0936
 1598SOL    HW116253   4.070   3.768   3.691 -0.2434 -0.4673 -0.1760
 1598SOL    HW216254   4.115   3.744   3.833 -1.3967 -1.4971  1.6828
 1599SOL     OW16255   0.786   0.288   7.098  0.1357  0.0524 -0.2214
 1599SOL    HW116256   0.711   0.271   7.041 -0.0747 -2.2319  0.7343
 1599SOL    HW216257   0.844   0.338   7.040  0.2309 -0.9308 -0.9847
 1600SOL     OW16258   1.446   3.156   4.913 -0.2689  0.4862  0.1873
 1600SOL    HW116259   1.467   3.089   4.848 -1.8791  1.9752 -1.8779
 1600SOL    HW216260   1.484   3.120   4.993 -2.5843  0.2458  1.1766
 1601SOL     OW16261   1.969   3.862   5.427  0.1581 -0.3839  0.4218
 1601SOL    HW116262   1.892   3.837   5.377 -0.5276 -0.3462  1.4455
 1601SOL    HW216263   1.999   3.772   5.438  2.8503  0.4777  0.0266
 1602SOL     OW16264   2.636   1.724   5.302  0.0414 -0.2299  0.1115
 1602SOL    HW116265   2.580   1.655   5.267 -1.5248  0.2166  1.7675
 1602SOL    HW216266   2.698   1.747   5.233  0.5287  1.2316  1.0211
 1603SOL     OW16267   4.417   4.647   5.083  0.0925 -0.2771 -0.5476
 1603SOL    HW116268   4.500   4.687   5.107  0.0647 -0.4542 -0.1580
 1603SOL    HW216269   4.362   4.721   5.057 -0.3545 -0.8679 -1.2820
 1604SOL     OW16270   1.164   0.912   1.549  0.3190 -0.7089 -0.4354
 1604SOL    HW116271   1.093   0.920   1.613 -0.3681  1.7014 -1.5086
 1604SOL    HW216272   1.156   0.821   1.520 -0.1002 -1.9406  3.6412
 1605SOL     OW16273   1.093   4.635   3.188  0.4679 -0.1141  0.1450
 1605SOL    HW116274   1.037   4.610   3.115  0.8231 -0.0557 -0.1471
 1605SOL    HW216275   1.174   4.636   3.137  1.8281 -1.0163  2.2525
 1606SOL     OW16276   2.871   2.456   8.601 -0.3435 -0.4592 -0.3848
 1606SOL    HW116277   2.931   2.425   8.533  0.3859 -2.4446  1.1506
 1606SOL    HW216278   2.930   2.498   8.664  1.1002 -1.0552 -1.3349
 1607SOL     OW16279   1.205   3.181  16.868 -0.0989  0.6783 -0.1328
 1607SOL    HW116280   1.211   3.086  16.881  1.8486  0.7911 -0.1099
 1607SOL    HW216281   1.300   3.198  16.869 -0.1126  0.8512 -2.0034
 1608SOL     OW16282   2.766   3.372   6.979 -0.2356 -0.1809 -0.1014
 1608SOL    HW116283   2.756   3.400   7.070  1.2138  1.9089 -0.5914
 1608SOL    HW216284   2.826   3.298   6.988 -1.5244 -0.9875  1.9477
 1609SOL     OW16285   2.796   1.335   4.901 -0.6975  0.1507 -0.5545
 1609SOL    HW116286   2.872   1.363   4.952 -0.8075 -0.4846 -0.0412
 1609SOL    HW216287   2.830   1.256   4.858 -0.8263  1.4783 -3.0984
 1610SOL     OW16288   0.139   0.797  11.013 -0.5914 -0.4176  0.8191
 1610SOL    HW116289   0.148   0.834  11.102 -0.4748  0.5930  0.3881
 1610SOL    HW216290   0.151   0.877  10.962  2.5861 -1.9974 -0.8519
 1611SOL     OW16291   0.006   3.183  14.645  0.1695  0.2919 -0.2606
 1611SOL    HW116292   0.034   3.271  14.618  0.2870  0.8463  1.6711
 1611SOL    HW216293   0.071   3.154  14.708  1.1557  1.0223 -0.9348
 1612SOL     OW16294   4.560   1.356   5.919 -0.1718  0.0806  0.0743
 1612SOL    HW116295   4.654   1.339   5.928 -0.5271 -1.7093  0.4788
 1612SOL    HW216296   4.566   1.451   5.913 -1.8244  0.1239 -0.8771
 1613SOL     OW16297   3.115   0.223   4.813  0.4855  0.1644  0.7899
 1613SOL    HW116298   3.068   0.300   4.842  0.8407  1.6017 -2.4031
 1613SOL    HW216299   3.158   0.263   4.737 -0.7669 -1.5633 -0.8455
 1614SOL     OW16300   2.959   2.698  14.060 -0.2881  0.7999  0.1285
 1614SOL    HW116301   3.001   2.712  13.975 -0.5238  0.0943 -0.1026
 1614SOL    HW216302   2.871   2.675  14.029 -0.5271 -1.3488  2.4046
 1615SOL     OW16303   2.340   1.276   4.436 -0.3625 -0.2380  0.6612
 1615SOL    HW116304   2.326   1.368   4.456 -2.8270 -1.0511  2.7147
 1615SOL    HW216305   2.289   1.275   4.355 -1.1630 -2.7472  1.1916
 1616SOL     OW16306   3.743   4.057  12.300 -0.3921 -0.0515  0.2359
 1616SOL    HW116307   3.735   4.152  12.290 -1.2416 -0.0776  0.6198
 1616SOL    HW216308   3.773   4.050  12.391 -1.2899 -0.0662  0.5379
 1617SOL     OW16309   0.476   1.430   4.137  0.9568 -0.1679 -0.4290
 1617SOL    HW116310   0.461   1.462   4.226 -0.8515  1.3447 -1.2893
 1617SOL    HW216311   0.390   1.399   4.111  0.4502 -0.8109  2.0325
 1618SOL     OW16312   3.476   2.791   3.784  0.0846  0.1737  0.2280
 1618SOL    HW116313   3.394   2.742   3.784 -0.2106  0.6717  0.3494
 1618SOL    HW216314   3.521   2.759   3.706 -0.4285 -1.7605  0.7013
 1619SOL     OW16315   2.515   3.393   5.174  0.9813  0.0230 -0.4032
 1619SOL    HW116316   2.569   3.317   5.155  1.2748 -0.3018  1.7149
 1619SOL    HW216317   2.487   3.360   5.259  0.7928 -0.3657 -0.6170
 1620SOL     OW16318   0.607   3.594   8.814  0.7044  0.4868  0.1250
 1620SOL    HW116319   0.547   3.658   8.853  2.3384  1.9214  0.3002
 1620SOL    HW216320   0.664   3.564   8.885  1.2242  1.3433  0.0658
 1621SOL     OW16321   2.393   0.286   6.509  0.5438 -0.4404 -0.0392
 1621SOL    HW116322   2.404   0.203   6.555  0.6463 -0.0618  0.6215
 1621SOL    HW216323   2.459   0.341   6.553 -1.6056  1.9506  0.2234
 1622SOL     OW16324   4.078   1.773  13.853 -0.4879  0.0313 -0.1549
 1622SOL    HW116325   3.983   1.771  13.866 -0.8291  0.6906 -2.6133
 1622SOL    HW216326   4.110   1.804  13.938  3.0257 -3.2633 -0.2449
 1623SOL     OW16327   2.107   2.319   8.510 -0.4420 -0.0374  0.4639
 1623SOL    HW116328   2.031   2.263   8.528 -0.8327  1.1461  2.4669
 1623SOL    HW216329   2.132   2.342   8.599 -1.4455 -0.4766  0.8676
 1624SOL     OW16330   3.691   2.226   5.970  0.5810 -0.6562  0.2052
 1624SOL    HW116331   3.666   2.315   5.945 -1.5767 -1.3173 -0.0282
 1624SOL    HW216332   3.785   2.242   5.966  0.9593 -3.0805 -0.5535
 1625SOL     OW16333   1.310   0.857  14.283 -0.2033  1.0659  0.1768
 1625SOL    HW116334   1.221   0.837  14.310 -1.2205  0.9933 -3.2506
 1625SOL    HW216335   1.296   0.939  14.235 -2.2192  1.4453  1.4472
 1626SOL     OW16336   2.113   4.080  10.169 -0.6313  0.1779 -0.8488
 1626SOL    HW116337   2.090   3.988  10.154 -1.8152  0.0747  1.5501
 1626SOL    HW216338   2.029   4.093  10.214  0.0413 -0.7327  0.6645
 1627SOL     OW16339   0.023   0.122   0.410  0.5019 -0.1948  0.0123
 1627SOL    HW116340   0.090   0.069   0.367 -0.1779  0.6771 -2.0992
 1627SOL    HW216341   4.664   0.105   0.365  0.7682 -0.9594 -0.1774
 1628SOL     OW16342   1.045   3.010   7.384 -0.2305  0.4692 -0.6853
 1628SOL    HW116343   0.964   3.062   7.382 -0.4142  0.1608 -1.3234
 1628SOL    HW216344   1.020   2.938   7.326 -1.3833  0.3624 -0.0484
 1629SOL     OW16345   3.850   1.002   2.352  0.0700 -0.0201 -0.5511
 1629SOL    HW116346   3.812   0.992   2.438  2.3162 -2.8190  0.0935
 1629SOL    HW216347   3.943   1.018   2.370 -0.4009 -0.5114  2.1849
 1630SOL     OW16348   2.754   0.763   5.387  0.8658  0.0910 -0.2756
 1630SOL    HW116349   2.672   0.777   5.339 -0.2991 -1.8863  1.1566
 1630SOL    HW216350   2.777   0.846   5.429 -1.5111 -0.3715  1.9369
 1631SOL     OW16351   4.039   4.501  10.826 -0.3357  0.1047  0.0478
 1631SOL    HW116352   4.032   4.452  10.908 -0.0833 -1.2484 -0.7407
 1631SOL    HW216353   4.006   4.586  10.854  0.6617  0.4816  0.0983
 1632SOL     OW16354   0.875   1.715   8.018  0.4266  0.0372 -0.4746
 1632SOL    HW116355   0.914   1.632   7.988 -3.6799 -1.4792 -1.5990
 1632SOL    HW216356   0.807   1.734   7.954  1.3320 -0.1325 -1.5012
 1633SOL     OW16357   1.188   3.659   8.106  0.0884  0.0806  0.4975
 1633SOL    HW116358   1.242   3.602   8.051 -0.0888  1.3056 -0.9353
 1633SOL    HW216359   1.253   3.725   8.130  0.7880  0.2912 -1.9711
 1634SOL     OW16360   1.163   0.200   7.436 -0.5159 -0.3415  0.6942
 1634SOL    HW116361   1.165   0.280   7.488 -1.5898  0.2460 -0.1584
 1634SOL    HW216362   1.251   0.167   7.453 -0.6228 -1.3811 -0.7856
 1635SOL     OW16363   3.052   1.551   3.291 -0.1948  0.0337 -0.7228
 1635SOL    HW116364   3.135   1.523   3.329 -1.1466 -1.6553  0.1230
 1635SOL    HW216365   3.034   1.635   3.334 -1.8414 -0.9881  0.5606
 1636SOL     OW16366   2.088   1.103   5.982 -0.3430  0.8171  0.0704
 1636SOL    HW116367   2.074   1.074   5.891  0.5417 -0.2842  0.2804
 1636SOL    HW216368   1.998   1.099   6.015 -0.1037 -0.7376  0.5500
 1637SOL     OW16369   4.192   4.228  16.924  0.2191  0.4675  0.3715
 1637SOL    HW116370   4.120   4.191  16.975  0.0351  0.8923  0.4193
 1637SOL    HW216371   4.147   4.280  16.857  1.5875  1.0853 -0.0668
 1638SOL     OW16372   4.593   4.156   4.610 -0.2050  0.0302  0.3488
 1638SOL    HW116373   4.605   4.192   4.698 -3.2107  0.3486  0.6109
 1638SOL    HW216374   4.499   4.149   4.594 -0.4541 -0.5651  2.1121
 1639SOL     OW16375   4.451   3.331   0.497  0.3129 -0.2373  0.3852
 1639SOL    HW116376   4.382   3.397   0.502  0.1399 -0.4957  1.3925
 1639SOL    HW216377   4.510   3.372   0.433  0.6795 -2.4126 -0.6661
 1640SOL     OW16378   1.215   0.581   6.622 -0.2838 -0.1450 -0.4550
 1640SOL    HW116379   1.148   0.637   6.660 -2.3225 -2.2660 -0.9295
 1640SOL    HW216380   1.237   0.523   6.695  0.5622 -0.7788 -1.2055
 1641SOL     OW16381   0.236   2.950   2.729  0.1687 -0.5561 -0.5659
 1641SOL    HW116382   0.208   2.870   2.773  1.3442 -1.9101 -2.3168
 1641SOL    HW216383   0.158   2.960   2.673 -0.9546 -1.3416  0.8432
 1642SOL     OW16384   2.455   2.535   5.175  0.0978 -0.0413  0.2701
 1642SOL    HW116385   2.428   2.506   5.088  0.2123 -0.0448  0.2360
 1642SOL    HW216386   2.531   2.483   5.199  0.4374  0.3275 -0.0156
 1643SOL     OW16387   4.220   2.902   5.707  0.0440 -0.3278 -0.0120
 1643SOL    HW116388   4.199   2.812   5.684 -1.8528  0.4624 -1.2688
 1643SOL    HW216389   4.166   2.914   5.785 -1.6094  1.6933 -1.4962
 1644SOL     OW16390   3.747   0.177   7.388 -0.1095  0.0435  0.0465
 1644SOL    HW116391   3.821   0.232   7.416  0.4386 -0.9378  0.5316
 1644SOL    HW216392   3.770   0.089   7.419  0.9940  0.8733  1.5543
 1645SOL     OW16393   1.845   3.296   7.571 -0.2127 -0.0372  0.2380
 1645SOL    HW116394   1.897   3.372   7.548 -0.2115 -0.1352 -0.0774
 1645SOL    HW216395   1.832   3.264   7.482 -0.6653  0.0286  0.2798
 1646SOL     OW16396   1.601   4.252   8.395 -0.2041  0.4106  0.2423
 1646SOL    HW116397   1.508   4.263   8.379  0.1633  0.9246 -1.5620
 1646SOL    HW216398   1.598   4.218   8.484  1.4213 -2.7000 -0.8829
 1647SOL     OW16399   2.895   3.727   1.258  0.4508  0.2196  0.0715
 1647SOL    HW116400   2.925   3.739   1.168  0.1239  0.1539 -0.0445
 1647SOL    HW216401   2.883   3.632   1.254  0.9084  0.0710  2.2359
 1648SOL     OW16402   4.152   0.751   8.910 -0.4844  0.2948  0.5631
 1648SOL    HW116403   4.199   0.777   8.989  1.3003  0.7384 -0.6410
 1648SOL    HW216404   4.112   0.673   8.947  2.9353 -0.9488  1.6863
 1649SOL     OW16405   1.780   3.336   1.072  0.2038  0.4446 -0.1637
 1649SOL    HW116406   1.798   3.429   1.056 -0.6519  0.3243 -1.8359
 1649SOL    HW216407   1.828   3.303   0.997 -0.1828  2.0436 -1.1070
 1650SOL     OW16408   1.892   3.529   1.790  0.2487  0.4581  0.6073
 1650SOL    HW116409   1.892   3.469   1.716 -0.9524  0.3063  0.7360
 1650SOL    HW216410   1.817   3.587   1.776 -1.9743 -2.3579  0.7599
 1651SOL     OW16411   3.745   2.502   5.852 -0.1635  0.2565  0.7002
 1651SOL    HW116412   3.697   2.558   5.913 -0.7602  0.6825 -0.1458
 1651SOL    HW216413   3.806   2.464   5.914 -0.6890 -1.2469  0.2918
 1652SOL     OW16414   0.483   2.462  13.406 -0.7945 -0.3575  0.7876
 1652SOL    HW116415   0.569   2.436  13.441 -0.2742  2.5943  1.6640
 1652SOL    HW216416   0.443   2.474  13.492 -1.1452 -1.7480  0.8166
 1653SOL     OW16417   1.076   2.967   4.668 -0.5187  0.1356  0.5377
 1653SOL    HW116418   1.077   3.046   4.722 -1.9059 -0.1733  1.0263
 1653SOL    HW216419   1.121   2.996   4.589  0.8384  0.3565  1.3890
 1654SOL     OW16420   0.078   4.604   3.300  0.3144 -0.8177  0.2336
 1654SOL    HW116421   0.041   4.665   3.237  0.1274 -1.6686 -0.4809
 1654SOL    HW216422   0.163   4.573   3.268 -0.9038 -0.8336 -2.9169
 1655SOL     OW16423   1.136   3.495   2.607 -0.0822 -0.0817 -0.3399
 1655SOL    HW116424   1.183   3.452   2.678  0.9438  1.2272 -0.2128
 1655SOL    HW216425   1.196   3.568   2.587 -0.1382 -0.0609 -0.4351
 1656SOL     OW16426   1.569   2.391   4.826 -0.5163 -0.0318 -0.0275
 1656SOL    HW116427   1.641   2.455   4.822 -0.9829  0.5643  0.9589
 1656SOL    HW216428   1.545   2.400   4.734 -1.6741 -0.7553  0.2087
 1657SOL     OW16429   1.132   2.252   4.433  0.1683  0.0309  0.5194
 1657SOL    HW116430   1.192   2.243   4.507  0.2827 -1.8185  0.2060
 1657SOL    HW216431   1.143   2.344   4.412  1.1502  0.3674  2.4544
 1658SOL     OW16432   2.338   4.393   8.130  0.2849  0.3331 -0.4392
 1658SOL    HW116433   2.357   4.487   8.136  0.5780  0.2730 -0.4086
 1658SOL    HW216434   2.344   4.373   8.223 -0.3125 -1.4819 -0.7912
 1659SOL     OW16435   2.786   0.817  10.769  0.7265  0.2045  0.1998
 1659SOL    HW116436   2.839   0.841  10.845  1.3649 -1.0277  0.1359
 1659SOL    HW216437   2.800   0.723  10.772  1.3653  0.2665 -0.9723
 1660SOL     OW16438   1.950   2.936   4.073 -0.1092 -0.6555 -0.3822
 1660SOL    HW116439   2.036   2.895   4.076 -0.6537 -1.9135 -1.7491
 1660SOL    HW216440   1.958   2.986   3.992  0.0321  1.1593  0.7537
 1661SOL     OW16441   1.294   3.016  13.524 -0.3575  0.4082  0.6501
 1661SOL    HW116442   1.283   3.109  13.542 -0.5314  0.6894 -0.9306
 1661SOL    HW216443   1.267   3.008  13.433  0.5106 -1.8538  0.5918
 1662SOL     OW16444   3.828   2.788   0.594  0.0037 -0.4106 -0.4159
 1662SOL    HW116445   3.774   2.719   0.556 -1.4224 -0.3667  1.5404
 1662SOL    HW216446   3.873   2.741   0.664 -0.9008  1.4965  1.4363
 1663SOL     OW16447   4.506   4.287   4.090 -0.1130 -0.6875 -0.0300
 1663SOL    HW116448   4.516   4.238   4.008 -2.3334 -1.6124  0.2467
 1663SOL    HW216449   4.415   4.311   4.074 -0.4154 -1.2352  0.8711
 1664SOL     OW16450   4.545   2.146  16.370  0.4983 -0.5747  0.2787
 1664SOL    HW116451   4.515   2.197  16.294 -0.0097  0.1756  0.9771
 1664SOL    HW216452   4.506   2.196  16.442  1.1546 -0.1549  0.3378
 1665SOL     OW16453   0.337   2.474   4.492  0.1285  0.0439 -0.5922
 1665SOL    HW116454   0.364   2.421   4.416  1.6945  0.6316 -0.4510
 1665SOL    HW216455   0.394   2.433   4.557  0.5866 -0.2732 -1.1910
 1666SOL     OW16456   1.562   1.020  17.418 -0.0818  0.3680 -0.1464
 1666SOL    HW116457   1.641   1.071  17.438  0.2677 -0.2730  0.1197
 1666SOL    HW216458   1.589   0.928  17.427  0.8599  0.7751  1.2723
 1667SOL     OW16459   0.395   3.632  14.995 -0.3707  0.1144 -0.5549
 1667SOL    HW116460   0.473   3.642  14.940 -0.6569 -1.0496 -1.1587
 1667SOL    HW216461   0.405   3.538  15.006 -0.4187  0.1837  0.0654
 1668SOL     OW16462   1.601   3.120  13.415  0.3698  0.0068  0.4478
 1668SOL    HW116463   1.563   3.207  13.410  1.2132  0.5264  3.0548
 1668SOL    HW216464   1.555   3.081  13.489 -1.7182 -2.4383 -2.1110
 1669SOL     OW16465   1.649   2.336   1.829  0.5327 -0.1357 -0.2450
 1669SOL    HW116466   1.580   2.270   1.833 -0.6259  1.0745 -0.4722
 1669SOL    HW216467   1.720   2.278   1.857 -0.7408 -0.6138  2.0045
 1670SOL     OW16468   1.377   4.615   7.579 -0.5276 -0.1839  0.0796
 1670SOL    HW116469   1.438   4.610   7.653 -0.9023 -2.1570  0.2444
 1670SOL    HW216470   1.404   4.700   7.544  0.5277  0.1510  1.7317
 1671SOL     OW16471   3.670   3.657   3.439 -0.4718  0.3058 -0.3723
 1671SOL    HW116472   3.711   3.589   3.492 -1.1526  1.0194  1.0713
 1671SOL    HW216473   3.739   3.721   3.425  1.8814 -1.7386  1.7685
 1672SOL     OW16474   2.972   2.105  17.508 -0.0601  0.0163 -0.0359
 1672SOL    HW116475   2.962   2.150  17.425 -0.6727  0.8349  0.4792
 1672SOL    HW216476   3.035   2.039  17.479  0.0643  0.9104 -1.7585
 1673SOL     OW16477   0.773   2.439  13.484 -0.2897 -0.3673  0.4517
 1673SOL    HW116478   0.766   2.480  13.570 -1.7373 -0.7108  0.5062
 1673SOL    HW216479   0.823   2.505  13.436  0.5444 -0.4532  1.2090
 1674SOL     OW16480   1.669   1.986  14.234  0.3887  0.1283  0.1970
 1674SOL    HW116481   1.649   1.899  14.200  1.5051 -0.3107  0.6739
 1674SOL    HW216482   1.594   1.999  14.292  0.8969 -0.6235  1.0131
 1675SOL     OW16483   1.277   3.027   6.608  0.1130  0.2256 -0.4513
 1675SOL    HW116484   1.183   3.034   6.627  0.4853  0.0938  1.3437
 1675SOL    HW216485   1.283   3.106   6.553  0.9557 -0.7377 -1.7494
 1676SOL     OW16486   2.432   2.780   8.744 -0.3997 -0.1679 -1.0287
 1676SOL    HW116487   2.455   2.849   8.805 -1.5152 -0.1041 -0.6793
 1676SOL    HW216488   2.500   2.781   8.677  1.1623 -2.8358  0.5157
 1677SOL     OW16489   1.940   1.539   7.707  0.3976  0.1009 -0.4183
 1677SOL    HW116490   1.990   1.550   7.788 -0.2648 -2.4626  0.3174
 1677SOL    HW216491   1.994   1.472   7.666 -1.2077 -0.2734 -1.9191
 1678SOL     OW16492   1.141   4.330   3.887 -0.3053 -0.6035 -0.1848
 1678SOL    HW116493   1.095   4.371   3.814 -0.0400 -0.6811 -0.3956
 1678SOL    HW216494   1.081   4.354   3.957  0.4987  0.3086  0.1822
 1679SOL     OW16495   0.917   3.958  10.665 -0.8313  0.6562  0.5211
 1679SOL    HW116496   0.926   3.877  10.616  0.7617  1.3196 -0.2691
 1679SOL    HW216497   0.826   3.977  10.643 -0.2349  1.0183 -1.5887
 1680SOL     OW16498   2.690   3.791   4.576 -0.1924  0.3209  0.1734
 1680SOL    HW116499   2.745   3.810   4.500 -0.0021 -0.2342  0.1728
 1680SOL    HW216500   2.654   3.714   4.532  0.5546 -0.0011  0.1416
 1681SOL     OW16501   1.381   3.202   1.892  0.0144 -0.0860  0.1281
 1681SOL    HW116502   1.318   3.194   1.964  1.1173 -0.4364  1.0790
 1681SOL    HW216503   1.385   3.106   1.885  0.8417 -0.2228  2.4011
 1682SOL     OW16504   1.702   0.120   4.454  0.0254 -0.3086  0.1074
 1682SOL    HW116505   1.792   0.151   4.462 -0.1513  0.7933 -2.0961
 1682SOL    HW216506   1.666   0.202   4.418 -2.2428 -0.6639  1.6049
 1683SOL     OW16507   3.179   4.699   8.038  0.1924  0.0466 -0.7302
 1683SOL    HW116508   3.263   4.666   8.008  0.4301 -1.6370  1.7137
 1683SOL    HW216509   3.176   4.641   8.115 -0.6331 -0.7146 -1.3347
 1684SOL     OW16510   1.067   4.120   4.314  0.1723 -0.3026  0.0464
 1684SOL    HW116511   0.999   4.182   4.340  0.3650  0.6102 -1.6167
 1684SOL    HW216512   1.145   4.176   4.311  0.2859 -0.5081 -0.6548
 1685SOL     OW16513   3.155   2.721   7.841 -0.6481  0.0045  0.1592
 1685SOL    HW116514   3.089   2.723   7.910 -1.5278 -1.0525 -0.6466
 1685SOL    HW216515   3.127   2.636   7.807 -2.6929  0.3396  1.0002
 1686SOL     OW16516   0.081   2.940   9.241 -0.3743 -0.2986  0.2573
 1686SOL    HW116517   0.074   3.034   9.224 -2.3864 -0.0629  2.4120
 1686SOL    HW216518   0.173   2.927   9.218 -0.2424 -0.8266  1.0756
 1687SOL     OW16519   1.069   3.391  15.172  0.6088  0.0829 -0.1852
 1687SOL    HW116520   1.052   3.479  15.138 -3.3958 -0.4797  0.4473
 1687SOL    HW216521   1.021   3.391  15.255  1.8116  0.3693  0.5184
 1688SOL     OW16522   0.966   0.528   3.569 -0.0697 -0.8443 -0.6329
 1688SOL    HW116523   0.985   0.601   3.510 -0.9870  1.3452  1.7884
 1688SOL    HW216524   0.997   0.567   3.651 -1.5043  0.4976 -0.7468
 1689SOL     OW16525   2.587   1.449   1.343  0.0883 -0.1170  0.2962
 1689SOL    HW116526   2.517   1.409   1.395  1.3798 -3.0011 -0.1870
 1689SOL    HW216527   2.532   1.498   1.281  0.8986  0.0304 -0.3076
 1690SOL     OW16528   2.529   0.810   5.246  0.1243 -0.0056 -0.2003
 1690SOL    HW116529   2.526   0.906   5.256  0.5771 -0.1696  1.5262
 1690SOL    HW216530   2.441   0.785   5.274  0.4599 -0.7113  0.2126
 1691SOL     OW16531   3.279   2.767   6.438 -0.2269  0.0455  0.3962
 1691SOL    HW116532   3.224   2.798   6.510 -2.5393 -0.5585 -1.1109
 1691SOL    HW216533   3.366   2.763   6.479 -0.3932  1.1870  0.8612
 1692SOL     OW16534   3.685   4.681  11.035  0.4821 -0.1930 -0.0557
 1692SOL    HW116535   3.731   4.685  11.119 -0.4707  0.0884  0.4589
 1692SOL    HW216536   3.763   4.676  10.981 -0.0175  0.5066 -0.8497
 1693SOL     OW16537   1.643   3.975   8.341  0.0780 -0.0539 -0.4190
 1693SOL    HW116538   1.658   4.069   8.348  0.0732  0.1207 -3.0981
 1693SOL    HW216539   1.558   3.964   8.383 -0.7295  0.8913 -1.8338
 1694SOL     OW16540   3.865   3.495  13.907  0.2090  0.0497 -0.3042
 1694SOL    HW116541   3.822   3.510  13.823 -0.5588  1.1486  0.2735
 1694SOL    HW216542   3.789   3.467  13.959 -0.5554  0.3086 -1.2671
 1695SOL     OW16543   1.635   0.964  10.377 -0.0840 -0.0911  0.8805
 1695SOL    HW116544   1.626   1.058  10.392  2.0066  0.3463 -0.7739
 1695SOL    HW216545   1.635   0.918  10.461  0.0966  0.5061  1.2058
 1696SOL     OW16546   0.389   4.554   3.869 -0.2523  0.3450 -0.3311
 1696SOL    HW116547   0.414   4.536   3.779 -2.7036 -2.5388 -0.4193
 1696SOL    HW216548   0.390   4.464   3.902  0.7214  1.2754  2.2116
 1697SOL     OW16549   3.184   3.667   5.250 -0.0552 -0.0506  0.8678
 1697SOL    HW116550   3.269   3.701   5.224 -0.7516 -0.3521 -1.7372
 1697SOL    HW216551   3.207   3.592   5.305  0.2076 -1.1201 -0.7213
 1698SOL     OW16552   3.547   4.367   5.517 -0.3846 -0.4498 -0.0124
 1698SOL    HW116553   3.641   4.387   5.526 -1.1070  1.9776  2.2703
 1698SOL    HW216554   3.517   4.393   5.604 -1.9068 -6.1543  1.1278
 1699SOL     OW16555   1.234   0.800   2.459  0.4821  0.2509  0.3292
 1699SOL    HW116556   1.320   0.781   2.421 -0.3281 -1.1033 -0.8222
 1699SOL    HW216557   1.228   0.889   2.423 -1.7383 -0.1792 -0.3434
 1700SOL     OW16558   0.821   4.284  16.142 -0.2904  0.0415 -0.2156
 1700SOL    HW116559   0.910   4.286  16.175 -1.2127 -1.6134  2.3650
 1700SOL    HW216560   0.831   4.342  16.066  0.1088  0.8757  0.4810
 1701SOL     OW16561   3.937   3.306  15.509 -0.9829  0.2848  0.2859
 1701SOL    HW116562   3.886   3.246  15.454  1.3886 -0.0920 -1.4725
 1701SOL    HW216563   3.978   3.371  15.453  1.8016 -0.8735  0.9649
 1702SOL     OW16564   2.337   3.560  10.689 -0.9267 -0.5573  0.2403
 1702SOL    HW116565   2.409   3.521  10.640  0.4615  2.1713  0.1462
 1702SOL    HW216566   2.270   3.507  10.645 -1.7511  1.2653 -0.7298
 1703SOL     OW16567   4.388   4.135  17.619 -0.0814  0.4134  0.7447
 1703SOL    HW116568   4.405   4.050  17.659  2.2212  0.8595  0.7410
 1703SOL    HW216569   4.302   4.112  17.583  0.7134 -0.3547 -0.6737
 1704SOL     OW16570   2.163   0.970   8.205  0.4539  0.0658 -0.4531
 1704SOL    HW116571   2.251   0.956   8.241 -0.4405 -0.7683  1.4107
 1704SOL    HW216572   2.110   0.950   8.283  2.2036 -2.1161  0.1841
 1705SOL     OW16573   2.641   1.227   7.453 -0.0488  0.0371 -0.1512
 1705SOL    HW116574   2.695   1.302   7.428  0.6703 -1.2906 -2.4798
 1705SOL    HW216575   2.556   1.269   7.468  0.2763  0.8004 -0.4502
 1706SOL     OW16576   0.859   3.107   2.105 -0.0488  0.0531  0.6986
 1706SOL    HW116577   0.807   3.087   2.182 -1.1553 -0.7940 -0.2690
 1706SOL    HW216578   0.828   3.197   2.099  0.1862  0.1524  0.9709
 1707SOL     OW16579   2.357   2.921   1.479 -0.4354 -0.2657 -0.0381
 1707SOL    HW116580   2.312   3.000   1.510  4.3463  2.2078  0.6302
 1707SOL    HW216581   2.441   2.958   1.451  0.7633 -2.8751  0.1147
 1708SOL     OW16582   1.855   2.169   7.048 -0.0738  0.4498 -0.6656
 1708SOL    HW116583   1.772   2.140   7.087  0.1834  0.1785 -0.3242
 1708SOL    HW216584   1.894   2.226   7.115  1.5390 -0.9846 -0.4001
 1709SOL     OW16585   2.621   3.658   6.063 -0.1321  0.0256  0.3025
 1709SOL    HW116586   2.601   3.751   6.077 -0.8288 -0.3643  1.8556
 1709SOL    HW216587   2.607   3.620   6.149  1.0367  0.7283  0.7946
 1710SOL     OW16588   1.447   2.454  12.494 -0.4004 -0.0316  0.0546
 1710SOL    HW116589   1.486   2.409  12.569  0.4149  0.1306 -0.2811
 1710SOL    HW216590   1.482   2.399  12.424 -0.1726  1.5617 -1.0742
 1711SOL     OW16591   2.117   4.454   3.027 -0.1026  0.4087  0.6031
 1711SOL    HW116592   2.025   4.477   3.041 -0.6117 -0.8171 -0.7805
 1711SOL    HW216593   2.112   4.418   2.938 -0.9273  2.5713 -0.2304
 1712SOL     OW16594   0.021   3.256   1.249  0.5137 -0.2195  0.1743
 1712SOL    HW116595   0.004   3.229   1.158 -1.0665  1.3444  0.0230
 1712SOL    HW216596   0.109   3.293   1.244 -0.0739  1.2009  0.3725
 1713SOL     OW16597   1.613   3.252  11.155 -0.0703  0.1578  0.2361
 1713SOL    HW116598   1.629   3.308  11.231  0.2758  0.2873  0.0685
 1713SOL    HW216599   1.683   3.187  11.162 -1.2090 -0.8870  2.0268
 1714SOL     OW16600   1.549   4.722  11.870 -0.1630 -0.2363  0.0252
 1714SOL    HW116601   1.512   0.073  11.820  2.4549  0.3930 -0.9911
 1714SOL    HW216602   1.486   4.691  11.935 -1.2531 -1.7069 -1.7311
 1715SOL     OW16603   3.465   3.595   2.238  0.1798 -0.9438  0.2043
 1715SOL    HW116604   3.398   3.593   2.170  0.6143 -0.8508 -0.2209
 1715SOL    HW216605   3.427   3.548   2.313 -0.3889  1.2037  1.2922
 1716SOL     OW16606   2.925   3.162   7.020 -0.0139 -0.2048  0.3017
 1716SOL    HW116607   2.922   3.066   7.019 -0.1499 -0.1771 -2.1740
 1716SOL    HW216608   3.007   3.165   7.068  0.4198 -2.9561 -0.2709
 1717SOL     OW16609   1.218   2.920   4.167  0.3537 -0.3812  0.6747
 1717SOL    HW116610   1.302   2.875   4.162  0.7350  0.4468 -0.2860
 1717SOL    HW216611   1.231   2.990   4.103 -0.5986 -3.1976 -2.5682
 1718SOL     OW16612   1.432   1.791   9.288  0.4137 -0.0622  0.2188
 1718SOL    HW116613   1.461   1.785   9.197 -0.7968  2.4960 -0.3184
 1718SOL    HW216614   1.509   1.761   9.335  0.3795  0.6671  0.7378
 1719SOL     OW16615   0.618   1.680  13.580 -0.3644 -0.0876 -0.2274
 1719SOL    HW116616   0.616   1.607  13.517 -0.6608  0.2012 -0.5547
 1719SOL    HW216617   0.525   1.684  13.600 -0.9979 -0.6664 -3.0849
 1720SOL     OW16618   2.105   2.488   4.146  0.4749 -0.4411  0.6546
 1720SOL    HW116619   2.081   2.412   4.092 -0.2202  0.9468 -1.0092
 1720SOL    HW216620   2.107   2.453   4.235 -2.2546 -1.2487  0.4054
 1721SOL     OW16621   2.396   1.848   3.341  0.4712 -0.2053 -0.1036
 1721SOL    HW116622   2.435   1.918   3.394 -1.0646  0.0873  0.6634
 1721SOL    HW216623   2.468   1.787   3.359 -2.3426 -2.5210  3.3383
 1722SOL     OW16624   0.119   2.488  12.709  0.3111  0.0949 -0.0823
 1722SOL    HW116625   0.053   2.418  12.702 -0.9109  1.6959 -4.4228
 1722SOL    HW216626   0.060   2.559  12.734 -0.8825 -0.3777 -1.5151
 1723SOL     OW16627   1.281   3.874   9.352  0.5088 -0.9151  0.1270
 1723SOL    HW116628   1.270   3.958   9.307  2.1475 -1.3843 -1.1627
 1723SOL    HW216629   1.242   3.875   9.439  3.4251  1.5417  1.4435
 1724SOL     OW16630   4.048   0.194   9.793  0.3016  0.1650  0.4274
 1724SOL    HW116631   4.022   0.259   9.858 -2.4262  0.1414 -0.6422
 1724SOL    HW216632   4.074   0.255   9.724  2.3224 -0.9509  0.1929
 1725SOL     OW16633   4.168   4.204  11.293 -0.4088  0.4580  0.0481
 1725SOL    HW116634   4.199   4.251  11.370 -1.3955 -0.7423  1.1946
 1725SOL    HW216635   4.113   4.134  11.330  1.9768 -0.7778  1.2456
 1726SOL     OW16636   0.236   2.655  12.952 -0.4805  0.1361  0.5697
 1726SOL    HW116637   0.142   2.663  12.964 -0.4087 -1.1646  1.9470
 1726SOL    HW216638   0.259   2.637  13.043  2.3696  0.1937 -0.1108
 1727SOL     OW16639   2.149   1.096   2.052  0.8771 -0.8000  0.1997
 1727SOL    HW116640   2.234   1.054   2.049  0.0976 -2.1922 -1.9132
 1727SOL    HW216641   2.100   1.071   1.974 -0.8776  1.4567  0.5651
 1728SOL     OW16642   1.423   3.585   2.850 -0.5066 -0.3362 -0.9844
 1728SOL    HW116643   1.455   3.574   2.940 -2.6930 -2.9782 -0.5266
 1728SOL    HW216644   1.467   3.669   2.836  0.4448 -0.1142  3.2084
 1729SOL     OW16645   1.784   1.416   6.419 -0.3251 -0.6502 -0.3194
 1729SOL    HW116646   1.738   1.457   6.493  2.1593  0.2109  0.7581
 1729SOL    HW216647   1.856   1.373   6.466 -0.1033 -1.4742 -1.4254
 1730SOL     OW16648   2.916   1.154  12.307 -0.5415  0.0712  0.0589
 1730SOL    HW116649   2.934   1.061  12.290 -1.0312 -0.2680  1.3756
 1730SOL    HW216650   2.933   1.168  12.400 -1.6954  2.2707 -0.0744
 1731SOL     OW16651   4.197   2.473   7.965  0.3431 -0.0463  0.3239
 1731SOL    HW116652   4.227   2.383   7.956  1.7218  0.6268 -1.7911
 1731SOL    HW216653   4.268   2.525   7.929 -0.3829  0.2065 -0.7383
 1732SOL     OW16654   1.931   1.176   7.273 -0.0940 -0.2994 -0.0904
 1732SOL    HW116655   1.846   1.175   7.231  0.1640 -3.2741 -0.5168
 1732SOL    HW216656   1.991   1.138   7.209  1.8469 -1.1119  2.1866
 1733SOL     OW16657   4.372   3.684   2.428  0.2948  0.1668 -0.0597
 1733SOL    HW116658   4.323   3.626   2.369  3.7905 -1.7127 -1.1145
 1733SOL    HW216659   4.310   3.757   2.436 -0.0469 -0.2300  0.8901
 1734SOL     OW16660   3.294   3.167   5.013 -0.4714  0.2240  0.1780
 1734SOL    HW116661   3.365   3.181   4.950  2.0960 -3.0159  2.3473
 1734SOL    HW216662   3.313   3.243   5.069 -0.1588  0.9176 -0.8772
 1735SOL     OW16663   4.528   2.006   3.496 -0.1465  0.3049 -0.0035
 1735SOL    HW116664   4.516   1.947   3.421  0.3891 -1.1802  1.0810
 1735SOL    HW216665   4.617   2.038   3.501 -0.5049  1.3326 -0.2817
 1736SOL     OW16666   3.700   2.524   3.758 -0.0887  0.4084 -0.0955
 1736SOL    HW116667   3.790   2.544   3.783  0.8071 -1.6034 -1.7222
 1736SOL    HW216668   3.667   2.549   3.844  1.5808 -0.1385  0.6869
 1737SOL     OW16669   0.120   2.351   9.491 -0.2298 -0.1413  0.1538
 1737SOL    HW116670   0.201   2.313   9.524  0.3070 -0.9107 -2.0539
 1737SOL    HW216671   0.099   2.287   9.422  1.5229 -1.8611  1.2101
 1738SOL     OW16672   0.262   3.877   1.668 -0.2967 -0.0923 -0.3308
 1738SOL    HW116673   0.333   3.887   1.732  0.1771 -0.1131 -0.8497
 1738SOL    HW216674   0.305   3.810   1.614 -1.1942  1.1819 -2.6045
 1739SOL     OW16675   1.582   2.525   7.425 -0.2215  0.2932  0.3649
 1739SOL    HW116676   1.649   2.583   7.389 -1.2262  0.7750 -0.7420
 1739SOL    HW216677   1.599   2.452   7.365 -0.4389  0.8793 -0.4184
 1740SOL     OW16678   4.119   4.289   8.292  0.5195 -0.0326 -1.3042
 1740SOL    HW116679   4.122   4.282   8.387 -3.6821  1.9290 -1.0209
 1740SOL    HW216680   4.183   4.360   8.281  0.3328  0.2612 -0.4730
 1741SOL     OW16681   2.361   0.830   2.296 -0.1460  0.0978  0.1759
 1741SOL    HW116682   2.323   0.790   2.217 -1.4306 -0.1364  0.9147
 1741SOL    HW216683   2.357   0.924   2.277 -1.5397  0.1790  0.8482
 1742SOL     OW16684   4.488   0.133   6.114  0.4469  0.4979  0.6352
 1742SOL    HW116685   4.437   0.084   6.049  2.8337 -1.4115  0.2153
 1742SOL    HW216686   4.470   0.224   6.089 -0.9526 -0.2800 -1.1827
 1743SOL     OW16687   3.456   1.081  10.899  0.2350  0.1073  0.7785
 1743SOL    HW116688   3.378   1.028  10.913 -1.2399  1.8360 -0.8904
 1743SOL    HW216689   3.420   1.166  10.875 -0.4667 -0.2420  0.6139
 1744SOL     OW16690   4.020   4.435   2.791  0.6938  0.0580 -0.7221
 1744SOL    HW116691   3.943   4.404   2.742 -0.9225  3.2242 -0.1917
 1744SOL    HW216692   4.094   4.383   2.761  0.8909 -0.9657  1.4864
 1745SOL     OW16693   4.429   1.486   9.899 -0.0178  0.2547  0.5945
 1745SOL    HW116694   4.470   1.540   9.831 -1.3251 -0.2783 -0.6131
 1745SOL    HW216695   4.465   1.511   9.984  2.1706 -3.3721  0.6902
 1746SOL     OW16696   0.700   0.456   3.298  0.1327 -0.1905  0.4664
 1746SOL    HW116697   0.764   0.393   3.264 -0.9694 -1.4890  0.8080
 1746SOL    HW216698   0.623   0.427   3.250  0.3842 -0.0195 -0.0290
 1747SOL     OW16699   1.763   4.562   1.644  0.0384  0.1034 -0.7700
 1747SOL    HW116700   1.855   4.537   1.653 -0.4872 -1.3011  0.6956
 1747SOL    HW216701   1.768   4.652   1.613  0.8389  0.1801 -0.4027
 1748SOL     OW16702   3.274   2.109   0.933 -0.4635 -0.8547 -0.0369
 1748SOL    HW116703   3.313   2.174   0.874 -0.1818 -2.0915 -1.2113
 1748SOL    HW216704   3.347   2.051   0.956  1.0552  1.5947  1.2882
 1749SOL     OW16705   4.673   2.937   6.333 -0.4602  0.1434 -0.3054
 1749SOL    HW116706   0.036   2.895   6.324  1.4136  3.8023  0.7834
 1749SOL    HW216707   4.687   3.008   6.271 -0.7747 -0.7355 -1.3842
 1750SOL     OW16708   2.608   2.174  14.376  0.5915  0.1539 -0.1901
 1750SOL    HW116709   2.639   2.238  14.311  0.1806  0.9350  0.3908
 1750SOL    HW216710   2.605   2.094  14.323 -0.6600  0.2840 -0.3213
 1751SOL     OW16711   2.550   1.463   9.479  0.1853 -0.3434  0.3134
 1751SOL    HW116712   2.621   1.418   9.527 -0.3035 -0.8168  0.5960
 1751SOL    HW216713   2.489   1.390   9.473  0.0219 -0.3653  2.2202
 1752SOL     OW16714   0.914   3.119   8.290  0.2222 -0.1765 -0.4909
 1752SOL    HW116715   0.871   3.190   8.242  0.5156  0.8624  0.7739
 1752SOL    HW216716   0.900   3.053   8.222  2.0758 -1.1890  0.1297
 1753SOL     OW16717   2.323   1.693   5.204  0.3472 -0.2393  0.3975
 1753SOL    HW116718   2.361   1.610   5.175 -1.0453 -0.6048 -0.3515
 1753SOL    HW216719   2.249   1.685   5.145  1.7265  2.2023 -1.6547
 1754SOL     OW16720   2.814   1.481   1.122  0.1544 -0.0864  0.6692
 1754SOL    HW116721   2.743   1.477   1.187 -0.0410 -1.9081  0.3356
 1754SOL    HW216722   2.825   1.573   1.097 -0.0747  0.0150  0.9244
 1755SOL     OW16723   4.077   0.772   3.857 -0.6004  0.1893 -0.6815
 1755SOL    HW116724   4.095   0.728   3.774 -2.4355  0.1865 -1.0822
 1755SOL    HW216725   4.003   0.825   3.828  0.2965  2.0640  0.4734
 1756SOL     OW16726   3.974   2.521  10.517  0.8334  0.1327  0.2422
 1756SOL    HW116727   4.051   2.576  10.505 -0.0836  1.0432 -1.4947
 1756SOL    HW216728   3.915   2.588  10.482 -0.7542 -1.3295  0.0869
 1757SOL     OW16729   1.844   1.270   3.106 -0.2573 -0.2528 -0.8159
 1757SOL    HW116730   1.806   1.316   3.031 -2.4447 -0.1064  0.4147
 1757SOL    HW216731   1.766   1.229   3.141  1.7521 -0.8696  2.9476
 1758SOL     OW16732   2.333   2.442   9.861  0.6239 -0.2097 -0.3135
 1758SOL    HW116733   2.266   2.497   9.822  0.4219  0.7946  1.4618
 1758SOL    HW216734   2.290   2.362   9.890  0.8611  0.5919  2.2124
 1759SOL     OW16735   4.328   0.118  14.902  0.0929  0.8941 -0.5083
 1759SOL    HW116736   4.377   0.157  14.830  1.3811 -0.5997 -0.4460
 1759SOL    HW216737   4.271   0.194  14.914  0.3234  0.8072  1.1926
 1760SOL     OW16738   2.694   0.592  16.221 -0.1437 -0.4230  0.5655
 1760SOL    HW116739   2.635   0.663  16.195  0.0701 -0.1633  0.7831
 1760SOL    HW216740   2.769   0.642  16.255 -0.8578  1.1398 -0.1491
 1761SOL     OW16741   4.650   2.151   7.649  0.2427 -0.6940 -0.4085
 1761SOL    HW116742   4.613   2.119   7.566  0.8965 -1.7497 -0.2841
 1761SOL    HW216743   0.018   2.126   7.634  0.4586  0.5841 -1.3165
 1762SOL     OW16744   3.371   1.028   8.839 -0.0887 -0.2679  0.2157
 1762SOL    HW116745   3.325   1.077   8.907 -0.2232 -0.4933  0.2894
 1762SOL    HW216746   3.433   0.981   8.894  0.7032  0.6796  0.1144
 1763SOL     OW16747   0.191   0.411   5.470  0.3339 -0.0733 -0.1282
 1763SOL    HW116748   0.105   0.370   5.468  1.5782 -2.5528 -2.2127
 1763SOL    HW216749   0.164   0.474   5.403  2.1688  0.5440 -0.3022
 1764SOL     OW16750   2.211   2.907   4.128 -0.2174  0.1007  0.3665
 1764SOL    HW116751   2.210   2.895   4.223  0.7156 -1.0759  0.2202
 1764SOL    HW216752   2.295   2.866   4.110  0.0183  1.4345 -1.5662
 1765SOL     OW16753   2.478   1.881   8.647  0.3109 -0.5447  0.9823
 1765SOL    HW116754   2.393   1.887   8.690 -0.5812  2.5023 -1.1690
 1765SOL    HW216755   2.514   1.966   8.670 -0.6038  0.2447 -0.4898
 1766SOL     OW16756   1.391   1.283   5.587  0.1450 -0.4509 -0.0325
 1766SOL    HW116757   1.329   1.356   5.594  2.8336  1.6801  1.6051
 1766SOL    HW216758   1.455   1.313   5.652 -0.5846 -0.5964  0.7600
 1767SOL     OW16759   1.035   1.213  13.986 -0.0870 -0.1408 -0.7019
 1767SOL    HW116760   1.037   1.289  13.929 -1.6917  0.7432  0.4379
 1767SOL    HW216761   1.023   1.250  14.074  0.7667  1.9642 -1.4879
 1768SOL     OW16762   2.041   1.223   4.000  0.5979  0.1994  0.0052
 1768SOL    HW116763   2.023   1.302   3.949  1.8332  0.1717 -0.4794
 1768SOL    HW216764   2.038   1.140   3.952 -1.6092 -0.1991  0.8240
 1769SOL     OW16765   1.672   4.061   2.240 -0.7340  0.0309  0.0475
 1769SOL    HW116766   1.631   4.146   2.224 -0.5741 -0.0607 -0.8527
 1769SOL    HW216767   1.674   4.064   2.336  0.5858 -0.6418  0.0413
 1770SOL     OW16768   1.826   4.251  16.043 -0.0277 -0.1515 -0.9898
 1770SOL    HW116769   1.771   4.174  16.058 -0.4336  0.0900 -1.2471
 1770SOL    HW216770   1.908   4.227  16.087  0.2791 -1.1840 -2.1254
 1771SOL     OW16771   1.484   3.245   5.552  0.3879  0.2694 -0.1422
 1771SOL    HW116772   1.579   3.247   5.538 -0.1009 -0.4204 -3.7990
 1771SOL    HW216773   1.470   3.327   5.599  0.5232  0.7486 -0.9414
 1772SOL     OW16774   3.695   1.791   3.127  0.2202 -0.8612  0.4117
 1772SOL    HW116775   3.642   1.767   3.051  0.1484 -0.4336  0.3259
 1772SOL    HW216776   3.659   1.878   3.141 -0.9961 -1.2175 -0.4705
 1773SOL     OW16777   4.398   1.842   7.720 -0.2691 -0.5049 -0.7483
 1773SOL    HW116778   4.484   1.839   7.678  0.9467  0.8447  1.6073
 1773SOL    HW216779   4.334   1.842   7.649 -0.5580 -1.2065 -0.4947
 1774SOL     OW16780   1.198   4.201   5.677  0.5249 -0.6775  0.4348
 1774SOL    HW116781   1.151   4.130   5.721  0.3902  0.6983  2.5250
 1774SOL    HW216782   1.243   4.150   5.610 -0.4546  0.0885 -0.8032
 1775SOL     OW16783   3.874   1.062  12.875 -0.0517 -0.1598 -0.1197
 1775SOL    HW116784   3.968   1.072  12.888 -0.7271  1.1873  3.7044
 1775SOL    HW216785   3.853   1.006  12.950  0.7152  1.0143  0.9558
 1776SOL     OW16786   2.156   3.802  10.748 -0.0294 -0.2695  0.1473
 1776SOL    HW116787   2.168   3.856  10.669  0.3263 -1.7793 -0.8398
 1776SOL    HW216788   2.082   3.852  10.782 -0.5238  0.7642 -2.3870
 1777SOL     OW16789   0.999   0.202   2.577 -0.5898 -0.5873  0.1229
 1777SOL    HW116790   1.067   0.185   2.513 -2.9138 -0.8291 -2.2947
 1777SOL    HW216791   1.050   0.236   2.651 -0.6839  0.6775 -0.4016
 1778SOL     OW16792   3.695   3.028   2.691 -0.0874 -0.3323  0.0703
 1778SOL    HW116793   3.678   2.967   2.619 -2.9769 -1.9763  2.1592
 1778SOL    HW216794   3.604   3.050   2.713  0.2571  0.4705  0.6774
 1779SOL     OW16795   2.568   3.567   1.360 -0.1242  0.4802  0.3342
 1779SOL    HW116796   2.540   3.599   1.275 -2.2281  1.2806  1.3273
 1779SOL    HW216797   2.507   3.617   1.415 -0.9215  1.6986 -1.6918
 1780SOL     OW16798   2.496   4.288   8.632  0.3063  0.5357  0.2403
 1780SOL    HW116799   2.410   4.313   8.666  0.6616  1.9607  0.0580
 1780SOL    HW216800   2.480   4.194   8.621 -3.4189  1.0482  1.1468
 1781SOL     OW16801   4.495   1.667   4.557  0.4083  0.3163  0.2078
 1781SOL    HW116802   4.445   1.744   4.533 -1.3356 -1.5597 -2.1659
 1781SOL    HW216803   4.586   1.693   4.573  0.5995 -0.1359 -0.1359
 1782SOL     OW16804   1.879   3.902   3.307 -0.5847 -0.1357  0.2986
 1782SOL    HW116805   1.874   3.909   3.403 -0.0806 -2.2387  0.4683
 1782SOL    HW216806   1.826   3.822   3.301 -3.4024  1.8780 -1.6600
 1783SOL     OW16807   2.467   3.861   1.942  0.3468  0.8455  0.1357
 1783SOL    HW116808   2.429   3.926   1.883 -1.1145 -0.4182 -0.3265
 1783SOL    HW216809   2.462   3.905   2.027 -1.2073  2.1390 -0.6185
 1784SOL     OW16810   2.571   3.084   8.257 -0.3297  0.0549 -0.6616
 1784SOL    HW116811   2.525   3.161   8.222  0.1518  2.1417  3.2587
 1784SOL    HW216812   2.508   3.024   8.296 -0.9961 -0.7375 -2.9948
 1785SOL     OW16813   0.577   4.622   8.218  0.2147  0.3333  0.2246
 1785SOL    HW116814   0.631   4.694   8.251  0.2124  0.0641  0.8030
 1785SOL    HW216815   0.527   4.600   8.296  3.4561  1.0598  2.4798
 1786SOL     OW16816   1.583   0.340   7.062 -0.9139 -0.1721 -0.2568
 1786SOL    HW116817   1.588   0.314   7.154  0.2397  0.8504 -0.0365
 1786SOL    HW216818   1.650   0.281   7.028 -0.4354 -0.5497  1.3217
 1787SOL     OW16819   4.401   1.739   0.914 -0.3327  0.2809  0.3169
 1787SOL    HW116820   4.368   1.818   0.958 -1.2715 -0.0417  0.1843
 1787SOL    HW216821   4.491   1.771   0.903  0.0167 -0.8882 -0.1660
 1788SOL     OW16822   0.857   3.735   4.818  0.2406 -0.0706 -0.0047
 1788SOL    HW116823   0.859   3.639   4.828  1.8439  0.0129  0.5458
 1788SOL    HW216824   0.897   3.763   4.901  0.8786  0.4270 -0.4841
 1789SOL     OW16825   4.632   2.758   9.153 -0.2108 -0.3975  0.4709
 1789SOL    HW116826   4.662   2.688   9.212 -2.1402 -0.4506  1.3822
 1789SOL    HW216827   4.684   2.828   9.191 -0.5550  0.1453 -0.0688
 1790SOL     OW16828   0.052   3.850   8.170  0.3454  0.2334 -0.6350
 1790SOL    HW116829   0.124   3.796   8.138 -0.8267 -2.3394  1.1223
 1790SOL    HW216830   0.068   3.856   8.264 -0.9894  3.7560 -0.5970
 1791SOL     OW16831   1.243   1.058   2.690  0.4789  0.1383  0.0191
 1791SOL    HW116832   1.222   0.967   2.712  0.6206 -0.3668 -1.9322
 1791SOL    HW216833   1.302   1.049   2.615  2.5202  0.8413  1.5272
 1792SOL     OW16834   4.069   3.643   8.600 -0.2321  1.1216 -0.0365
 1792SOL    HW116835   3.991   3.682   8.559 -0.2227 -0.8854 -1.9889
 1792SOL    HW216836   4.105   3.704   8.663  0.1943  0.4115  0.4052
 1793SOL     OW16837   3.921   2.298  11.473 -0.1523 -0.5876 -0.0952
 1793SOL    HW116838   3.932   2.278  11.381 -0.7129  0.8506 -0.4774
 1793SOL    HW216839   3.958   2.223  11.520 -0.8240 -1.5176 -1.0651
 1794SOL     OW16840   0.097   3.276  17.064  0.2094 -0.2395  0.0126
 1794SOL    HW116841   0.008   3.239  17.067 -0.8306  2.2722 -0.2160
 1794SOL    HW216842   0.100   3.304  17.155  2.3102 -0.9450  0.1557
 1795SOL     OW16843   1.388   0.604   0.767  0.4058 -0.1232 -0.2096
 1795SOL    HW116844   1.313   0.581   0.822 -1.3261  0.8251 -2.2113
 1795SOL    HW216845   1.390   0.699   0.780 -1.2611 -0.1839  0.3755
 1796SOL     OW16846   2.788   2.854   6.779  0.1638  0.9113 -0.1158
 1796SOL    HW116847   2.794   2.949   6.780  0.3747  0.8796  1.5078
 1796SOL    HW216848   2.876   2.840   6.814  0.1784 -3.7340 -1.9277
 1797SOL     OW16849   0.891   1.517   9.138 -0.0668  0.2799 -0.7944
 1797SOL    HW116850   0.935   1.481   9.215 -1.2915  1.2760  0.3870
 1797SOL    HW216851   0.798   1.496   9.151 -0.2929  1.5104 -0.4330
 1798SOL     OW16852   0.536   1.076   2.152 -0.0246  0.0209  0.4114
 1798SOL    HW116853   0.611   1.058   2.095  0.8494  1.0938  1.2225
 1798SOL    HW216854   0.539   1.169   2.173  0.1679  0.3309 -0.9729
 1799SOL     OW16855   1.997   0.655   4.658  0.3499  0.7322  0.4033
 1799SOL    HW116856   1.980   0.740   4.699  0.0681  2.3048 -2.9485
 1799SOL    HW216857   2.088   0.657   4.629 -0.7461  2.5467 -2.9269
 1800SOL     OW16858   0.342   1.481   2.220 -0.7426  0.1225 -0.1876
 1800SOL    HW116859   0.379   1.550   2.275  2.8321 -1.4740 -0.5273
 1800SOL    HW216860   0.260   1.520   2.190 -0.2783  0.7341 -0.6577
 1801SOL     OW16861   1.263   2.179  14.246 -0.3765 -0.4933  0.0421
 1801SOL    HW116862   1.202   2.237  14.292  0.0271  0.2665 -0.3755
 1801SOL    HW216863   1.318   2.246  14.205 -1.4573  0.2682 -0.1521
 1802SOL     OW16864   2.838   0.849   4.748 -0.1779 -0.6024 -0.8588
 1802SOL    HW116865   2.816   0.875   4.659  1.1245  2.5016 -0.2720
 1802SOL    HW216866   2.755   0.854   4.796 -0.9747  1.5873 -2.4763
 1803SOL     OW16867   0.377   0.761  14.082  0.4069  0.4262  0.4394
 1803SOL    HW116868   0.357   0.809  14.161  0.3659  0.8450  0.1741
 1803SOL    HW216869   0.448   0.817  14.051 -0.2163  0.7874 -0.3407
 1804SOL     OW16870   4.153   3.456   5.058  0.0991 -0.2966 -0.6047
 1804SOL    HW116871   4.147   3.466   5.153 -1.1376  0.1717 -0.7355
 1804SOL    HW216872   4.074   3.406   5.041 -0.8826  1.1332 -0.1789
 1805SOL     OW16873   4.115   0.534  10.697  0.3797 -0.0146 -0.3977
 1805SOL    HW116874   4.149   0.622  10.704 -0.1062  0.3441 -2.5083
 1805SOL    HW216875   4.102   0.520  10.791  1.3264 -1.9200 -0.5497
 1806SOL     OW16876   2.082   4.126   1.622  0.2329 -0.4381 -0.0403
 1806SOL    HW116877   2.144   4.198   1.607  0.3240 -0.1914  1.4976
 1806SOL    HW216878   2.129   4.092   1.698 -1.5996  0.8544  1.6498
 1807SOL     OW16879   1.859   1.145   2.576 -0.9702 -0.4271 -0.0426
 1807SOL    HW116880   1.887   1.231   2.544 -1.2890  0.1730  1.2832
 1807SOL    HW216881   1.808   1.119   2.499  0.4288  0.0094 -1.1182
 1808SOL     OW16882   2.553   2.608   1.883  0.0702 -0.3525 -0.0372
 1808SOL    HW116883   2.642   2.571   1.885 -0.5037 -1.7027  0.5828
 1808SOL    HW216884   2.562   2.679   1.947  0.6580 -0.1090 -0.3903
 1809SOL     OW16885   3.308   1.654  17.302  0.0573 -0.5449 -0.1656
 1809SOL    HW116886   3.388   1.602  17.293 -0.7398 -1.3117 -2.7361
 1809SOL    HW216887   3.312   1.709  17.224  0.5603 -0.5789 -0.1670
 1810SOL     OW16888   2.711   3.253  16.911 -0.2047 -0.2137  0.3470
 1810SOL    HW116889   2.628   3.273  16.954 -0.3028 -0.3982  0.2421
 1810SOL    HW216890   2.731   3.337  16.871 -1.0284  0.7393  1.9403
 1811SOL     OW16891   3.330   0.641  13.498 -0.2466 -0.4105 -0.1041
 1811SOL    HW116892   3.408   0.586  13.492  0.2056  0.2908 -0.6337
 1811SOL    HW216893   3.292   0.627  13.411  0.1575  0.5935 -0.4360
 1812SOL     OW16894   4.374   0.534   5.446 -0.3521  0.5206 -0.2676
 1812SOL    HW116895   4.372   0.440   5.467 -1.5281  0.5283 -0.3213
 1812SOL    HW216896   4.293   0.549   5.496 -0.1184 -1.5053  0.7290
 1813SOL     OW16897   2.322   3.493   4.730  0.4073 -0.4867  0.4487
 1813SOL    HW116898   2.340   3.453   4.645  0.4259  0.2294  0.1206
 1813SOL    HW216899   2.342   3.421   4.790 -0.8238 -1.8016 -0.6983
 1814SOL     OW16900   1.020   2.299  14.073  0.7262 -0.0915 -0.2907
 1814SOL    HW116901   1.095   2.270  14.124  2.0610 -1.5345 -3.0660
 1814SOL    HW216902   0.955   2.229  14.076 -1.1975  1.6510 -1.3990
 1815SOL     OW16903   3.068   2.513   6.143  0.3082  0.1310 -0.4237
 1815SOL    HW116904   3.062   2.599   6.103  1.9981  0.2151 -0.5019
 1815SOL    HW216905   3.077   2.467   6.059  2.7342 -0.0091 -0.0952
 1816SOL     OW16906   3.147   2.126   0.033 -0.3417 -0.5908  0.2388
 1816SOL    HW116907   3.150   2.033   0.058  1.2008 -0.5641  0.1374
 1816SOL    HW216908   3.068   2.134  17.671  0.0022  0.6911 -0.0615
 1817SOL     OW16909   3.744   0.870   6.041  0.0201 -0.3792 -0.5249
 1817SOL    HW116910   3.672   0.814   6.067  0.0086  0.0190  0.3112
 1817SOL    HW216911   3.804   0.799   6.019  0.3738 -0.5205  0.8605
 1818SOL     OW16912   1.267   2.382   5.981  0.1182  0.0173  0.4513
 1818SOL    HW116913   1.350   2.411   5.944  0.3141 -0.1925  0.7309
 1818SOL    HW216914   1.202   2.438   5.939  1.7393  0.6179 -1.2763
 1819SOL     OW16915   2.759   2.554   6.588 -0.3049  0.1790  0.1131
 1819SOL    HW116916   2.754   2.468   6.630 -0.9568 -1.1982 -2.8082
 1819SOL    HW216917   2.680   2.599   6.618  0.3817 -0.1681  2.4751
 1820SOL     OW16918   0.433   3.741   5.173  0.1361 -0.5521  0.0922
 1820SOL    HW116919   0.450   3.663   5.120 -1.4205  0.3180 -1.6783
 1820SOL    HW216920   0.520   3.751   5.212 -0.2321 -0.7131  0.9639
 1821SOL     OW16921   4.560   4.189   6.639  0.0157 -0.3842 -0.3559
 1821SOL    HW116922   4.612   4.158   6.565  0.6260  0.1882 -0.1700
 1821SOL    HW216923   4.625   4.234   6.694  0.8074 -0.4196 -1.2558
 1822SOL     OW16924   0.503   2.087   1.688  0.1218  0.0048 -0.6711
 1822SOL    HW116925   0.421   2.054   1.651  0.1542 -0.9729  0.1427
 1822SOL    HW216926   0.547   2.105   1.604  0.5286 -0.6056 -0.5843
 1823SOL     OW16927   0.444   1.002   3.033 -0.2359  0.0368  0.1118
 1823SOL    HW116928   0.439   1.095   3.055 -0.2543  0.0059  0.2431
 1823SOL    HW216929   0.351   0.982   3.043  0.5462 -3.0383  1.1798
 1824SOL     OW16930   3.179   3.174   6.495 -0.3741 -0.8484 -0.2323
 1824SOL    HW116931   3.147   3.218   6.574  3.0887  2.6751 -0.7689
 1824SOL    HW216932   3.131   3.091   6.501  0.5356 -1.3222  0.4970
 1825SOL     OW16933   0.279   2.597   9.738 -0.4497 -0.3761 -0.1452
 1825SOL    HW116934   0.284   2.652   9.660 -0.8497  0.1793  0.2154
 1825SOL    HW216935   0.372   2.599   9.763 -0.4000  1.6665 -0.4793
 1826SOL     OW16936   4.662   0.963   7.340  0.4276  0.4260  0.1865
 1826SOL    HW116937   4.617   1.047   7.339  1.8672  1.1972 -0.1374
 1826SOL    HW216938   4.684   0.953   7.248  0.2129 -0.4331  0.2263
 1827SOL     OW16939   3.144   4.698   8.694 -0.2088 -0.3225 -0.2021
 1827SOL    HW116940   3.089   0.032   8.748 -0.9269 -1.1923 -0.0113
 1827SOL    HW216941   3.082   4.658   8.634  0.8820  0.3422 -1.7719
 1828SOL     OW16942   0.311   3.990  11.477 -0.2965 -0.0249  0.1159
 1828SOL    HW116943   0.398   3.965  11.445  0.2064 -0.7225  2.0027
 1828SOL    HW216944   0.274   3.903  11.494  0.7649 -0.7557 -1.3582
 1829SOL     OW16945   3.963   3.039   3.966  0.0433 -0.0516  0.3044
 1829SOL    HW116946   4.038   3.065   3.913  2.4009 -0.7563  3.3474
 1829SOL    HW216947   3.994   2.956   4.000 -2.3372 -0.2818  1.8897
 1830SOL     OW16948   2.498   2.296   8.602  0.0930 -0.6508  0.0504
 1830SOL    HW116949   2.527   2.352   8.674  0.8734 -0.1406 -0.6668
 1830SOL    HW216950   2.412   2.337   8.600  0.8517  0.7811 -2.2587
 1831SOL     OW16951   0.857   1.933   7.696 -0.0469 -0.0564  0.1142
 1831SOL    HW116952   0.935   1.905   7.649  0.8061  2.1731  0.2214
 1831SOL    HW216953   0.821   1.846   7.718 -2.4520  0.8169 -0.3574
 1832SOL     OW16954   0.949   0.034   4.265 -0.4855  0.3871 -0.6272
 1832SOL    HW116955   0.869   4.713   4.296  1.5081 -0.0593  3.8482
 1832SOL    HW216956   0.990   4.681   4.225 -0.1948 -0.1016  0.6221
 1833SOL     OW16957   0.918   2.993   5.923 -0.5740 -0.1555 -0.3357
 1833SOL    HW116958   1.009   2.981   5.899 -0.5068 -0.4971  0.1009
 1833SOL    HW216959   0.889   2.946   5.845 -0.4464  1.2490 -1.2422
 1834SOL     OW16960   0.575   4.384   6.042 -0.0918  0.2593  0.1435
 1834SOL    HW116961   0.521   4.410   6.117  1.3092 -1.4032  1.7605
 1834SOL    HW216962   0.651   4.355   6.092 -0.3170 -0.8662 -0.1565
 1835SOL     OW16963   1.093   2.068   8.189  0.0189 -0.0510 -0.3711
 1835SOL    HW116964   1.141   2.146   8.218 -1.7318  1.3558 -1.2299
 1835SOL    HW216965   1.070   2.034   8.276  0.1760 -0.5517 -0.5259
 1836SOL     OW16966   2.073   3.947   3.926 -0.3311 -0.4691  0.1486
 1836SOL    HW116967   2.108   3.999   3.999 -0.9178  3.1797 -2.1509
 1836SOL    HW216968   2.154   3.898   3.910  0.0291  0.4455 -0.8605
 1837SOL     OW16969   1.580   0.672  10.385  0.2451 -0.5537  0.2830
 1837SOL    HW116970   1.515   0.674  10.455 -1.5077  0.6531 -1.3623
 1837SOL    HW216971   1.570   0.757  10.342 -0.4906 -1.2722 -0.9522
 1838SOL     OW16972   0.769   0.461   7.358 -0.5692 -0.1186  0.1801
 1838SOL    HW116973   0.754   0.386   7.301  2.0395  0.4323 -1.2339
 1838SOL    HW216974   0.854   0.496   7.334  1.5027 -2.6487  3.7456
 1839SOL     OW16975   1.205   4.082   2.909 -0.0761 -0.0335 -0.3793
 1839SOL    HW116976   1.204   4.132   2.990 -0.9271  3.1360 -2.3585
 1839SOL    HW216977   1.232   3.992   2.927 -2.6612 -1.3118 -2.7954
 1840SOL     OW16978   1.667   1.453   1.226 -0.4977 -0.1713 -0.1437
 1840SOL    HW116979   1.645   1.409   1.144  1.1837 -0.7227 -0.3023
 1840SOL    HW216980   1.696   1.382   1.284 -2.2727  0.8917  2.0345
 1841SOL     OW16981   1.559   3.683   7.409 -0.4324  0.1327  0.3896
 1841SOL    HW116982   1.543   3.683   7.504  1.0979  1.0283  0.6523
 1841SOL    HW216983   1.571   3.776   7.391 -3.7865  0.5626  0.2687
 1842SOL     OW16984   3.294   4.661   4.626  0.5742 -0.0569 -0.3200
 1842SOL    HW116985   3.235   4.659   4.551  1.0182 -1.4065 -0.6370
 1842SOL    HW216986   3.293   4.572   4.662  2.9347 -0.3759 -1.0394
 1843SOL     OW16987   4.579   1.481  15.864 -0.1754  0.2070  0.5382
 1843SOL    HW116988   4.659   1.507  15.910 -0.2744 -0.7528  1.2584
 1843SOL    HW216989   4.609   1.409  15.809 -1.5692  1.6828 -2.1681
 1844SOL     OW16990   1.337   2.403  10.620  0.3583 -0.4900 -1.0335
 1844SOL    HW116991   1.280   2.334  10.589 -0.6571  0.7098 -1.8450
 1844SOL    HW216992   1.342   2.455  10.539 -0.5074 -2.6725 -2.4812
 1845SOL     OW16993   0.760   2.632   0.186  0.1463  0.1004 -0.5136
 1845SOL    HW116994   0.676   2.657   0.147 -0.3424 -0.7198  0.0184
 1845SOL    HW216995   0.775   2.552   0.137  1.0524 -0.4238  0.6296
 1846SOL     OW16996   1.002   4.577   0.866 -0.2484  0.2219 -0.0368
 1846SOL    HW116997   1.017   4.533   0.949  0.5390 -0.7183 -0.6880
 1846SOL    HW216998   1.020   4.667   0.894  1.0234 -0.4695  1.3432
 1847SOL     OW16999   3.083   1.852   5.268 -0.1524 -0.3617 -0.0091
 1847SOL    HW117000   3.143   1.779   5.281 -0.0122 -0.4746 -1.3015
 1847SOL    HW217001   3.135   1.893   5.199 -0.8086  2.0048  0.9134
 1848SOL     OW17002   2.649   4.264  12.181  1.1551 -0.6305  0.1504
 1848SOL    HW117003   2.636   4.313  12.262 -0.7966 -0.7991 -0.0614
 1848SOL    HW217004   2.663   4.331  12.114 -1.3472 -0.0507  0.2189
 1849SOL     OW17005   1.405   0.673   6.038  0.4097 -0.3097 -0.3094
 1849SOL    HW117006   1.433   0.681   5.947  2.0973  0.3175  0.2576
 1849SOL    HW217007   1.485   0.638   6.078  0.8693  1.6739  0.5111
 1850SOL     OW17008   2.130   2.623   9.762 -0.4367 -0.2463 -0.0201
 1850SOL    HW117009   2.100   2.686   9.827  2.7117  1.7527 -0.4977
 1850SOL    HW217010   2.052   2.571   9.741 -0.9954  0.5020  0.2255
 1851SOL     OW17011   4.151   4.720  12.574 -0.9282  0.4551  0.4390
 1851SOL    HW117012   4.107   4.678  12.648 -0.9351 -2.4875 -1.1986
 1851SOL    HW217013   4.213   0.043  12.630  0.1754 -1.2940  0.6324
 1852SOL     OW17014   0.089   0.859  12.791  0.6309 -0.5432 -0.0054
 1852SOL    HW117015   0.048   0.902  12.715 -2.0591  0.0601  1.7722
 1852SOL    HW217016   0.159   0.924  12.796  0.2319 -0.0036 -1.3019
 1853SOL     OW17017   2.616   3.282   3.598  0.0174  0.3169  0.0154
 1853SOL    HW117018   2.605   3.350   3.532 -1.8742  0.0647  0.0871
 1853SOL    HW217019   2.701   3.240   3.582  0.4041  0.8583  0.6202
 1854SOL     OW17020   0.485   1.435   2.871 -0.3395 -0.2839 -0.5995
 1854SOL    HW117021   0.465   1.516   2.824  1.5870  0.3555 -0.3305
 1854SOL    HW217022   0.453   1.375   2.804  1.5237  1.6800 -3.2682
 1855SOL     OW17023   1.251   0.432   3.832 -0.4400  0.5143 -0.5894
 1855SOL    HW117024   1.324   0.465   3.884  1.2644 -2.9317 -0.7347
 1855SOL    HW217025   1.288   0.435   3.743 -0.9962 -0.3511 -0.8519
 1856SOL     OW17026   3.570   4.440  14.254 -0.0639  0.4811 -0.7524
 1856SOL    HW117027   3.653   4.448  14.302  0.3600  0.3631 -1.4556
 1856SOL    HW217028   3.510   4.486  14.313  2.2611  0.1983  1.8837
 1857SOL     OW17029   0.721   1.357   3.171  0.0854  0.2979 -0.2396
 1857SOL    HW117030   0.749   1.432   3.223 -1.5381  0.5863  0.2207
 1857SOL    HW217031   0.744   1.282   3.225 -2.9814 -1.0901 -0.8587
 1858SOL     OW17032   0.388   4.150  14.755 -0.0343 -0.1006  0.1973
 1858SOL    HW117033   0.448   4.111  14.819 -0.1896 -1.3481 -0.4314
 1858SOL    HW217034   0.443   4.137  14.678 -2.4618  1.1110 -1.7287
 1859SOL     OW17035   0.868   1.275   7.718 -0.1730  0.4909  0.2841
 1859SOL    HW117036   0.926   1.199   7.722  0.3679  0.9006  0.3225
 1859SOL    HW217037   0.819   1.264   7.637  0.3593  3.9371 -0.5221
 1860SOL     OW17038   0.839   2.582   9.556  0.1822  0.2494  0.3961
 1860SOL    HW117039   0.915   2.567   9.612  0.8563 -2.1808 -1.1488
 1860SOL    HW217040   0.851   2.525   9.480 -0.6118 -0.6745  0.9637
 1861SOL     OW17041   4.402   2.021   5.487  0.0045  0.8202 -0.0468
 1861SOL    HW117042   4.496   2.010   5.499  0.3924  2.6833 -1.3737
 1861SOL    HW217043   4.401   2.102   5.436  0.4443  0.8310 -0.0397
 1862SOL     OW17044   4.662   3.650   7.251  0.2285 -0.2366  0.2108
 1862SOL    HW117045   4.631   3.702   7.176 -0.0242  1.5494  1.5522
 1862SOL    HW217046   4.643   3.560   7.226  1.2322 -0.9887  2.2154
 1863SOL     OW17047   0.328   4.506   7.225 -0.4553  0.0031 -0.3829
 1863SOL    HW117048   0.358   4.441   7.289 -0.2367  1.6340  1.1687
 1863SOL    HW217049   0.399   4.567   7.244  0.1110 -1.0084  0.7399
 1864SOL     OW17050   2.114   2.159   8.217  0.4397  0.1378  0.5022
 1864SOL    HW117051   2.023   2.148   8.191  0.3279  0.5680  0.7045
 1864SOL    HW217052   2.135   2.250   8.193  1.2598 -0.1870  0.0082
 1865SOL     OW17053   2.383   1.224   6.539  0.0181  0.1876  0.0844
 1865SOL    HW117054   2.407   1.315   6.526  3.2856 -0.7857 -0.7464
 1865SOL    HW217055   2.329   1.225   6.618 -1.4984  0.4326 -0.9483
 1866SOL     OW17056   0.225   1.640   7.448  0.4091 -0.2941  0.7455
 1866SOL    HW117057   0.293   1.703   7.472 -0.2430  0.5453  0.4363
 1866SOL    HW217058   0.261   1.596   7.371 -0.2223  0.2894  0.1185
 1867SOL     OW17059   2.989   1.631  14.199  0.6573 -0.2298 -0.0062
 1867SOL    HW117060   3.048   1.599  14.266 -0.2484 -0.3436  0.7392
 1867SOL    HW217061   3.045   1.603  14.126  1.6524  0.9660  0.3043
 1868SOL     OW17062   4.351   1.425   5.367 -0.0449  0.5127 -0.3381
 1868SOL    HW117063   4.370   1.333   5.347  0.4063  0.4798  0.2369
 1868SOL    HW217064   4.273   1.445   5.316 -0.3791  1.5588  0.5845
 1869SOL     OW17065   0.968   4.305  17.533 -0.6906 -0.0979  0.0409
 1869SOL    HW117066   0.874   4.290  17.519 -1.2080  1.0955  2.2961
 1869SOL    HW217067   0.994   4.239  17.596  2.1947 -1.0928 -2.1874
 1870SOL     OW17068   3.298   4.338   6.238  0.4688  0.1908 -0.0658
 1870SOL    HW117069   3.218   4.342   6.186 -0.1203 -0.7668  0.7691
 1870SOL    HW217070   3.264   4.315   6.324 -0.0820 -0.0082 -0.3378
 1871SOL     OW17071   1.785   4.391  13.767  0.2955  0.2597 -0.0887
 1871SOL    HW117072   1.789   4.477  13.808  0.8052 -0.2012  0.8134
 1871SOL    HW217073   1.700   4.360  13.801  0.9662 -1.5882 -0.0978
 1872SOL     OW17074   2.664   3.852   7.883 -0.1897  0.1149  0.0091
 1872SOL    HW117075   2.720   3.776   7.901 -1.2838 -0.4471  1.0615
 1872SOL    HW217076   2.646   3.839   7.790  1.6343  0.1645 -0.3566
 1873SOL     OW17077   4.571   3.390   4.135 -0.3147 -0.0404 -0.2397
 1873SOL    HW117078   4.549   3.301   4.107  1.3100 -0.3507 -0.5311
 1873SOL    HW217079   4.499   3.416   4.191 -0.3097  0.4585 -0.4689
 1874SOL     OW17080   0.061   4.170   9.415 -0.3755  0.0957  0.1139
 1874SOL    HW117081   4.697   4.186   9.452 -0.7867  0.3244 -0.9546
 1874SOL    HW217082   0.100   4.113   9.482 -0.1059 -2.2706 -2.0631
 1875SOL     OW17083   3.049   0.130  15.502  0.4376 -0.4991 -0.2236
 1875SOL    HW117084   3.126   0.141  15.447 -0.7468  4.1513 -0.9919
 1875SOL    HW217085   3.081   0.144  15.591 -1.3307 -1.7991  0.6245
 1876SOL     OW17086   2.169   4.545   2.577  0.1917 -0.1586 -0.2075
 1876SOL    HW117087   2.138   4.543   2.487 -0.1621 -1.5900 -0.0515
 1876SOL    HW217088   2.261   4.571   2.571 -0.6097  2.8316  0.4489
 1877SOL     OW17089   1.642   1.536   8.211  0.0653 -0.1161  0.0714
 1877SOL    HW117090   1.712   1.563   8.151  1.8651 -1.7509  1.4439
 1877SOL    HW217091   1.657   1.596   8.284 -0.4368  2.9803 -2.3715
 1878SOL     OW17092   1.052   1.195   5.930 -0.3930 -0.4157  0.1356
 1878SOL    HW117093   1.033   1.239   5.848  0.6680  0.3899  0.3146
 1878SOL    HW217094   1.109   1.261   5.970  0.4918 -0.4754 -1.0378
 1879SOL     OW17095   3.639   2.183   3.349 -0.0936 -0.0085 -0.0495
 1879SOL    HW117096   3.643   2.113   3.414  0.7953  1.7858  1.8289
 1879SOL    HW217097   3.546   2.203   3.347 -0.1321 -0.4052 -2.0731
 1880SOL     OW17098   3.625   2.316   7.148 -0.2351  0.1864 -0.0462
 1880SOL    HW117099   3.684   2.349   7.217 -0.2975  0.2039 -0.0009
 1880SOL    HW217100   3.638   2.222   7.149 -1.8697 -0.0085  3.0170
 1881SOL     OW17101   4.484   2.406   3.384  0.3196  0.3659 -0.1324
 1881SOL    HW117102   4.536   2.373   3.457  1.4230  0.4775 -0.8629
 1881SOL    HW217103   4.488   2.501   3.397 -0.6659  0.4616 -0.5281
 1882SOL     OW17104   3.012   3.664   3.454  0.7022 -0.2540  0.3588
 1882SOL    HW117105   3.007   3.588   3.395 -1.5121  0.1039  0.0928
 1882SOL    HW217106   3.059   3.729   3.402  0.2051  0.2510  0.5495
 1883SOL     OW17107   4.283   0.346   7.331  0.2188 -0.0807 -0.8259
 1883SOL    HW117108   4.195   0.380   7.346 -0.2853 -1.4971 -0.5299
 1883SOL    HW217109   4.259   0.253   7.336  1.9323 -0.6014 -2.1702
 1884SOL     OW17110   2.529   2.703   2.540  0.3510  0.9795 -0.3081
 1884SOL    HW117111   2.563   2.684   2.453  0.1325  1.1693 -0.4330
 1884SOL    HW217112   2.494   2.790   2.521  0.0653  0.6640 -1.1924
 1885SOL     OW17113   4.469   2.223   3.185 -0.4842 -0.0623  0.4539
 1885SOL    HW117114   4.551   2.238   3.137 -1.3752 -0.2740 -1.1439
 1885SOL    HW217115   4.474   2.286   3.257  2.3439  1.2003 -0.8229
 1886SOL     OW17116   0.398   3.272   4.854  0.2676  0.3880 -0.5359
 1886SOL    HW117117   0.459   3.326   4.803  1.1517  0.2614  0.3926
 1886SOL    HW217118   0.314   3.314   4.832  0.0639 -0.3927 -1.2309
 1887SOL     OW17119   2.708   0.363   3.009 -0.2703 -0.3173 -0.5024
 1887SOL    HW117120   2.707   0.297   3.078  1.7514  2.2462  1.9494
 1887SOL    HW217121   2.668   0.311   2.939 -0.5608 -2.1790  1.0425
 1888SOL     OW17122   4.501   0.258  17.635 -0.4839 -0.6424 -0.0742
 1888SOL    HW117123   4.510   0.224  17.546  1.2905  4.4402 -1.8639
 1888SOL    HW217124   4.540   0.183  17.680  2.1834 -0.5673 -2.2443
 1889SOL     OW17125   3.804   2.416   5.298  0.0830 -0.6554 -0.0019
 1889SOL    HW117126   3.892   2.387   5.320  0.1540 -1.0089 -0.7715
 1889SOL    HW217127   3.811   2.439   5.206  2.1136 -1.1453  0.0428
 1890SOL     OW17128   0.114   1.253   8.810 -0.1524  0.1461  0.1873
 1890SOL    HW117129   0.095   1.165   8.842  0.7659 -0.7504 -1.7583
 1890SOL    HW217130   0.185   1.286   8.865 -0.9086 -2.6674  2.8310
 1891SOL     OW17131   0.797   1.581   9.441 -0.3753 -0.3930 -0.4653
 1891SOL    HW117132   0.745   1.659   9.457 -0.5987 -0.7286  0.4304
 1891SOL    HW217133   0.863   1.630   9.391 -0.1115  1.7077  1.9471
 1892SOL     OW17134   0.965   0.909   6.436  0.0948  0.0258 -0.3936
 1892SOL    HW117135   0.941   0.820   6.410  5.2536 -1.1622 -1.0301
 1892SOL    HW217136   0.881   0.955   6.445  0.4690  0.5446  0.4201
 1893SOL     OW17137   2.491   2.490   7.990  0.4049  0.0997 -0.4377
 1893SOL    HW117138   2.436   2.411   7.985  0.4067  0.1022 -0.4918
 1893SOL    HW217139   2.506   2.515   8.081  1.4553  1.8982 -1.1254
 1894SOL     OW17140   4.556   1.316   1.834  0.4952  0.0356 -0.3142
 1894SOL    HW117141   4.526   1.366   1.759  1.4511 -1.2209 -1.5343
 1894SOL    HW217142   4.646   1.346   1.846  1.2873 -2.4489 -0.0813
 1895SOL     OW17143   1.042   4.476   6.131  0.4588 -0.1383  0.0954
 1895SOL    HW117144   1.070   4.404   6.074 -1.4446 -0.0736 -0.9268
 1895SOL    HW217145   0.952   4.444   6.131 -0.6742  3.0207 -2.8478
 1896SOL     OW17146   2.924   3.671  11.909  0.1592  0.1969  0.3286
 1896SOL    HW117147   2.849   3.724  11.935  1.6354  1.4348  2.0840
 1896SOL    HW217148   2.961   3.643  11.993 -1.8686  0.5362  1.3112
 1897SOL     OW17149   3.387   4.505   2.602  0.1600 -0.0463  0.7514
 1897SOL    HW117150   3.382   4.472   2.691  2.8719 -2.9009 -0.1344
 1897SOL    HW217151   3.414   4.595   2.620 -2.4361  0.5498  1.5983
 1898SOL     OW17152   2.629   4.599   4.312 -0.0132  0.4149 -0.1194
 1898SOL    HW117153   2.578   4.680   4.306 -2.2306 -0.8023  2.3805
 1898SOL    HW217154   2.638   4.599   4.407  1.0060  2.0261 -0.1973
 1899SOL     OW17155   4.281   3.104  15.901 -0.0130 -0.1240 -0.1164
 1899SOL    HW117156   4.259   3.013  15.917  1.9812 -0.3274  1.4271
 1899SOL    HW217157   4.244   3.100  15.813 -0.5335  1.8378 -0.0054
 1900SOL     OW17158   0.270   0.756   7.029  0.2642 -0.3275  0.0089
 1900SOL    HW117159   0.256   0.714   6.944 -1.4113 -0.8746  0.5569
 1900SOL    HW217160   0.309   0.690   7.086  0.8789  0.9162  1.0265
 1901SOL     OW17161   2.777   0.969   0.092 -0.0211 -0.3503 -0.2975
 1901SOL    HW117162   2.815   0.986   0.005  0.2917  2.8039  0.4789
 1901SOL    HW217163   2.848   0.938   0.147  0.2573 -0.3852 -0.6761
 1902SOL     OW17164   0.778   3.867   1.126  0.6994 -0.3514 -0.4349
 1902SOL    HW117165   0.815   3.903   1.045 -1.1932 -1.2655 -1.6962
 1902SOL    HW217166   0.691   3.845   1.093  0.0495  0.1544  0.9787
 1903SOL     OW17167   0.065   0.142  16.981  0.4239  0.1220 -0.3768
 1903SOL    HW117168   0.121   0.219  16.968 -1.6819  1.3309 -2.3758
 1903SOL    HW217169   0.024   0.144  16.894  1.3967  2.2143 -0.7998
 1904SOL     OW17170   4.722   1.902   8.771 -0.2587  0.3310  0.0875
 1904SOL    HW117171   0.044   1.982   8.799 -0.6837  0.8337 -0.6725
 1904SOL    HW217172   4.632   1.933   8.757 -0.2508  0.2670 -0.1087
 1905SOL     OW17173   0.896   0.372   4.858  0.4717 -0.0392  0.3140
 1905SOL    HW117174   0.946   0.439   4.809  0.3061  0.6494  1.0940
 1905SOL    HW217175   0.839   0.427   4.911 -0.9260 -2.4532  1.2825
 1906SOL     OW17176   1.974   0.140   2.950 -0.9463 -0.0061  0.4213
 1906SOL    HW117177   2.022   0.213   2.911  0.5976 -0.1397  2.0894
 1906SOL    HW217178   1.950   0.096   2.869 -0.0890  1.0922 -0.4362
 1907SOL     OW17179   3.157   0.323   8.688 -0.5065 -0.0776  0.3870
 1907SOL    HW117180   3.133   0.365   8.770  0.2947 -0.5100  0.8347
 1907SOL    HW217181   3.097   0.369   8.628 -1.4807 -1.0959  0.5802
 1908SOL     OW17182   2.020   1.060  10.161 -0.5512 -0.1135 -0.2115
 1908SOL    HW117183   1.980   1.105  10.087  0.0200  0.9583  0.1253
 1908SOL    HW217184   2.108   1.053  10.124 -0.7228  0.5479 -0.7536
 1909SOL     OW17185   3.126   2.407  17.054  0.4390 -0.7162 -0.1564
 1909SOL    HW117186   3.080   2.442  16.977  0.9607 -3.4943 -1.7145
 1909SOL    HW217187   3.144   2.486  17.105  1.1521  0.1564 -1.7495
 1910SOL     OW17188   2.776   1.829   2.466 -0.0251  0.2543 -0.0823
 1910SOL    HW117189   2.813   1.779   2.394  0.7160 -2.4544  2.2106
 1910SOL    HW217190   2.748   1.756   2.522 -1.4289  2.1636  1.7146
 1911SOL     OW17191   2.799   3.618  11.649 -0.3364 -1.1183 -0.4165
 1911SOL    HW117192   2.862   3.689  11.666  0.5733 -1.8185 -0.8468
 1911SOL    HW217193   2.853   3.547  11.614  0.5473  0.9759 -3.2924
 1912SOL     OW17194   2.450   0.088   2.382 -0.2094 -0.3144  0.4983
 1912SOL    HW117195   2.440   0.142   2.461 -0.2490  1.1429 -0.5061
 1912SOL    HW217196   2.459   0.155   2.314  0.4693 -1.9153 -0.9770
 1913SOL     OW17197   3.306   2.575   3.772 -0.2467 -0.1141 -0.1115
 1913SOL    HW117198   3.225   2.541   3.736 -0.7043 -0.6135  1.3779
 1913SOL    HW217199   3.370   2.505   3.762 -0.1629 -0.0613  0.0487
 1914SOL     OW17200   1.965   3.894  11.043  0.4635  0.0319  0.0910
 1914SOL    HW117201   1.980   3.946  10.964  0.1697  0.6340  0.4327
 1914SOL    HW217202   1.869   3.890  11.036  0.6867 -4.7338 -0.2296
 1915SOL     OW17203   4.365   0.040   9.452 -0.6504 -0.3617 -0.1818
 1915SOL    HW117204   4.437   0.101   9.469 -1.5646  0.7555 -0.2819
 1915SOL    HW217205   4.339   0.044   9.360  2.5247  1.1622 -1.0359
 1916SOL     OW17206   2.812   2.686   2.919 -0.1639  0.3318 -0.6532
 1916SOL    HW117207   2.816   2.702   2.825  0.1134 -0.3734 -0.7588
 1916SOL    HW217208   2.887   2.737   2.949 -0.5413 -0.2873  1.3783
 1917SOL     OW17209   4.170   4.588   8.541  0.3814 -0.1183  0.0703
 1917SOL    HW117210   4.219   4.558   8.465  5.0389  3.1368  1.8278
 1917SOL    HW217211   4.166   4.508   8.593 -1.9780 -0.8637 -1.2787
 1918SOL     OW17212   2.602   1.552   5.876 -0.5039  0.2502 -0.3427
 1918SOL    HW117213   2.610   1.648   5.877 -0.9218  0.2868 -0.3423
 1918SOL    HW217214   2.689   1.522   5.849 -1.0235 -0.8585 -0.7854
 1919SOL     OW17215   3.668   4.448   7.678 -0.1622 -0.2735 -0.4742
 1919SOL    HW117216   3.669   4.507   7.754 -3.5494  0.8202 -1.2657
 1919SOL    HW217217   3.582   4.467   7.641  0.0857  1.5514 -0.1227
 1920SOL     OW17218   3.517   3.902   6.079 -0.2740  0.1739  0.4351
 1920SOL    HW117219   3.559   3.885   6.164  1.0214  1.5225  0.0643
 1920SOL    HW217220   3.496   3.993   6.101  2.4507  0.1484  3.1793
 1921SOL     OW17221   2.453   1.583   1.085  0.4556 -0.2435  0.1084
 1921SOL    HW117222   2.371   1.567   1.038  1.6076 -0.0059 -1.9935
 1921SOL    HW217223   2.457   1.674   1.055 -1.2909 -0.4432 -0.7518
 1922SOL     OW17224   2.247   2.432  13.511 -0.4543  0.6485 -0.3350
 1922SOL    HW117225   2.152   2.420  13.511 -0.5498  1.3175 -2.2915
 1922SOL    HW217226   2.266   2.475  13.427  2.3955  1.4622  0.7587
 1923SOL     OW17227   3.899   2.041   4.218  0.0241 -0.5350 -0.0185
 1923SOL    HW117228   3.865   1.994   4.142  2.4887 -0.1138 -1.3798
 1923SOL    HW217229   3.822   2.057   4.272 -0.0547 -0.4640 -0.1525
 1924SOL     OW17230   2.831   3.319   8.655 -0.1368 -0.2333  0.1601
 1924SOL    HW117231   2.783   3.298   8.735  0.1869  1.4133  0.7773
 1924SOL    HW217232   2.907   3.369   8.685  1.3488 -1.9117 -0.7815
 1925SOL     OW17233   2.369   0.155   3.498 -0.1998  0.1517 -0.4243
 1925SOL    HW117234   2.327   0.140   3.414 -0.0616  0.7707 -0.6014
 1925SOL    HW217235   2.344   0.071   3.538 -0.5463  0.1958 -0.5543
 1926SOL     OW17236   4.105   3.363   8.591  0.2014 -0.0209  0.8388
 1926SOL    HW117237   4.092   3.458   8.594  0.9825  0.1700 -3.0981
 1926SOL    HW217238   4.162   3.357   8.515 -0.5770  0.3403  0.2357
 1927SOL     OW17239   4.262   4.548   6.159  0.7769  0.1388 -0.5983
 1927SOL    HW117240   4.315   4.553   6.239 -0.3253  0.8017  0.0894
 1927SOL    HW217241   4.317   4.583   6.089 -0.4620  0.1192 -1.5774
 1928SOL     OW17242   2.029   0.321   2.349  0.0946 -0.0260 -0.8150
 1928SOL    HW117243   1.987   0.347   2.266  1.0696 -0.6653 -1.5136
 1928SOL    HW217244   2.056   0.412   2.365 -0.4288 -0.1718  0.8473
 1929SOL     OW17245   1.991   4.587   5.930  0.7246 -0.5411  0.2960
 1929SOL    HW117246   2.009   4.591   6.024  3.2090  0.5010 -0.2227
 1929SOL    HW217247   1.977   4.493   5.916  0.1402 -0.6369  1.5505
 1930SOL     OW17248   3.331   0.833   6.197 -0.2011 -0.0900  0.2127
 1930SOL    HW117249   3.307   0.779   6.272 -2.6538  1.4147  0.4726
 1930SOL    HW217250   3.247   0.852   6.155 -1.0217  0.1457  1.9585
 1931SOL     OW17251   3.037   0.662  11.794 -0.1068  0.6006 -0.3043
 1931SOL    HW117252   3.066   0.571  11.807 -1.4340  0.0850 -0.9875
 1931SOL    HW217253   3.021   0.642  11.702  1.4869 -0.6817 -0.3181
 1932SOL     OW17254   2.423   2.126   7.507  0.2051 -0.0044  0.0591
 1932SOL    HW117255   2.462   2.095   7.589  1.2334  1.6791  0.2150
 1932SOL    HW217256   2.374   2.045   7.496  0.8259 -0.6091  1.6593
 1933SOL     OW17257   2.219   3.405   1.266 -0.4510 -0.0253 -0.1140
 1933SOL    HW117258   2.275   3.347   1.216  0.4389 -0.6553  1.6120
 1933SOL    HW217259   2.219   3.484   1.212  0.0815  1.1006  1.5061
 1934SOL     OW17260   0.073   4.207   6.843 -0.0725  0.0194  0.1861
 1934SOL    HW117261   0.142   4.269   6.818 -0.4369 -0.1345 -1.2361
 1934SOL    HW217262   0.074   4.219   6.938  1.5120  0.6334  0.0960
 1935SOL     OW17263   3.632   0.928   7.874 -0.4126  0.1039 -0.0663
 1935SOL    HW117264   3.554   0.967   7.835  0.0614  0.8702 -0.2480
 1935SOL    HW217265   3.590   0.928   7.959  1.7622 -3.9769  1.0160
 1936SOL     OW17266   0.026   4.310  11.730 -0.1222 -0.3929  0.2867
 1936SOL    HW117267   0.082   4.232  11.730  0.7773  0.2680 -1.6258
 1936SOL    HW217268   0.089   4.382  11.734 -0.3636 -0.1370 -0.7722
 1937SOL     OW17269   1.051   4.380   8.397  0.3305  0.2325 -0.2770
 1937SOL    HW117270   1.062   4.367   8.491 -0.7373  0.2946 -0.1388
 1937SOL    HW217271   0.993   4.306   8.378  1.0631 -0.2108 -0.7685
 1938SOL     OW17272   1.985   2.255   6.491  0.3532 -0.0325 -0.3489
 1938SOL    HW117273   1.959   2.180   6.437  0.6008  0.1974 -0.7866
 1938SOL    HW217274   1.910   2.264   6.550 -0.9224  0.7993 -2.0760
 1939SOL     OW17275   1.851   2.870   2.282 -0.3510 -0.4775  0.3829
 1939SOL    HW117276   1.873   2.842   2.193 -0.0427 -1.0686  0.6434
 1939SOL    HW217277   1.807   2.792   2.316 -2.1015  1.2939  2.1144
 1940SOL     OW17278   4.558   3.068   7.739 -0.1379 -0.0331 -0.6537
 1940SOL    HW117279   4.644   3.051   7.701  0.2425  0.3302  0.0502
 1940SOL    HW217280   4.504   2.989   7.732 -0.6255  0.2616 -0.1905
 1941SOL     OW17281   4.560   1.166  13.438 -0.0385  0.4405  0.0653
 1941SOL    HW117282   4.475   1.129  13.460 -0.1854  0.0739 -1.1143
 1941SOL    HW217283   4.610   1.165  13.520  0.8882 -0.3261 -0.5065
 1942SOL     OW17284   2.771   1.223   2.936 -0.1809  0.5099  0.1444
 1942SOL    HW117285   2.837   1.288   2.958 -0.6421  1.3491 -0.9353
 1942SOL    HW217286   2.837   1.161   2.904  0.2722  1.3876 -0.6162
 1943SOL     OW17287   4.244   1.826   4.162 -0.1275 -0.1565  0.0739
 1943SOL    HW117288   4.151   1.828   4.142 -0.1504 -1.5206  0.0657
 1943SOL    HW217289   4.282   1.792   4.081 -3.2170 -0.5150 -1.2148
 1944SOL     OW17290   3.227   3.991   7.478  0.5498  0.3084  0.0555
 1944SOL    HW117291   3.237   4.082   7.448 -1.2345  0.5093  0.0982
 1944SOL    HW217292   3.243   3.999   7.572  0.1613  1.5484  0.0138
 1945SOL     OW17293   2.322   4.099   0.620  0.0567 -0.9697 -0.4181
 1945SOL    HW117294   2.228   4.111   0.604 -0.3477  0.7883  3.3542
 1945SOL    HW217295   2.352   4.190   0.626 -2.4482 -0.1766  0.3511
 1946SOL     OW17296   4.418   0.465   0.335  0.5703 -0.0313 -0.1522
 1946SOL    HW117297   4.429   0.556   0.364 -1.1103 -0.0344  0.4813
 1946SOL    HW217298   4.466   0.421   0.405  0.8322 -0.1316 -0.3945
 1947SOL     OW17299   4.250   4.668   2.530  0.1327 -0.7049 -0.2562
 1947SOL    HW117300   4.262   4.575   2.549  1.9077 -0.6515 -1.2010
 1947SOL    HW217301   4.248   4.674   2.435  1.2412  0.2798 -0.2054
 1948SOL     OW17302   3.305   0.050   4.050  0.3383  0.1561  0.5106
 1948SOL    HW117303   3.292   0.126   3.994  0.9210 -1.0010 -1.2034
 1948SOL    HW217304   3.251   0.080   4.123  0.6314 -0.3298  0.9331
 1949SOL     OW17305   0.072   3.417   7.581 -0.0844 -0.0597 -0.0693
 1949SOL    HW117306   0.020   3.493   7.607 -0.4722 -0.2314 -0.3487
 1949SOL    HW217307   0.156   3.444   7.618 -0.9485  0.2212  1.7060
 1950SOL     OW17308   3.135   0.070   3.399  0.4864 -0.3734  0.2456
 1950SOL    HW117309   3.200   0.017   3.445  0.4632 -1.5675 -1.1110
 1950SOL    HW217310   3.082   0.009   3.348  1.1266 -1.0737  0.4154
 1951SOL     OW17311   3.041   4.264   5.627  0.2366 -0.0435 -0.2245
 1951SOL    HW117312   2.960   4.310   5.603  0.2797  0.8735  1.3738
 1951SOL    HW217313   3.010   4.212   5.700  1.6792  0.4635  0.7399
 1952SOL     OW17314   4.300   3.844   5.181  0.0133 -0.4022  0.3786
 1952SOL    HW117315   4.281   3.830   5.088  0.9599 -1.6084  0.3635
 1952SOL    HW217316   4.321   3.937   5.174 -5.0649  0.5023 -2.9533
 1953SOL     OW17317   1.017   2.666   2.557  0.1355  0.0216  0.1566
 1953SOL    HW117318   1.070   2.633   2.484  0.9762  0.8136  0.4081
 1953SOL    HW217319   1.080   2.657   2.628  0.9810  1.2551 -0.4383
 1954SOL     OW17320   2.155   2.786  11.970 -0.2071 -0.0686  0.2602
 1954SOL    HW117321   2.195   2.786  12.056  2.1947 -1.7270 -0.8539
 1954SOL    HW217322   2.168   2.692  11.954 -1.1375 -0.8858  4.3691
 1955SOL     OW17323   4.342   1.334   4.074  0.0485 -0.1159  0.5721
 1955SOL    HW117324   4.344   1.239   4.084 -1.1884  0.0577  2.5522
 1955SOL    HW217325   4.346   1.367   4.164 -1.3410 -0.7541  0.8677
 1956SOL     OW17326   3.019   4.142   6.175 -0.3613  0.0697 -0.3361
 1956SOL    HW117327   2.960   4.101   6.113 -0.0927 -0.7257 -0.0630
 1956SOL    HW217328   3.022   4.233   6.143  0.9746  0.4719  0.9085
 1957SOL     OW17329   4.487   4.449   2.909  0.1043  0.0122  0.3148
 1957SOL    HW117330   4.552   4.431   2.976  1.4286  0.2679 -0.9114
 1957SOL    HW217331   4.541   4.468   2.833  0.3268  1.4496  0.8333
 1958SOL     OW17332   3.211   3.968   2.879 -0.7631  0.1034 -0.5837
 1958SOL    HW117333   3.298   3.958   2.840 -0.6886  1.4518 -0.7612
 1958SOL    HW217334   3.166   4.006   2.803 -0.2474  1.8230 -0.0350
 1959SOL     OW17335   3.423   1.820   7.875 -0.2116 -0.0425  0.3668
 1959SOL    HW117336   3.502   1.832   7.928  0.4607  0.6649 -0.7926
 1959SOL    HW217337   3.374   1.900   7.893 -0.0842  0.0880  0.1423
 1960SOL     OW17338   1.615   1.261   8.200 -0.0788  0.4850 -0.2322
 1960SOL    HW117339   1.675   1.210   8.255 -0.5236  0.4087  0.1890
 1960SOL    HW217340   1.637   1.354   8.208  0.6819  0.3017 -0.2366
 1961SOL     OW17341   1.261   0.322   1.784 -0.0884  0.3325  0.0281
 1961SOL    HW117342   1.188   0.321   1.845  0.9901 -1.4557  1.3293
 1961SOL    HW217343   1.219   0.376   1.718 -0.4954  2.0789  1.7019
 1962SOL     OW17344   3.587   2.846   9.130 -0.3321  0.0428 -0.8467
 1962SOL    HW117345   3.554   2.770   9.082  1.6519 -1.8161  0.7504
 1962SOL    HW217346   3.589   2.818   9.221 -2.0053 -1.2011 -1.1910
 1963SOL     OW17347   4.269   0.744   1.544 -0.0104 -0.5623  0.1670
 1963SOL    HW117348   4.311   0.711   1.465 -0.1506  0.3324 -0.2768
 1963SOL    HW217349   4.177   0.749   1.516 -0.3244 -0.6222  1.1798
 1964SOL     OW17350   2.014   2.143   7.415 -0.3751  0.0793  0.4298
 1964SOL    HW117351   2.089   2.194   7.447 -2.9285  1.6805  3.8291
 1964SOL    HW217352   2.038   2.050   7.416  0.1805  0.2133 -0.7439
 1965SOL     OW17353   3.128   2.263  16.738 -0.4892 -0.2115 -0.3485
 1965SOL    HW117354   3.074   2.250  16.659  0.7979 -0.2497 -1.2255
 1965SOL    HW217355   3.160   2.351  16.719 -0.6148 -0.7953 -3.4034
 1966SOL     OW17356   3.512   1.993   5.811 -0.5659 -0.1311 -0.3683
 1966SOL    HW117357   3.527   2.036   5.895 -0.5630  0.0404 -0.4577
 1966SOL    HW217358   3.484   2.068   5.758  0.2666 -0.3884 -1.1897
 1967SOL     OW17359   0.844   1.430   8.185  0.0291 -0.1060 -0.0568
 1967SOL    HW117360   0.880   1.367   8.123  2.0040 -0.8446  1.8546
 1967SOL    HW217361   0.790   1.485   8.128 -0.9000 -1.4338 -0.4535
 1968SOL     OW17362   2.445   1.985   6.462  0.2004  0.5714  0.3648
 1968SOL    HW117363   2.382   2.026   6.521 -0.2656  1.8519 -1.0257
 1968SOL    HW217364   2.450   2.055   6.398  1.0151 -1.2718 -1.5944
 1969SOL     OW17365   2.266   3.906  13.144 -0.2181 -0.0495 -0.2326
 1969SOL    HW117366   2.276   3.904  13.049  1.0764 -2.9640 -0.0215
 1969SOL    HW217367   2.278   3.998  13.167 -1.3313 -0.0747  0.4362
 1970SOL     OW17368   4.635   1.683   1.771  0.0611  0.3333 -0.4486
 1970SOL    HW117369   4.594   1.755   1.818 -0.5315 -0.5779  0.4220
 1970SOL    HW217370   4.697   1.645   1.833  0.1238  0.5014 -0.4084
 1971SOL     OW17371   3.597   0.737  12.950 -0.0698 -0.1118 -0.5106
 1971SOL    HW117372   3.651   0.809  12.982  0.1139 -1.7573  2.8826
 1971SOL    HW217373   3.597   0.758  12.857  0.4320  3.1809  0.2495
 1972SOL     OW17374   2.399   4.116  12.154 -0.4962 -0.2021 -0.2773
 1972SOL    HW117375   2.405   4.126  12.059  0.0841  0.2000 -0.2008
 1972SOL    HW217376   2.475   4.167  12.183 -0.0779 -0.4990 -0.8457
 1973SOL     OW17377   2.918   3.900   3.940  0.3890 -0.4837 -0.2699
 1973SOL    HW117378   2.969   3.940   4.010 -2.8951  0.2412  1.7382
 1973SOL    HW217379   2.857   3.969   3.914  0.8078  0.2794  0.8112
 1974SOL     OW17380   4.712   2.658   5.282  0.2013  0.4886  0.5201
 1974SOL    HW117381   4.680   2.603   5.354  0.9477  0.7687  1.0735
 1974SOL    HW217382   4.638   2.718   5.278 -0.9986 -1.0246 -0.1977
 1975SOL     OW17383   0.506   0.336  14.172  0.1258 -0.0749 -0.1784
 1975SOL    HW117384   0.534   0.275  14.104 -0.6562 -2.2765  1.4948
 1975SOL    HW217385   0.428   0.371  14.128  0.2849  2.3602  1.4482
 1976SOL     OW17386   1.914   1.102   5.141  0.4197  0.3179 -0.1349
 1976SOL    HW117387   1.957   1.018   5.126 -0.8091 -0.7867  2.5538
 1976SOL    HW217388   1.871   1.108   5.056  1.0308  0.0728 -0.4609
 1977SOL     OW17389   4.709   0.301  15.141  0.2459 -0.4103  0.0437
 1977SOL    HW117390   4.622   0.336  15.124  0.3024  0.7167  2.0315
 1977SOL    HW217391   0.006   0.250  15.062  0.2067 -2.5767  1.4209
 1978SOL     OW17392   4.383   4.714   7.297 -0.6558  0.1353 -0.3302
 1978SOL    HW117393   4.462   0.022   7.253  0.2063 -2.0964 -0.3564
 1978SOL    HW217394   4.340   4.664   7.227 -1.2383 -0.3161  0.3452
 1979SOL     OW17395   3.135   2.442   5.885 -0.2389  0.3334 -0.3552
 1979SOL    HW117396   3.144   2.358   5.930  1.2072 -0.5657 -2.3528
 1979SOL    HW217397   3.095   2.407   5.806 -1.6402 -0.4934  0.7121
 1980SOL     OW17398   4.546   4.625   7.705  0.2278 -0.5576 -0.0960
 1980SOL    HW117399   4.601   4.568   7.651 -1.1121  0.2576 -2.3450
 1980SOL    HW217400   4.457   4.592   7.690  0.3933 -0.3358 -1.5221
 1981SOL     OW17401   2.830   3.527  13.813 -0.0689 -0.5817  0.0354
 1981SOL    HW117402   2.745   3.497  13.781 -1.4354  2.2982  0.9657
 1981SOL    HW217403   2.883   3.488  13.744  0.5944 -1.9545  1.3125
 1982SOL     OW17404   2.723   0.496   8.512  0.1990 -1.0933 -0.0204
 1982SOL    HW117405   2.723   0.580   8.559 -0.6915 -1.1815  0.1295
 1982SOL    HW217406   2.641   0.455   8.538 -0.9005  1.6313  0.8222
 1983SOL     OW17407   2.644   1.975   3.809 -0.3395 -0.8297 -0.1793
 1983SOL    HW117408   2.649   2.064   3.845 -3.0409 -0.5239 -0.5850
 1983SOL    HW217409   2.561   1.944   3.845  0.2144 -2.4860 -0.3225
 1984SOL     OW17410   2.332   4.488  14.537  0.3338  0.1866  0.3401
 1984SOL    HW117411   2.256   4.476  14.595 -0.8778 -2.2633 -1.7628
 1984SOL    HW217412   2.295   4.564  14.492 -2.3979 -0.7619  0.9636
 1985SOL     OW17413   1.757   1.050   9.030  0.0179 -0.2466  0.8770
 1985SOL    HW117414   1.821   0.983   9.053 -0.4549 -1.6064 -1.8031
 1985SOL    HW217415   1.764   1.121   9.094 -2.8302 -0.6295  1.6240
 1986SOL     OW17416   3.434   0.617   4.254 -0.4703 -0.2567  0.0036
 1986SOL    HW117417   3.518   0.594   4.295 -0.8066 -1.3280  0.0883
 1986SOL    HW217418   3.373   0.559   4.300 -1.9377  0.5271 -0.9690
 1987SOL     OW17419   0.523   4.385  11.874  0.6776  0.2707 -0.0526
 1987SOL    HW117420   0.492   4.301  11.840  1.2500  0.2196 -0.4614
 1987SOL    HW217421   0.544   4.422  11.788 -0.3604 -0.6427 -0.7024
 1988SOL     OW17422   3.674   1.366   2.394  0.1067 -0.0909  0.2558
 1988SOL    HW117423   3.612   1.381   2.323 -0.6515 -2.8841  0.3350
 1988SOL    HW217424   3.728   1.309   2.339  3.9862  3.7107  0.0980
 1989SOL     OW17425   2.954   2.566   2.515  0.5824  0.0085 -0.8103
 1989SOL    HW117426   2.989   2.633   2.457  0.8048  0.9176  0.3938
 1989SOL    HW217427   2.878   2.614   2.549 -0.3860 -2.4734  0.5523
 1990SOL     OW17428   2.759   4.369   8.669  0.4394  0.0510  0.5704
 1990SOL    HW117429   2.664   4.365   8.673  0.3240  1.2889 -1.2863
 1990SOL    HW217430   2.769   4.332   8.757 -1.0773  1.0158  1.1498
 1991SOL     OW17431   1.923   3.237  11.903 -0.0629 -0.4817 -0.5977
 1991SOL    HW117432   1.966   3.159  11.935 -0.2988 -1.1369 -1.8695
 1991SOL    HW217433   1.997   3.298  11.910 -0.3623  0.0705 -2.2033
 1992SOL     OW17434   2.453   2.127   1.299 -0.5520  0.0094 -0.1793
 1992SOL    HW117435   2.396   2.052   1.312 -1.5218  0.7967  0.0880
 1992SOL    HW217436   2.389   2.192   1.328  0.8548  0.9519  0.8374
 1993SOL     OW17437   2.659   1.176   0.465 -0.5281  0.2123 -0.0856
 1993SOL    HW117438   2.735   1.233   0.471 -0.8289  0.6975 -0.8081
 1993SOL    HW217439   2.623   1.192   0.377  1.3134  0.0291 -0.8666
 1994SOL     OW17440   1.784   2.517   6.979  0.2682  0.1437  0.1548
 1994SOL    HW117441   1.854   2.457   6.955  0.6156 -1.0568  4.2262
 1994SOL    HW217442   1.836   2.583   7.024 -0.7819  1.2241 -0.1983
 1995SOL     OW17443   1.406   2.314  15.450  0.1097 -0.0971 -0.3867
 1995SOL    HW117444   1.324   2.308  15.402  0.4895  1.4242 -1.2575
 1995SOL    HW217445   1.372   2.291  15.537  1.8265  3.6131  1.3051
 1996SOL     OW17446   1.182   4.508  13.341 -0.3551 -0.0751  0.3034
 1996SOL    HW117447   1.230   4.591  13.337  0.5211 -0.5236  1.5823
 1996SOL    HW217448   1.135   4.515  13.258  2.6387 -0.7544 -1.4917
 1997SOL     OW17449   2.110   0.540   1.266  0.5421 -0.6118 -0.0048
 1997SOL    HW117450   2.166   0.517   1.341  0.3860  1.3807  0.7246
 1997SOL    HW217451   2.038   0.587   1.309  0.1711  0.3683 -1.6808
 1998SOL     OW17452   3.852   3.671   7.713  0.1743 -0.1916  0.2250
 1998SOL    HW117453   3.806   3.752   7.690  0.8432  0.3109  0.6602
 1998SOL    HW217454   3.884   3.688   7.802 -2.8562 -1.4673  1.5509
 1999SOL     OW17455   0.541   1.157   6.286 -0.3634  0.3280 -0.2690
 1999SOL    HW117456   0.580   1.221   6.227 -1.7313  0.1154 -1.4041
 1999SOL    HW217457   0.569   1.192   6.370 -2.5319 -0.8846  0.9684
 2000SOL     OW17458   1.393   2.307   8.422  0.7003  0.4931  0.4008
 2000SOL    HW117459   1.471   2.286   8.473  0.7105 -0.5591 -0.0606
 2000SOL    HW217460   1.337   2.334   8.495  2.0221 -0.3375  1.7098
 2001SOL     OW17461   3.184   3.041   8.964  0.3167  0.2576  0.5415
 2001SOL    HW117462   3.164   2.947   8.966 -0.8208  0.5166  1.2376
 2001SOL    HW217463   3.277   3.022   8.949  0.4503  1.6945 -0.4108
 2002SOL     OW17464   3.986   3.747  10.346  0.5524  0.0482 -0.2640
 2002SOL    HW117465   3.914   3.796  10.386 -0.4926  0.0958 -2.1745
 2002SOL    HW217466   4.012   3.702  10.426 -0.0581  0.3595  0.1129
 2003SOL     OW17467   1.417   1.460  17.671 -0.2992 -0.4540 -0.2481
 2003SOL    HW117468   1.325   1.439  17.658 -1.1838  3.0572  0.3448
 2003SOL    HW217469   1.412   1.454   0.074  0.0458 -1.2760 -0.2873
 2004SOL     OW17470   2.545   0.707   7.663 -0.3938  0.1239 -0.4085
 2004SOL    HW117471   2.452   0.714   7.683  0.4762  3.4664  2.2704
 2004SOL    HW217472   2.527   0.642   7.594 -2.8049  0.0765  0.2831
 2005SOL     OW17473   0.624   1.229  16.955 -0.2533 -0.2391  0.7269
 2005SOL    HW117474   0.607   1.280  17.034 -1.8760  0.5540 -0.1232
 2005SOL    HW217475   0.719   1.239  16.953 -0.4629  1.4237 -1.6125
 2006SOL     OW17476   0.914   1.278  13.063 -0.3529 -0.0793  0.4848
 2006SOL    HW117477   0.904   1.187  13.036  0.2805 -0.0875  0.2654
 2006SOL    HW217478   1.008   1.291  13.046 -0.3179 -0.1210  0.6408
 2007SOL     OW17479   3.536   0.107   7.535  0.3034 -0.6507  0.6119
 2007SOL    HW117480   3.487   0.189   7.541 -0.7866 -1.2917  0.5279
 2007SOL    HW217481   3.607   0.123   7.472  0.1085 -0.2812  0.4813
 2008SOL     OW17482   2.700   2.059   7.029  0.1161  0.1131 -0.3810
 2008SOL    HW117483   2.754   1.997   6.979 -0.5505 -2.6680  2.3087
 2008SOL    HW217484   2.703   2.023   7.117 -0.6105 -0.0071 -0.4020
 2009SOL     OW17485   3.069   4.433  10.688 -0.1625 -0.6135  0.0190
 2009SOL    HW117486   3.079   4.514  10.739  1.4282 -1.3432  0.8695
 2009SOL    HW217487   3.060   4.473  10.602 -0.6008 -0.1217  0.2930
 2010SOL     OW17488   2.632   3.158   6.858  0.1086 -0.3173 -0.1159
 2010SOL    HW117489   2.683   3.146   6.778 -0.5239 -1.3042 -0.3686
 2010SOL    HW217490   2.689   3.214   6.912  0.9016  0.4154 -1.7058
 2011SOL     OW17491   2.964   2.139   4.633 -0.1855 -0.2774 -0.1644
 2011SOL    HW117492   2.881   2.162   4.591  0.9109  0.9877 -1.6579
 2011SOL    HW217493   2.984   2.211   4.693  0.3841 -1.0578  0.5726
 2012SOL     OW17494   4.105   1.435   5.060  0.1236 -0.3603  0.0913
 2012SOL    HW117495   4.065   1.489   4.992 -1.2041 -1.6681 -0.1590
 2012SOL    HW217496   4.089   1.495   5.133  0.1731 -0.4147  0.1465
 2013SOL     OW17497   1.623   3.780   1.036 -0.1702 -0.0656 -0.0668
 2013SOL    HW117498   1.669   3.842   1.094 -1.9636  0.5887  0.6798
 2013SOL    HW217499   1.561   3.739   1.097  0.3591  1.4723  1.5144
 2014SOL     OW17500   2.156   4.205   3.161  0.5327  0.0098  0.1357
 2014SOL    HW117501   2.061   4.195   3.162  0.4105  1.4920  2.5557
 2014SOL    HW217502   2.171   4.297   3.138 -3.9259  0.9326  1.0088
 2015SOL     OW17503   1.824   1.813   1.960  0.3461 -0.1924  0.4275
 2015SOL    HW117504   1.792   1.723   1.950 -2.9827  1.3009 -2.3581
 2015SOL    HW217505   1.918   1.797   1.970  0.6530  1.5084  0.2870
 2016SOL     OW17506   4.297   2.407  10.852  0.4502  0.8686  0.3209
 2016SOL    HW117507   4.205   2.402  10.824  0.9155 -0.0244 -1.0416
 2016SOL    HW217508   4.291   2.448  10.939  0.7591  1.9889 -0.1811
 2017SOL     OW17509   3.334   3.594   1.261  0.1762  0.1578  0.3697
 2017SOL    HW117510   3.279   3.673   1.254 -0.6971 -0.3018  1.9430
 2017SOL    HW217511   3.353   3.605   1.354  0.9590  0.8647  0.1260
 2018SOL     OW17512   1.005   3.192   7.680  0.5098  0.2148 -0.0636
 2018SOL    HW117513   1.100   3.196   7.669  0.3337  0.0963 -1.5649
 2018SOL    HW217514   1.004   3.143   7.763  0.3919  0.6219  0.1773
 2019SOL     OW17515   1.152   3.246   1.524  0.2815 -0.1704 -0.7448
 2019SOL    HW117516   1.069   3.206   1.502  0.4063 -1.3241  0.8672
 2019SOL    HW217517   1.190   3.166   1.560 -1.1076 -0.4014  0.1788
 2020SOL     OW17518   1.500   3.927  12.157  0.1926 -0.5892 -0.2900
 2020SOL    HW117519   1.526   3.873  12.231  0.7567  1.5118  1.0489
 2020SOL    HW217520   1.411   3.896  12.139 -0.1956 -1.9847  4.1094
 2021SOL     OW17521   3.715   1.075  11.785 -0.2626 -0.0585  0.0276
 2021SOL    HW117522   3.684   1.164  11.766  2.0541  0.5588 -0.8311
 2021SOL    HW217523   3.683   1.031  11.707  1.1670  0.6843 -0.9818
 2022SOL     OW17524   3.384   2.945  17.172  0.1144 -0.2338  0.1752
 2022SOL    HW117525   3.299   2.985  17.190  0.4334 -0.9560  3.1859
 2022SOL    HW217526   3.401   2.910  17.259 -1.0049  0.2616  0.5879
 2023SOL     OW17527   2.582   3.169   7.173  0.0896 -0.4187 -0.2275
 2023SOL    HW117528   2.598   3.227   7.247 -2.7749 -0.0852  0.1415
 2023SOL    HW217529   2.567   3.236   7.106 -2.3948 -1.2245 -0.4956
 2024SOL     OW17530   2.084   0.449   0.261  0.1739 -0.6091  0.0989
 2024SOL    HW117531   2.061   0.453   0.168  1.3278  2.4907 -0.0839
 2024SOL    HW217532   2.037   0.371   0.288 -0.0899 -0.5034 -0.0488
 2025SOL     OW17533   2.785   2.592   6.954 -0.1726  0.4445  0.6021
 2025SOL    HW117534   2.868   2.599   6.907  0.2269 -2.2302  0.8974
 2025SOL    HW217535   2.738   2.512   6.930 -0.8235  1.7082 -2.2651
 2026SOL     OW17536   2.427   0.321   2.586 -0.1344  0.7594  0.1907
 2026SOL    HW117537   2.338   0.351   2.601  0.3873  1.5014  1.8588
 2026SOL    HW217538   2.448   0.401   2.538  0.0895 -0.0562 -1.0813
 2027SOL     OW17539   0.504   2.838   6.382  0.2027 -0.0080 -0.0199
 2027SOL    HW117540   0.477   2.788   6.459  1.3331  1.9574  1.6537
 2027SOL    HW217541   0.568   2.783   6.337 -1.3359 -1.2281 -0.7025
 2028SOL     OW17542   2.967   3.540  16.996  0.0760  0.3680 -0.3365
 2028SOL    HW117543   3.027   3.614  17.004 -1.1030  1.7163 -3.8610
 2028SOL    HW217544   2.949   3.539  16.902 -0.7046 -1.1328 -0.1775
 2029SOL     OW17545   1.354   2.418  16.618  0.4705  0.5327  0.2591
 2029SOL    HW117546   1.410   2.450  16.547 -1.8527  0.6787 -1.5125
 2029SOL    HW217547   1.359   2.479  16.691  0.4524  0.3479  0.4121
 2030SOL     OW17548   0.369   2.970  17.680 -0.4813  0.1322  0.1647
 2030SOL    HW117549   0.367   2.922   0.070 -1.4456 -2.8162 -1.5719
 2030SOL    HW217550   0.292   2.939  17.632  0.0889 -0.4973 -0.3500
 2031SOL     OW17551   0.352   3.096  10.473 -0.2627  0.3938  0.0713
 2031SOL    HW117552   0.395   3.015  10.446  1.5990  1.8497 -1.3332
 2031SOL    HW217553   0.327   3.069  10.561  1.3493  1.3348  0.8183
 2032SOL     OW17554   3.012   3.658  15.553  0.1122 -0.0627 -0.0526
 2032SOL    HW117555   2.942   3.645  15.490  0.2266 -0.5306 -0.0823
 2032SOL    HW217556   3.063   3.577  15.549  0.2448  0.0980 -1.6462
 2033SOL     OW17557   3.995   0.410  15.957 -0.2995  0.8700  0.2624
 2033SOL    HW117558   3.997   0.327  16.005 -0.1653  0.2095 -0.8731
 2033SOL    HW217559   4.086   0.407  15.929  0.2375  0.9510  2.0192
 2034SOL     OW17560   2.789   3.810  10.931 -0.0551  0.2350  0.1234
 2034SOL    HW117561   2.855   3.794  10.864 -0.7814 -1.7707 -0.1371
 2034SOL    HW217562   2.837   3.776  11.006  0.6617  0.8416 -0.0702
 2035SOL     OW17563   2.376   2.213   1.870 -0.5431  0.0237  0.0279
 2035SOL    HW117564   2.465   2.220   1.903 -0.2801  0.2643 -0.7111
 2035SOL    HW217565   2.357   2.307   1.858 -1.5467 -0.3005 -1.0399
 2036SOL     OW17566   4.211   3.912  17.054  0.1104 -0.0163 -0.0573
 2036SOL    HW117567   4.181   3.899  16.964 -0.5426 -0.2921  0.1988
 2036SOL    HW217568   4.283   3.972  17.034  0.8252 -1.0618 -0.6323
 2037SOL     OW17569   1.090   4.235   8.084 -1.0293 -0.6351  0.1582
 2037SOL    HW117570   1.071   4.327   8.105  2.1055  0.3770 -1.3270
 2037SOL    HW217571   1.132   4.229   7.998  0.1028  1.7564  0.5372
 2038SOL     OW17572   2.652   2.965  14.271 -0.5315  0.1535  0.0343
 2038SOL    HW117573   2.662   2.954  14.177  2.3163  0.0293  0.3509
 2038SOL    HW217574   2.613   3.052  14.279  0.7823  0.6434  1.1454
 2039SOL     OW17575   1.539   4.289   7.107 -0.3522  0.2910  0.9162
 2039SOL    HW117576   1.476   4.336   7.052  0.5068  1.2195  0.7112
 2039SOL    HW217577   1.602   4.273   7.037 -1.7420 -3.8876  0.6231
 2040SOL     OW17578   2.180   0.550   9.576  0.0696 -0.1686 -0.4898
 2040SOL    HW117579   2.222   0.569   9.492 -0.4447  2.3529 -0.1678
 2040SOL    HW217580   2.209   0.459   9.574 -1.0287 -0.5533  1.0862
 2041SOL     OW17581   1.398   2.775  16.466  1.4396 -0.5316  0.4398
 2041SOL    HW117582   1.425   2.866  16.453  2.5168 -1.0154 -0.7340
 2041SOL    HW217583   1.446   2.731  16.395  1.4633  0.2704 -0.0427
 2042SOL     OW17584   0.751   2.719   2.648  0.3945 -0.6783 -0.6079
 2042SOL    HW117585   0.840   2.688   2.628 -0.9460 -2.4200 -3.9132
 2042SOL    HW217586   0.752   2.814   2.643 -0.4621 -0.7555 -2.3544
 2043SOL     OW17587   3.143   0.038   5.993 -0.1462  0.0014 -0.4566
 2043SOL    HW117588   3.083   0.107   6.018 -2.3394 -2.9224  2.3601
 2043SOL    HW217589   3.102   4.686   6.038  0.4209 -0.9902 -1.5709
 2044SOL     OW17590   2.131   2.269   0.785 -0.5735 -0.0486  1.0487
 2044SOL    HW117591   2.060   2.332   0.782  1.1281  1.9608  2.8667
 2044SOL    HW217592   2.186   2.303   0.856  2.3100 -0.1282 -1.1129
 2045SOL     OW17593   3.123   1.423   0.566  0.1276  0.1834 -0.4773
 2045SOL    HW117594   3.213   1.398   0.588 -0.8006 -1.0661  1.8498
 2045SOL    HW217595   3.141   1.483   0.493  0.9792  0.5818  0.0583
 2046SOL     OW17596   2.075   1.043   5.704 -0.4802  0.8196  0.2376
 2046SOL    HW117597   1.994   1.089   5.680  1.0930  4.1657  1.2776
 2046SOL    HW217598   2.078   0.979   5.632 -2.2130  0.7088  0.2608
 2047SOL     OW17599   1.316   4.371   5.378  0.6540  0.1657 -0.3942
 2047SOL    HW117600   1.354   4.396   5.294  1.4301  0.2954 -0.0076
 2047SOL    HW217601   1.325   4.277   5.363 -0.0571  0.4909 -2.9252
 2048SOL     OW17602   0.455   1.710   6.462  0.0421  0.4055 -0.3134
 2048SOL    HW117603   0.516   1.756   6.404  1.2271  0.7372  1.2169
 2048SOL    HW217604   0.517   1.659   6.513 -0.5851 -1.0804 -1.0394
 2049SOL     OW17605   0.274   1.214   6.436  0.6844  0.0334  0.1137
 2049SOL    HW117606   0.329   1.157   6.381  2.1188  1.2081  0.3159
 2049SOL    HW217607   0.332   1.231   6.510  0.4058  0.1836  0.2927
 2050SOL     OW17608   3.458   2.899   6.871 -0.1986  0.2311  0.2979
 2050SOL    HW117609   3.521   2.831   6.895 -0.0016 -0.2335 -1.5319
 2050SOL    HW217610   3.385   2.844   6.844 -1.9394  2.4736  0.4506
 2051SOL     OW17611   3.024   0.136   5.055 -0.1010 -0.0390 -0.0708
 2051SOL    HW117612   3.083   0.145   4.980 -1.0558 -0.6166 -0.8941
 2051SOL    HW217613   3.044   0.046   5.081 -0.1851  0.2184  0.8568
 2052SOL     OW17614   2.894   3.183  17.326  0.0715 -0.0204  0.2416
 2052SOL    HW117615   2.900   3.259  17.383 -1.0702  1.2107 -1.2545
 2052SOL    HW217616   2.801   3.184  17.301  0.0112  0.0505  0.4762
 2053SOL     OW17617   2.579   0.812   3.971  0.0661  0.1531 -0.7566
 2053SOL    HW117618   2.506   0.778   3.920  0.3416 -0.4432 -0.7553
 2053SOL    HW217619   2.649   0.746   3.968  2.0331  2.2024  0.5571
 2054SOL     OW17620   0.482   4.589  12.040 -1.0877 -0.5666 -0.7935
 2054SOL    HW117621   0.517   4.647  11.973 -1.0169 -2.1714 -2.1658
 2054SOL    HW217622   0.481   4.506  11.991 -0.6831  1.0542 -3.5273
 2055SOL     OW17623   3.170   0.936  12.484  0.4185  0.1468 -0.1163
 2055SOL    HW117624   3.265   0.940  12.486  0.4708 -0.9774 -0.3628
 2055SOL    HW217625   3.151   0.999  12.553 -3.9833 -0.4028 -0.8163
 2056SOL     OW17626   0.672   1.989   4.698  0.3466  0.6107 -0.0148
 2056SOL    HW117627   0.688   2.058   4.762 -1.2096 -0.0312  1.0573
 2056SOL    HW217628   0.713   2.030   4.621  0.9965 -1.1926 -0.6310
 2057SOL     OW17629   3.012   4.180   0.880  0.6845  0.1663  0.3097
 2057SOL    HW117630   3.102   4.157   0.903  0.5064 -2.1905 -1.4226
 2057SOL    HW217631   3.001   4.132   0.798  1.0822 -1.1937  1.0423
 2058SOL     OW17632   4.718   2.662   9.981  0.1037  0.2609 -0.0823
 2058SOL    HW117633   0.049   2.624  10.051 -0.0086 -2.2661 -1.3578
 2058SOL    HW217634   4.668   2.586   9.950  0.1300  0.5203 -0.7607
 2059SOL     OW17635   0.620   2.505   6.966 -0.0918  0.7959  0.2332
 2059SOL    HW117636   0.578   2.419   6.963 -0.4460  1.0928 -3.0679
 2059SOL    HW217637   0.603   2.523   7.058 -1.6222  2.3542 -0.3626
 2060SOL     OW17638   1.747   0.731   9.709  0.4686 -0.3156  0.3977
 2060SOL    HW117639   1.771   0.656   9.655 -0.2351  1.2062 -2.0562
 2060SOL    HW217640   1.737   0.803   9.647 -0.9911 -2.3874 -1.8019
 2061SOL     OW17641   2.804   4.230   4.596  0.2321  0.7689 -1.0492
 2061SOL    HW117642   2.823   4.187   4.680  0.7642 -0.3132 -1.7089
 2061SOL    HW217643   2.886   4.208   4.551 -0.3817  1.0490 -2.3055
 2062SOL     OW17644   3.116   2.789  14.512  0.0795  0.3745 -0.1143
 2062SOL    HW117645   3.138   2.731  14.440 -0.9698 -1.8857  1.3571
 2062SOL    HW217646   3.115   2.738  14.594  1.0428 -0.7931 -0.8384
 2063SOL     OW17647   2.571   2.549   4.152  0.1713  0.3938 -0.1674
 2063SOL    HW117648   2.505   2.557   4.220 -1.6643 -3.1861 -1.5529
 2063SOL    HW217649   2.566   2.637   4.115  0.4088  0.6991  0.5209
 2064SOL     OW17650   0.924   0.493   9.823 -0.6047 -0.3251 -0.5013
 2064SOL    HW117651   0.943   0.495   9.917  1.2994 -2.6062 -0.8377
 2064SOL    HW217652   0.851   0.553   9.813 -0.7371 -0.6879 -1.7287
 2065SOL     OW17653   1.636   1.355  11.563 -0.1486  0.2347 -0.4312
 2065SOL    HW117654   1.568   1.421  11.575  0.8334  1.1016  0.3481
 2065SOL    HW217655   1.707   1.408  11.529 -1.3731  0.1098 -3.1694
 2066SOL     OW17656   4.101   2.480   2.645 -0.3087  0.3202 -0.1749
 2066SOL    HW117657   4.129   2.439   2.564  0.7121 -1.8041  1.2539
 2066SOL    HW217658   4.184   2.471   2.692 -0.1573 -1.5719 -0.8295
 2067SOL     OW17659   0.395   2.655   8.921 -0.0894 -0.2450 -0.0342
 2067SOL    HW117660   0.398   2.682   9.012 -1.3822  0.9128 -0.3357
 2067SOL    HW217661   0.381   2.732   8.866  2.3166 -1.0072 -1.7168
 2068SOL     OW17662   3.523   1.433   2.822 -0.6229  0.3926  0.3050
 2068SOL    HW117663   3.565   1.379   2.889 -0.4412 -0.8943 -0.8506
 2068SOL    HW217664   3.548   1.380   2.746  2.0210  1.4131  0.4748
 2069SOL     OW17665   3.617   0.760  12.213  0.3785 -0.2047 -0.1590
 2069SOL    HW117666   3.657   0.725  12.292 -1.0952 -0.9365  0.2548
 2069SOL    HW217667   3.672   0.835  12.192  0.8051 -0.8712 -1.4655
 2070SOL     OW17668   3.421   2.644   8.712 -0.2210  0.2152  0.2336
 2070SOL    HW117669   3.477   2.584   8.663  1.3116  2.3992 -0.7162
 2070SOL    HW217670   3.372   2.677   8.637 -3.5098 -1.0166  1.8224
 2071SOL     OW17671   2.516   1.592  14.267  0.2369  0.8928  0.5506
 2071SOL    HW117672   2.579   1.658  14.236  0.1228 -0.5659 -2.7508
 2071SOL    HW217673   2.542   1.518  14.213 -1.9658  1.4783 -1.3133
 2072SOL     OW17674   4.569   3.397  15.597  0.1234  0.1787  0.6000
 2072SOL    HW117675   4.635   3.388  15.666  0.9572  0.5783 -0.1490
 2072SOL    HW217676   4.609   3.461  15.538  3.0015 -0.4565  1.8639
 2073SOL     OW17677   2.696   1.898   8.014 -0.5700 -0.4348 -0.5631
 2073SOL    HW117678   2.706   1.861   7.926 -0.3712 -0.9927 -0.3068
 2073SOL    HW217679   2.752   1.974   8.001  0.1552 -0.5130  2.1549
 2074SOL     OW17680   3.646   0.295  12.668  0.0234 -0.4054 -0.0344
 2074SOL    HW117681   3.710   0.225  12.657 -1.4662 -1.6787 -0.7050
 2074SOL    HW217682   3.610   0.264  12.752 -2.7492  2.5322 -0.1382
 2075SOL     OW17683   2.589   0.783   6.156 -0.6533 -0.1473  0.0035
 2075SOL    HW117684   2.637   0.790   6.238 -1.4323  0.6125  0.3986
 2075SOL    HW217685   2.500   0.776   6.191 -0.3675 -1.0916  0.5639
 2076SOL     OW17686   2.247   2.492   6.953  0.4561 -0.0961  0.1879
 2076SOL    HW117687   2.251   2.421   7.017 -0.4873  0.0518  0.4200
 2076SOL    HW217688   2.337   2.507   6.924 -0.2627 -0.6509 -2.3168
 2077SOL     OW17689   1.533   1.554   3.969  0.3246 -0.5374  0.1124
 2077SOL    HW117690   1.491   1.493   3.908  0.2330  1.0577 -1.4205
 2077SOL    HW217691   1.489   1.548   4.055 -0.4938  0.3078 -0.2443
 2078SOL     OW17692   2.776   2.857   2.230 -0.1862  0.4695 -0.1222
 2078SOL    HW117693   2.858   2.807   2.221  0.9938  2.3316  0.3116
 2078SOL    HW217694   2.717   2.787   2.260  0.4137  0.1204  0.2500
 2079SOL     OW17695   3.025   1.381   5.092 -0.1501  0.1735 -0.1038
 2079SOL    HW117696   3.014   1.421   5.178 -0.1687 -0.7268  0.3178
 2079SOL    HW217697   3.050   1.291   5.115 -0.4238 -0.1963 -1.2338
 2080SOL     OW17698   2.906   4.640   1.555  0.7855  0.1543 -0.1032
 2080SOL    HW117699   2.857   4.618   1.476  1.5206  0.9977 -0.7918
 2080SOL    HW217700   2.894   0.012   1.561 -0.0705  0.1012 -0.9028
 2081SOL     OW17701   0.668   3.971  10.918 -0.5257  0.3151 -0.0812
 2081SOL    HW117702   0.732   4.042  10.912  2.5626 -2.5183 -0.3962
 2081SOL    HW217703   0.678   3.929  10.833 -0.3899  1.3973 -0.6077
 2082SOL     OW17704   0.542   3.430   6.132 -0.2313  0.0937  0.2265
 2082SOL    HW117705   0.541   3.478   6.049  1.1445  0.9127  0.6898
 2082SOL    HW217706   0.504   3.490   6.195 -1.6027  0.4187 -0.9225
 2083SOL     OW17707   0.357   0.061   6.028 -0.2554  0.2905  0.2121
 2083SOL    HW117708   0.332   0.014   5.948  1.3273 -1.7915  0.9474
 2083SOL    HW217709   0.440   0.017   6.048  0.7276  1.6092 -0.9826
 2084SOL     OW17710   3.500   3.238   3.803 -0.4293 -0.3068 -0.2748
 2084SOL    HW117711   3.547   3.176   3.746  0.5410  1.1317 -1.0370
 2084SOL    HW217712   3.575   3.286   3.839 -0.7851  0.1626 -0.1723
 2085SOL     OW17713   2.885   3.746   4.989 -0.0455  0.1263 -0.0834
 2085SOL    HW117714   2.817   3.801   5.027  0.0072 -0.6517  1.1397
 2085SOL    HW217715   2.963   3.789   5.023 -3.2181  2.3033  4.3363
 2086SOL     OW17716   1.155   2.116   1.522  0.2969  0.3496  0.1695
 2086SOL    HW117717   1.075   2.123   1.469 -0.1265  1.7876  0.9809
 2086SOL    HW217718   1.164   2.022   1.532 -1.7541 -0.1083 -2.0570
 2087SOL     OW17719   4.414   1.208  17.163 -0.3578  0.5660 -0.4674
 2087SOL    HW117720   4.426   1.253  17.246  0.2539 -0.1435 -0.1736
 2087SOL    HW217721   4.328   1.174  17.188  0.5220 -1.2673  0.0230
 2088SOL     OW17722   0.184   3.038   9.515 -0.2541  0.6445  0.1554
 2088SOL    HW117723   0.179   3.003   9.426  2.4437 -0.5204  0.4579
 2088SOL    HW217724   0.190   3.129   9.484 -0.8440  0.6793  0.1545
 2089SOL     OW17725   2.161   4.102  16.737  0.2548  0.2043 -0.3422
 2089SOL    HW117726   2.230   4.037  16.748  0.4685  0.1796 -1.8097
 2089SOL    HW217727   2.095   4.049  16.780  0.7758  0.4703  0.7974
 2090SOL     OW17728   1.406   2.202   1.787 -0.0322  0.1262 -0.2537
 2090SOL    HW117729   1.400   2.107   1.798  2.3949  0.1233  1.1490
 2090SOL    HW217730   1.435   2.206   1.696 -3.2250  0.2627 -1.2719
 2091SOL     OW17731   1.697   1.833   7.066  0.8567  0.1276 -0.0702
 2091SOL    HW117732   1.684   1.918   7.108 -1.5720  0.7170 -2.0724
 2091SOL    HW217733   1.771   1.803   7.120 -0.3201 -1.6823  0.5290
 2092SOL     OW17734   3.115   0.213   6.412 -0.1196  0.0610 -0.6903
 2092SOL    HW117735   3.025   0.227   6.444  0.1043 -0.1652  0.0423
 2092SOL    HW217736   3.140   0.131   6.455 -0.0955  1.0461  1.1799
 2093SOL     OW17737   3.957   0.328   9.430 -0.7453  0.5208 -0.2579
 2093SOL    HW117738   3.867   0.325   9.397 -0.7343  0.8262 -0.3166
 2093SOL    HW217739   3.957   0.254   9.491  0.0546  1.4613  0.8900
 2094SOL     OW17740   3.741   0.202   9.747  0.3916 -0.2668  0.0865
 2094SOL    HW117741   3.770   0.124   9.700  1.8719  2.0616 -2.8634
 2094SOL    HW217742   3.803   0.203   9.820  0.4125 -1.8554  0.0764
 2095SOL     OW17743   3.074   3.401   6.308 -0.2356 -0.5688  0.2136
 2095SOL    HW117744   2.999   3.435   6.357  0.0317 -0.5284  0.5874
 2095SOL    HW217745   3.092   3.321   6.356  2.2492 -0.6302 -0.8039
 2096SOL     OW17746   2.208   2.229   1.315 -0.0101  0.1919 -0.3307
 2096SOL    HW117747   2.185   2.309   1.268  0.0522  1.5914  2.0209
 2096SOL    HW217748   2.199   2.259   1.405 -0.5778 -1.0513  0.0255
 2097SOL     OW17749   4.442   2.507   4.912  0.2226  0.6108 -0.1887
 2097SOL    HW117750   4.374   2.537   4.972  0.8202  1.1737  0.2011
 2097SOL    HW217751   4.387   2.502   4.834  1.1218  0.9764 -0.8391
 2098SOL     OW17752   4.646   2.826   1.248  0.0241  0.5389  0.3120
 2098SOL    HW117753   4.578   2.771   1.209  1.2830 -0.6774 -0.1795
 2098SOL    HW217754   4.680   2.873   1.172  1.3866  2.0930  1.8836
 2099SOL     OW17755   2.399   4.369  15.405  0.2630 -0.0470  0.0092
 2099SOL    HW117756   2.399   4.328  15.492 -0.3986 -2.1437 -0.9915
 2099SOL    HW217757   2.491   4.389  15.390  1.0457 -1.5583  2.7549
 2100SOL     OW17758   1.860   4.262   1.585  0.2378  0.2684 -0.0651
 2100SOL    HW117759   1.904   4.339   1.552  1.1751 -1.0377 -1.8246
 2100SOL    HW217760   1.931   4.200   1.601  0.6391  0.8888  0.5716
 2101SOL     OW17761   2.165   4.393   6.977 -0.1464 -0.0496 -0.3135
 2101SOL    HW117762   2.132   4.308   7.006  0.6591 -0.9599 -2.0210
 2101SOL    HW217763   2.201   4.409   7.064  0.0300 -1.2795 -0.1589
 2102SOL     OW17764   0.783   1.157   3.639  0.1038  0.5363  0.1018
 2102SOL    HW117765   0.845   1.085   3.640  0.2306  0.6834  1.8259
 2102SOL    HW217766   0.784   1.186   3.730  0.9128 -1.4351  0.6939
 2103SOL     OW17767   0.074   4.379   2.334  0.3524  0.2696 -0.5310
 2103SOL    HW117768   0.045   4.454   2.282  1.5313  0.5938 -0.7199
 2103SOL    HW217769   0.133   4.338   2.271  0.0276  0.4514 -0.9499
 2104SOL     OW17770   0.927   3.079   1.512 -0.2951  0.3992  0.0363
 2104SOL    HW117771   0.849   3.070   1.457 -0.4827 -0.6676  0.4923
 2104SOL    HW217772   0.918   3.015   1.582 -0.9698  2.9289  2.2733
 2105SOL     OW17773   1.685   0.502  17.322  0.2303 -0.4266 -0.2635
 2105SOL    HW117774   1.724   0.514  17.236 -0.1952  1.6964 -0.1642
 2105SOL    HW217775   1.611   0.443  17.308 -0.7919  0.5720  0.8649
 2106SOL     OW17776   1.234   1.370   5.989  0.1319 -0.2353  0.3103
 2106SOL    HW117777   1.244   1.334   6.077 -1.5726 -0.2361  0.5128
 2106SOL    HW217778   1.322   1.401   5.971 -0.0339  0.0075 -0.0712
 2107SOL     OW17779   0.134   4.395  11.435  0.2237 -0.1700 -0.3030
 2107SOL    HW117780   0.102   4.456  11.502 -0.0269 -0.0909 -0.4957
 2107SOL    HW217781   0.122   4.447  11.356  3.5803  1.3925  0.1978
 2108SOL     OW17782   1.534   2.034   9.471  0.0924 -0.4804 -0.5193
 2108SOL    HW117783   1.492   2.060   9.553 -0.3082 -1.4011 -0.4313
 2108SOL    HW217784   1.476   1.962   9.444  0.6504 -1.4272  0.8076
 2109SOL     OW17785   0.135   3.943   7.629 -0.4588  0.1529 -0.2014
 2109SOL    HW117786   0.110   3.927   7.720  1.3260 -0.8470  0.1304
 2109SOL    HW217787   0.073   3.886   7.584 -0.7476  0.1739  0.1777
 2110SOL     OW17788   0.647   1.808   6.292  0.5955  0.7963  0.2178
 2110SOL    HW117789   0.719   1.751   6.317 -0.9942 -2.2695 -2.1839
 2110SOL    HW217790   0.671   1.828   6.201 -1.8598  0.6335 -0.4778
 2111SOL     OW17791   2.495   0.687   6.902 -0.0657 -0.2787  0.3578
 2111SOL    HW117792   2.501   0.682   6.998  1.1102  0.8871  0.3551
 2111SOL    HW217793   2.420   0.630   6.887  0.9639 -1.7618  0.8345
 2112SOL     OW17794   3.005   0.040   2.893 -0.1243 -0.4000 -0.5028
 2112SOL    HW117795   3.003   4.667   2.899 -2.4949 -0.0771  3.9500
 2112SOL    HW217796   2.914   0.059   2.871 -0.1165  1.0676  0.6761
 2113SOL     OW17797   1.447   3.429   3.314  0.4207  0.8608  0.7216
 2113SOL    HW117798   1.508   3.428   3.388  1.0181 -0.1754  0.2124
 2113SOL    HW217799   1.413   3.341   3.330 -1.0924  0.9051 -2.2403
 2114SOL     OW17800   3.334   1.808   4.887  0.2837 -0.2944 -0.2239
 2114SOL    HW117801   3.428   1.826   4.893  0.4272 -1.7110  1.6087
 2114SOL    HW217802   3.328   1.770   4.800  0.1804 -1.9755  0.5332
 2115SOL     OW17803   3.819   4.539   6.625  0.0212  0.0816  0.1771
 2115SOL    HW117804   3.797   4.627   6.657  0.7973 -0.0305  1.0183
 2115SOL    HW217805   3.892   4.507   6.678 -1.6948 -2.2333  1.1389
 2116SOL     OW17806   0.013   1.273   6.379  0.2563  0.0454  0.3665
 2116SOL    HW117807   4.694   1.198   6.335 -1.7333  0.0379  2.2392
 2116SOL    HW217808   0.097   1.236   6.406  1.1497  0.0060 -2.4655
 2117SOL     OW17809   0.269   2.580   3.272  0.0077  0.9715 -0.0060
 2117SOL    HW117810   0.240   2.490   3.255 -1.6484  1.9749 -2.5819
 2117SOL    HW217811   0.213   2.595   3.348  0.4670  1.3028  0.2687
 2118SOL     OW17812   0.377   2.446  10.200  0.3120 -0.1165 -0.3605
 2118SOL    HW117813   0.420   2.520  10.157  2.0499 -0.8442  0.1493
 2118SOL    HW217814   0.290   2.486  10.203  0.0485 -1.0998  4.5317
 2119SOL     OW17815   2.378   1.068   2.745 -0.6487  0.0815 -0.1387
 2119SOL    HW117816   2.285   1.080   2.729 -0.7866  0.2762  0.8296
 2119SOL    HW217817   2.389   1.147   2.799  1.0249  0.1467 -0.5483
 2120SOL     OW17818   4.339   2.468   9.226 -0.0951  0.0702  0.2081
 2120SOL    HW117819   4.298   2.465   9.140  0.1104 -0.5947  0.1326
 2120SOL    HW217820   4.355   2.562   9.236  0.4046  0.2179 -2.0761
 2121SOL     OW17821   3.709   0.115  14.569 -0.3051  0.3132 -0.0260
 2121SOL    HW117822   3.751   0.181  14.514 -3.1891  2.4943  0.4062
 2121SOL    HW217823   3.679   0.173  14.638  0.0977  0.2809  0.1751
 2122SOL     OW17824   2.016   0.401   3.869 -0.0209  0.1720 -0.4779
 2122SOL    HW117825   2.042   0.378   3.779  0.5585 -2.9426  0.4821
 2122SOL    HW217826   1.925   0.373   3.868  0.4835 -1.4571 -4.2660
 2123SOL     OW17827   2.181   0.377   1.951 -0.0104 -0.0936  0.0734
 2123SOL    HW117828   2.124   0.309   1.916 -1.4121  1.6100 -0.9206
 2123SOL    HW217829   2.137   0.461   1.937 -2.6201 -1.5161 -0.2029
 2124SOL     OW17830   4.030   2.045  12.160  0.5626 -0.4109  0.2668
 2124SOL    HW117831   4.036   1.988  12.236  2.3201 -2.3867 -1.3208
 2124SOL    HW217832   4.004   2.129  12.198  2.5491  1.6186 -2.8335
 2125SOL     OW17833   3.209   2.454   8.789  0.1119  0.3797  0.0000
 2125SOL    HW117834   3.143   2.520   8.771  1.4010  1.2487 -1.5522
 2125SOL    HW217835   3.283   2.503   8.753  0.6332 -0.9122 -0.7040
 2126SOL     OW17836   3.592   0.533   7.961  0.1056  0.2098 -0.5848
 2126SOL    HW117837   3.571   0.574   8.045  2.9268  0.9479 -0.2471
 2126SOL    HW217838   3.585   0.442   7.987 -0.2406  0.9083  1.8048
 2127SOL     OW17839   1.576   1.903   4.128 -0.5522  0.3528 -1.0017
 2127SOL    HW117840   1.527   1.933   4.204  2.4365  0.9151  0.7105
 2127SOL    HW217841   1.664   1.910   4.164 -0.0497  0.5937 -2.2869
 2128SOL     OW17842   3.618   2.866   8.458 -0.1959 -0.4410 -0.1990
 2128SOL    HW117843   3.640   2.926   8.387  0.1967  0.4649  0.6881
 2128SOL    HW217844   3.671   2.789   8.438  1.6804  1.0697 -1.0322
 2129SOL     OW17845   2.022   1.707   2.122  0.0236 -0.1552  0.1940
 2129SOL    HW117846   1.970   1.627   2.128 -0.0785 -0.0250  1.0456
 2129SOL    HW217847   2.021   1.739   2.212  1.0777  0.7313 -0.1060
 2130SOL     OW17848   2.012   1.731   1.588  0.0323 -0.2167 -0.0115
 2130SOL    HW117849   1.965   1.652   1.561  1.8208 -0.9080 -1.0716
 2130SOL    HW217850   2.072   1.749   1.516  2.5403  3.8211  3.0813
 2131SOL     OW17851   2.416   0.783  14.384  0.1564  0.2066  0.2910
 2131SOL    HW117852   2.499   0.830  14.397 -0.7190  1.1865  2.4770
 2131SOL    HW217853   2.420   0.770  14.290 -1.0564 -0.6531  0.3640
 2132SOL     OW17854   3.359   4.172  10.549  0.3422 -0.2730  0.2060
 2132SOL    HW117855   3.306   4.236  10.502  1.0539 -0.5255 -0.9288
 2132SOL    HW217856   3.316   4.172  10.635  1.7599  2.0952  0.9041
 2133SOL     OW17857   2.578   0.788   0.705  0.5388  1.0334  0.5953
 2133SOL    HW117858   2.525   0.712   0.679  0.8552  1.0928 -0.2175
 2133SOL    HW217859   2.618   0.747   0.781  1.8694 -0.3788 -0.8648
 2134SOL     OW17860   2.467   0.105   4.265 -0.2557  0.1080  0.0846
 2134SOL    HW117861   2.479   0.191   4.306 -0.7440 -0.0653  0.5856
 2134SOL    HW217862   2.493   0.131   4.176  1.9504  0.1353  0.7568
 2135SOL     OW17863   2.637   2.456   3.846 -0.2425 -0.0381  0.1976
 2135SOL    HW117864   2.601   2.497   3.924  0.2317  0.9143 -0.0810
 2135SOL    HW217865   2.716   2.510   3.838 -1.0854  1.3334  1.2815
 2136SOL     OW17866   4.012   3.828  11.639  0.3152 -0.3590  0.0292
 2136SOL    HW117867   3.995   3.759  11.703 -0.4286 -0.4481 -0.2690
 2136SOL    HW217868   4.066   3.891  11.685  0.6940  0.1822 -1.1429
 2137SOL     OW17869   0.201   2.315  15.985  0.2308 -0.1620  0.4024
 2137SOL    HW117870   0.223   2.272  16.067  1.9432 -1.9205 -0.9628
 2137SOL    HW217871   0.289   2.342  15.957 -0.9407  2.9724 -0.3066
 2138SOL     OW17872   1.670   2.338   7.183 -0.8928 -0.3762  0.3721
 2138SOL    HW117873   1.686   2.403   7.115 -1.8143 -0.5662 -0.0287
 2138SOL    HW217874   1.760   2.335   7.214 -0.4059  2.7500 -0.7497
 2139SOL     OW17875   2.764   4.566   1.322  0.6801  0.6168 -0.4212
 2139SOL    HW117876   2.675   4.600   1.319  0.2341 -0.2782  2.2068
 2139SOL    HW217877   2.754   4.486   1.271  0.0963  0.3128  0.1659
 2140SOL     OW17878   3.695   2.107   2.434 -0.3946 -0.1081  0.7357
 2140SOL    HW117879   3.756   2.034   2.427 -0.0611  0.2217  0.2075
 2140SOL    HW217880   3.677   2.091   2.526 -2.2819  0.7167  0.5146
 2141SOL     OW17881   1.823   3.757   2.846 -0.3008  0.0768 -0.2353
 2141SOL    HW117882   1.821   3.674   2.894 -1.6405  0.2319 -0.0146
 2141SOL    HW217883   1.903   3.747   2.794 -0.0044  0.1801  0.1997
 2142SOL     OW17884   0.110   4.161   8.018  0.1132  0.0874 -0.1283
 2142SOL    HW117885   0.083   4.085   7.965 -2.9779  1.9467 -1.2301
 2142SOL    HW217886   0.120   4.234   7.957 -0.5628  2.3400  2.4943
 2143SOL     OW17887   3.073   0.197   4.208 -0.2354 -0.4250  0.2422
 2143SOL    HW117888   3.004   0.132   4.223  1.4965 -2.3384  0.0666
 2143SOL    HW217889   3.033   0.281   4.228  1.9229  0.3759  1.1858
 2144SOL     OW17890   3.645   0.557   0.715 -0.4083  0.1788 -0.0157
 2144SOL    HW117891   3.688   0.627   0.667 -0.8987  0.6113  0.1681
 2144SOL    HW217892   3.712   0.537   0.780 -0.2300  1.5205  0.1985
 2145SOL     OW17893   2.399   2.870   9.834  0.0232  0.0399 -0.3177
 2145SOL    HW117894   2.417   2.897   9.924  0.3848 -1.0169 -0.0666
 2145SOL    HW217895   2.311   2.851   9.866 -0.5835  0.3760 -1.8283
 2146SOL     OW17896   1.177   0.364   9.042 -0.7298 -0.0408 -0.4672
 2146SOL    HW117897   1.192   0.334   9.131 -2.4311 -0.1120 -0.1900
 2146SOL    HW217898   1.261   0.345   9.002 -0.8868  0.3672 -0.9957
 2147SOL     OW17899   2.483   4.315  11.591  0.0322  0.3664 -0.0379
 2147SOL    HW117900   2.513   4.336  11.680  1.8210 -0.4668 -0.4501
 2147SOL    HW217901   2.551   4.252  11.569  1.0556  2.1494 -1.9164
 2148SOL     OW17902   0.616   0.498   4.141 -0.5712  0.0077 -0.2227
 2148SOL    HW117903   0.612   0.402   4.148 -0.8691 -0.0564 -1.4240
 2148SOL    HW217904   0.697   0.522   4.095 -0.2523  1.6360  1.1731
 2149SOL     OW17905   2.939   3.952   5.674 -0.0764 -0.6411 -0.1822
 2149SOL    HW117906   2.944   3.955   5.579 -1.6122 -1.2525 -0.2855
 2149SOL    HW217907   2.870   4.012   5.701  0.6809 -0.1510  0.6662
 2150SOL     OW17908   2.233   1.686  15.798  0.0943 -0.0459 -0.2669
 2150SOL    HW117909   2.289   1.725  15.865  1.4780  0.2799 -1.6242
 2150SOL    HW217910   2.182   1.766  15.780 -0.7112 -0.3354  0.7333
 2151SOL     OW17911   2.571   2.736   6.665 -0.3268 -0.7140 -0.0360
 2151SOL    HW117912   2.532   2.818   6.632 -0.1967 -0.4710  0.4226
 2151SOL    HW217913   2.647   2.766   6.714 -1.2945 -0.3180  1.2392
 2152SOL     OW17914   2.681   4.597   6.310  0.0488  0.1416 -0.0038
 2152SOL    HW117915   2.643   4.685   6.313  0.7184  0.4638 -0.9439
 2152SOL    HW217916   2.725   4.586   6.394 -0.9621 -2.8665  0.1334
 2153SOL     OW17917   1.068   1.169   7.106 -0.5457 -0.2548 -0.1291
 2153SOL    HW117918   1.106   1.257   7.105 -0.4116 -0.3133 -0.0655
 2153SOL    HW217919   0.983   1.202   7.076 -0.0374 -1.0659 -2.4554
 2154SOL     OW17920   2.410   2.520   4.379 -0.0783  0.1149 -0.0068
 2154SOL    HW117921   2.475   2.545   4.445  0.3328  0.7761 -0.6567
 2154SOL    HW217922   2.408   2.425   4.383  0.7756  0.1423  1.2369
 2155SOL     OW17923   0.630   1.153  14.001  0.0410 -0.6479 -0.0239
 2155SOL    HW117924   0.629   1.243  14.032 -1.1999 -0.8945  0.6408
 2155SOL    HW217925   0.541   1.146  13.966  0.1555  0.5029 -0.5541
 2156SOL     OW17926   3.321   0.842   9.943 -0.2302 -0.3744  0.0517
 2156SOL    HW117927   3.363   0.904   9.884  0.2710  0.6763  1.5456
 2156SOL    HW217928   3.362   0.873  10.023  0.8040 -0.6003 -0.3930
 2157SOL     OW17929   3.420   0.643  14.760 -0.2034  0.2030 -0.1175
 2157SOL    HW117930   3.363   0.569  14.783  1.7095 -0.7625  1.4694
 2157SOL    HW217931   3.510   0.618  14.777  0.4938  1.6303 -1.7168
 2158SOL     OW17932   0.169   0.392   6.529 -0.0575  0.1152  0.1587
 2158SOL    HW117933   0.105   0.367   6.463 -0.0044 -1.6595  0.7714
 2158SOL    HW217934   0.217   0.457   6.478  1.3479 -1.4168 -0.4761
 2159SOL     OW17935   4.229   0.556  13.848  0.1713 -0.3991 -0.1686
 2159SOL    HW117936   4.143   0.525  13.877  0.2407 -0.8037 -0.3889
 2159SOL    HW217937   4.255   0.602  13.927  0.4396  2.3945 -1.8928
 2160SOL     OW17938   0.339   4.578   5.805  0.8735 -0.0357  0.1157
 2160SOL    HW117939   0.376   4.490   5.819  0.7012 -0.1549 -0.1709
 2160SOL    HW217940   0.275   4.568   5.734 -1.8738 -1.5988  2.8025
 2161SOL     OW17941   3.062   3.721   7.719  0.1428  0.6417  0.1496
 2161SOL    HW117942   3.122   3.662   7.764  0.8216  0.7276 -0.6418
 2161SOL    HW217943   3.112   3.803   7.712 -0.2196  0.9985  1.9260
 2162SOL     OW17944   4.558   2.439   7.601  0.4565 -0.0912 -0.6439
 2162SOL    HW117945   4.634   2.484   7.639 -0.4308  0.1070  0.8993
 2162SOL    HW217946   4.570   2.345   7.615 -0.7129 -0.0462  0.5891
 2163SOL     OW17947   4.518   4.554   3.274  0.7589  0.3886  0.1713
 2163SOL    HW117948   4.562   4.613   3.212  1.9393 -0.2276  0.4217
 2163SOL    HW217949   4.590   4.543   3.336 -0.1082 -1.8365  0.7791
 2164SOL     OW17950   2.563   0.308   9.566 -0.1635 -0.1208  0.2240
 2164SOL    HW117951   2.536   0.242   9.630  0.9014  0.2777  1.0880
 2164SOL    HW217952   2.657   0.295   9.573  0.1472  2.8025  1.6662
 2165SOL     OW17953   4.261   3.677   4.941 -0.0628 -0.2384 -0.3110
 2165SOL    HW117954   4.206   3.615   4.988 -0.6742  1.0537  0.6730
 2165SOL    HW217955   4.329   3.617   4.909  0.1410  0.4601 -1.2016
 2166SOL     OW17956   0.973   0.773   2.294  0.5335 -0.0482  0.4730
 2166SOL    HW117957   0.941   0.809   2.376 -0.7482  0.0778 -0.0774
 2166SOL    HW217958   1.057   0.820   2.299 -1.9559  4.2986  1.6164
 2167SOL     OW17959   0.010   0.585   8.270 -0.2628 -0.5090  0.3921
 2167SOL    HW117960   0.006   0.570   8.365 -0.2610 -0.8961  0.3338
 2167SOL    HW217961   0.105   0.570   8.263 -0.4714 -1.0188 -1.3768
 2168SOL     OW17962   0.479   3.211   7.202  0.1600 -0.0850  1.0633
 2168SOL    HW117963   0.462   3.218   7.296  0.3158  0.9543  1.0081
 2168SOL    HW217964   0.482   3.302   7.174 -1.0326 -1.4439 -3.4743
 2169SOL     OW17965   0.002   0.557   4.923  0.6070 -0.3624 -0.0190
 2169SOL    HW117966   0.062   0.631   4.924 -1.4363  1.3401 -2.0236
 2169SOL    HW217967   4.659   0.596   4.865 -1.0317 -3.7050 -0.4216
 2170SOL     OW17968   4.443   1.051   8.001 -0.2627  0.7615  0.1021
 2170SOL    HW117969   4.422   1.016   8.088 -1.0107 -3.5601 -1.8264
 2170SOL    HW217970   4.528   1.011   7.987 -0.4272  0.8698 -1.1871
 2171SOL     OW17971   2.596   1.625  15.776  0.8036 -0.2585 -0.0470
 2171SOL    HW117972   2.642   1.688  15.831  1.7062  0.0217 -1.1285
 2171SOL    HW217973   2.515   1.670  15.749  1.0062  0.4469  0.5235
 2172SOL     OW17974   2.670   2.601   0.532  0.7926 -0.2280  0.5944
 2172SOL    HW117975   2.733   2.660   0.573 -0.4429  1.5832 -0.1225
 2172SOL    HW217976   2.707   2.515   0.553  0.0117 -1.1724 -1.9106
 2173SOL     OW17977   1.445   2.309   6.487 -0.1738 -0.4751  0.1018
 2173SOL    HW117978   1.371   2.257   6.455  1.3367 -2.6707  0.2105
 2173SOL    HW217979   1.414   2.398   6.472  1.0268 -0.2407 -0.9515
 2174SOL     OW17980   3.921   1.302   6.136  0.0170  0.1384  0.0891
 2174SOL    HW117981   3.883   1.222   6.171 -0.4361  1.2713  2.2063
 2174SOL    HW217982   4.002   1.267   6.100  0.7765  0.0959  1.8060
 2175SOL     OW17983   3.863   3.745   2.814 -0.1554 -0.1248 -0.4076
 2175SOL    HW117984   3.930   3.716   2.752  0.7573  1.5627 -0.2348
 2175SOL    HW217985   3.878   3.676   2.879 -2.5835 -1.2427 -1.0608
 2176SOL     OW17986   2.661   2.374   5.211 -0.2703  0.3702 -0.0995
 2176SOL    HW117987   2.697   2.322   5.139  1.3639  1.8563 -0.3686
 2176SOL    HW217988   2.677   2.311   5.280 -1.8904  0.0595 -0.0081
 2177SOL     OW17989   4.141   1.599   4.302  0.1015  0.5920  0.8195
 2177SOL    HW117990   4.191   1.679   4.288  0.3258  0.4729  0.9436
 2177SOL    HW217991   4.211   1.542   4.271  1.6604  1.5539  2.6139
 2178SOL     OW17992   0.421   1.535   6.041 -0.2532  0.3591  0.4083
 2178SOL    HW117993   0.386   1.611   6.088  0.3508  0.4470  0.7154
 2178SOL    HW217994   0.357   1.543   5.970  0.9472  0.7821 -0.6277
 2179SOL     OW17995   0.192   4.535   5.596 -0.1084 -0.2076 -0.1885
 2179SOL    HW117996   0.215   4.624   5.566  0.4881 -0.4017 -0.3198
 2179SOL    HW217997   0.106   4.523   5.557  0.5237  1.7448 -2.2475
 2180SOL     OW17998   1.080   0.985   6.087  0.1219  0.2766  0.5623
 2180SOL    HW117999   1.013   0.921   6.062  0.0357  0.7118 -0.3096
 2180SOL    HW218000   1.066   1.048   6.017  0.3899 -1.3468 -0.9483
 2181SOL     OW18001   1.339   2.330  11.088 -0.1204 -0.1576  0.3136
 2181SOL    HW118002   1.310   2.416  11.058 -0.0824  0.0662  0.9349
 2181SOL    HW218003   1.303   2.277  11.016 -1.2313 -0.8316  1.3715
 2182SOL     OW18004   1.892   2.591   3.882  1.5267  0.4270  0.0364
 2182SOL    HW118005   1.823   2.650   3.911 -1.3375 -2.0659 -1.7116
 2182SOL    HW218006   1.862   2.588   3.791  1.9968  5.2958 -0.2432
 2183SOL     OW18007   1.042   2.905  15.489 -0.2048 -0.3555  0.0652
 2183SOL    HW118008   1.059   2.966  15.561 -1.1869  0.0359 -0.0455
 2183SOL    HW218009   1.021   2.959  15.413  3.6731 -0.6969 -1.2406
 2184SOL     OW18010   3.646   0.988   3.441 -0.0896  0.1179 -0.7317
 2184SOL    HW118011   3.676   1.079   3.440 -0.4954  0.2156 -2.5224
 2184SOL    HW218012   3.725   0.941   3.417 -1.4488 -0.6654 -3.6716
 2185SOL     OW18013   0.593   1.610   3.453  0.0142  0.1365  0.0208
 2185SOL    HW118014   0.506   1.609   3.414  0.1349 -1.2813 -0.2119
 2185SOL    HW218015   0.604   1.695   3.496  2.0487  0.0625 -0.3511
 2186SOL     OW18016   0.453   1.609   7.768  0.8125  0.1939 -0.0934
 2186SOL    HW118017   0.364   1.627   7.798  0.4666 -2.8083  0.6805
 2186SOL    HW218018   0.495   1.579   7.849 -0.0493  1.3003  0.7648
 2187SOL     OW18019   3.392   4.290   6.771  0.2506  0.5519 -0.2966
 2187SOL    HW118020   3.383   4.198   6.797 -0.4216  0.5088 -0.6634
 2187SOL    HW218021   3.347   4.297   6.687 -1.6012  0.8610  0.7097
 2188SOL     OW18022   2.624   1.536   4.206  0.3817 -0.2768 -0.7353
 2188SOL    HW118023   2.630   1.532   4.302 -2.6482 -1.8039 -0.5939
 2188SOL    HW218024   2.619   1.631   4.192  1.5758 -0.0803  0.1601
 2189SOL     OW18025   2.578   4.249   1.688  0.6300  0.4265 -0.4570
 2189SOL    HW118026   2.593   4.158   1.715 -0.8897  0.8856  1.8665
 2189SOL    HW218027   2.604   4.295   1.768  0.2188 -0.1766  0.0265
 2190SOL     OW18028   1.479   2.577   9.665  0.8102 -0.0218  0.2199
 2190SOL    HW118029   1.421   2.611   9.733  1.3938 -1.0064  1.2237
 2190SOL    HW218030   1.554   2.634   9.682  0.8044  0.3690 -1.0276
 2191SOL     OW18031   3.317   4.244   5.756  0.7400 -0.2012  0.5964
 2191SOL    HW118032   3.396   4.296   5.772  0.8502 -0.2974  0.3654
 2191SOL    HW218033   3.251   4.313   5.749  3.6839  2.6237  0.4982
 2192SOL     OW18034   3.318   3.650  11.675 -0.2963 -0.2286  1.3015
 2192SOL    HW118035   3.315   3.671  11.582 -0.4402 -3.4719  0.5518
 2192SOL    HW218036   3.301   3.555  11.671 -0.8924 -0.0226 -1.2455
 2193SOL     OW18037   0.006   3.345   6.868  0.5696 -0.6747  0.1715
 2193SOL    HW118038   0.070   3.277   6.851 -0.2465 -1.5598  0.6728
 2193SOL    HW218039   0.044   3.408   6.806 -1.5829  1.4787  1.0468
 2194SOL     OW18040   3.132   3.604   7.480 -0.0975 -0.6275 -0.0202
 2194SOL    HW118041   3.202   3.552   7.520  0.0239  0.4211  1.1152
 2194SOL    HW218042   3.085   3.624   7.560  0.2831 -0.5118  0.1752
 2195SOL     OW18043   2.761   1.388   6.858  0.3369  0.1503  0.2046
 2195SOL    HW118044   2.687   1.447   6.845  0.4738  0.0730 -0.8950
 2195SOL    HW218045   2.710   1.308   6.845  1.4021 -0.3721 -0.6987
 2196SOL     OW18046   0.221   2.018   0.383  0.0335 -0.1968  0.2859
 2196SOL    HW118047   0.291   1.956   0.361  0.7810  0.4411  0.8710
 2196SOL    HW218048   0.253   2.035   0.472 -3.2351  2.8277  0.9075
 2197SOL     OW18049   4.628   2.395   8.581  0.5260 -0.3291 -0.0951
 2197SOL    HW118050   4.579   2.345   8.646 -0.4646  0.5309 -0.1832
 2197SOL    HW218051   4.655   2.471   8.632 -1.0624  0.2487 -0.1086
 2198SOL     OW18052   3.206   1.171   8.986  0.3818  0.2191  0.6976
 2198SOL    HW118053   3.150   1.248   8.971 -1.1399 -0.6030  2.2343
 2198SOL    HW218054   3.137   1.124   9.032 -0.3538  0.2451 -0.3653
 2199SOL     OW18055   3.738   0.659  17.568 -0.3986  0.8509 -0.3941
 2199SOL    HW118056   3.719   0.752  17.552 -0.8073  0.9135  0.4788
 2199SOL    HW218057   3.695   0.649  17.653  0.8285 -0.7996  0.0280
 2200SOL     OW18058   1.468   3.261   8.835 -0.7313  0.3524  0.1004
 2200SOL    HW118059   1.415   3.269   8.755  0.6356  0.0740 -0.8321
 2200SOL    HW218060   1.443   3.176   8.871 -1.1931  0.2594 -0.4402
 2201SOL     OW18061   0.366   0.384   5.209 -0.2796 -0.2694 -0.2837
 2201SOL    HW118062   0.288   0.338   5.179  0.2800 -2.4169  1.5381
 2201SOL    HW218063   0.316   0.460   5.239 -0.8214 -1.2038  1.1950
 2202SOL     OW18064   2.271   0.350   3.906 -0.0495 -0.7656 -0.1519
 2202SOL    HW118065   2.178   0.374   3.898  0.3847  1.4589  1.1774
 2202SOL    HW218066   2.301   0.348   3.815 -2.3168  1.8382 -0.9586
 2203SOL     OW18067   1.481   4.024   3.402 -0.2334 -0.0197  0.6703
 2203SOL    HW118068   1.545   4.068   3.458  1.3369 -1.8762  0.3248
 2203SOL    HW218069   1.539   4.004   3.329 -0.0185 -1.2303  1.1718
 2204SOL     OW18070   3.517   0.264   8.000  0.0421  0.6117  0.2285
 2204SOL    HW118071   3.519   0.214   7.918  0.6054  1.7204 -0.4274
 2204SOL    HW218072   3.426   0.258   8.030  0.3223 -0.4493  0.8698
 2205SOL     OW18073   1.471   1.073   1.924 -0.3017  0.1491  0.4121
 2205SOL    HW118074   1.461   1.051   1.831 -1.9975  2.0250  0.1734
 2205SOL    HW218075   1.380   1.078   1.954 -0.1909 -0.8135  0.9142
 2206SOL     OW18076   1.325   0.484  12.741 -0.2624 -0.1323 -0.0840
 2206SOL    HW118077   1.264   0.421  12.778 -0.4720 -1.6235 -2.9319
 2206SOL    HW218078   1.272   0.508  12.665  0.4932  0.8365 -0.3113
 2207SOL     OW18079   4.484   3.132  17.388 -0.2031 -0.6236 -0.1156
 2207SOL    HW118080   4.511   3.196  17.455 -0.5259 -0.5795 -0.0274
 2207SOL    HW218081   4.412   3.186  17.355  0.9382 -0.0292 -1.6076
 2208SOL     OW18082   0.739   3.045   4.712 -0.2732  0.3390 -0.4658
 2208SOL    HW118083   0.804   3.090   4.659 -1.2121  0.1309 -1.7899
 2208SOL    HW218084   0.787   2.971   4.750  0.6858  0.2746 -1.8157
 2209SOL     OW18085   4.539   3.031   3.848  0.2931 -0.0555 -0.5181
 2209SOL    HW118086   4.495   3.055   3.766 -1.0741 -3.7913 -0.8873
 2209SOL    HW218087   4.616   3.085   3.830 -0.5386  0.0230 -3.9062
 2210SOL     OW18088   2.162   3.905  10.471 -0.6999  0.5756 -0.1679
 2210SOL    HW118089   2.119   3.944  10.395 -1.4336 -0.3222 -0.2076
 2210SOL    HW218090   2.199   3.827  10.429  0.4369 -0.2823  2.3864
 2211SOL     OW18091   1.245   4.179   6.964 -0.3335 -0.1238 -0.5259
 2211SOL    HW118092   1.159   4.204   6.931  0.4399  3.0803 -0.1742
 2211SOL    HW218093   1.296   4.245   6.916 -0.5045  0.3746 -0.0310
 2212SOL     OW18094   1.398   2.777   2.558 -0.8334 -0.3943  0.4016
 2212SOL    HW118095   1.403   2.739   2.471 -1.4411  1.0593 -0.2720
 2212SOL    HW218096   1.421   2.867   2.537  0.1295 -0.7617 -0.1032
 2213SOL     OW18097   3.721   0.418   6.158 -0.3384  0.4398  0.1129
 2213SOL    HW118098   3.672   0.474   6.097 -1.5063 -0.5772  0.1199
 2213SOL    HW218099   3.757   0.355   6.096  0.2165  3.0717 -2.2397
 2214SOL     OW18100   4.348   0.572  17.422 -0.0783  0.0572  0.4485
 2214SOL    HW118101   4.307   0.549  17.506 -0.1197 -0.6263  0.2383
 2214SOL    HW218102   4.408   0.498  17.412  0.7688  1.0292 -1.6663
 2215SOL     OW18103   1.609   3.637   3.837 -0.3171 -0.8700 -0.6021
 2215SOL    HW118104   1.693   3.593   3.849 -0.0917 -0.1127  0.6035
 2215SOL    HW218105   1.654   3.718   3.813  0.0375 -0.8066  0.2851
 2216SOL     OW18106   1.120   0.810  13.216 -0.3309  0.2007  0.1318
 2216SOL    HW118107   1.164   0.893  13.237 -2.5595  1.2761  0.6109
 2216SOL    HW218108   1.120   0.765  13.300  1.4924  0.4630  0.2764
 2217SOL     OW18109   3.594   0.258  12.931 -0.6722  0.0739  0.5156
 2217SOL    HW118110   3.625   0.347  12.950 -3.8755  1.0323  1.2491
 2217SOL    HW218111   3.569   0.237  13.021  0.5535 -0.4510  0.7408
 2218SOL     OW18112   4.074   2.947  16.503  0.0212 -0.5110 -0.0524
 2218SOL    HW118113   3.980   2.952  16.523  0.4018  0.8575  1.3876
 2218SOL    HW218114   4.091   3.028  16.456 -3.2421  0.5339  0.5944
 2219SOL     OW18115   1.803   2.300   5.475  0.2333  0.3412 -0.5526
 2219SOL    HW118116   1.897   2.305   5.457  0.4957 -0.5547  0.5747
 2219SOL    HW218117   1.810   2.225   5.534 -0.0894  0.3464 -0.5094
 2220SOL     OW18118   1.309   1.980   5.814 -0.1508 -0.2040 -0.5365
 2220SOL    HW118119   1.375   2.042   5.784 -1.9010  1.6576 -0.5230
 2220SOL    HW218120   1.253   1.975   5.737 -0.8911  3.4896 -0.2196
 2221SOL     OW18121   4.305   4.015   3.712 -0.1911 -0.1334  0.0550
 2221SOL    HW118122   4.330   3.929   3.746 -1.7497 -0.0840  1.3280
 2221SOL    HW218123   4.283   3.995   3.621  0.9472 -2.0144  0.1958
 2222SOL     OW18124   4.354   1.646   7.432  0.4880 -0.2680 -0.1299
 2222SOL    HW118125   4.436   1.688   7.408  0.7268 -0.3679  0.5209
 2222SOL    HW218126   4.301   1.725   7.439  2.3328  1.0933 -1.4805
 2223SOL     OW18127   2.548   2.999   5.835  0.0942 -0.0025 -0.1042
 2223SOL    HW118128   2.503   2.922   5.798  1.0809  0.1763 -1.6943
 2223SOL    HW218129   2.590   2.967   5.915 -0.0535  2.2312  0.8539
 2224SOL     OW18130   2.561   3.575   4.432  0.1581 -0.4990  0.1273
 2224SOL    HW118131   2.482   3.521   4.427  2.1872 -3.5225  0.8144
 2224SOL    HW218132   2.595   3.570   4.343 -0.7041 -0.5575 -0.1978
 2225SOL     OW18133   0.213   2.832   6.325  0.1050  0.1446 -0.0024
 2225SOL    HW118134   0.189   2.756   6.272 -0.9477  0.9868 -0.7205
 2225SOL    HW218135   0.305   2.845   6.305  0.5292 -1.3645  0.9302
 2226SOL     OW18136   2.638   4.156   9.307  0.3857  0.0182 -0.1409
 2226SOL    HW118137   2.685   4.077   9.333  1.2598 -0.4085 -3.0160
 2226SOL    HW218138   2.572   4.162   9.376  1.1450  0.2164  0.5687
 2227SOL     OW18139   0.777   3.960   7.511 -0.2757  0.4164 -0.0739
 2227SOL    HW118140   0.844   3.921   7.456 -0.5915 -2.5889  1.6823
 2227SOL    HW218141   0.740   3.884   7.556  0.3420 -1.6300 -3.0517
 2228SOL     OW18142   2.611   1.316   4.016 -0.4761  0.8553  0.6495
 2228SOL    HW118143   2.607   1.378   3.943 -0.6724  0.3701  0.2516
 2228SOL    HW218144   2.641   1.371   4.089  1.5748  0.7093 -0.0691
 2229SOL     OW18145   2.139   1.521   4.751 -0.0559  0.1150  0.1841
 2229SOL    HW118146   2.133   1.607   4.792 -3.7464  0.5526 -1.2632
 2229SOL    HW218147   2.123   1.459   4.822  0.3142 -1.5031 -1.1517
 2230SOL     OW18148   3.151   3.412   0.550  0.3590  0.5919 -0.0057
 2230SOL    HW118149   3.146   3.400   0.645 -2.3192 -2.4397 -0.5353
 2230SOL    HW218150   3.072   3.464   0.534  0.0210  0.2559  0.5723
 2231SOL     OW18151   0.456   1.311   7.662  0.4197  0.2028 -0.1835
 2231SOL    HW118152   0.363   1.308   7.686  0.2028  3.1317 -0.7063
 2231SOL    HW218153   0.479   1.398   7.694 -1.7778  0.6492  0.2008
 2232SOL     OW18154   0.948   1.545   4.115 -0.1388  0.2890 -0.0126
 2232SOL    HW118155   1.012   1.529   4.185  1.6752 -2.6810 -2.3255
 2232SOL    HW218156   0.876   1.589   4.159 -0.7732 -1.2205  0.4809
 2233SOL     OW18157   3.605   4.416   6.547  0.1855 -0.4166  0.0976
 2233SOL    HW118158   3.686   4.464   6.559 -1.6242  2.4775  0.7481
 2233SOL    HW218159   3.599   4.362   6.625 -0.6304  0.7084  0.8083
 2234SOL     OW18160   0.013   3.912   7.873 -0.1609  0.1333  0.2186
 2234SOL    HW118161   0.005   3.846   7.942 -2.4520  0.5630  0.3698
 2234SOL    HW218162   4.642   3.912   7.851 -0.6969 -0.1281  2.5320
 2235SOL     OW18163   3.137   4.309  14.506  0.6324  0.4841 -0.7177
 2235SOL    HW118164   3.147   4.402  14.490  1.2420  0.6459  0.6315
 2235SOL    HW218165   3.047   4.305  14.539  0.5731 -2.0591 -1.1202
 2236SOL     OW18166   1.148   0.553   5.892  0.0173  0.0310 -0.2599
 2236SOL    HW118167   1.144   0.590   5.981  2.0450 -2.7111  0.9763
 2236SOL    HW218168   1.169   0.637   5.850 -3.9588  0.4983 -1.2213
 2237SOL     OW18169   4.718   0.940  16.893 -0.0298 -0.1869 -0.6556
 2237SOL    HW118170   4.640   0.919  16.943 -0.2369  2.0975  0.0046
 2237SOL    HW218171   0.057   0.946  16.966 -1.9998  0.6820  0.9185
 2238SOL     OW18172   3.502   1.722   7.503  0.2253 -0.7063  0.1205
 2238SOL    HW118173   3.553   1.642   7.495  0.5660 -0.4541 -0.2979
 2238SOL    HW218174   3.506   1.744   7.409 -0.9812  0.4506  0.3332
 2239SOL     OW18175   4.514   1.245   6.711  0.0422  0.2275 -0.3308
 2239SOL    HW118176   4.516   1.155   6.679 -0.4756  0.3558 -0.7149
 2239SOL    HW218177   4.567   1.238   6.790 -0.7812  1.6098  0.3515
 2240SOL     OW18178   4.184   1.859   6.228  0.0783  0.1897 -0.1252
 2240SOL    HW118179   4.139   1.835   6.310  1.7176  0.1260  0.7414
 2240SOL    HW218180   4.239   1.785   6.206  1.0726  0.6547  0.8025
 2241SOL     OW18181   2.391   1.570   6.178 -1.1361  0.3782  0.4146
 2241SOL    HW118182   2.339   1.504   6.134  1.3788  0.1156 -2.1144
 2241SOL    HW218183   2.331   1.644   6.165 -2.6483 -0.8153  0.5648
 2242SOL     OW18184   2.320   3.495   3.581  0.0310  0.0597 -0.2000
 2242SOL    HW118185   2.261   3.482   3.506  0.8378 -2.8865 -0.3119
 2242SOL    HW218186   2.337   3.403   3.602  0.9077 -0.1975 -2.0664
 2243SOL     OW18187   4.515   3.519   7.995 -0.4873 -0.1405  1.1763
 2243SOL    HW118188   4.582   3.487   7.935 -1.3881  0.1740  0.0290
 2243SOL    HW218189   4.464   3.576   7.939  0.4229 -0.6015 -0.1128
 2244SOL     OW18190   3.797   1.678   4.391 -0.1058 -0.1275 -0.4944
 2244SOL    HW118191   3.702   1.667   4.388 -0.0159 -0.8868 -0.5370
 2244SOL    HW218192   3.824   1.591   4.363  1.3988 -0.0263  0.6623
 2245SOL     OW18193   2.932   4.342  12.085  0.4589 -0.0488 -0.0722
 2245SOL    HW118194   2.975   4.267  12.043  0.7690  0.6692 -1.0152
 2245SOL    HW218195   2.992   4.352  12.159  0.9095 -0.4810 -0.3866
 2246SOL     OW18196   3.427   3.245   5.739 -0.4523  0.2849 -0.1415
 2246SOL    HW118197   3.504   3.294   5.765 -0.9340  0.1078  1.6033
 2246SOL    HW218198   3.473   3.163   5.720 -2.1787 -0.2669 -1.9556
 2247SOL     OW18199   4.318   3.624  10.402  1.0031  0.2115  0.1120
 2247SOL    HW118200   4.395   3.575  10.432  0.6737 -0.2862  0.1448
 2247SOL    HW218201   4.319   3.591  10.312 -0.0075  1.8149 -0.4906
 2248SOL     OW18202   0.124   4.612  17.072 -0.0869 -0.1689  0.1953
 2248SOL    HW118203   0.070   4.591  17.148 -0.8509 -2.2951 -0.9230
 2248SOL    HW218204   0.118   4.707  17.068  0.4752 -0.3237 -3.8528
 2249SOL     OW18205   3.908   3.472  14.251  0.3431 -0.1347  0.5416
 2249SOL    HW118206   3.874   3.397  14.301 -0.7911  0.4210  0.5863
 2249SOL    HW218207   3.865   3.548  14.290  0.3825  0.5683 -0.7987
 2250SOL     OW18208   1.570   4.431   0.477  0.3252  0.0136 -0.1616
 2250SOL    HW118209   1.646   4.426   0.534 -0.6429 -3.4659  0.8173
 2250SOL    HW218210   1.510   4.452   0.548  1.1760 -2.3520  1.2407
 2251SOL     OW18211   3.861   0.902   2.625  0.1900  0.5133  0.1381
 2251SOL    HW118212   3.851   0.970   2.691  0.5444  1.9230 -1.2469
 2251SOL    HW218213   3.836   0.835   2.688 -0.2528  0.1495 -0.4356
 2252SOL     OW18214   1.764   1.607   3.842 -0.1626  0.2650  0.1917
 2252SOL    HW118215   1.748   1.518   3.811 -0.2857  0.2799  0.2144
 2252SOL    HW218216   1.685   1.618   3.895 -1.4092  0.1588 -1.6462
 2253SOL     OW18217   3.028   3.640   4.223  0.0518 -0.3160 -0.0220
 2253SOL    HW118218   3.037   3.584   4.300  0.2500  0.2180  0.3480
 2253SOL    HW218219   3.121   3.642   4.199  0.3373  0.4629  1.1038
 2254SOL     OW18220   3.761   0.949   8.255  0.3427 -0.1827  0.4626
 2254SOL    HW118221   3.700   1.019   8.235 -0.0923 -0.1105  2.0818
 2254SOL    HW218222   3.724   0.906   8.332 -1.3319 -0.7406 -0.6591
 2255SOL     OW18223   1.667   1.431  14.510 -0.2027  0.2794  0.0437
 2255SOL    HW118224   1.652   1.460  14.420  0.4349  1.6197  0.3663
 2255SOL    HW218225   1.717   1.352  14.492  0.0819 -0.4449  3.9306
 2256SOL     OW18226   1.218   3.641   7.680  0.4689 -0.2853  0.5853
 2256SOL    HW118227   1.205   3.727   7.639  0.8759 -0.4004  0.2154
 2256SOL    HW218228   1.177   3.654   7.765 -0.6764  1.5039 -0.2311
 2257SOL     OW18229   2.795   4.610  13.741  0.6013 -0.1751  0.5712
 2257SOL    HW118230   2.742   4.654  13.807 -0.2897 -1.3193  0.6189
 2257SOL    HW218231   2.788   4.520  13.774 -0.8423 -0.3296 -0.1480
 2258SOL     OW18232   4.360   1.837   5.076 -0.5327 -0.1265 -0.4858
 2258SOL    HW118233   4.446   1.853   5.115 -0.4230 -0.3509 -0.6392
 2258SOL    HW218234   4.376   1.760   5.023  1.9223 -0.5401  0.8751
 2259SOL     OW18235   4.096   2.893   8.808  0.3967 -0.3010 -0.8842
 2259SOL    HW118236   4.119   2.970   8.757 -1.4396 -0.4536 -1.9756
 2259SOL    HW218237   4.003   2.906   8.826  0.4257 -0.3426 -0.7053
 2260SOL     OW18238   0.979   1.554  10.162 -0.1112  0.3146  0.4978
 2260SOL    HW118239   1.075   1.560  10.169 -0.1605 -1.0656  2.2632
 2260SOL    HW218240   0.969   1.488  10.093  2.2508  2.7976 -2.2106
 2261SOL     OW18241   3.368   2.283   0.026  0.0688  0.8872  0.1180
 2261SOL    HW118242   3.297   2.223   0.002  0.2552 -0.1349  2.1404
 2261SOL    HW218243   3.449   2.240  17.692 -2.2768 -1.9261 -2.4772
 2262SOL     OW18244   1.971   4.180   8.291  0.0862  0.8386  0.3216
 2262SOL    HW118245   2.005   4.204   8.376  2.1501 -2.3950  0.3930
 2262SOL    HW218246   2.030   4.229   8.233  0.4587  0.0439  0.0371
 2263SOL     OW18247   0.183   0.501   7.306  0.2250 -0.4933 -0.3355
 2263SOL    HW118248   0.115   0.455   7.255  0.5778 -0.8313 -0.5012
 2263SOL    HW218249   0.118   0.562   7.342 -0.2221 -1.6922  0.8875
 2264SOL     OW18250   2.722   1.427  14.148 -0.0080  0.4937  0.3968
 2264SOL    HW118251   2.716   1.423  14.052  0.4107  1.6356  0.3232
 2264SOL    HW218252   2.784   1.499  14.161  1.0640 -0.1696 -1.0222
 2265SOL     OW18253   0.799   2.998  11.767  0.0228 -0.6814  0.0006
 2265SOL    HW118254   0.752   2.945  11.703  0.2522 -0.0819 -0.6568
 2265SOL    HW218255   0.762   2.967  11.850  0.2135 -5.3127 -1.6234
 2266SOL     OW18256   0.065   1.584   6.656 -0.2313  0.2531 -0.3571
 2266SOL    HW118257   0.003   1.543   6.596  1.5815 -1.2064 -1.2525
 2266SOL    HW218258   0.143   1.564   6.604  0.4438  2.5433 -0.2398
 2267SOL     OW18259   1.815   2.253   1.422  0.7739  0.0009 -0.6147
 2267SOL    HW118260   1.725   2.251   1.456 -0.3961 -1.5129 -3.8333
 2267SOL    HW218261   1.832   2.169   1.381  0.7313 -0.7741  0.9547
 2268SOL     OW18262   0.723   2.971   0.717  0.1515  0.1910  0.1781
 2268SOL    HW118263   0.692   3.029   0.646  2.1183  0.7242 -0.2461
 2268SOL    HW218264   0.760   3.043   0.769  1.3783 -0.0305 -0.3772
 2269SOL     OW18265   2.731   4.014   6.703 -0.3865  0.3384  0.1858
 2269SOL    HW118266   2.820   4.038   6.730  0.1133  1.0204 -2.1325
 2269SOL    HW218267   2.704   3.964   6.780  2.0812  0.3348  1.0562
 2270SOL     OW18268   0.847   2.213   0.688  0.2534 -0.8899  0.2452
 2270SOL    HW118269   0.761   2.212   0.731  0.7701 -0.8119  1.2940
 2270SOL    HW218270   0.836   2.280   0.620  2.2617 -1.2535 -0.4216
 2271SOL     OW18271   3.418   4.261   4.439 -0.1658  0.1462  0.1302
 2271SOL    HW118272   3.509   4.238   4.420 -0.1423 -0.7692  1.3098
 2271SOL    HW218273   3.399   4.196   4.507 -0.2577 -0.0460 -0.0746
 2272SOL     OW18274   1.242   2.133   3.032  0.1961 -0.0366  0.1429
 2272SOL    HW118275   1.295   2.206   3.002  0.3337 -0.0112  0.4495
 2272SOL    HW218276   1.179   2.111   2.963 -0.8100 -1.3622  1.4804
 2273SOL     OW18277   1.406   1.333   0.689 -0.3063 -0.0147  0.7807
 2273SOL    HW118278   1.436   1.335   0.780  1.0170  2.3632  0.2993
 2273SOL    HW218279   1.471   1.394   0.655  0.2550 -1.6863 -1.1959
 2274SOL     OW18280   3.386   1.987  15.240  0.4420 -0.2925  1.0024
 2274SOL    HW118281   3.324   2.024  15.177  1.9787 -1.6582 -1.3142
 2274SOL    HW218282   3.433   2.060  15.282 -0.0651  1.7994 -2.0614
 2275SOL     OW18283   0.312   3.072  15.094  0.2947 -0.1470  0.0235
 2275SOL    HW118284   0.269   3.029  15.020  0.6664  0.2726 -0.4364
 2275SOL    HW218285   0.394   3.110  15.063 -0.6712  2.3504  0.4993
 2276SOL     OW18286   0.036   3.415  15.795 -0.0509  0.2739 -0.1937
 2276SOL    HW118287   4.721   3.432  15.881  2.0508 -1.2663  1.0525
 2276SOL    HW218288   0.103   3.483  15.797  0.7829 -0.5345 -0.5134
 2277SOL     OW18289   3.256   2.050   7.918  0.5153 -0.0986  0.6534
 2277SOL    HW118290   3.287   2.140   7.925 -2.0878  0.7702  1.3683
 2277SOL    HW218291   3.170   2.057   7.875 -0.4877  2.0255  2.9703
 2278SOL     OW18292   2.698   4.480   2.922  0.4205  0.3052 -0.1352
 2278SOL    HW118293   2.721   4.502   2.832 -0.4561 -1.5556 -0.8128
 2278SOL    HW218294   2.603   4.495   2.918  0.5562  1.7341  1.4414
 2279SOL     OW18295   1.879   0.860   1.765  0.7653 -0.5041 -0.0264
 2279SOL    HW118296   1.949   0.861   1.700 -0.8717 -0.5847 -1.8126
 2279SOL    HW218297   1.800   0.877   1.713  0.3311 -1.6078  0.2577
 2280SOL     OW18298   4.526   2.917  16.396  0.0687 -0.0272  0.7321
 2280SOL    HW118299   4.523   2.962  16.311 -1.2135 -0.6309  0.4534
 2280SOL    HW218300   4.567   2.987  16.447 -0.1120  0.9577 -0.4747
 2281SOL     OW18301   3.076   3.438  12.680  0.1663  0.1763 -0.5614
 2281SOL    HW118302   3.022   3.517  12.668  1.2776  0.9404 -0.5492
 2281SOL    HW218303   3.156   3.480  12.711  1.1920 -0.9778 -1.6818
 2282SOL     OW18304   4.341   1.977   8.209 -0.0098 -0.4808  0.6204
 2282SOL    HW118305   4.413   2.039   8.222 -0.8268  0.7427 -0.7662
 2282SOL    HW218306   4.361   1.945   8.121  0.5051  1.9359 -0.1346
 2283SOL     OW18307   2.613   3.683   0.252 -1.0991  0.3791  0.0071
 2283SOL    HW118308   2.698   3.683   0.208 -3.4443  0.9145 -4.5040
 2283SOL    HW218309   2.625   3.611   0.314  0.9475  0.5375 -0.2100
 2284SOL     OW18310   2.302   1.818  10.916 -0.2780 -0.4136 -0.0124
 2284SOL    HW118311   2.312   1.896  10.971 -1.0663  0.9852 -1.8592
 2284SOL    HW218312   2.265   1.848  10.833  0.6217  1.2358  0.1825
 2285SOL     OW18313   1.100   2.051   6.843 -0.1631 -0.9789 -0.0321
 2285SOL    HW118314   1.014   2.060   6.884  0.1047  0.7309  0.1404
 2285SOL    HW218315   1.095   1.966   6.797 -1.1879 -1.2764  0.6323
 2286SOL     OW18316   1.652   3.892  10.929  0.0023 -0.4688  0.0648
 2286SOL    HW118317   1.593   3.927  10.996 -0.3456 -0.9526  0.0093
 2286SOL    HW218318   1.673   3.806  10.965 -1.5104 -1.6433 -1.8827
 2287SOL     OW18319   2.935   2.128  16.880  0.4974  0.4882  0.0103
 2287SOL    HW118320   3.015   2.176  16.854 -0.1472  0.8395 -1.3424
 2287SOL    HW218321   2.924   2.060  16.814 -0.0575  1.1583 -0.6005
 2288SOL     OW18322   1.295   1.184   9.348  0.1349 -0.2422  0.6333
 2288SOL    HW118323   1.374   1.180   9.400  0.0728  0.8761  0.8125
 2288SOL    HW218324   1.226   1.202   9.412  0.0354 -0.5581  0.6126
 2289SOL     OW18325   0.743   1.009   7.958  0.1903  0.2165  0.1669
 2289SOL    HW118326   0.707   0.949   8.023  0.5850  0.2752  0.4407
 2289SOL    HW218327   0.733   0.965   7.874 -0.7520 -1.0005  0.9217
 2290SOL     OW18328   2.057   3.564   2.294 -0.5267 -0.4351  0.2101
 2290SOL    HW118329   2.142   3.548   2.253 -0.4546 -1.3258  0.7089
 2290SOL    HW218330   2.001   3.552   2.217  0.2862  0.8515 -0.5796
 2291SOL     OW18331   0.498   0.531   9.276 -0.2325  0.7911  0.2809
 2291SOL    HW118332   0.475   0.624   9.267  3.1587  1.6156  0.1695
 2291SOL    HW218333   0.588   0.526   9.310 -0.8294 -1.9438  1.4244
 2292SOL     OW18334   1.571   4.383  12.334  0.5185 -0.2637  0.7771
 2292SOL    HW118335   1.619   4.454  12.375 -0.4362  0.3707  0.7947
 2292SOL    HW218336   1.606   4.393  12.245  1.5805 -1.6809  1.0409
 2293SOL     OW18337   0.088   0.412   7.616 -0.0490 -0.1319  0.6264
 2293SOL    HW118338   0.064   0.501   7.642 -0.7805 -0.5370  1.3409
 2293SOL    HW218339   0.037   0.396   7.536 -1.0870 -1.6330  1.5680
 2294SOL     OW18340   1.563   3.172   8.103 -0.1575 -0.0357 -0.0594
 2294SOL    HW118341   1.524   3.156   8.018 -0.9104 -0.8478  0.4367
 2294SOL    HW218342   1.552   3.267   8.107 -0.8420 -0.1142 -0.0970
 2295SOL     OW18343   4.640   3.220  10.791  0.0395 -0.2624  0.1381
 2295SOL    HW118344   4.697   3.239  10.866 -1.2921  3.5667  0.1803
 2295SOL    HW218345   4.709   3.206  10.727  0.3623  0.9281  0.2144
 2296SOL     OW18346   0.656   3.210   0.572 -0.4846  0.2171  0.0822
 2296SOL    HW118347   0.600   3.257   0.510 -1.1004  1.4278  1.5628
 2296SOL    HW218348   0.744   3.243   0.552 -1.0293  0.4878 -1.8413
 2297SOL     OW18349   3.797   3.215   4.121 -0.3089  0.0590 -0.1157
 2297SOL    HW118350   3.845   3.153   4.066 -2.2901 -0.7309 -0.9179
 2297SOL    HW218351   3.763   3.277   4.056  1.7305  1.7154  0.3929
 2298SOL     OW18352   4.569   2.956  10.788  0.1683  0.5167  0.0450
 2298SOL    HW118353   4.576   3.049  10.767  0.8125  0.4455 -0.0509
 2298SOL    HW218354   4.527   2.961  10.873 -0.7058 -0.5946 -0.3168
 2299SOL     OW18355   1.601   0.165  17.493  0.3783 -0.0257 -0.2295
 2299SOL    HW118356   1.687   0.183  17.529  0.3779  0.6435 -0.5631
 2299SOL    HW218357   1.623   0.190  17.404  2.0122  0.0823  0.2182
 2300SOL     OW18358   2.071   1.983   7.010 -0.0332  0.1014 -0.0112
 2300SOL    HW118359   2.102   2.013   6.924 -2.6175 -0.0478 -1.0085
 2300SOL    HW218360   2.001   2.043   7.035 -0.3090 -0.2169 -0.0126
 2301SOL     OW18361   4.463   2.712   9.730 -0.1418 -0.2448 -0.2667
 2301SOL    HW118362   4.543   2.718   9.678 -0.2292 -1.5129 -0.5475
 2301SOL    HW218363   4.436   2.803   9.741 -1.0192 -0.2931 -2.0128
 2302SOL     OW18364   1.706   2.792   5.907  0.1413  0.2179 -0.4236
 2302SOL    HW118365   1.737   2.756   5.824  0.7935 -1.7357  0.6668
 2302SOL    HW218366   1.674   2.880   5.885 -2.3700 -0.9422 -1.4899
 2303SOL     OW18367   0.809   2.047   7.948 -0.4019 -0.3614 -0.0255
 2303SOL    HW118368   0.811   1.991   7.871  1.2556 -0.0233 -0.2418
 2303SOL    HW218369   0.896   2.087   7.950  1.0287 -3.4737  1.4869
 2304SOL     OW18370   0.004   3.381   9.846  0.3681 -0.4317 -0.1509
 2304SOL    HW118371   4.718   3.414   9.935 -1.3237  1.8398 -1.1523
 2304SOL    HW218372   4.641   3.404   9.810  1.0187  0.1943 -1.2907
 2305SOL     OW18373   0.163   2.453   0.291 -0.2041 -1.0160 -0.3150
 2305SOL    HW118374   0.192   2.535   0.253  1.3205 -1.2502  0.3293
 2305SOL    HW218375   0.239   2.397   0.274 -0.1030 -0.7722 -0.6469
 2306SOL     OW18376   0.275   0.226  11.868 -0.7639  0.2877 -0.4003
 2306SOL    HW118377   0.317   0.152  11.823 -1.1203 -0.5811  0.7063
 2306SOL    HW218378   0.260   0.170  11.944 -0.6683  2.7820  1.4240
 2307SOL     OW18379   2.614   2.766  13.073 -0.5701  0.4765 -0.3441
 2307SOL    HW118380   2.576   2.801  12.993 -0.4271  1.2561 -0.0738
 2307SOL    HW218381   2.627   2.851  13.115  1.6745 -0.0151 -0.0798
 2308SOL     OW18382   1.032   2.626  10.858  0.5303 -0.0860 -0.0197
 2308SOL    HW118383   1.017   2.535  10.831 -1.3667  0.5507 -1.0978
 2308SOL    HW218384   1.056   2.621  10.950  0.2981  0.2581  0.0590
 2309SOL     OW18385   0.649   3.423   0.835 -0.2249 -0.1182  0.2193
 2309SOL    HW118386   0.623   3.341   0.795  0.2143  0.7675 -1.9017
 2309SOL    HW218387   0.725   3.393   0.885  0.4409  0.5281 -0.4067
 2310SOL     OW18388   3.152   4.556   8.307  0.5003 -0.2433  0.0255
 2310SOL    HW118389   3.240   4.579   8.336  0.8121 -1.3955 -0.0184
 2310SOL    HW218390   3.102   4.618   8.359 -0.3334 -1.4376  0.6453
 2311SOL     OW18391   4.579   2.565   5.761  0.3451  0.6768  0.7514
 2311SOL    HW118392   4.552   2.647   5.803 -1.5705 -0.6084  2.0789
 2311SOL    HW218393   4.499   2.516   5.779  0.8618 -0.7758 -0.9434
 2312SOL     OW18394   0.534   4.426   7.008 -0.2114 -0.0522 -0.5963
 2312SOL    HW118395   0.504   4.503   6.960  0.5966  1.1431  0.8414
 2312SOL    HW218396   0.524   4.452   7.099 -0.7186 -1.0161 -0.3688
 2313SOL     OW18397   2.602   0.358   0.895  0.1204 -0.3180  0.7291
 2313SOL    HW118398   2.526   0.374   0.840  0.1269  0.4782  0.9434
 2313SOL    HW218399   2.659   0.428   0.862  0.0397 -1.2494 -1.3358
 2314SOL     OW18400   3.573   0.286   4.104 -0.3364  0.3705 -0.1063
 2314SOL    HW118401   3.612   0.359   4.057  1.0261 -0.7574 -0.7174
 2314SOL    HW218402   3.607   0.213   4.053  1.4288  0.5379  0.8405
 2315SOL     OW18403   2.489   3.406   8.687 -0.1371  0.6425  0.0190
 2315SOL    HW118404   2.490   3.338   8.754  2.9461  0.3171 -0.3429
 2315SOL    HW218405   2.447   3.468   8.746 -0.4299  1.0522 -0.6201
 2316SOL     OW18406   1.744   0.532   6.928  0.4442  0.2667 -0.7151
 2316SOL    HW118407   1.687   0.554   6.854 -0.2795 -1.1645 -0.5910
 2316SOL    HW218408   1.679   0.482   6.978  0.3295 -0.2567 -1.3896
 2317SOL     OW18409   2.140   0.900   7.332 -0.5249  0.5554 -0.5926
 2317SOL    HW118410   2.075   0.908   7.402  0.1899 -0.4151  0.1744
 2317SOL    HW218411   2.103   0.955   7.262  0.2822  0.4370 -1.1055
 2318SOL     OW18412   1.321   1.651  17.190  0.6511  0.0900  0.0981
 2318SOL    HW118413   1.315   1.674  17.282  1.7003 -1.3939  0.5409
 2318SOL    HW218414   1.391   1.707  17.157  0.9479 -1.7091 -2.3341
 2319SOL     OW18415   1.918   4.215  11.047  0.2470  0.6321 -0.3325
 2319SOL    HW118416   1.910   4.170  11.132 -0.2262  1.4960  0.0852
 2319SOL    HW218417   1.943   4.149  10.983 -1.0441  1.1758 -1.3980
 2320SOL     OW18418   3.240   1.591   9.939 -0.2940 -0.3350  0.5702
 2320SOL    HW118419   3.220   1.684   9.943 -2.6444 -0.7487 -1.4666
 2320SOL    HW218420   3.294   1.584  10.018  2.0012  0.1418 -0.9389
 2321SOL     OW18421   4.139   0.083   7.390 -0.2138 -0.3321 -0.0768
 2321SOL    HW118422   4.135   0.101   7.484 -0.7685 -0.8943  0.0072
 2321SOL    HW218423   4.214   0.026   7.376  0.1317 -0.2328  1.4556
 2322SOL     OW18424   1.752   4.332  14.636  0.3459  0.2806 -0.1246
 2322SOL    HW118425   1.738   4.404  14.575  0.2673 -0.6296 -1.1724
 2322SOL    HW218426   1.687   4.359  14.702 -1.8586  0.0212 -2.1979
 2323SOL     OW18427   0.886   0.182   3.546 -0.4005 -0.1611 -0.7567
 2323SOL    HW118428   0.920   0.203   3.633  2.0994 -0.1342 -1.7605
 2323SOL    HW218429   0.796   0.214   3.541  0.5269  2.2191 -2.1708
 2324SOL     OW18430   2.016   0.663  13.916  0.2113 -0.0305  0.3846
 2324SOL    HW118431   1.928   0.690  13.888 -0.0779 -0.5687  0.7686
 2324SOL    HW218432   1.995   0.633  14.004 -2.6080 -1.3712 -0.7095
 2325SOL     OW18433   2.036   0.018   4.467  0.3403 -0.5797 -0.8021
 2325SOL    HW118434   1.965   4.681   4.486 -0.7738  1.0457  0.0972
 2325SOL    HW218435   2.111   4.681   4.470  0.5703 -0.2177  0.4927
 2326SOL     OW18436   4.474   3.465   9.773  0.2615  0.2759  0.0385
 2326SOL    HW118437   4.391   3.425   9.801 -0.5365  0.9962 -1.2740
 2326SOL    HW218438   4.458   3.543   9.719 -0.9065 -0.7997 -1.1771
 2327SOL     OW18439   0.032   1.324   1.536 -0.3232 -0.0068 -0.1882
 2327SOL    HW118440   4.705   1.243   1.520 -0.4754 -0.3156  1.8261
 2327SOL    HW218441   0.063   1.308   1.625 -1.1855  1.1346  0.3207
 2328SOL     OW18442   0.520   1.805   8.082 -0.4105  0.3300 -0.1751
 2328SOL    HW118443   0.497   1.728   8.134 -0.2624  1.1573  1.1098
 2328SOL    HW218444   0.459   1.871   8.115  0.3529  0.6677  0.5571
 2329SOL     OW18445   0.192   2.466  13.215  0.3158 -0.4815  0.4708
 2329SOL    HW118446   0.152   2.549  13.242 -1.5756 -1.5847  1.0486
 2329SOL    HW218447   0.274   2.455  13.263  2.4745  0.8172 -2.9039
 2330SOL     OW18448   2.943   0.868  12.254  0.1621  0.0539 -0.3770
 2330SOL    HW118449   2.911   0.853  12.166 -2.8488 -1.9967  1.0560
 2330SOL    HW218450   3.038   0.863  12.242  0.1861  0.4067 -0.3348
 2331SOL     OW18451   0.825   1.840   5.798 -0.4193 -0.1735 -0.1007
 2331SOL    HW118452   0.810   1.919   5.851 -0.7092 -0.6435  0.5208
 2331SOL    HW218453   0.785   1.775   5.855 -1.1920  2.0936  1.9745
 2332SOL     OW18454   0.723   0.891   1.155  0.2693  0.0465  0.0701
 2332SOL    HW118455   0.725   0.940   1.072  0.4295 -1.7126 -0.9591
 2332SOL    HW218456   0.804   0.841   1.155  0.5143  0.4441 -0.1564
 2333SOL     OW18457   4.199   0.813   5.724  0.5738 -0.0878  0.2187
 2333SOL    HW118458   4.264   0.797   5.792  0.5448 -1.4056 -0.0613
 2333SOL    HW218459   4.172   0.902   5.747  0.8876 -0.1985  1.0033
 2334SOL     OW18460   3.656   3.069   3.648  0.1291 -0.1130  0.4154
 2334SOL    HW118461   3.700   2.985   3.666  0.2374 -0.1104  0.1726
 2334SOL    HW218462   3.624   3.055   3.559 -1.3454  0.2737  0.8863
 2335SOL     OW18463   1.987   2.580   7.874 -0.2863 -0.0702  0.1010
 2335SOL    HW118464   2.058   2.642   7.861  0.3234 -1.3475 -2.6157
 2335SOL    HW218465   1.908   2.632   7.858  0.5406  1.3494  0.6853
 2336SOL     OW18466   4.699   2.954   5.985  0.2953  0.3515  0.2315
 2336SOL    HW118467   0.027   2.975   5.907 -1.2723  2.7924 -0.1181
 2336SOL    HW218468   0.008   3.012   6.055  0.9144 -2.2839  2.1515
 2337SOL     OW18469   3.842   0.345  14.210 -0.1409  0.4281  0.6734
 2337SOL    HW118470   3.869   0.312  14.296 -1.5280 -2.0996  0.1386
 2337SOL    HW218471   3.754   0.371  14.236 -0.9611 -0.2709 -1.4442
 2338SOL     OW18472   1.963   1.473  11.709 -1.0256  0.0855  0.3207
 2338SOL    HW118473   2.030   1.405  11.701 -0.8084  0.1717  1.4662
 2338SOL    HW218474   1.925   1.458  11.622 -1.3559  2.9748 -0.0121
 2339SOL     OW18475   1.020   0.327  14.326 -0.8400  0.2722  0.2641
 2339SOL    HW118476   0.934   0.366  14.311 -0.2468  1.2688 -0.6388
 2339SOL    HW218477   0.999   0.240  14.293 -0.0300  0.4091 -0.6156
 2340SOL     OW18478   3.965   0.191  12.868  0.3264  0.3464 -0.0917
 2340SOL    HW118479   3.996   0.278  12.843  0.4666 -0.1902 -1.7548
 2340SOL    HW218480   3.895   0.184  12.804  1.8267 -0.1288 -1.6948
 2341SOL     OW18481   0.503   4.388   4.517 -0.3664  0.1579  0.1381
 2341SOL    HW118482   0.457   4.324   4.462  2.1940  1.9978 -4.1447
 2341SOL    HW218483   0.549   4.329   4.576 -1.1291 -1.1495 -0.5709
 2342SOL     OW18484   1.318   0.096   3.378  0.4342  0.3236  0.4179
 2342SOL    HW118485   1.352   0.140   3.301  1.1644  1.9403  1.6534
 2342SOL    HW218486   1.233   0.136   3.395  0.5505 -0.3739  2.7514
 2343SOL     OW18487   2.264   2.926  12.461 -0.3713  0.4562 -0.1670
 2343SOL    HW118488   2.322   2.873  12.516  0.4099  0.0794 -1.3630
 2343SOL    HW218489   2.285   2.893  12.374 -2.8667  0.5801 -0.8089
 2344SOL     OW18490   4.502   3.526   4.514  0.1466  0.0110  0.3379
 2344SOL    HW118491   4.556   3.595   4.474 -1.1461  0.9016  0.1042
 2344SOL    HW218492   4.554   3.449   4.490  0.8576 -0.1291  2.3769
 2345SOL     OW18493   3.737   1.049  10.485 -0.1121  0.3620  0.2747
 2345SOL    HW118494   3.814   1.103  10.504 -0.8048  1.5144 -0.1595
 2345SOL    HW218495   3.676   1.110  10.442 -2.3106 -1.9948  0.0878
 2346SOL     OW18496   1.287   1.587   6.347  0.0988  0.2721 -0.1276
 2346SOL    HW118497   1.196   1.580   6.317 -0.8090 -2.4836  3.3191
 2346SOL    HW218498   1.331   1.653   6.293  1.0553 -2.2187 -2.3671
 2347SOL     OW18499   1.308   4.426   1.652  0.1106  0.3035  0.9382
 2347SOL    HW118500   1.287   4.398   1.741 -0.5746 -1.3680  0.2397
 2347SOL    HW218501   1.392   4.384   1.632  0.4094  2.0519 -1.5494
 2348SOL     OW18502   2.866   0.310   4.357  0.3241  0.1112 -0.3102
 2348SOL    HW118503   2.938   0.294   4.418  1.4879 -1.2585 -2.0388
 2348SOL    HW218504   2.853   0.217   4.338 -0.5455 -0.0311  1.0350
 2349SOL     OW18505   0.443   1.256   8.231 -0.6877 -0.0271  0.6967
 2349SOL    HW118506   0.448   1.351   8.241  2.8426 -0.3195  1.6919
 2349SOL    HW218507   0.407   1.246   8.142  1.0059  0.3657 -0.0292
 2350SOL     OW18508   0.545   1.596   5.016  0.3096  0.2245  0.4185
 2350SOL    HW118509   0.558   1.691   5.012  1.5820 -0.0759 -2.8063
 2350SOL    HW218510   0.505   1.586   4.929 -1.0881  1.0719  0.9787
 2351SOL     OW18511   3.783   1.969  13.318  0.2612 -0.1586  0.2914
 2351SOL    HW118512   3.798   1.919  13.398  2.3773  0.7456  0.4501
 2351SOL    HW218513   3.847   2.038  13.333  1.1033 -1.0261  0.6633
 2352SOL     OW18514   3.623   4.109   3.245  0.1267  0.1557 -0.1612
 2352SOL    HW118515   3.544   4.158   3.220 -0.8745 -1.7078 -0.6162
 2352SOL    HW218516   3.688   4.162   3.199 -0.3251 -0.1109 -1.0892
 2353SOL     OW18517   0.546   1.278   4.565  0.1124  0.3184 -0.4323
 2353SOL    HW118518   0.499   1.259   4.647  0.9878  0.2288  0.0503
 2353SOL    HW218519   0.592   1.194   4.560  0.8743  0.8400 -2.0785
 2354SOL     OW18520   3.474   2.374   3.637  0.1724  0.3831 -0.1522
 2354SOL    HW118521   3.559   2.378   3.682 -1.5264  0.4582  3.0596
 2354SOL    HW218522   3.444   2.286   3.660  1.2092 -0.8532 -3.5125
 2355SOL     OW18523   1.369   1.132   4.264  0.1016 -0.4553 -0.0796
 2355SOL    HW118524   1.393   1.041   4.279 -0.2100 -0.3944  0.7612
 2355SOL    HW218525   1.453   1.167   4.233 -1.0626  1.5079 -0.9920
 2356SOL     OW18526   2.025   2.519   6.368 -0.0458 -0.0768  0.1373
 2356SOL    HW118527   2.030   2.559   6.455 -1.1205 -0.4921  0.3927
 2356SOL    HW218528   2.002   2.428   6.389  0.5951 -0.3186 -0.2245
 2357SOL     OW18529   0.568   2.245   8.570 -0.1367 -0.1912 -0.2811
 2357SOL    HW118530   0.583   2.162   8.616  0.9252 -0.1621 -0.5667
 2357SOL    HW218531   0.637   2.300   8.606  0.2518  0.3900 -1.9054
 2358SOL     OW18532   4.520   2.167   6.382 -0.3221  0.0227 -0.1360
 2358SOL    HW118533   4.510   2.261   6.399  1.9928  0.5750 -1.8658
 2358SOL    HW218534   4.577   2.137   6.453 -1.1318 -3.2231 -0.8635
 2359SOL     OW18535   3.712   4.231  14.108 -0.0524  0.1870 -0.3254
 2359SOL    HW118536   3.770   4.293  14.066 -2.9525  0.6815 -3.5532
 2359SOL    HW218537   3.682   4.277  14.187 -0.4792  0.5984 -0.7324
 2360SOL     OW18538   0.328   2.760   9.201  0.1441 -0.0645  0.0471
 2360SOL    HW118539   0.413   2.804   9.192 -1.5100  3.3262  0.6852
 2360SOL    HW218540   0.329   2.765   9.297  0.1021  0.4746  0.0219
 2361SOL     OW18541   4.232   2.310   3.420 -0.1317 -0.2605 -0.3716
 2361SOL    HW118542   4.309   2.362   3.399  0.3967 -0.7712  0.3061
 2361SOL    HW218543   4.242   2.303   3.515 -1.2249  0.8575 -0.1723
 2362SOL     OW18544   0.494   1.097  16.781 -0.8033  0.4866 -0.0921
 2362SOL    HW118545   0.564   1.106  16.715  0.7933  0.0686  1.5406
 2362SOL    HW218546   0.538   1.154  16.845  0.1759 -3.2086  2.5335
 2363SOL     OW18547   4.473   0.208   3.181  0.3283 -0.5897 -0.0927
 2363SOL    HW118548   4.477   0.293   3.226  2.9009 -0.1438 -1.1271
 2363SOL    HW218549   4.378   0.199   3.175  0.1635  1.8357 -1.2936
 2364SOL     OW18550   1.108   1.630  17.001  0.8325  0.1922  0.1590
 2364SOL    HW118551   1.108   1.719  16.967 -1.8581  0.0356 -0.2873
 2364SOL    HW218552   1.167   1.645  17.075  2.9661  0.3960 -1.5827
 2365SOL     OW18553   3.035   2.723   8.314 -0.3617  0.3572  0.4747
 2365SOL    HW118554   2.971   2.792   8.333  0.6495  1.1277  1.1369
 2365SOL    HW218555   3.080   2.752   8.235 -1.4018 -0.3614 -0.3788
 2366SOL     OW18556   1.002   1.479   0.791  0.4829  0.2318  0.2529
 2366SOL    HW118557   1.067   1.519   0.848 -2.0196  1.3009  2.3921
 2366SOL    HW218558   1.013   1.535   0.715 -1.3786 -1.4094 -1.2313
 2367SOL     OW18559   3.926   3.604  16.017  0.2688  0.6176 -0.1223
 2367SOL    HW118560   3.889   3.548  16.086  2.4227 -2.4149 -1.4249
 2367SOL    HW218561   4.009   3.560  15.996 -1.3177 -2.8932  0.9643
 2368SOL     OW18562   4.698   0.365   5.931 -0.0880  0.0002  0.3392
 2368SOL    HW118563   0.040   0.306   5.893 -1.0126 -0.5764 -0.3341
 2368SOL    HW218564   0.025   0.448   5.931  0.4814 -0.3387  0.7819
 2369SOL     OW18565   3.159   1.972   4.528 -0.2758  0.0467 -0.1736
 2369SOL    HW118566   3.108   2.025   4.590 -1.6046 -0.5052 -0.8041
 2369SOL    HW218567   3.243   2.012   4.550 -0.1427 -0.0517 -0.4972
 2370SOL     OW18568   3.497   4.633   5.400 -0.7729  0.4769 -0.4849
 2370SOL    HW118569   3.488   4.681   5.482  1.8559 -2.8756  1.7582
 2370SOL    HW218570   3.591   4.631   5.381 -0.9038 -1.0318 -0.9254
 2371SOL     OW18571   2.217   0.351   1.470  0.2440 -0.1880 -0.0487
 2371SOL    HW118572   2.241   0.259   1.478 -0.8682 -0.5069 -0.2481
 2371SOL    HW218573   2.298   0.369   1.422  0.1016  1.6066  0.3769
 2372SOL     OW18574   2.215   1.892   8.724  0.2640 -0.5723 -0.0707
 2372SOL    HW118575   2.121   1.876   8.712  0.9136 -4.1874 -0.3528
 2372SOL    HW218576   2.216   1.916   8.816  0.4271  2.0114 -0.7602
 2373SOL     OW18577   4.636   0.352   8.604  0.5364 -0.0472 -0.2322
 2373SOL    HW118578   4.613   0.313   8.520  2.4316 -2.2006  0.2494
 2373SOL    HW218579   4.632   0.282   8.670  0.1033  1.3754  1.2585
 2374SOL     OW18580   1.686   0.090   0.106  0.4131 -0.1209 -0.1172
 2374SOL    HW118581   1.774   0.056   0.119  0.4319  0.2097  0.5861
 2374SOL    HW218582   1.704   0.184   0.114 -1.7944  0.1061  2.3398
 2375SOL     OW18583   3.444   2.278   8.358  0.3089 -0.2527 -0.3373
 2375SOL    HW118584   3.383   2.216   8.398  0.8743  0.2250  1.2614
 2375SOL    HW218585   3.470   2.329   8.435 -1.1852 -2.5339  1.6992
 2376SOL     OW18586   1.516   4.013   6.986 -0.0012  0.1033 -0.3237
 2376SOL    HW118587   1.429   3.998   6.951 -0.1213  1.2559 -0.5047
 2376SOL    HW218588   1.506   4.104   7.013 -1.2936 -0.6945  1.8478
 2377SOL     OW18589   3.464   2.668   8.972 -0.3636 -0.5826  0.1785
 2377SOL    HW118590   3.467   2.575   8.996 -0.9608 -0.8811 -0.8651
 2377SOL    HW218591   3.449   2.663   8.877 -1.4495 -0.8915  0.3691
 2378SOL     OW18592   2.991   3.382   7.830  0.3368 -0.3369 -0.1732
 2378SOL    HW118593   2.923   3.400   7.895 -0.5561  2.7967 -1.9757
 2378SOL    HW218594   2.942   3.353   7.753  0.8211  0.3506 -0.7412
 2379SOL     OW18595   0.866   2.170   6.993  0.3356  0.1022  0.1424
 2379SOL    HW118596   0.853   2.130   7.079 -1.8808 -1.3199 -0.8638
 2379SOL    HW218597   0.775   2.181   6.966 -0.5014 -2.5957  1.9845
 2380SOL     OW18598   0.279   1.085   1.427  0.0384  0.1692  0.8739
 2380SOL    HW118599   0.294   1.130   1.343 -1.1148 -1.3273 -0.1434
 2380SOL    HW218600   0.254   0.998   1.395 -1.5382  1.0367 -0.2728
 2381SOL     OW18601   0.674   1.129   8.754  0.3188 -0.1889 -0.5602
 2381SOL    HW118602   0.589   1.151   8.714 -0.8019 -1.9692  0.8441
 2381SOL    HW218603   0.714   1.114   8.669  1.4997  0.4567 -0.1177
 2382SOL     OW18604   2.960   2.859   3.264 -0.2552  0.1669  0.7295
 2382SOL    HW118605   2.926   2.864   3.354 -1.1375 -2.3540  0.5252
 2382SOL    HW218606   2.996   2.771   3.259 -1.9439 -0.6132  2.1282
 2383SOL     OW18607   0.303   3.473   5.575  0.6477 -0.0227  0.7078
 2383SOL    HW118608   0.350   3.411   5.632 -1.0618 -0.7250  1.3456
 2383SOL    HW218609   0.378   3.513   5.530  0.0534 -0.9629 -1.0935
 2384SOL     OW18610   0.925   1.155  15.600  0.2908 -0.3904 -0.3655
 2384SOL    HW118611   0.942   1.193  15.513  0.0639 -0.4361 -0.4293
 2384SOL    HW218612   0.932   1.236  15.650  0.1095  0.2178 -1.3110
 2385SOL     OW18613   2.703   0.961  13.405  0.7867  0.0851 -0.4666
 2385SOL    HW118614   2.631   0.905  13.376 -1.2932  0.5669  3.7575
 2385SOL    HW218615   2.784   0.910  13.409  0.3409 -0.8108 -2.5617
 2386SOL     OW18616   3.452   4.169   5.347 -0.2987  0.0501  0.2776
 2386SOL    HW118617   3.364   4.156   5.381 -0.1123  0.5490  0.9572
 2386SOL    HW218618   3.490   4.242   5.395  0.0263  1.6113 -2.3531
 2387SOL     OW18619   3.719   2.172   3.867  0.4324  0.0038  0.6032
 2387SOL    HW118620   3.805   2.129   3.870  0.8701  0.8675  0.7247
 2387SOL    HW218621   3.666   2.101   3.833  0.5323  0.1645  0.1110
 2388SOL     OW18622   1.062   4.538   4.182 -0.0188 -0.3901 -0.1115
 2388SOL    HW118623   1.002   4.467   4.160 -0.3119 -0.2821  0.3421
 2388SOL    HW218624   1.121   4.490   4.241 -0.6421 -2.0484 -0.8561
 2389SOL     OW18625   0.494   3.713   4.588 -0.6356  0.0397 -0.2330
 2389SOL    HW118626   0.532   3.781   4.531 -0.1140 -0.6156 -0.6700
 2389SOL    HW218627   0.482   3.633   4.537 -0.7960 -0.0229 -0.0941
 2390SOL     OW18628   2.567   4.120   9.039  0.7208 -0.1619  0.6117
 2390SOL    HW118629   2.592   4.131   9.131 -0.6162  2.0453  0.6979
 2390SOL    HW218630   2.480   4.080   9.042 -0.1404  1.7027  0.1756
 2391SOL     OW18631   4.060   2.644   5.291 -0.8135 -0.2376 -0.5347
 2391SOL    HW118632   4.013   2.660   5.373  0.0804  2.8194 -0.6328
 2391SOL    HW218633   4.080   2.550   5.291 -0.1266 -0.0787  0.9210
 2392SOL     OW18634   2.030   4.449   9.481  0.2420 -0.1606  0.6931
 2392SOL    HW118635   1.995   4.524   9.529  0.0805  1.6223 -2.2031
 2392SOL    HW218636   2.009   4.371   9.532 -2.2770 -0.0381 -0.1540
 2393SOL     OW18637   3.914   2.636   7.884  0.4344 -0.8361 -0.1131
 2393SOL    HW118638   3.914   2.570   7.954  0.9635  0.0433  0.7128
 2393SOL    HW218639   3.965   2.707   7.923  0.5267 -1.1782  0.3869
 2394SOL     OW18640   3.772   4.509   2.139  0.3510 -0.5120 -0.6869
 2394SOL    HW118641   3.741   4.544   2.223 -0.5947 -1.1604 -0.7657
 2394SOL    HW218642   3.709   4.526   2.069 -0.2960 -0.4729 -0.1009
 2395SOL     OW18643   3.351   2.637   5.337  0.0210  0.2267 -0.3567
 2395SOL    HW118644   3.284   2.669   5.277 -0.2894  0.4902  0.1296
 2395SOL    HW218645   3.390   2.717   5.374 -0.0603  0.4858 -0.8348
 2396SOL     OW18646   1.343   0.221   8.130  0.0519 -0.3108  0.4479
 2396SOL    HW118647   1.433   0.247   8.107  0.2575 -1.3156  0.0709
 2396SOL    HW218648   1.330   0.162   8.055  0.9265  0.5393 -0.3649
 2397SOL     OW18649   4.149   3.059  15.665 -0.4789 -0.4307  0.7618
 2397SOL    HW118650   4.055   3.073  15.673 -0.3564  0.5439  0.4804
 2397SOL    HW218651   4.159   2.974  15.622 -1.9136 -0.0391 -0.3373
 2398SOL     OW18652   3.764   0.319   1.941  0.2605  0.0131  0.7361
 2398SOL    HW118653   3.800   0.403   1.967 -0.6773  0.4220  0.6990
 2398SOL    HW218654   3.731   0.330   1.852 -1.9879 -0.8053  1.4669
 2399SOL     OW18655   4.360   3.541   7.090 -0.7025  0.0104  0.3522
 2399SOL    HW118656   4.406   3.612   7.047 -0.3272 -0.0452  0.6640
 2399SOL    HW218657   4.428   3.503   7.146 -0.6824 -0.9243 -0.3137
 2400SOL     OW18658   2.001   1.866  15.792 -0.0780  0.5022 -0.1925
 2400SOL    HW118659   1.940   1.836  15.860  0.8630  1.4938  1.0904
 2400SOL    HW218660   1.954   1.829  15.718  0.8165  1.3103 -1.1574
 2401SOL     OW18661   4.064   1.878   4.869 -0.2347  0.1358  0.3981
 2401SOL    HW118662   4.016   1.796   4.883  1.0539 -0.3120  2.1972
 2401SOL    HW218663   4.150   1.847   4.898 -0.2891  0.4836  0.9133
 2402SOL     OW18664   3.903   1.777   5.965  0.0127 -0.4705 -0.3823
 2402SOL    HW118665   3.931   1.698   6.012  1.0341  0.2164  0.1877
 2402SOL    HW218666   3.974   1.837   5.990 -1.0833  0.2751  0.9248
 2403SOL     OW18667   4.570   2.078   9.610  0.2250 -0.1618 -0.3975
 2403SOL    HW118668   4.521   2.109   9.533 -0.7901  2.9120  1.4887
 2403SOL    HW218669   4.602   1.998   9.569 -1.2870 -0.3912 -1.1544
 2404SOL     OW18670   2.484   0.434   9.894  0.4023  0.2653  0.5198
 2404SOL    HW118671   2.405   0.388   9.920 -0.1421  1.0150  0.1790
 2404SOL    HW218672   2.544   0.364   9.922  0.6386 -0.3197 -1.4787
 2405SOL     OW18673   1.759   0.328   6.466  0.3850  0.0546 -0.3595
 2405SOL    HW118674   1.758   0.265   6.394 -1.6538 -0.8889  0.4848
 2405SOL    HW218675   1.712   0.401   6.424  1.4025  0.2503 -1.1662
 2406SOL     OW18676   3.843   1.784   3.731  0.1000  0.6402  0.1156
 2406SOL    HW118677   3.855   1.700   3.686 -0.6538 -0.1182  1.3306
 2406SOL    HW218678   3.911   1.839   3.691  0.3656  0.6339  0.5545
 2407SOL     OW18679   0.309   2.641  16.553 -0.3522  0.0790 -0.4613
 2407SOL    HW118680   0.250   2.665  16.481  2.6304 -0.3744 -3.0518
 2407SOL    HW218681   0.322   2.550  16.526 -1.5990  0.0235 -0.9080
 2408SOL     OW18682   2.272   2.255   3.027  0.3475  0.2466 -0.1047
 2408SOL    HW118683   2.201   2.311   3.059  0.5676  0.3927  0.1319
 2408SOL    HW218684   2.346   2.303   3.063 -2.0017  1.9915  2.4331
 2409SOL     OW18685   2.026   3.921   2.487  0.0346 -0.3510  0.0810
 2409SOL    HW118686   2.119   3.904   2.498 -0.1600 -1.0096  0.7093
 2409SOL    HW218687   1.991   3.845   2.532 -0.2910 -0.4235 -0.2935
 2410SOL     OW18688   0.703   3.709  10.715 -0.2976  0.4974  0.1747
 2410SOL    HW118689   0.749   3.655  10.779  0.9958  1.9090  0.4479
 2410SOL    HW218690   0.765   3.744  10.651  1.7938 -2.2987  0.6788
 2411SOL     OW18691   2.888   1.518   5.584  0.3784 -0.0126  0.2197
 2411SOL    HW118692   2.934   1.600   5.605 -1.5776  1.4695 -1.3087
 2411SOL    HW218693   2.869   1.488   5.673  1.1035 -2.5638 -0.4980
 2412SOL     OW18694   3.863   1.047   3.151 -0.4780 -0.1137  0.3091
 2412SOL    HW118695   3.932   1.029   3.087  0.0244 -0.2497  0.8951
 2412SOL    HW218696   3.840   0.957   3.177 -0.4608 -0.3289 -0.4200
 2413SOL     OW18697   3.495   1.232   7.559 -0.0509 -0.3814  0.0392
 2413SOL    HW118698   3.511   1.171   7.487 -1.3736 -1.5831  0.7651
 2413SOL    HW218699   3.483   1.167   7.629  0.9578 -0.1262  0.4588
 2414SOL     OW18700   0.870   1.045   4.337 -0.2041 -0.3825  0.3883
 2414SOL    HW118701   0.859   1.140   4.335 -0.6882 -0.4668 -1.0501
 2414SOL    HW218702   0.943   1.040   4.275  1.7715 -0.3212  2.6828
 2415SOL     OW18703   2.008   2.563   1.716 -0.2705 -0.3639  0.3412
 2415SOL    HW118704   2.094   2.526   1.738  0.3331 -0.4447 -2.1567
 2415SOL    HW218705   1.953   2.543   1.792  2.3361 -2.4099  1.6700
 2416SOL     OW18706   4.275   3.278   4.650 -0.1169  0.1189  0.3746
 2416SOL    HW118707   4.191   3.324   4.652  0.3592  1.0459 -1.0192
 2416SOL    HW218708   4.274   3.275   4.554 -0.4898  3.0003  0.2926
 2417SOL     OW18709   2.409   2.798   9.410 -0.1990 -0.7882 -0.0360
 2417SOL    HW118710   2.343   2.735   9.439 -2.4793  1.2774 -0.8291
 2417SOL    HW218711   2.445   2.753   9.334  2.2259 -1.8063  1.7029
 2418SOL     OW18712   4.065   4.056   3.550 -0.3281 -0.5646 -0.0242
 2418SOL    HW118713   4.037   4.067   3.459 -1.1022 -1.0143  0.1581
 2418SOL    HW218714   4.057   3.961   3.562 -1.2548 -0.4255  0.4716
 2419SOL     OW18715   1.383   4.677   1.437  0.3287  0.1117  0.1209
 2419SOL    HW118716   1.373   4.609   1.370  1.5558 -0.1983  0.2550
 2419SOL    HW218717   1.363   4.619   1.510  0.6752 -0.5463 -0.3071
 2420SOL     OW18718   1.142   2.925   8.363  0.1703 -0.4988 -0.1462
 2420SOL    HW118719   1.146   2.865   8.288  1.7624 -0.2117 -0.2790
 2420SOL    HW218720   1.110   3.003   8.317  1.8152  0.8097  0.9621
 2421SOL     OW18721   3.775   2.242   2.179 -0.3368 -0.4607  0.5269
 2421SOL    HW118722   3.698   2.190   2.205 -0.7233 -1.2931 -2.2602
 2421SOL    HW218723   3.763   2.309   2.246  1.5654  2.4622 -2.0774
 2422SOL     OW18724   3.349   1.197   2.960 -0.0892 -0.0027 -0.3537
 2422SOL    HW118725   3.440   1.223   2.975 -0.8358  0.8883  2.6296
 2422SOL    HW218726   3.303   1.268   3.005 -0.9365  0.2270 -1.5824
 2423SOL     OW18727   1.615   3.396   4.603 -0.8150 -0.1922 -0.5463
 2423SOL    HW118728   1.599   3.327   4.538 -0.1909 -0.9526  0.1142
 2423SOL    HW218729   1.647   3.468   4.549 -0.7783 -2.9327 -4.1912
 2424SOL     OW18730   0.386   0.294   5.617 -0.7701 -0.3577  0.0316
 2424SOL    HW118731   0.434   0.234   5.560  0.1645 -0.1249  0.5796
 2424SOL    HW218732   0.327   0.332   5.551 -0.8195  0.2694  0.4340
 2425SOL     OW18733   0.963   4.071  17.215  0.0546 -0.2584 -0.5379
 2425SOL    HW118734   0.905   4.072  17.290  0.6055 -1.8554 -0.0921
 2425SOL    HW218735   1.003   4.159  17.215 -2.1388  0.7381 -0.5826
 2426SOL     OW18736   1.047   0.181  15.336 -0.2414 -0.1224  0.0748
 2426SOL    HW118737   1.028   0.261  15.287  1.1117 -0.0823 -0.3824
 2426SOL    HW218738   1.045   0.114  15.268  2.6391  2.1018 -2.1945
 2427SOL     OW18739   3.454   1.092   9.750 -0.0254  0.8353  0.5035
 2427SOL    HW118740   3.421   1.173   9.712  0.7359  0.2777 -1.3296
 2427SOL    HW218741   3.540   1.097   9.709 -0.7729 -0.2648 -1.1855
 2428SOL     OW18742   1.160   2.040   4.155  0.1618  0.5633 -0.7422
 2428SOL    HW118743   1.245   2.079   4.175  2.3176 -3.1913 -2.7521
 2428SOL    HW218744   1.101   2.104   4.196 -1.5741  0.6260 -3.3098
 2429SOL     OW18745   2.450   4.287   2.494  0.7288  0.1725 -0.8450
 2429SOL    HW118746   2.423   4.367   2.448 -4.9423 -1.0085  0.4268
 2429SOL    HW218747   2.382   4.271   2.560  0.6201 -0.6711 -1.1659
 2430SOL     OW18748   1.830   3.438  12.941  0.1627 -0.0039  0.1710
 2430SOL    HW118749   1.778   3.519  12.945  0.7110  0.2622  2.2218
 2430SOL    HW218750   1.777   3.388  12.880 -1.1486  0.2674  1.0811
 2431SOL     OW18751   1.154   2.061   5.351 -0.3929 -0.1758 -0.0548
 2431SOL    HW118752   1.100   2.103   5.284  0.3458 -0.6033 -0.9198
 2431SOL    HW218753   1.232   2.114   5.337 -0.7810  0.2526 -0.6291
 2432SOL     OW18754   4.165   0.539   0.235 -0.6977  0.6535  0.0061
 2432SOL    HW118755   4.258   0.518   0.248 -0.5926  2.1322  1.6573
 2432SOL    HW218756   4.166   0.513   0.143 -2.5413  1.3303 -0.2088
 2433SOL     OW18757   2.153   1.102   8.672 -0.1281  0.0195  0.5646
 2433SOL    HW118758   2.110   1.088   8.756 -0.0780  1.6907  0.8684
 2433SOL    HW218759   2.202   1.020   8.671  1.2381  0.8462 -0.7112
 2434SOL     OW18760   1.543   3.401   0.503  0.4594  0.3803  0.6672
 2434SOL    HW118761   1.633   3.427   0.522  0.3773 -1.2075  3.2018
 2434SOL    HW218762   1.496   3.481   0.524 -1.5024 -1.0674  1.7532
 2435SOL     OW18763   2.285   0.379   7.829 -0.2011  0.3534  0.2820
 2435SOL    HW118764   2.341   0.356   7.904 -0.1299  1.2737  0.5203
 2435SOL    HW218765   2.215   0.428   7.871 -1.7980 -1.3741 -0.3669
 2436SOL     OW18766   1.687   1.322   2.778 -0.2357  0.4997 -0.5492
 2436SOL    HW118767   1.637   1.241   2.776 -0.5668  0.6933 -0.1779
 2436SOL    HW218768   1.780   1.297   2.783  0.1281  1.8143 -0.6644
 2437SOL     OW18769   3.814   4.640   4.168 -0.1232  0.2795 -0.0097
 2437SOL    HW118770   3.766   4.645   4.086  0.1404  1.3199 -0.1041
 2437SOL    HW218771   3.832   4.546   4.167 -0.7955  0.1488  0.0660
 2438SOL     OW18772   3.268   0.084   2.862 -0.3223 -0.0744  0.2063
 2438SOL    HW118773   3.280   0.007   2.916 -0.4733  0.0743  0.4521
 2438SOL    HW218774   3.177   0.098   2.889 -0.1839 -0.0512  0.6510
 2439SOL     OW18775   4.722   0.610   4.437 -0.6403 -0.3306 -0.2338
 2439SOL    HW118776   4.648   0.655   4.479 -1.4875 -0.4248 -1.6412
 2439SOL    HW218777   0.045   0.673   4.382  0.0754  0.3897  1.1767
 2440SOL     OW18778   1.407   3.395  16.643  0.1588  0.2386  0.4911
 2440SOL    HW118779   1.321   3.370  16.609 -1.3111  1.2328  3.5004
 2440SOL    HW218780   1.374   3.443  16.718  0.8705 -1.5611  1.9471
 2441SOL     OW18781   3.445   1.279   6.531 -0.3646  0.2301  0.4600
 2441SOL    HW118782   3.384   1.211   6.504  0.5175 -0.5587  0.4510
 2441SOL    HW218783   3.402   1.307   6.611  1.2736  1.5576  0.8927
 2442SOL     OW18784   3.081   3.188  13.518  0.4077 -0.5379  0.2736
 2442SOL    HW118785   3.155   3.242  13.493 -1.8851  2.2569 -0.4994
 2442SOL    HW218786   3.033   3.252  13.571  2.6593  0.4475  1.0883
 2443SOL     OW18787   4.315   2.841  10.690 -0.0618  0.1346  0.3114
 2443SOL    HW118788   4.396   2.886  10.713  0.2103 -0.4621  0.5086
 2443SOL    HW218789   4.342   2.750  10.704 -0.5407  0.3366  2.4943
 2444SOL     OW18790   4.719   0.167   8.138  0.1604  0.2941 -0.0059
 2444SOL    HW118791   4.686   0.132   8.056 -0.8566 -2.5780  1.6381
 2444SOL    HW218792   0.092   0.171   8.126  0.3030  0.6922  1.2450
 2445SOL     OW18793   1.751   1.560   2.037  0.1897  0.3432  0.5188
 2445SOL    HW118794   1.722   1.481   1.991  0.7020  0.9957 -0.9346
 2445SOL    HW218795   1.767   1.519   2.122  1.0488 -0.7083 -0.1435
 2446SOL     OW18796   3.793   1.982   5.131  0.0656  0.3855  0.0103
 2446SOL    HW118797   3.818   1.954   5.219  1.3679  0.3241 -0.3785
 2446SOL    HW218798   3.866   2.040   5.111  0.0044  0.0188 -1.2858
 2447SOL     OW18799   1.071   4.316   3.060 -0.6608  0.6677 -0.2478
 2447SOL    HW118800   0.976   4.304   3.056 -0.5351 -0.0158 -1.0622
 2447SOL    HW218801   1.086   4.321   2.966 -0.0241  1.6865 -0.0856
 2448SOL     OW18802   2.383   1.924   2.216 -0.1432  0.0505  0.2350
 2448SOL    HW118803   2.331   1.939   2.137 -2.1666 -1.0745  1.3529
 2448SOL    HW218804   2.430   1.844   2.193 -0.6696 -0.2842  0.3166
 2449SOL     OW18805   2.129   3.828   8.608 -0.1032 -0.3176  1.0579
 2449SOL    HW118806   2.190   3.767   8.567 -2.3527 -1.2159 -0.9174
 2449SOL    HW218807   2.095   3.879   8.535 -1.4957  0.2989  2.1602
 2450SOL     OW18808   1.642   0.014   7.666  0.0332  0.1430  0.6972
 2450SOL    HW118809   1.578   4.718   7.735  0.1399  0.4617  0.8777
 2450SOL    HW218810   1.713   0.042   7.723 -0.8159 -1.2931  2.4456
 2451SOL     OW18811   2.587   4.449  12.396 -0.0214  0.2434 -0.6878
 2451SOL    HW118812   2.566   4.414  12.482  1.0157 -1.4783 -1.1253
 2451SOL    HW218813   2.503   4.490  12.377  0.1190  0.1366 -1.5725
 2452SOL     OW18814   3.457   3.719   8.273 -0.1344 -0.0938 -0.1343
 2452SOL    HW118815   3.517   3.649   8.249 -0.1347 -0.4450  0.9283
 2452SOL    HW218816   3.461   3.774   8.195  3.3825  0.1066  0.1849
 2453SOL     OW18817   0.233   1.357   4.026 -0.7084  0.1469 -1.3160
 2453SOL    HW118818   0.255   1.268   4.055  0.0970  0.5137 -0.8010
 2453SOL    HW218819   0.156   1.329   3.976 -0.9918 -1.8199  0.2067
 2454SOL     OW18820   4.274   2.826  15.952  0.0864  0.2699  0.0556
 2454SOL    HW118821   4.227   2.756  15.907 -0.9685  0.2253  1.2468
 2454SOL    HW218822   4.338   2.778  16.005  0.1517  0.5140  0.1955
 2455SOL     OW18823   4.547   3.917   6.731 -0.2397 -0.3694  0.0855
 2455SOL    HW118824   4.522   4.009   6.720  2.4425  0.4983  1.3685
 2455SOL    HW218825   4.640   3.924   6.749  0.0527  0.8739 -1.9743
 2456SOL     OW18826   2.012   1.613  16.737 -0.5569 -0.6507  0.0958
 2456SOL    HW118827   1.938   1.674  16.738  0.4815  0.6377 -0.6933
 2456SOL    HW218828   2.052   1.622  16.824  1.8718 -0.2250 -1.0469
 2457SOL     OW18829   1.161   0.588   9.752  0.0681  0.3200  0.3146
 2457SOL    HW118830   1.218   0.520   9.786  0.3538  0.2730 -0.2596
 2457SOL    HW218831   1.087   0.563   9.808 -0.2598  2.4870  0.8584
 2458SOL     OW18832   2.839   1.395   5.830  0.5717  0.3222 -0.4814
 2458SOL    HW118833   2.814   1.441   5.910  1.6151  1.0395 -0.5721
 2458SOL    HW218834   2.795   1.311   5.846 -0.3594  1.5388  3.2504
 2459SOL     OW18835   2.950   4.679   7.899  0.0350 -0.2520 -0.2130
 2459SOL    HW118836   3.023   4.701   7.956 -0.4203 -0.1785  0.3344
 2459SOL    HW218837   2.988   4.716   7.819  0.0981  2.3836  1.0292
 2460SOL     OW18838   3.807   4.248   2.631  0.5860 -0.4485 -0.2892
 2460SOL    HW118839   3.881   4.236   2.571  0.3214  0.9907 -0.8885
 2460SOL    HW218840   3.774   4.335   2.611  2.4230  0.3802  0.2210
 2461SOL     OW18841   1.631   4.183   4.401  0.4904  0.4359 -0.3408
 2461SOL    HW118842   1.721   4.153   4.414  0.2261 -0.5034 -0.6997
 2461SOL    HW218843   1.634   4.268   4.446  0.7547 -0.2777  1.0034
 2462SOL     OW18844   3.432   2.498   4.499  0.0526  0.6318  0.0164
 2462SOL    HW118845   3.520   2.533   4.511 -0.1643  1.5541 -1.1112
 2462SOL    HW218846   3.406   2.492   4.591 -0.6593  2.4434 -0.0675
 2463SOL     OW18847   2.765   0.409   1.496 -0.1302  0.5194 -0.4293
 2463SOL    HW118848   2.732   0.458   1.421  1.2372 -1.0209 -2.0346
 2463SOL    HW218849   2.682   0.403   1.544  1.8424 -1.5083  2.7676
 2464SOL     OW18850   1.896   0.696   5.882 -0.4647  0.0588 -0.2736
 2464SOL    HW118851   1.850   0.745   5.814  1.3201  0.8869 -0.8830
 2464SOL    HW218852   1.816   0.669   5.927  0.3000 -1.2238  0.3061
 2465SOL     OW18853   1.851   1.911   8.323 -0.4028 -0.2252 -0.2591
 2465SOL    HW118854   1.783   1.875   8.380 -2.3180 -0.2949 -2.5740
 2465SOL    HW218855   1.900   1.830   8.309  1.2382  0.6475  0.4482
 2466SOL     OW18856   4.672   4.550   6.404 -0.3209 -0.0999 -0.0197
 2466SOL    HW118857   0.000   4.498   6.467 -0.7143  0.6670  0.9345
 2466SOL    HW218858   4.589   4.547   6.451  0.6146 -0.2440  1.6394
 2467SOL     OW18859   3.401   2.046  12.102  1.0478  0.0527 -0.9262
 2467SOL    HW118860   3.395   2.133  12.142  0.1564 -1.6795  2.6857
 2467SOL    HW218861   3.324   2.049  12.045 -0.4452 -0.8643  1.0288
 2468SOL     OW18862   3.142   0.282   7.788  0.3466  0.1187  0.3701
 2468SOL    HW118863   3.083   0.332   7.732  1.4008 -0.6173 -1.3796
 2468SOL    HW218864   3.110   0.304   7.876 -1.8312  0.0755 -0.4078
 2469SOL     OW18865   0.987   0.678   4.729 -0.8341 -0.1141 -0.1870
 2469SOL    HW118866   0.964   0.744   4.663  0.2115  2.4250  1.9994
 2469SOL    HW218867   0.901   0.638   4.733 -0.4532 -0.8176  0.8548
 2470SOL     OW18868   4.596   3.711   3.229 -0.1806  0.3811 -0.0719
 2470SOL    HW118869   4.663   3.721   3.162 -0.9077  0.9183 -0.7140
 2470SOL    HW218870   4.578   3.802   3.252 -2.1580 -0.1216  0.4391
 2471SOL     OW18871   1.188   1.053  17.258  0.3326 -0.0320 -0.0070
 2471SOL    HW118872   1.213   0.970  17.299 -0.4459 -0.5952 -0.6780
 2471SOL    HW218873   1.216   1.115  17.326 -3.3792  1.9822 -0.3048
 2472SOL     OW18874   1.840   3.729   7.454  0.2909 -0.2845  0.2462
 2472SOL    HW118875   1.832   3.775   7.537  1.6206  0.0265  0.1983
 2472SOL    HW218876   1.895   3.655   7.480 -2.9992 -2.8148  0.1368
 2473SOL     OW18877   4.630   1.343  15.525  0.8042 -0.1493 -0.0148
 2473SOL    HW118878   4.571   1.279  15.485  1.4984 -0.3112 -0.7719
 2473SOL    HW218879   4.646   1.301  15.609 -0.9651 -0.1113  0.3575
 2474SOL     OW18880   0.003   2.398   4.157 -0.4463  0.2175  0.6535
 2474SOL    HW118881   0.055   2.405   4.237  0.9842 -2.8058 -0.0162
 2474SOL    HW218882   4.722   2.302   4.148  0.0023  0.1817  0.8508
 2475SOL     OW18883   1.997   1.489  12.581 -0.5649 -0.1320 -0.8777
 2475SOL    HW118884   2.068   1.425  12.590 -1.8717 -1.3995  0.4546
 2475SOL    HW218885   1.994   1.495  12.485  0.9100 -0.9343 -0.9762
 2476SOL     OW18886   4.694   1.272   7.350  0.3413 -0.8257  0.0661
 2476SOL    HW118887   4.607   1.247   7.320  1.0863 -3.0863 -0.1660
 2476SOL    HW218888   0.011   1.272   7.263 -0.2855  2.4210 -0.2026
 2477SOL     OW18889   1.981   1.715  10.867 -0.5860  0.4264  0.1896
 2477SOL    HW118890   1.934   1.782  10.916  0.5569  1.2716  0.1371
 2477SOL    HW218891   2.019   1.774  10.802 -0.5129  1.5580  1.2721
 2478SOL     OW18892   2.520   2.520   6.073  0.3549  0.4151  0.2734
 2478SOL    HW118893   2.541   2.432   6.040 -0.6089  0.4023 -0.3085
 2478SOL    HW218894   2.580   2.526   6.148 -0.3353  2.1208  0.6701
 2479SOL     OW18895   0.876   3.727   6.784 -0.1974 -0.9355 -0.1631
 2479SOL    HW118896   0.807   3.728   6.717 -0.9598  1.7424  0.6669
 2479SOL    HW218897   0.837   3.758   6.866  1.1764 -0.1837  0.1999
 2480SOL     OW18898   1.631   2.163   2.289  0.1323 -0.1367  0.2112
 2480SOL    HW118899   1.647   2.145   2.196 -1.6700 -3.6908  0.5817
 2480SOL    HW218900   1.682   2.242   2.306 -0.1164  0.3030 -1.0496
 2481SOL     OW18901   0.644   3.259   3.149  0.5911  0.6257 -0.2370
 2481SOL    HW118902   0.561   3.296   3.180 -0.2344  0.9363 -2.8615
 2481SOL    HW218903   0.691   3.286   3.228 -0.3066 -0.4015  0.6561
 2482SOL     OW18904   0.383   2.717   3.018  0.7680  0.1120  0.4531
 2482SOL    HW118905   0.440   2.764   2.957  0.1965 -0.9429 -0.8951
 2482SOL    HW218906   0.295   2.732   2.983  1.3214 -0.1422 -1.0119
 2483SOL     OW18907   3.486   4.511   2.320 -0.1830  0.6683  0.8179
 2483SOL    HW118908   3.418   4.528   2.255 -0.9373  0.0239  1.4360
 2483SOL    HW218909   3.440   4.548   2.395 -0.8149  1.8642 -0.1624
 2484SOL     OW18910   1.325   0.529   2.889  0.0837  0.0849  0.5498
 2484SOL    HW118911   1.368   0.537   2.804  2.0993  0.6454  1.6211
 2484SOL    HW218912   1.383   0.471   2.937  1.3611 -1.3564 -2.7514
 2485SOL     OW18913   4.270   1.096   7.796 -0.1328 -0.0062  0.3255
 2485SOL    HW118914   4.194   1.054   7.837  1.5120 -1.6003  1.7596
 2485SOL    HW218915   4.331   1.076   7.867 -2.8104  0.0924  2.6674
 2486SOL     OW18916   2.746   0.000   8.158 -0.0283 -0.2313  0.1473
 2486SOL    HW118917   2.744   4.662   8.232  0.2521 -2.5276 -1.7275
 2486SOL    HW218918   2.837   0.029   8.164 -0.8083  1.9423  1.5355
 2487SOL     OW18919   1.448   0.933  13.173  0.5452  0.0797  0.3656
 2487SOL    HW118920   1.460   0.850  13.126 -0.9949 -0.1397  0.3368
 2487SOL    HW218921   1.522   0.984  13.142  2.2875 -0.9065  2.8906
 2488SOL     OW18922   2.774   3.988   9.841  0.1758 -0.2545  0.4526
 2488SOL    HW118923   2.739   4.063   9.793  1.0284 -1.0906 -1.4593
 2488SOL    HW218924   2.699   3.974   9.899 -0.7339 -0.2849 -0.7131
 2489SOL     OW18925   3.468   0.511   5.419  0.3212  0.0938  0.1082
 2489SOL    HW118926   3.472   0.546   5.508 -1.5804  1.6303 -0.3829
 2489SOL    HW218927   3.419   0.571   5.362 -0.9713 -0.7505  0.3293
 2490SOL     OW18928   0.077   3.315   2.582  0.1801 -0.1534  0.3072
 2490SOL    HW118929   0.058   3.399   2.539  2.4956  1.5710  2.6263
 2490SOL    HW218930   0.167   3.339   2.603 -0.2834  2.1020 -0.2751
 2491SOL     OW18931   4.562   0.338   7.402 -0.6735 -0.0972 -0.1641
 2491SOL    HW118932   4.548   0.288   7.482  1.3382 -0.3114  0.0574
 2491SOL    HW218933   4.476   0.364   7.371 -1.5753 -0.2167  2.2742
 2492SOL     OW18934   3.325   3.864   8.950 -0.5957 -0.4578  0.3949
 2492SOL    HW118935   3.396   3.802   8.968  0.9242  0.2346 -3.2565
 2492SOL    HW218936   3.350   3.898   8.864 -0.1309 -0.3002  0.5922
 2493SOL     OW18937   0.338   3.279   6.040 -0.5248  0.6121  0.2465
 2493SOL    HW118938   0.336   3.221   6.116 -1.1981 -0.9591 -0.9737
 2493SOL    HW218939   0.413   3.335   6.059  0.1861 -0.2181 -0.1573
 2494SOL     OW18940   1.734   2.144   0.742  0.0190 -0.2491  0.5345
 2494SOL    HW118941   1.656   2.095   0.769  1.7425 -3.0375  0.4240
 2494SOL    HW218942   1.805   2.080   0.738 -1.4676 -1.8022 -0.8678
 2495SOL     OW18943   3.915   4.235   9.131 -0.1242 -0.6970 -0.1396
 2495SOL    HW118944   3.950   4.183   9.203 -1.2296  0.8188  1.4788
 2495SOL    HW218945   3.825   4.255   9.157  1.0612  1.6688  2.1809
 2496SOL     OW18946   1.143   4.477   2.341  0.7800  0.2741  0.1335
 2496SOL    HW118947   1.065   4.480   2.396  1.3557 -0.2271  0.9754
 2496SOL    HW218948   1.212   4.483   2.407  2.4534  1.7061 -1.7271
 2497SOL     OW18949   0.184   2.153   3.837 -0.2696  0.5279 -0.0355
 2497SOL    HW118950   0.156   2.238   3.871  2.3258  1.4117 -0.1139
 2497SOL    HW218951   0.145   2.092   3.900  1.5162  0.5559  1.0835
 2498SOL     OW18952   1.837   4.099   8.065  0.3263 -0.2308 -0.4982
 2498SOL    HW118953   1.877   4.127   8.147  1.4964  1.4067 -1.6297
 2498SOL    HW218954   1.796   4.178   8.030 -1.5305 -0.2132  1.7424
 2499SOL     OW18955   2.947   0.702   5.637 -0.1417  0.2380 -0.0178
 2499SOL    HW118956   2.980   0.779   5.592  1.6139 -0.8392 -0.5901
 2499SOL    HW218957   2.996   0.704   5.719 -1.1531 -1.3345  0.6427
 2500SOL     OW18958   3.413   2.374   5.188 -0.0786  0.5668  0.3938
 2500SOL    HW118959   3.474   2.386   5.115  1.7176  0.4913  1.8770
 2500SOL    HW218960   3.407   2.465   5.216  0.8444  1.2373 -1.6058
 2501SOL     OW18961   1.422   3.236   6.356  0.3834 -0.1757  0.2761
 2501SOL    HW118962   1.421   3.302   6.425  3.2455  1.1343 -0.9671
 2501SOL    HW218963   1.329   3.240   6.332  0.2603  0.0326  0.7817
 2502SOL     OW18964   0.635   0.917   6.110  0.1903 -0.6962 -0.0395
 2502SOL    HW118965   0.609   0.993   6.162  2.1738 -1.6524  2.3957
 2502SOL    HW218966   0.655   0.867   6.189 -0.0798 -0.4071  0.2120
 2503SOL     OW18967   2.140   2.939   5.395 -0.1543  0.1061  0.0400
 2503SOL    HW118968   2.197   2.882   5.345 -1.0697 -1.9339  1.3375
 2503SOL    HW218969   2.166   3.019   5.348 -0.0275  0.7542  1.2054
 2504SOL     OW18970   1.528   4.644   2.607 -0.3360  0.3115  0.2336
 2504SOL    HW118971   1.546   4.583   2.535  0.7951  2.2770 -1.1434
 2504SOL    HW218972   1.540   0.007   2.567 -0.5319  0.2788  0.1019
 2505SOL     OW18973   0.028   3.044   2.567  0.4092  0.3186 -0.3007
 2505SOL    HW118974   4.655   3.046   2.570  0.3857 -1.2638 -0.1767
 2505SOL    HW218975   0.030   3.138   2.588  2.4533 -0.1906  1.6995
 2506SOL     OW18976   3.009   0.559   6.548 -0.6651  0.6533  0.2528
 2506SOL    HW118977   3.031   0.607   6.468 -1.7798  1.1912  0.2785
 2506SOL    HW218978   3.003   0.632   6.609  0.6956  0.4774  0.6127
 2507SOL     OW18979   4.190   0.907   0.245  0.0608  0.1669 -0.0503
 2507SOL    HW118980   4.209   0.874   0.333 -1.1121 -0.5471 -0.0668
 2507SOL    HW218981   4.223   0.836   0.190  0.2803  0.5165 -0.3688
 2508SOL     OW18982   1.045   1.934   7.213 -0.1607 -0.2117  0.1442
 2508SOL    HW118983   1.064   1.868   7.146 -0.7445 -0.3807  0.1457
 2508SOL    HW218984   1.130   1.972   7.237 -0.2780  2.0293 -2.9234
 2509SOL     OW18985   3.650   4.239   7.995 -0.7056 -0.3633 -0.1627
 2509SOL    HW118986   3.607   4.225   8.079 -1.8822 -0.3457 -0.7618
 2509SOL    HW218987   3.627   4.156   7.952 -1.0394  0.1835 -1.0525
 2510SOL     OW18988   3.260   0.976   8.457  0.5326 -0.0406 -0.1892
 2510SOL    HW118989   3.353   0.969   8.476  1.0258  2.0742 -1.7612
 2510SOL    HW218990   3.230   1.013   8.541  0.7591 -2.5631  0.9890
 2511SOL     OW18991   3.203   1.313   9.866  0.1536 -0.1320 -0.0100
 2511SOL    HW118992   3.228   1.402   9.839  1.1880  0.1355  1.8086
 2511SOL    HW218993   3.147   1.320   9.943  2.0234  0.7491  1.2830
 2512SOL     OW18994   3.309   3.367   4.448 -0.0345 -0.1761  0.3759
 2512SOL    HW118995   3.261   3.436   4.402  1.3980 -0.1682 -1.1038
 2512SOL    HW218996   3.367   3.415   4.506  1.0243 -0.1351 -0.7160
 2513SOL     OW18997   1.768   0.307   4.708 -0.3206 -0.5527 -0.5738
 2513SOL    HW118998   1.747   0.215   4.725  1.1177 -1.0120 -1.2706
 2513SOL    HW218999   1.695   0.346   4.756  2.4168  2.1851  1.3522
 2514SOL     OW19000   2.063   4.571   1.942 -0.3030 -0.6687  0.0578
 2514SOL    HW119001   2.093   4.500   1.997 -0.0915  0.8827  1.9370
 2514SOL    HW219002   2.028   4.624   2.014 -0.0835  0.9382 -1.0078
 2515SOL     OW19003   0.838   4.607   8.059 -0.1644 -0.4760 -0.3975
 2515SOL    HW119004   0.929   4.577   8.064  0.1617  0.5547 -0.1732
 2515SOL    HW219005   0.786   4.528   8.069 -0.3839 -0.0757  1.5320
 2516SOL     OW19006   4.060   2.073   5.041  0.3233  0.4000 -0.2774
 2516SOL    HW119007   4.092   2.149   4.993  3.9668 -0.2878  1.0465
 2516SOL    HW219008   4.046   2.001   4.979 -1.8920  0.2875  0.3546
 2517SOL     OW19009   1.601   4.287   5.618  0.5385 -0.0615  0.4688
 2517SOL    HW119010   1.537   4.262   5.685 -0.6088  1.7249  0.0322
 2517SOL    HW219011   1.569   4.372   5.587  0.5278  0.5362  2.1259
 2518SOL     OW19012   2.969   1.982  17.126 -0.1998 -0.4879 -0.7042
 2518SOL    HW119013   2.929   2.022  17.049  1.7430  2.2050 -0.3399
 2518SOL    HW219014   3.060   1.957  17.111  0.7131  0.6110  2.8575
 2519SOL     OW19015   1.577   3.510   3.070  0.7679  0.1693  0.1764
 2519SOL    HW119016   1.621   3.429   3.047  1.6751  0.4681  0.8593
 2519SOL    HW219017   1.523   3.479   3.142  0.5166  0.2000  0.0014
 2520SOL     OW19018   4.580   2.580   0.599  0.0769 -0.4536 -0.3073
 2520SOL    HW119019   4.622   2.663   0.621 -0.2638 -0.5578  0.7637
 2520SOL    HW219020   4.510   2.597   0.664 -0.5274  1.8393 -1.5390
 2521SOL     OW19021   1.813   3.026   0.785 -0.3487  0.1854  0.1108
 2521SOL    HW119022   1.764   2.993   0.860 -0.6941  0.1842 -0.1131
 2521SOL    HW219023   1.749   3.089   0.753  1.3222  1.4384 -0.7311
 2522SOL     OW19024   1.495   3.495   9.373 -0.6454  0.8758 -0.4899
 2522SOL    HW119025   1.517   3.586   9.357  0.4685  0.9544  1.5511
 2522SOL    HW219026   1.556   3.478   9.444  0.2676  0.1505 -1.4365
 2523SOL     OW19027   3.173   2.408   4.230 -0.2545 -0.4042 -0.9714
 2523SOL    HW119028   3.128   2.447   4.155  0.1822 -1.6976 -1.8934
 2523SOL    HW219029   3.240   2.476   4.231 -0.3747 -0.2836 -1.3153
 2524SOL     OW19030   3.022   2.642   6.567 -0.2515  0.4287  0.2450
 2524SOL    HW119031   3.059   2.622   6.653  2.6564  1.1006 -0.8513
 2524SOL    HW219032   2.933   2.608   6.572 -0.2850  0.2898 -1.3008
 2525SOL     OW19033   3.161   2.548   7.100 -0.3439 -0.3231  0.3145
 2525SOL    HW119034   3.198   2.460   7.108 -0.0810 -0.2311  0.1173
 2525SOL    HW219035   3.188   2.587   7.183  2.2247  1.5590 -1.3715
 2526SOL     OW19036   2.008   3.170   8.965 -0.0984  0.4436 -0.3893
 2526SOL    HW119037   2.091   3.195   9.005 -0.0554 -0.1977 -0.0704
 2526SOL    HW219038   2.000   3.215   8.881 -1.9759 -1.3244 -1.1770
 2527SOL     OW19039   1.038   1.695   6.215  0.1226 -0.6990 -0.2179
 2527SOL    HW119040   1.081   1.684   6.130 -1.9168 -1.6684 -1.1245
 2527SOL    HW219041   1.016   1.788   6.220  1.3743 -0.4839  1.3249
 2528SOL     OW19042   0.914   2.314   8.336  0.5821 -0.5250 -0.5733
 2528SOL    HW119043   0.867   2.261   8.273 -1.0011  0.8194 -0.5332
 2528SOL    HW219044   1.002   2.319   8.298  0.6252  0.2033 -0.3908
 2529SOL     OW19045   1.965   2.481   9.418  0.2096  0.3257  0.0817
 2529SOL    HW119046   1.896   2.492   9.353 -1.3252 -0.1314  1.6537
 2529SOL    HW219047   1.916   2.491   9.500 -1.8379 -1.8442 -0.8897
 2530SOL     OW19048   2.402   2.317  15.090 -0.3442 -0.1291  0.1104
 2530SOL    HW119049   2.444   2.238  15.123  0.1243  1.3859  3.1849
 2530SOL    HW219050   2.417   2.376  15.164  0.1652 -0.6370  0.4069
 2531SOL     OW19051   3.149   4.246   2.541 -0.1819 -0.1903  0.1741
 2531SOL    HW119052   3.117   4.334   2.564 -1.5232 -0.9596  1.2368
 2531SOL    HW219053   3.244   4.249   2.537 -0.2474  0.3641 -1.3371
 2532SOL     OW19054   3.075   4.213  14.870 -0.2571 -0.3336  0.2596
 2532SOL    HW119055   3.146   4.221  14.806 -1.0842 -1.6146 -0.8279
 2532SOL    HW219056   3.022   4.291  14.856  2.5372  1.3675 -0.8404
 2533SOL     OW19057   0.517   2.704   4.226 -0.0093 -0.4886  0.5013
 2533SOL    HW119058   0.457   2.745   4.289 -3.2881 -0.2759 -2.7643
 2533SOL    HW219059   0.479   2.737   4.145 -1.8541 -2.5604  0.5462
 2534SOL     OW19060   2.947   4.538   0.424  0.0391  0.6558 -0.1822
 2534SOL    HW119061   2.934   4.620   0.377  1.4286 -0.4069 -2.3953
 2534SOL    HW219062   2.999   4.565   0.500 -0.0580 -1.6851  0.7004
 2535SOL     OW19063   1.649   0.859   8.850 -0.0441 -0.3715  0.8366
 2535SOL    HW119064   1.645   0.787   8.914 -0.7120 -1.7184 -0.7187
 2535SOL    HW219065   1.682   0.927   8.908  0.8902 -0.5666  0.5410
 2536SOL     OW19066   1.457   0.957   4.068 -0.1059 -0.3821  0.6363
 2536SOL    HW119067   1.448   1.023   4.000 -1.7131 -0.7797  0.4742
 2536SOL    HW219068   1.367   0.942   4.097  0.0861 -0.5733  1.1389
 2537SOL     OW19069   3.397   0.729   4.001  0.2178 -0.4760 -0.4578
 2537SOL    HW119070   3.390   0.690   4.088  0.6826 -0.2684 -0.3277
 2537SOL    HW219071   3.458   0.665   3.964 -0.7496 -0.0515 -2.7940
 2538SOL     OW19072   4.427   1.419   1.605 -0.3921 -0.2017  0.2207
 2538SOL    HW119073   4.417   1.408   1.510  0.8686 -1.3751  0.2265
 2538SOL    HW219074   4.378   1.340   1.629 -0.8741  0.1943  0.5301
 2539SOL     OW19075   0.949   0.152  14.930  0.1328  0.0171 -0.2515
 2539SOL    HW119076   1.004   0.169  14.854  2.0226 -2.0218  0.6589
 2539SOL    HW219077   0.857   0.161  14.903  0.0956 -1.5915 -0.6250
 2540SOL     OW19078   3.168   0.386   1.956 -0.2001  0.3146 -0.6248
 2540SOL    HW119079   3.202   0.354   1.872  0.2081 -1.5361  0.2427
 2540SOL    HW219080   3.244   0.439   1.979 -0.4079  1.1678 -1.8738
 2541SOL     OW19081   3.011   3.526  15.143 -0.1953  0.0430  0.5836
 2541SOL    HW119082   2.974   3.560  15.062 -0.2871 -0.9279  0.2268
 2541SOL    HW219083   3.076   3.458  15.128  0.9661  0.7487  2.3640
 2542SOL     OW19084   2.199   4.194   2.560 -0.7786  0.4519  0.1337
 2542SOL    HW119085   2.148   4.228   2.486  2.9943 -0.4365 -2.8062
 2542SOL    HW219086   2.225   4.106   2.535 -1.0930  0.6272 -0.7810
 2543SOL     OW19087   1.324   1.786   8.144  0.1246 -0.4184 -0.1931
 2543SOL    HW119088   1.388   1.848   8.108 -0.3880 -0.5258 -1.2683
 2543SOL    HW219089   1.254   1.807   8.082  1.5958  2.7536 -0.8133
 2544SOL     OW19090   1.529   1.898   8.455 -0.5309 -0.2462 -0.2117
 2544SOL    HW119091   1.455   1.857   8.500 -0.7175 -1.3262 -1.4767
 2544SOL    HW219092   1.543   1.985   8.492 -1.1140 -0.1301 -0.2539
 2545SOL     OW19093   0.099   0.899   7.547 -0.0309  0.2080  0.0027
 2545SOL    HW119094   0.068   0.965   7.610  1.0115  1.2812 -0.5962
 2545SOL    HW219095   0.048   0.920   7.470  0.9734 -0.5062 -0.8592
 2546SOL     OW19096   2.069   1.052   2.378 -0.3842 -0.0599 -0.3830
 2546SOL    HW119097   1.990   1.070   2.327 -1.1755 -1.4989  0.3190
 2546SOL    HW219098   2.139   1.096   2.330  2.3584 -0.2065  3.4761
 2547SOL     OW19099   3.938   0.833  16.468  0.5450  0.1915  0.0385
 2547SOL    HW119100   4.030   0.838  16.441  0.7474  0.2609  0.7361
 2547SOL    HW219101   3.908   0.917  16.433  1.7575  1.4206  1.9712
 2548SOL     OW19102   2.579   3.203   9.510  0.2037  0.3961 -0.6885
 2548SOL    HW119103   2.488   3.223   9.532  0.2087 -2.1369  1.6343
 2548SOL    HW219104   2.591   3.112   9.539  0.1451  1.0167  1.2744
 2549SOL     OW19105   2.823   3.592   5.409 -0.0055 -0.0634 -0.1305
 2549SOL    HW119106   2.825   3.553   5.496  0.0733 -1.6236 -0.8333
 2549SOL    HW219107   2.838   3.517   5.352 -1.1550 -0.2394 -0.1883
 2550SOL     OW19108   2.564   4.028   4.906 -0.6503  0.5032 -0.5064
 2550SOL    HW119109   2.579   4.122   4.896  1.3043  0.2423 -0.0452
 2550SOL    HW219110   2.480   4.002   4.869 -0.2917 -0.8521 -0.3535
 2551SOL     OW19111   2.670   0.297   0.306  0.0789 -0.3602  0.0661
 2551SOL    HW119112   2.647   0.378   0.351  1.9670  0.1766  0.0278
 2551SOL    HW219113   2.663   0.322   0.214  0.5476 -2.2285 -0.4742
 2552SOL     OW19114   3.304   3.112   6.879  0.2027  0.0816 -0.7262
 2552SOL    HW119115   3.365   3.185   6.893 -0.4017  0.8499 -2.1535
 2552SOL    HW219116   3.359   3.034   6.874 -1.4196 -1.1753  0.9570
 2553SOL     OW19117   1.211   3.522  16.274 -0.0671 -0.3204  0.0264
 2553SOL    HW119118   1.306   3.519  16.284 -0.3204 -1.8397  2.1124
 2553SOL    HW219119   1.186   3.465  16.347  0.8574  0.8973  1.3079
 2554SOL     OW19120   3.707   2.029   2.938  0.3936 -0.4779 -0.6114
 2554SOL    HW119121   3.692   2.090   3.010 -1.3296 -0.5794 -0.8794
 2554SOL    HW219122   3.798   2.048   2.914  0.6042  0.2662  0.7693
 2555SOL     OW19123   1.664   4.365   6.278  0.3005 -0.3755  0.0272
 2555SOL    HW119124   1.746   4.321   6.297  0.5611 -0.3877 -1.0905
 2555SOL    HW219125   1.610   4.294   6.244 -0.8824  0.4242  0.2485
 2556SOL     OW19126   3.626   1.337   6.012  0.7623  0.1800  0.0059
 2556SOL    HW119127   3.610   1.247   5.984  0.6095  0.0685  0.4528
 2556SOL    HW219128   3.711   1.330   6.056 -0.9298 -2.2345  2.8616
 2557SOL     OW19129   4.453   3.471   5.369  0.6069 -0.3685 -0.5110
 2557SOL    HW119130   4.536   3.468   5.417  0.5458  2.6998 -0.1859
 2557SOL    HW219131   4.478   3.424   5.290  1.7944  2.1018 -1.6310
 2558SOL     OW19132   4.243   2.660  10.456  0.3231  0.0722  0.0267
 2558SOL    HW119133   4.256   2.570  10.427  1.2696 -0.3362  1.6630
 2558SOL    HW219134   4.303   2.663  10.532 -0.4354 -2.7705  0.7332
 2559SOL     OW19135   2.470   1.275   2.932 -0.0190 -0.5185 -0.4917
 2559SOL    HW119136   2.561   1.245   2.920  0.4218  0.9116 -0.6932
 2559SOL    HW219137   2.495   1.360   2.968 -2.4879  0.4483 -1.1195
 2560SOL     OW19138   0.395   0.554   7.148 -0.0328  0.3177  0.2201
 2560SOL    HW119139   0.336   0.508   7.208  1.8853 -0.9842  1.1140
 2560SOL    HW219140   0.482   0.546   7.188 -0.6169 -0.2030  1.3886
 2561SOL     OW19141   0.780   2.587   5.969  0.1911  0.0606 -0.0656
 2561SOL    HW119142   0.719   2.588   5.895 -1.8304  0.1450  1.6160
 2561SOL    HW219143   0.732   2.527   6.025 -0.8670 -1.5542 -2.6868
 2562SOL     OW19144   3.020   4.667   6.230  0.5332 -0.1839  0.5113
 2562SOL    HW119145   2.984   4.584   6.257  1.7891 -0.3981  1.5425
 2562SOL    HW219146   3.101   4.680   6.281  0.6546  2.8020 -0.4471
 2563SOL     OW19147   1.232   1.420   3.558  0.0015  0.2424 -1.3619
 2563SOL    HW119148   1.250   1.496   3.503  1.5133  2.6345  2.3975
 2563SOL    HW219149   1.149   1.379   3.536 -0.7159  0.1551  1.4359
 2564SOL     OW19150   2.371   3.926   5.787  0.3139 -0.3002  0.0266
 2564SOL    HW119151   2.326   4.003   5.750 -0.6267 -1.8745 -2.1500
 2564SOL    HW219152   2.294   3.869   5.792 -0.3136  0.5702  0.2346
 2565SOL     OW19153   2.017   1.765   0.994  0.0556  0.2998 -0.2731
 2565SOL    HW119154   1.948   1.800   0.938 -0.7481 -2.2511 -0.8691
 2565SOL    HW219155   2.057   1.848   1.019 -1.1099 -0.3545  3.7542
 2566SOL     OW19156   3.642   1.502   4.785  0.5789 -0.0373 -0.2421
 2566SOL    HW119157   3.567   1.521   4.729 -0.1600 -0.2980  0.6625
 2566SOL    HW219158   3.714   1.523   4.726 -0.4623  2.0579 -0.7482
 2567SOL     OW19159   1.314   0.807   7.566 -0.0498  0.2484  1.1266
 2567SOL    HW119160   1.406   0.786   7.582  0.8664  2.7832 -0.8567
 2567SOL    HW219161   1.318   0.866   7.491  0.2302 -1.7978 -0.4829
 2568SOL     OW19162   2.816   3.824   0.504 -0.2681 -0.3714  0.1596
 2568SOL    HW119163   2.849   3.796   0.590  0.2544  0.5624  0.2622
 2568SOL    HW219164   2.854   3.749   0.458  0.6081 -0.0406  0.3298
 2569SOL     OW19165   0.723   0.282   5.748  0.1901 -0.1514  0.3073
 2569SOL    HW119166   0.705   0.310   5.659 -1.0589 -1.0812  0.2687
 2569SOL    HW219167   0.800   0.329   5.781  0.0372  1.4523 -1.6682
 2570SOL     OW19168   2.709   0.473  11.864  0.1303 -0.3622 -0.4533
 2570SOL    HW119169   2.756   0.422  11.930 -0.3477  1.6750  1.4613
 2570SOL    HW219170   2.720   0.419  11.786 -0.5550  0.2857 -1.0010
 2571SOL     OW19171   1.024   1.018   6.782  0.4773  0.6048  0.0154
 2571SOL    HW119172   1.033   0.967   6.863  0.4365  0.0111 -0.3498
 2571SOL    HW219173   0.934   0.987   6.769  1.2336 -2.8032  2.6888
 2572SOL     OW19174   3.949   0.776   1.525 -0.1656  0.0903  0.5398
 2572SOL    HW119175   3.863   0.778   1.485  1.0718  0.4912 -2.0940
 2572SOL    HW219176   4.000   0.848   1.488 -0.4000 -0.7573 -1.4076
 2573SOL     OW19177   3.732   2.837   7.335  0.2906  0.3407 -0.7152
 2573SOL    HW119178   3.638   2.824   7.347  0.0902 -0.4704 -3.1722
 2573SOL    HW219179   3.753   2.908   7.396  0.5917 -0.0894 -0.3158
 2574SOL     OW19180   1.263   2.796   2.118 -0.3537  0.2868  0.3082
 2574SOL    HW119181   1.169   2.815   2.117  0.3092  3.4813 -2.9627
 2574SOL    HW219182   1.265   2.729   2.049 -3.0327  1.8842 -1.3464
 2575SOL     OW19183   1.870   0.166  15.607 -0.7195 -0.6850 -0.1956
 2575SOL    HW119184   1.851   0.160  15.513  0.5032 -0.7505 -0.4467
 2575SOL    HW219185   1.828   0.246  15.638  1.8232 -0.0748  1.6268
 2576SOL     OW19186   2.383   1.122  11.950 -0.2962  0.1619 -0.1955
 2576SOL    HW119187   2.446   1.163  11.891 -0.6935 -0.1956 -0.8730
 2576SOL    HW219188   2.325   1.196  11.970  1.8936  1.9351 -0.4043
 2577SOL     OW19189   0.443   3.271   7.475  0.6043  0.6700  0.0546
 2577SOL    HW119190   0.373   3.206   7.473  0.1196  1.2578 -2.4739
 2577SOL    HW219191   0.495   3.218   7.534  0.9282  1.2915  0.3305
 2578SOL     OW19192   1.778   1.256   7.035 -0.3781  0.1665  0.0194
 2578SOL    HW119193   1.765   1.189   6.969  1.6935 -1.8276  1.6139
 2578SOL    HW219194   1.690   1.256   7.072 -0.6628 -0.6075 -0.6791
 2579SOL     OW19195   4.047   3.444  14.872  0.5954  0.0788 -0.1905
 2579SOL    HW119196   4.132   3.482  14.893  1.4580 -2.1232  0.3202
 2579SOL    HW219197   3.988   3.515  14.893 -0.2948 -0.2274 -1.6490
 2580SOL     OW19198   3.291   1.775   2.184  0.0082  0.3971  0.0572
 2580SOL    HW119199   3.327   1.861   2.205 -0.8846  0.8651 -0.3724
 2580SOL    HW219200   3.349   1.716   2.233 -0.5540 -0.5015 -0.3461
 2581SOL     OW19201   2.075   3.314   3.722  0.1437 -0.0935  0.3229
 2581SOL    HW119202   2.163   3.319   3.683  0.4214 -0.0486  0.9517
 2581SOL    HW219203   2.017   3.353   3.657  0.6100 -0.5676 -0.3859
 2582SOL     OW19204   4.325   1.639  13.881 -0.2071  0.3113 -0.1693
 2582SOL    HW119205   4.370   1.723  13.871 -0.1175  0.3195  0.2936
 2582SOL    HW219206   4.243   1.675  13.847  0.0511  1.9882  0.9633
 2583SOL     OW19207   0.770   0.015   6.917  0.4180  0.2514  0.0012
 2583SOL    HW119208   0.708   0.088   6.907  1.9883  1.6999  0.8374
 2583SOL    HW219209   0.771   0.012   7.012  0.5634  0.7005  0.0130
 2584SOL     OW19210   0.786   3.597   2.455 -0.5451 -0.1705  0.8999
 2584SOL    HW119211   0.807   3.566   2.367 -1.5745  2.2846 -0.2120
 2584SOL    HW219212   0.691   3.596   2.448 -0.4844  1.4332 -0.2882
 2585SOL     OW19213   2.287   4.602   4.458 -0.0318  0.3242  0.1540
 2585SOL    HW119214   2.316   4.525   4.507  0.2432 -0.7363 -1.6818
 2585SOL    HW219215   2.370   4.651   4.453  0.9155 -1.4649 -1.9534
 2586SOL     OW19216   0.754   2.255   2.601 -0.2517 -0.3052  0.5304
 2586SOL    HW119217   0.700   2.334   2.606  1.6989  1.1946 -1.8345
 2586SOL    HW219218   0.730   2.230   2.512 -3.1165 -2.4419  1.9152
 2587SOL     OW19219   2.870   3.850   6.923  0.5153  0.2443 -0.0388
 2587SOL    HW119220   2.963   3.864   6.945  0.4749  1.7608 -0.8633
 2587SOL    HW219221   2.827   3.847   7.008  0.0206 -0.3440 -0.3131
 2588SOL     OW19222   3.475   4.359  15.379  0.4872  0.0484  0.5047
 2588SOL    HW119223   3.549   4.316  15.422  0.2205  0.7504  1.6484
 2588SOL    HW219224   3.414   4.287  15.393 -0.6608  0.8843 -0.2269
 2589SOL     OW19225   2.438   2.908  15.033 -0.1682 -0.1062 -0.7433
 2589SOL    HW119226   2.418   2.820  15.066 -0.5555  0.5714  0.8169
 2589SOL    HW219227   2.533   2.906  15.016  0.1345 -0.3224  0.9284
 2590SOL     OW19228   3.822   3.512   3.597  0.5523 -0.1691 -0.3557
 2590SOL    HW119229   3.909   3.506   3.556  0.5042 -0.2237 -0.4505
 2590SOL    HW219230   3.826   3.432   3.649  1.9395 -0.8098 -1.4343
 2591SOL     OW19231   2.995   1.001   5.027 -1.1295 -0.1370  0.2754
 2591SOL    HW119232   2.981   0.913   4.992 -0.0163 -0.9236  1.7779
 2591SOL    HW219233   2.972   1.063   4.958  0.2200  0.6668  0.5492
 2592SOL     OW19234   2.266   2.163   6.593 -0.2632  0.5158  0.3406
 2592SOL    HW119235   2.318   2.242   6.579 -2.5811  2.2199  1.4388
 2592SOL    HW219236   2.197   2.188   6.533 -0.8533 -0.4096  0.6267
 2593SOL     OW19237   1.244   1.717   5.996 -0.1430  0.4582  0.2628
 2593SOL    HW119238   1.228   1.712   5.902  2.1608 -0.3210 -0.0958
 2593SOL    HW219239   1.337   1.704   5.975 -0.6004  3.3219 -3.5476
 2594SOL     OW19240   0.929   0.929   4.639 -0.0129 -0.3856  0.0406
 2594SOL    HW119241   0.874   0.922   4.562 -1.8849  1.3970  1.2377
 2594SOL    HW219242   0.957   1.020   4.633  1.9489 -0.9260  0.9529
 2595SOL     OW19243   1.726   2.740   9.658 -0.2956 -0.1037  0.1337
 2595SOL    HW119244   1.785   2.796   9.607 -1.3251 -0.8389 -1.8628
 2595SOL    HW219245   1.781   2.675   9.702 -1.3843 -0.3436  1.1326
 2596SOL     OW19246   2.156   4.272   5.994 -0.3858 -0.1977 -0.3898
 2596SOL    HW119247   2.124   4.191   6.033 -1.6937  1.5011  2.0745
 2596SOL    HW219248   2.133   4.257   5.902 -2.5984  0.7029  0.0277
 2597SOL     OW19249   4.154   3.846   7.253  0.0538 -0.5809 -0.0287
 2597SOL    HW119250   4.082   3.907   7.235  0.2111 -0.0620  1.0618
 2597SOL    HW219251   4.190   3.883   7.333  1.3704  1.2630 -1.4772
 2598SOL     OW19252   1.300   3.605   3.145 -0.0716 -0.6355  0.7945
 2598SOL    HW119253   1.360   3.555   3.201  1.1935 -0.4189 -0.3704
 2598SOL    HW219254   1.215   3.578   3.180  0.4163 -2.1897  0.7977
 2599SOL     OW19255   1.839   0.509   3.687 -0.5201 -0.3797 -0.7019
 2599SOL    HW119256   1.913   0.489   3.629  2.3620  0.2254  2.7985
 2599SOL    HW219257   1.797   0.566   3.623  0.7931  1.9317  0.4942
 2600SOL     OW19258   0.733   3.136  14.382  0.6882  0.2782 -0.2029
 2600SOL    HW119259   0.819   3.134  14.424  0.4167 -0.4525  0.3099
 2600SOL    HW219260   0.714   3.043  14.385  0.4750  0.3006 -0.7552
 2601SOL     OW19261   2.763   1.492   6.084  0.0345  0.0273  0.2117
 2601SOL    HW119262   2.782   1.529   6.170  2.9369 -4.3545  1.4424
 2601SOL    HW219263   2.676   1.520   6.054  0.3957 -1.1010 -1.8651
 2602SOL     OW19264   3.321   4.395  12.306 -0.2713  0.2996 -0.0772
 2602SOL    HW119265   3.230   4.364  12.303  0.5070 -1.8341 -1.1622
 2602SOL    HW219266   3.353   4.350  12.228  1.0689 -0.0126  0.6525
 2603SOL     OW19267   1.118   3.743  15.169  0.1134 -0.1412 -0.1264
 2603SOL    HW119268   1.170   3.820  15.189 -0.2431 -0.3438  1.5367
 2603SOL    HW219269   1.184   3.679  15.193  0.5499  0.8613  1.3500
 2604SOL     OW19270   2.101   0.489   7.991 -0.4051 -0.0832  0.2450
 2604SOL    HW119271   2.058   0.569   8.021 -0.0575  0.9297 -2.0063
 2604SOL    HW219272   2.028   0.427   7.983 -0.8514  0.7109 -1.8978
 2605SOL     OW19273   1.271   1.088  14.094 -0.1466 -0.1531  0.6742
 2605SOL    HW119274   1.311   1.144  14.160  0.7284  1.9053 -1.6256
 2605SOL    HW219275   1.213   1.145  14.045  0.6114  0.5023  0.5421
 2606SOL     OW19276   2.974   4.700   1.175  0.6346  0.1171  0.7268
 2606SOL    HW119277   3.015   4.648   1.105 -0.4120 -1.0934  1.0074
 2606SOL    HW219278   2.923   4.638   1.227 -0.4684  1.2740  1.0242
 2607SOL     OW19279   1.686   1.755   0.133 -0.4992  0.2317  0.4099
 2607SOL    HW119280   1.671   1.661   0.143  0.4347  0.2664  2.1946
 2607SOL    HW219281   1.623   1.775   0.064 -0.0496  1.3066  0.3147
 2608SOL     OW19282   0.863   0.441   2.343 -0.4145  0.1006 -0.1305
 2608SOL    HW119283   0.781   0.394   2.324 -0.1556 -1.3406  2.2568
 2608SOL    HW219284   0.905   0.423   2.259 -1.9270 -2.5903 -0.3335
 2609SOL     OW19285   1.649   0.463   5.107  0.5555 -0.5070  0.0172
 2609SOL    HW119286   1.705   0.401   5.154  1.9923  2.3359  2.0301
 2609SOL    HW219287   1.569   0.464   5.159  0.8489 -3.1685  0.5504
 2610SOL     OW19288   1.874   3.580   7.972 -0.7712  0.2346 -0.8626
 2610SOL    HW119289   1.909   3.668   7.980 -2.3752  0.7225  0.7522
 2610SOL    HW219290   1.940   3.525   7.931  0.3225  1.4645 -0.7426
 2611SOL     OW19291   2.943   3.642   4.700  0.0822 -0.3325 -0.6719
 2611SOL    HW119292   2.904   3.728   4.685  1.1559  0.4753  1.1960
 2611SOL    HW219293   3.000   3.665   4.774  1.6513 -1.6952 -1.4498
 2612SOL     OW19294   2.041   4.713   1.089  0.1045 -0.6831 -0.2997
 2612SOL    HW119295   2.092   0.069   1.110 -0.7718 -0.7469  2.0264
 2612SOL    HW219296   2.087   4.640   1.131  1.2704  1.2190  1.7612
 2613SOL     OW19297   3.098   4.269  14.224 -0.3333  0.0892  0.3644
 2613SOL    HW119298   3.174   4.210  14.224 -1.6752 -1.6431 -0.2539
 2613SOL    HW219299   3.099   4.302  14.314 -0.5289  1.0379  0.0195
 2614SOL     OW19300   2.384   4.300   5.148  0.0302 -0.0933 -0.3830
 2614SOL    HW119301   2.303   4.263   5.114 -1.1351 -0.5289  2.9183
 2614SOL    HW219302   2.395   4.382   5.100  0.8923  2.1290  3.5808
 2615SOL     OW19303   2.650   0.065   0.884 -0.2028  0.3000  0.0522
 2615SOL    HW119304   2.651   0.160   0.888  0.0386  0.3638 -1.5128
 2615SOL    HW219305   2.725   0.049   0.827 -0.2229  1.1164 -0.2054
 2616SOL     OW19306   2.024   0.508   5.501  0.6998  0.1171  0.3910
 2616SOL    HW119307   2.117   0.489   5.491  0.8576  1.1098  0.0368
 2616SOL    HW219308   2.008   0.508   5.596 -2.6026 -1.8820 -0.1617
 2617SOL     OW19309   4.703   0.315   6.283  0.8307 -0.3452 -0.3721
 2617SOL    HW119310   4.697   0.220   6.291  2.9053 -0.4300  0.2999
 2617SOL    HW219311   4.669   0.335   6.196  0.8445  0.4947 -0.1897
 2618SOL     OW19312   4.601   0.526  15.447 -0.0130  0.1553 -0.5251
 2618SOL    HW119313   4.607   0.579  15.368  1.0530 -0.6049 -0.9568
 2618SOL    HW219314   4.670   0.461  15.440  2.1603  2.4075  0.0082
 2619SOL     OW19315   4.615   3.804   5.105  0.7454 -0.1141 -0.1162
 2619SOL    HW119316   4.563   3.800   5.185  1.4656  0.6800  0.3981
 2619SOL    HW219317   4.704   3.807   5.141  1.7551 -2.4291 -2.3959
 2620SOL     OW19318   4.359   1.338   2.749  0.3695  0.6413 -0.6017
 2620SOL    HW119319   4.345   1.367   2.658 -0.7188  1.2491 -0.2454
 2620SOL    HW219320   4.286   1.379   2.796  0.1864  0.8527 -1.0594
 2621SOL     OW19321   2.702   0.891  12.492 -0.3543  0.3511 -0.1278
 2621SOL    HW119322   2.761   0.923  12.424  1.0467  1.2971  1.5149
 2621SOL    HW219323   2.622   0.882  12.441 -2.0758 -0.6513  2.7312
 2622SOL     OW19324   0.595   2.015   0.530  0.2324 -0.7438 -0.5093
 2622SOL    HW119325   0.635   2.003   0.616 -0.3936 -0.7497 -0.2169
 2622SOL    HW219326   0.519   1.956   0.535  0.1066 -0.6487 -1.2932
 2623SOL     OW19327   2.498   0.363   1.613  0.2086 -0.3318 -0.4334
 2623SOL    HW119328   2.463   0.450   1.630 -2.1723 -1.1578 -1.1881
 2623SOL    HW219329   2.460   0.305   1.679 -0.5570  0.3029 -0.3198
 2624SOL     OW19330   2.386   3.302  10.471  0.8953  0.2448  0.4050
 2624SOL    HW119331   2.428   3.224  10.506 -0.6102 -0.9947 -0.5703
 2624SOL    HW219332   2.310   3.319  10.528  0.4568  0.4255 -0.2326
 2625SOL     OW19333   4.176   4.640   9.580  0.5040  0.4975 -0.4299
 2625SOL    HW119334   4.200   4.578   9.649  1.2551 -0.8422 -1.9032
 2625SOL    HW219335   4.253   4.687   9.550 -1.1075  3.1697 -0.3877
 2626SOL     OW19336   2.152   4.105   8.786  0.5706 -0.0857  0.0176
 2626SOL    HW119337   2.221   4.096   8.719 -1.2981 -4.0414 -1.3701
 2626SOL    HW219338   2.135   4.011   8.795  0.1904 -0.2636 -2.4181
 2627SOL     OW19339   0.519   0.703   5.974  0.6111  0.0770 -0.3923
 2627SOL    HW119340   0.564   0.636   6.026  0.8273 -0.7422 -1.6367
 2627SOL    HW219341   0.543   0.776   6.032  0.4095  0.6703 -1.0644
 2628SOL     OW19342   2.486   4.658   3.715  0.4755  0.3531 -0.4831
 2628SOL    HW119343   2.489   4.631   3.807  0.4216 -2.7309 -1.4047
 2628SOL    HW219344   2.395   4.687   3.721 -0.1330 -1.8642  1.0281
 2629SOL     OW19345   2.271   0.665   4.984 -0.1812  0.0124  0.3903
 2629SOL    HW119346   2.241   0.742   4.937  0.9041 -0.2894 -0.7901
 2629SOL    HW219347   2.328   0.621   4.921  0.1008  0.4253  0.3561
 2630SOL     OW19348   2.567   0.103   6.237 -0.3797 -0.4491 -0.6179
 2630SOL    HW119349   2.557   0.196   6.256  1.3852 -0.1406 -1.1300
 2630SOL    HW219350   2.507   0.087   6.164 -0.2336 -1.3060 -0.5495
 2631SOL     OW19351   2.148   4.433  17.276 -0.1286  0.2055  0.4116
 2631SOL    HW119352   2.135   4.499  17.345  0.5765 -1.5711  2.2620
 2631SOL    HW219353   2.101   4.355  17.306 -0.6580  0.6143  0.6344
 2632SOL     OW19354   3.485   2.978  16.922 -0.0418 -0.1414 -0.4354
 2632SOL    HW119355   3.443   2.966  17.007  1.3129  0.9680  0.4014
 2632SOL    HW219356   3.431   3.053  16.898 -0.2043 -0.3100 -0.5926
 2633SOL     OW19357   1.505   1.918   5.160  0.0270  0.1756 -0.1195
 2633SOL    HW119358   1.414   1.928   5.133  0.0929 -3.9549 -1.9120
 2633SOL    HW219359   1.544   2.005   5.154  0.5564  0.1362  2.7139
 2634SOL     OW19360   0.976   3.716   6.237  0.0827 -0.6174 -0.4558
 2634SOL    HW119361   1.027   3.695   6.159 -1.9045  2.4086 -2.5318
 2634SOL    HW219362   0.932   3.634   6.254 -0.7929 -0.1630 -0.5432
 2635SOL     OW19363   2.050   3.976   6.903 -0.2478  0.3522  0.0239
 2635SOL    HW119364   2.081   3.888   6.883  0.6848  0.8381 -0.6571
 2635SOL    HW219365   2.134   4.022   6.914 -0.5383  1.4516 -2.4042
 2636SOL     OW19366   1.807   4.192   5.374 -0.4196 -0.4750 -0.3284
 2636SOL    HW119367   1.798   4.230   5.461 -0.6066 -1.0441 -0.1000
 2636SOL    HW219368   1.877   4.249   5.342  0.7699 -1.6089  0.2063
 2637SOL     OW19369   1.133   0.720   2.714 -0.6074 -0.4467 -0.8935
 2637SOL    HW119370   1.177   0.742   2.632 -1.8547  0.6887 -1.2639
 2637SOL    HW219371   1.191   0.755   2.782  0.8542 -1.0582 -1.8240
 2638SOL     OW19372   0.493   3.158  11.562  0.1374 -0.2026 -0.4542
 2638SOL    HW119373   0.553   3.086  11.582  1.4839  1.4805  1.6677
 2638SOL    HW219374   0.414   3.118  11.599 -0.2375  0.8892 -0.0587
 2639SOL     OW19375   0.691   2.282   1.943  0.8147  0.3855 -0.1002
 2639SOL    HW119376   0.746   2.259   2.018 -1.7338  0.8967  1.9259
 2639SOL    HW219377   0.744   2.353   1.907  1.0617  0.3245  0.1439
 2640SOL     OW19378   4.699   1.143   6.896  0.7817  0.5753 -0.6638
 2640SOL    HW119379   0.047   1.110   6.840  0.2364 -0.2072 -0.8917
 2640SOL    HW219380   4.698   1.074   6.963 -1.3270 -0.3898 -1.6861
 2641SOL     OW19381   1.062   3.506  13.039  1.0761 -0.1920  0.2608
 2641SOL    HW119382   1.067   3.421  13.083 -2.8367  0.1941  1.4972
 2641SOL    HW219383   1.107   3.560  13.104  1.0854 -0.8443  0.7980
 2642SOL     OW19384   0.181   2.890   3.608  0.6282  0.2893 -0.0148
 2642SOL    HW119385   0.096   2.848   3.594  0.9493 -0.4523  0.2868
 2642SOL    HW219386   0.219   2.878   3.521  2.4749  0.2416  0.8016
 2643SOL     OW19387   3.149   1.131   7.738  0.5019  0.5710  0.0171
 2643SOL    HW119388   3.119   1.155   7.650 -0.7559 -1.4171 -0.0997
 2643SOL    HW219389   3.179   1.043   7.712 -0.4801  1.0232 -2.6323
 2644SOL     OW19390   2.370   3.924   5.130  0.0744 -0.4468 -0.3124
 2644SOL    HW119391   2.350   3.897   5.041  0.2945  0.9217 -0.7707
 2644SOL    HW219392   2.418   3.846   5.158  0.6013 -1.0366 -2.9213
 2645SOL     OW19393   2.521   4.610  13.069  0.1280 -0.5479 -0.2821
 2645SOL    HW119394   2.564   4.531  13.036  2.3907  0.7133 -0.3098
 2645SOL    HW219395   2.521   4.675  12.999  0.0269 -2.6460 -2.2156
 2646SOL     OW19396   0.485   2.572  14.023  0.7565  0.4171  0.5163
 2646SOL    HW119397   0.576   2.592  14.000 -0.3408  1.6535 -2.8165
 2646SOL    HW219398   0.487   2.479  14.046  1.9055  0.1075 -0.8761
 2647SOL     OW19399   2.182   2.811   7.947  0.1569  0.4263 -0.0680
 2647SOL    HW119400   2.166   2.891   7.897  0.6838 -0.0077 -0.9229
 2647SOL    HW219401   2.181   2.853   8.033  0.5546  1.1936 -0.4380
 2648SOL     OW19402   2.334   4.394   1.398  0.3340 -0.3125  0.1730
 2648SOL    HW119403   2.341   4.310   1.442  1.1585 -0.5716 -0.4353
 2648SOL    HW219404   2.412   4.442   1.426  0.6626 -0.5892 -0.2602
 2649SOL     OW19405   0.905   1.421   6.610  0.0048 -0.4436  0.1960
 2649SOL    HW119406   0.948   1.499   6.647 -1.7383  0.6777 -0.1083
 2649SOL    HW219407   0.976   1.385   6.556  0.5442 -1.0810  1.3331
 2650SOL     OW19408   2.635   1.210   0.179  0.3318 -0.0378  0.0464
 2650SOL    HW119409   2.541   1.227   0.178  0.2024 -0.7903 -0.4997
 2650SOL    HW219410   2.655   1.181   0.090 -0.3366 -1.1819  0.2642
 2651SOL     OW19411   3.057   4.559  10.445  0.4830 -0.4484  0.3287
 2651SOL    HW119412   3.115   4.633  10.428  1.1306 -1.0127  0.0943
 2651SOL    HW219413   2.996   4.576  10.373 -0.3440 -0.8201  0.9330
 2652SOL     OW19414   0.781   0.280   4.393 -0.2530  0.2518 -0.3139
 2652SOL    HW119415   0.761   0.205   4.450  0.8103  2.5634  3.0683
 2652SOL    HW219416   0.694   0.320   4.390 -0.7868 -0.8410  0.3576
 2653SOL     OW19417   4.299   3.617   6.195 -0.0470  0.0548  0.6136
 2653SOL    HW119418   4.212   3.622   6.156  0.6520  2.3274 -0.6494
 2653SOL    HW219419   4.338   3.550   6.139 -1.1812 -0.0336 -0.0747
 2654SOL     OW19420   0.980   0.741   6.658  0.5130 -0.1993 -0.1368
 2654SOL    HW119421   0.918   0.783   6.717  0.1441 -2.8690  1.4105
 2654SOL    HW219422   1.010   0.813   6.604 -0.6519 -0.4073 -1.0479
 2655SOL     OW19423   4.498   2.852  13.029 -0.2626 -0.1979 -0.7188
 2655SOL    HW119424   4.516   2.935  12.985 -0.3223 -0.5911 -1.4976
 2655SOL    HW219425   4.416   2.873  13.073 -0.0219 -1.3576  0.2791
 2656SOL     OW19426   0.292   2.495   4.055  0.7164 -0.1248  0.1974
 2656SOL    HW119427   0.334   2.576   4.026  1.7219  0.3070  2.8815
 2656SOL    HW219428   0.241   2.519   4.133  1.5788  0.0345  0.7075
 2657SOL     OW19429   4.627   1.896   0.602 -0.1020  0.3112  0.4623
 2657SOL    HW119430   4.682   1.818   0.592 -1.2153 -0.0350 -2.7470
 2657SOL    HW219431   4.577   1.897   0.521  1.1904 -1.3022 -0.3363
 2658SOL     OW19432   0.530   0.594  13.877  0.2341 -0.4031 -0.1613
 2658SOL    HW119433   0.618   0.557  13.883  0.6084  0.7385  1.3405
 2658SOL    HW219434   0.463   0.533  13.909 -0.0192 -0.6488 -1.1743
 2659SOL     OW19435   3.248   3.399  15.071 -0.3501 -0.0604 -0.2081
 2659SOL    HW119436   3.326   3.427  15.119  0.2478 -1.0122 -0.6251
 2659SOL    HW219437   3.267   3.428  14.982 -2.2754  0.9178 -0.2912
 2660SOL     OW19438   2.380   3.227   3.160 -0.3013 -0.0510 -0.0869
 2660SOL    HW119439   2.406   3.153   3.215 -0.6878  1.0541  1.5832
 2660SOL    HW219440   2.403   3.196   3.073  1.6903  0.2332  0.3353
 2661SOL     OW19441   2.523   0.353   3.303  0.5172 -0.3237 -0.1358
 2661SOL    HW119442   2.550   0.441   3.329 -0.4825 -0.3717  1.1097
 2661SOL    HW219443   2.573   0.298   3.363  1.4420  0.5578 -0.1123
 2662SOL     OW19444   0.712   1.452  14.702  0.1242 -0.5241  0.3987
 2662SOL    HW119445   0.803   1.438  14.728  0.7596  0.9624 -1.0369
 2662SOL    HW219446   0.717   1.544  14.674 -1.7447 -1.1260 -1.9303
 2663SOL     OW19447   1.027   4.429   3.672  0.3922 -0.0643 -0.1940
 2663SOL    HW119448   1.012   4.356   3.612  0.5289 -0.4865  0.2830
 2663SOL    HW219449   0.942   4.474   3.674 -0.7811 -2.2862 -0.2338
 2664SOL     OW19450   0.253   4.346   5.128  0.7726 -0.6173  0.1981
 2664SOL    HW119451   0.186   4.281   5.152  0.5407 -0.3415  0.2954
 2664SOL    HW219452   0.322   4.302   5.078  1.5375 -0.5341  1.1819
 2665SOL     OW19453   1.919   3.600   3.868 -0.0263 -0.1729 -0.0087
 2665SOL    HW119454   1.914   3.582   3.774 -0.0430 -1.2203  0.1927
 2665SOL    HW219455   2.010   3.628   3.872 -0.0913 -0.0763  0.7970
 2666SOL     OW19456   3.141   2.636   4.694 -0.3849  0.4487  0.4852
 2666SOL    HW119457   3.187   2.682   4.623 -1.2408  2.2930  1.1442
 2666SOL    HW219458   3.213   2.581   4.725  0.0694  0.6031 -0.2927
 2667SOL     OW19459   3.718   0.832   7.213  0.0558  0.1865 -0.4310
 2667SOL    HW119460   3.772   0.910   7.226  0.3103  0.1839 -1.4423
 2667SOL    HW219461   3.752   0.794   7.132  0.9586  2.9460 -1.3741
 2668SOL     OW19462   4.432   1.493   7.093  0.1491 -0.9029  0.4886
 2668SOL    HW119463   4.516   1.538   7.105  0.5957 -1.3730 -0.8968
 2668SOL    HW219464   4.425   1.432   7.166  0.0856  1.5904  2.5774
 2669SOL     OW19465   4.356   0.225   6.362 -0.0523 -0.1399 -0.0117
 2669SOL    HW119466   4.421   0.195   6.298 -0.7353 -1.8331  0.0937
 2669SOL    HW219467   4.379   0.160   6.429 -1.8040 -1.8103 -1.0412
 2670SOL     OW19468   2.654   0.389  15.046  0.7068 -0.1227  0.2985
 2670SOL    HW119469   2.613   0.317  15.093 -1.8475 -0.8285 -3.0823
 2670SOL    HW219470   2.688   0.356  14.963 -0.5940  1.8233 -1.0165
 2671SOL     OW19471   2.701   2.803   0.844 -0.3112 -0.0484 -0.1883
 2671SOL    HW119472   2.747   2.782   0.763 -0.5249 -0.3002 -0.2440
 2671SOL    HW219473   2.607   2.792   0.826 -0.6919  2.5561  0.3048
 2672SOL     OW19474   4.172   4.553   1.413 -0.6027 -0.0141  0.1943
 2672SOL    HW119475   4.238   4.596   1.467 -1.0883  1.0172 -0.0342
 2672SOL    HW219476   4.127   4.625   1.369  0.4142  1.4672  1.5807
 2673SOL     OW19477   1.273   2.174   9.360  0.2298 -0.1454 -0.0678
 2673SOL    HW119478   1.225   2.204   9.438 -0.9684  2.4193 -1.7776
 2673SOL    HW219479   1.299   2.258   9.322  1.1998 -0.2664  0.3261
 2674SOL     OW19480   4.247   3.828  15.111 -0.5432 -0.4374 -0.2435
 2674SOL    HW119481   4.300   3.843  15.033 -1.9633 -0.2912 -1.1956
 2674SOL    HW219482   4.312   3.782  15.164 -0.2508  0.5323  0.2276
 2675SOL     OW19483   0.516   1.354  12.295  0.1065 -0.6077  0.3986
 2675SOL    HW119484   0.587   1.356  12.359  0.9110 -1.0158 -0.4877
 2675SOL    HW219485   0.540   1.271  12.254  0.3515  0.2700 -1.2088
 2676SOL     OW19486   4.366   1.340   1.337  0.0816  0.2337 -0.2163
 2676SOL    HW119487   4.360   1.383   1.252  2.3464  1.1936  0.0977
 2676SOL    HW219488   4.446   1.288   1.327  0.0572  0.1869 -0.1654
 2677SOL     OW19489   1.841   1.664   4.438  0.1910  0.4430  0.9314
 2677SOL    HW119490   1.757   1.686   4.398  0.7646 -0.0260 -0.5266
 2677SOL    HW219491   1.855   1.569   4.434 -2.2269  0.1062 -0.1624
 2678SOL     OW19492   1.765   1.069   4.916  0.6818  0.2203  0.4684
 2678SOL    HW119493   1.704   1.008   4.874 -0.2219  2.3262 -1.2489
 2678SOL    HW219494   1.711   1.132   4.965 -1.9193 -0.1622 -1.9126
 2679SOL     OW19495   4.566   0.367   4.732 -0.1031 -0.6138  0.1234
 2679SOL    HW119496   4.593   0.459   4.733  1.6947 -1.1260  0.4384
 2679SOL    HW219497   4.589   0.338   4.820 -0.0149 -0.7454  0.0582
 2680SOL     OW19498   1.156   2.905   1.267  0.0170  0.9153  0.4150
 2680SOL    HW119499   1.124   2.857   1.343  2.8732  0.7937  1.5457
 2680SOL    HW219500   1.081   2.950   1.227 -0.3595 -1.5157 -1.5886
 2681SOL     OW19501   2.082   3.702   8.315 -0.6068 -0.3986 -0.5047
 2681SOL    HW119502   2.040   3.788   8.306  0.1128 -0.1256 -1.3123
 2681SOL    HW219503   2.037   3.667   8.391 -2.3418  0.6886 -1.0354
 2682SOL     OW19504   0.013   0.034   5.796  0.5632  0.5566 -0.9073
 2682SOL    HW119505   0.077   0.105   5.800  1.1372  0.0542 -1.0031
 2682SOL    HW219506   4.688   0.059   5.717 -0.7843  0.1038 -0.2326
 2683SOL     OW19507   3.320   3.670   1.533 -0.0702  0.1472 -0.1388
 2683SOL    HW119508   3.278   3.747   1.571 -0.3789 -0.6085  1.0182
 2683SOL    HW219509   3.388   3.661   1.599  0.1978  1.2322 -0.2719
 2684SOL     OW19510   1.577   2.090  16.410  0.5694  0.4081 -0.0589
 2684SOL    HW119511   1.567   1.996  16.391  0.7228  0.4174 -0.1767
 2684SOL    HW219512   1.523   2.091  16.489  1.1022 -0.7696  0.3253
 2685SOL     OW19513   3.986   4.682  16.691  0.0348 -0.4963 -0.1190
 2685SOL    HW119514   4.059   4.678  16.629  0.6495  0.7345  0.5135
 2685SOL    HW219515   3.966   0.053  16.685 -3.0125 -1.2329 -1.4494
 2686SOL     OW19516   0.275   1.591   8.872  0.1050  0.0821 -0.4520
 2686SOL    HW119517   0.343   1.633   8.820  1.1748  1.2481  1.8944
 2686SOL    HW219518   0.317   1.575   8.957  0.8320 -0.2204 -0.8695
 2687SOL     OW19519   1.712   3.033   3.714  0.0794  0.1807  0.2582
 2687SOL    HW119520   1.780   3.081   3.760 -0.3879  0.4301  0.6843
 2687SOL    HW219521   1.635   3.075   3.752  0.6351 -0.4485  2.0738
 2688SOL     OW19522   0.144   1.758   8.559  0.4404 -0.0822  0.4367
 2688SOL    HW119523   0.057   1.790   8.586  0.6050 -0.0344  0.9186
 2688SOL    HW219524   0.127   1.664   8.562  0.3226 -0.1181 -1.4472
 2689SOL     OW19525   1.096   2.173   4.768 -0.3734 -0.6514 -0.9064
 2689SOL    HW119526   1.190   2.191   4.762 -0.5326  0.9773  1.2490
 2689SOL    HW219527   1.085   2.087   4.729  3.5373  0.5712 -4.6412
 2690SOL     OW19528   2.621   4.054   5.521 -0.0527 -0.1140 -0.6823
 2690SOL    HW119529   2.628   3.965   5.486  1.8202 -0.5518  0.8003
 2690SOL    HW219530   2.590   4.101   5.444 -1.3604  1.8658  1.0468
 2691SOL     OW19531   2.759   4.401  10.963 -0.3789  0.2094  0.0433
 2691SOL    HW119532   2.833   4.342  10.946 -1.1413 -0.9028  0.6042
 2691SOL    HW219533   2.751   4.402  11.058  0.2139  0.3849  0.0914
 2692SOL     OW19534   2.404   1.499   7.107  0.5350 -0.1234  0.1220
 2692SOL    HW119535   2.460   1.544   7.044  0.8255 -1.1258 -0.3422
 2692SOL    HW219536   2.317   1.515   7.070  0.0787 -0.9274  0.8498
 2693SOL     OW19537   0.864   3.978   7.829 -0.2115  0.1996  0.1056
 2693SOL    HW119538   0.781   3.975   7.780  0.1789  0.6220 -0.5832
 2693SOL    HW219539   0.896   4.067   7.822  2.0150 -0.4598  2.3356
 2694SOL     OW19540   2.771   0.453   2.522 -0.7085 -0.3128  1.0342
 2694SOL    HW119541   2.720   0.421   2.448  0.2226 -3.0275  1.5668
 2694SOL    HW219542   2.719   0.530   2.544  0.9074  0.2527  2.8636
 2695SOL     OW19543   2.766   4.104   4.218 -0.1680 -0.1993 -0.2406
 2695SOL    HW119544   2.693   4.046   4.198 -0.6713  0.8402 -1.4538
 2695SOL    HW219545   2.722   4.189   4.215 -0.9380 -0.5349  1.9771
 2696SOL     OW19546   1.367   3.966   2.011  0.0238 -0.1461  0.1567
 2696SOL    HW119547   1.279   3.978   1.975  0.3986 -1.1707 -1.1150
 2696SOL    HW219548   1.401   4.054   1.995 -0.5837 -0.2712 -1.9262
 2697SOL     OW19549   0.215   2.278   3.275  0.2743 -0.2005  0.0061
 2697SOL    HW119550   0.154   2.207   3.297  1.7164 -1.7292 -0.8628
 2697SOL    HW219551   0.293   2.223   3.265  1.4742  1.4783  0.1124
 2698SOL     OW19552   2.129   0.197   0.067 -0.0120  0.1169  0.0071
 2698SOL    HW119553   2.178   0.174  17.680  1.8955  2.0879  0.5782
 2698SOL    HW219554   2.190   0.155   0.127  0.6777  1.8403  0.5146
 2699SOL     OW19555   2.859   1.686  17.601 -0.4223 -0.3017 -0.0174
 2699SOL    HW119556   2.889   1.745  17.670 -1.8559  0.3091  0.0795
 2699SOL    HW219557   2.932   1.689  17.539  0.2949  2.1574  0.9702
 2700SOL     OW19558   0.300   0.905   5.192 -0.1465  0.1633  0.9840
 2700SOL    HW119559   0.393   0.924   5.202  0.2106 -0.4612 -0.9876
 2700SOL    HW219560   0.279   0.909   5.285  1.1258 -1.1240  1.3267
 2701SOL     OW19561   4.510   1.602   5.479 -0.2723 -0.2357  0.2256
 2701SOL    HW119562   4.443   1.670   5.474 -0.1863 -0.3345 -2.0377
 2701SOL    HW219563   4.460   1.523   5.455 -2.3096  0.9884  0.3826
 2702SOL     OW19564   0.883   4.206   1.945  0.2249  0.4620  0.1787
 2702SOL    HW119565   0.873   4.196   2.039  2.7013  0.1030  0.4055
 2702SOL    HW219566   0.817   4.142   1.916 -0.8477  0.4905  2.6292
 2703SOL     OW19567   1.974   0.616   0.054  0.5330 -0.1163  0.1858
 2703SOL    HW119568   1.921   0.694   0.039 -1.7568 -1.7996 -0.5461
 2703SOL    HW219569   1.928   0.552  17.692  2.2194 -2.1482  1.1461
 2704SOL     OW19570   4.276   2.326   9.435  0.3534 -0.2644  0.0567
 2704SOL    HW119571   4.342   2.260   9.412  2.1922  1.6749 -0.2749
 2704SOL    HW219572   4.305   2.394   9.374 -2.1343  2.7638  2.2994
 2705SOL     OW19573   4.169   1.850  11.260  0.8930 -0.5442 -0.1983
 2705SOL    HW119574   4.188   1.845  11.354  0.9973  0.7528 -0.1413
 2705SOL    HW219575   4.108   1.924  11.262  2.4998  0.7091  3.0581
 2706SOL     OW19576   2.911   4.472   6.500  0.0145 -0.4051  0.1003
 2706SOL    HW119577   2.838   4.517   6.541 -0.1470  1.2679 -2.0087
 2706SOL    HW219578   2.981   4.501   6.560  3.3652 -1.0802 -3.4856
 2707SOL     OW19579   1.223   2.824   6.132 -0.1574  0.6261 -0.3631
 2707SOL    HW119580   1.206   2.820   6.038  0.5894  0.7504 -0.4982
 2707SOL    HW219581   1.317   2.840   6.133 -0.4268  2.0796  1.7275
 2708SOL     OW19582   0.232   0.402  15.203 -0.4266 -0.0458 -0.2645
 2708SOL    HW119583   0.137   0.397  15.198 -0.5284 -0.8340  2.4650
 2708SOL    HW219584   0.247   0.312  15.174 -0.2705  0.3348 -1.3573
 2709SOL     OW19585   3.111   3.791  12.801 -0.4380 -0.2133  0.6112
 2709SOL    HW119586   3.043   3.744  12.752  1.3922  0.6911 -2.7707
 2709SOL    HW219587   3.173   3.719  12.812 -1.4631 -1.4096 -1.4621
 2710SOL     OW19588   0.451   0.804   5.739  0.0730  0.2110  0.1736
 2710SOL    HW119589   0.445   0.899   5.745  2.8312  0.4177 -0.1809
 2710SOL    HW219590   0.466   0.774   5.828 -0.6888  0.6189  0.4321
 2711SOL     OW19591   2.775   1.087  13.985  0.2111  0.1083 -0.0715
 2711SOL    HW119592   2.718   1.042  13.923 -0.4777  0.7058  0.1298
 2711SOL    HW219593   2.830   1.012  14.007  1.8269  1.5691  0.8131
 2712SOL     OW19594   4.083   1.969  13.299  0.3781 -0.1133 -0.2333
 2712SOL    HW119595   4.104   1.980  13.207  0.5368  0.9375 -0.0671
 2712SOL    HW219596   4.120   1.883  13.320 -0.0512  0.3864  2.6047
 2713SOL     OW19597   1.030   0.062   9.087 -0.5341  0.1524 -0.1767
 2713SOL    HW119598   1.026   0.154   9.062 -0.5108 -0.2970 -1.8102
 2713SOL    HW219599   0.936   0.043   9.097 -0.6774  1.5916  1.1641
 2714SOL     OW19600   2.154   0.393  13.074 -0.5955  0.2152  0.8632
 2714SOL    HW119601   2.065   0.421  13.053 -0.0250 -0.1743 -2.0951
 2714SOL    HW219602   2.169   0.431  13.161  1.3540  0.1883  0.5333
 2715SOL     OW19603   0.145   1.305  11.856  0.1609  0.3625 -0.3819
 2715SOL    HW119604   0.072   1.256  11.818  0.8942 -2.3005  1.6805
 2715SOL    HW219605   0.172   1.246  11.926  0.5981 -0.7403 -1.4658
 2716SOL     OW19606   0.819   4.582   3.714  0.2049  0.1401  0.6814
 2716SOL    HW119607   0.868   4.661   3.737 -0.4350  0.7616 -0.0819
 2716SOL    HW219608   0.734   4.617   3.690  0.8613 -0.0088 -1.8955
 2717SOL     OW19609   0.744   1.025  12.401  0.4787  0.1037 -1.0328
 2717SOL    HW119610   0.665   1.045  12.351 -0.3396 -2.2651 -0.6852
 2717SOL    HW219611   0.802   1.028  12.325  1.6178  2.0864 -0.0979
 2718SOL     OW19612   2.411   0.920   3.367 -0.0226 -0.9005 -0.4247
 2718SOL    HW119613   2.414   0.880   3.280 -2.7977 -1.3929 -0.2981
 2718SOL    HW219614   2.328   0.967   3.360  0.1577 -0.6399 -0.8459
 2719SOL     OW19615   0.686   3.734   5.237  0.3267 -0.0089  0.6483
 2719SOL    HW119616   0.704   3.640   5.233 -2.2180 -0.4529 -0.1834
 2719SOL    HW219617   0.770   3.777   5.220 -0.8931  1.9727 -0.3206
 2720SOL     OW19618   4.351   2.365   8.808  0.1488  0.4587 -0.2659
 2720SOL    HW119619   4.347   2.444   8.862  1.2090 -0.6526  1.4602
 2720SOL    HW219620   4.371   2.289   8.863  0.1341 -0.0372 -0.9420
 2721SOL     OW19621   0.156   0.998   3.072  0.0785  0.4577 -0.4010
 2721SOL    HW119622   0.072   1.042   3.086 -1.1414 -1.4162 -1.8352
 2721SOL    HW219623   0.132   0.935   3.004  0.4739  0.3394 -0.4330
 2722SOL     OW19624   1.229   2.650   3.874  0.0726  0.6445 -0.1521
 2722SOL    HW119625   1.151   2.601   3.848  0.4276 -1.0824  2.0818
 2722SOL    HW219626   1.182   2.708   3.933  0.3832  2.3082 -1.5089
 2723SOL     OW19627   1.827   3.533   4.484  0.4720  0.5098  0.4336
 2723SOL    HW119628   1.827   3.600   4.552  1.0498  0.4979  0.4384
 2723SOL    HW219629   1.909   3.493   4.510  0.3648 -0.9295 -1.4072
 2724SOL     OW19630   0.816   0.030   7.226  0.0597 -0.2043  0.2082
 2724SOL    HW119631   0.838   0.123   7.215 -2.3977  0.5969  2.1369
 2724SOL    HW219632   0.841   0.020   7.318  1.7719 -0.9831 -0.3396
 2725SOL     OW19633   1.746   3.252   5.474 -0.0304  0.5821  0.7687
 2725SOL    HW119634   1.800   3.196   5.531 -3.1348 -1.6929  1.4957
 2725SOL    HW219635   1.795   3.326   5.440 -0.2722  0.6014  0.4619
 2726SOL     OW19636   4.199   4.368   8.721  0.6878 -0.0095 -0.2075
 2726SOL    HW119637   4.176   4.386   8.813 -2.8636  0.6223 -1.2157
 2726SOL    HW219638   4.291   4.341   8.722  0.8488  0.5722  1.8456
 2727SOL     OW19639   0.341   3.955  15.150  0.4144 -0.1157 -0.0207
 2727SOL    HW119640   0.422   3.948  15.101  0.7636 -2.1823  0.8508
 2727SOL    HW219641   0.346   4.037  15.198 -1.8138  0.4238 -0.6698
 2728SOL     OW19642   2.006   2.201   1.626  0.2990  0.0293 -0.4202
 2728SOL    HW119643   1.947   2.215   1.552  0.1365  2.1124  0.1015
 2728SOL    HW219644   1.960   2.132   1.674  1.9846  0.7327  2.2450
 2729SOL     OW19645   2.068   3.852   3.104 -0.7103 -0.0564 -0.0948
 2729SOL    HW119646   2.008   3.881   3.173  1.3105  1.1801  1.1587
 2729SOL    HW219647   2.116   3.788   3.157  1.4504  0.1066 -1.8490
 2730SOL     OW19648   2.786   4.216  11.665  0.2474  0.0146 -0.1589
 2730SOL    HW119649   2.781   4.130  11.708  0.3893 -0.5283 -1.2072
 2730SOL    HW219650   2.825   4.176  11.587 -2.7969 -1.5934 -0.8584
 2731SOL     OW19651   2.212   3.681   3.240 -0.5581  0.1119 -0.2784
 2731SOL    HW119652   2.170   3.609   3.287 -2.8733 -0.0988 -2.6452
 2731SOL    HW219653   2.307   3.677   3.248 -0.7302 -2.1884  0.4964
 2732SOL     OW19654   3.629   1.325  12.807  0.0783 -0.6353  0.0589
 2732SOL    HW119655   3.568   1.377  12.755  2.6844  2.4291  0.1147
 2732SOL    HW219656   3.689   1.391  12.841  0.9129 -1.7243  0.6973
 2733SOL     OW19657   4.469   1.054  15.662  0.4282  0.6950  0.2895
 2733SOL    HW119658   4.441   1.108  15.588 -3.4779 -1.3049  0.3284
 2733SOL    HW219659   4.472   0.969  15.618 -0.2359  0.7982  0.0492
 2734SOL     OW19660   3.081   1.702  17.443 -0.1559  0.1924 -0.6171
 2734SOL    HW119661   3.163   1.655  17.455  0.0375  0.3927 -1.1431
 2734SOL    HW219662   3.114   1.791  17.435  0.0741  0.1605  0.0437
 2735SOL     OW19663   1.294   1.403   6.718  0.1719 -0.1071  1.1506
 2735SOL    HW119664   1.261   1.315   6.697 -1.8384  1.1365 -0.9445
 2735SOL    HW219665   1.382   1.381   6.747  0.6791  2.3230  1.4150
 2736SOL     OW19666   2.097   3.032  16.021 -0.4523  0.2368  0.0484
 2736SOL    HW119667   2.052   3.075  15.949  2.4314  3.4407  0.1848
 2736SOL    HW219668   2.141   3.111  16.054 -0.0279 -0.4994  1.2593
 2737SOL     OW19669   4.471   0.444   6.661  0.1167  0.0244 -0.4841
 2737SOL    HW119670   4.516   0.484   6.587  0.1210 -0.2500 -0.6329
 2737SOL    HW219671   4.487   0.353   6.636  0.5434 -0.1016  0.2390
 2738SOL     OW19672   1.280   4.542   3.485  0.1665  0.5108 -0.6755
 2738SOL    HW119673   1.233   4.486   3.423  2.1542 -1.6475 -0.2461
 2738SOL    HW219674   1.266   4.631   3.453 -0.3246  0.0758 -1.6693
 2739SOL     OW19675   4.599   4.490   2.618 -0.5709  0.4589  0.5114
 2739SOL    HW119676   4.634   4.570   2.577  0.4908  0.4809  1.4559
 2739SOL    HW219677   4.664   4.422   2.603 -1.9783 -0.5065 -1.2853
 2740SOL     OW19678   3.225   2.382   2.497  0.7198 -0.2851  0.2434
 2740SOL    HW119679   3.292   2.448   2.508  0.1833  0.1029  1.2019
 2740SOL    HW219680   3.161   2.413   2.433 -1.4160 -1.7707  1.6060
 2741SOL     OW19681   2.581   2.538   3.585 -0.1021 -0.9844 -0.0916
 2741SOL    HW119682   2.612   2.492   3.664 -0.0152 -0.9114 -0.0834
 2741SOL    HW219683   2.507   2.484   3.558 -1.5549  0.5769  0.8219
 2742SOL     OW19684   0.081   2.889   0.210  0.1599 -0.4988  0.3622
 2742SOL    HW119685   0.006   2.948   0.212  2.2740  2.1571  0.2749
 2742SOL    HW219686   0.157   2.944   0.227 -0.0138  0.3835 -1.6721
 2743SOL     OW19687   0.332   1.179   7.446  0.4779 -0.7617 -0.6560
 2743SOL    HW119688   0.333   1.245   7.377  3.3054  0.3204  0.3966
 2743SOL    HW219689   0.353   1.236   7.520 -0.7185  0.2084 -1.0735
 2744SOL     OW19690   1.726   0.676   4.949 -0.6286 -0.4334  0.2071
 2744SOL    HW119691   1.685   0.663   4.863 -0.5693  0.2178  0.0804
 2744SOL    HW219692   1.725   0.589   4.989 -0.5855 -0.3970  0.2865
 2745SOL     OW19693   4.673   3.078  15.082 -0.8386  0.5431 -0.3888
 2745SOL    HW119694   4.638   3.096  15.169  0.6654 -1.2573  0.5859
 2745SOL    HW219695   4.635   2.992  15.064 -0.0910 -0.0064  0.6753
 2746SOL     OW19696   0.719   1.791   0.301  0.1707 -0.7317 -0.0316
 2746SOL    HW119697   0.631   1.826   0.286  0.6417 -0.0048 -1.0373
 2746SOL    HW219698   0.689   1.707   0.337  0.2276 -0.1674  1.3209
 2747SOL     OW19699   2.779   1.794   5.527  0.7243 -0.9295  0.1446
 2747SOL    HW119700   2.763   1.769   5.436  0.1458  1.3167 -0.3888
 2747SOL    HW219701   2.874   1.806   5.533  0.4427  1.6214 -0.2828
 2748SOL     OW19702   0.120   4.560  12.716  0.4025  0.1539 -0.5299
 2748SOL    HW119703   0.073   4.590  12.794  0.1888 -1.9935  0.1561
 2748SOL    HW219704   0.163   4.636  12.677  0.4893  0.3268 -0.0914
 2749SOL     OW19705   3.605   2.390  10.065 -0.5808  0.5834  0.1131
 2749SOL    HW119706   3.563   2.390  10.151  0.7941  0.6699  0.7869
 2749SOL    HW219707   3.695   2.375  10.094 -1.0187 -1.6611  0.2784
 2750SOL     OW19708   0.188   1.396  17.267 -0.2237 -0.9176  0.0065
 2750SOL    HW119709   0.229   1.325  17.218 -0.4137  0.1624 -1.7420
 2750SOL    HW219710   0.261   1.424  17.324 -1.4418 -1.6621  1.9086
 2751SOL     OW19711   2.499   0.506  17.678 -0.4750 -0.6289 -0.9487
 2751SOL    HW119712   2.570   0.445   0.003 -0.1091  0.1475  0.3115
 2751SOL    HW219713   2.415   0.468   0.015  0.4939 -2.9591 -1.1816
 2752SOL     OW19714   0.770   1.328   9.516 -0.5994 -0.2970  0.1949
 2752SOL    HW119715   0.763   1.260   9.449 -1.5295  1.6261 -1.6514
 2752SOL    HW219716   0.794   1.408   9.469 -1.3580 -1.8134 -2.7926
 2753SOL     OW19717   1.664   0.898  10.668 -0.1887 -0.8413 -0.1416
 2753SOL    HW119718   1.652   0.918  10.761  0.6123  0.7296 -0.3895
 2753SOL    HW219719   1.652   0.803  10.678  0.3823 -0.8917  0.0467
 2754SOL     OW19720   3.456   1.943  12.764  0.0999 -0.1489  0.2238
 2754SOL    HW119721   3.427   1.982  12.682  1.2673  0.4119  0.0853
 2754SOL    HW219722   3.535   1.994  12.779 -0.6184  1.2948 -0.9483
 2755SOL     OW19723   4.014   3.484   4.062  0.5865  0.6548 -0.1683
 2755SOL    HW119724   3.981   3.421   3.998  0.4543  0.3380  0.2106
 2755SOL    HW219725   4.084   3.515   4.004 -0.6752  1.0919 -1.4604
 2756SOL     OW19726   2.205   2.304   7.515  0.0793 -0.2757 -1.0852
 2756SOL    HW119727   2.299   2.286   7.515  0.2941  0.8259  2.4670
 2756SOL    HW219728   2.191   2.396   7.537  0.3428 -0.1123 -1.6102
 2757SOL     OW19729   1.347   4.001  11.270  1.0918  0.3045 -0.3594
 2757SOL    HW119730   1.348   4.072  11.335 -1.4259 -0.8819  0.9690
 2757SOL    HW219731   1.274   4.033  11.216  3.3190  1.9597 -2.3860
 2758SOL     OW19732   3.346   2.975  13.944  0.2745 -0.7658  0.1182
 2758SOL    HW119733   3.399   2.898  13.961 -0.0573 -0.7805  1.1359
 2758SOL    HW219734   3.366   3.036  14.015 -1.5253  0.7793 -0.6884
 2759SOL     OW19735   3.325   4.718   7.315 -0.2171  0.1717 -0.2663
 2759SOL    HW119736   3.298   0.067   7.372  2.0380  1.1425 -0.3965
 2759SOL    HW219737   3.373   0.048   7.251  0.1568 -2.4333 -2.1503
 2760SOL     OW19738   3.492   2.187   8.776  0.5080 -0.8935 -0.1123
 2760SOL    HW119739   3.428   2.159   8.842  3.2560 -2.3014  1.9686
 2760SOL    HW219740   3.552   2.227   8.838  1.2092  1.4222 -2.3254
 2761SOL     OW19741   0.895   3.781  11.556  0.1077  0.2506  0.0195
 2761SOL    HW119742   0.938   3.865  11.570  1.8140 -0.5357 -0.4799
 2761SOL    HW219743   0.935   3.752  11.474 -2.8595 -1.0176 -0.9967
 2762SOL     OW19744   4.494   2.257  11.110 -0.2758  0.0281 -0.3019
 2762SOL    HW119745   4.449   2.282  11.190  0.5002  0.1791  0.0877
 2762SOL    HW219746   4.423   2.255  11.045  0.6439  1.7942 -1.3565
 2763SOL     OW19747   0.893   0.620   6.193 -0.3801 -0.5725  0.1184
 2763SOL    HW119748   0.948   0.551   6.230  1.1874  1.8546  2.2689
 2763SOL    HW219749   0.803   0.589   6.206 -0.0354 -0.4597  2.8131
 2764SOL     OW19750   2.624   1.754   7.745  0.2620  0.3913  0.0563
 2764SOL    HW119751   2.622   1.659   7.756  0.9049  0.6659  2.7667
 2764SOL    HW219752   2.533   1.773   7.767  0.1357 -0.1777  0.0436
 2765SOL     OW19753   0.844   2.686   5.243 -0.1030  0.5014 -0.3776
 2765SOL    HW119754   0.886   2.769   5.265 -1.7058  1.9750 -2.9611
 2765SOL    HW219755   0.761   2.724   5.215 -1.1804 -0.6228  1.2951
 2766SOL     OW19756   3.910   4.447   8.168 -0.1203  0.4632 -0.3067
 2766SOL    HW119757   3.978   4.384   8.191 -0.3986  0.2979  0.0742
 2766SOL    HW219758   3.833   4.397   8.193  2.2169 -1.7954  2.4028
 2767SOL     OW19759   2.539   2.006   8.365 -0.2757  0.3029  0.3711
 2767SOL    HW119760   2.573   1.927   8.322  0.5049  1.6671 -1.5334
 2767SOL    HW219761   2.578   2.005   8.452  1.3227 -0.0228 -0.3601
 2768SOL     OW19762   2.259   2.388   6.135  0.2767 -0.0532  0.3886
 2768SOL    HW119763   2.311   2.423   6.063  0.1184 -2.1923 -0.7571
 2768SOL    HW219764   2.167   2.403   6.113  0.4617 -1.3412 -1.2362
 2769SOL     OW19765   0.568   4.271   5.494 -0.2436 -0.0370 -0.3522
 2769SOL    HW119766   0.587   4.338   5.560 -2.3166  0.0488  0.1681
 2769SOL    HW219767   0.484   4.311   5.469 -0.5238  0.3751  1.2749
 2770SOL     OW19768   1.896   2.261  15.519  0.1214  0.0292  0.6288
 2770SOL    HW119769   1.931   2.347  15.544  0.5662 -0.0951  0.4295
 2770SOL    HW219770   1.803   2.276  15.536 -0.1378 -0.4286 -0.3797
 2771SOL     OW19771   2.303   0.052   5.814 -0.0761  0.0573  0.5309
 2771SOL    HW119772   2.379   4.718   5.799 -1.7148 -1.3019 -2.6107
 2771SOL    HW219773   2.333   0.123   5.758  0.6449 -0.1994  0.5832
 2772SOL     OW19774   3.849   3.308  12.132 -0.2223 -0.0088 -0.0193
 2772SOL    HW119775   3.854   3.218  12.164 -3.5377 -0.1903 -0.0359
 2772SOL    HW219776   3.763   3.334  12.164 -0.6308  1.2093 -2.1116
 2773SOL     OW19777   3.921   1.971   1.585  0.1873 -0.2106  0.0208
 2773SOL    HW119778   3.985   1.922   1.533 -2.0765 -1.6353 -1.3726
 2773SOL    HW219779   3.972   2.015   1.653 -2.4278  2.2719  0.3768
 2774SOL     OW19780   3.588   1.261  17.014  0.1201 -0.6257  0.4678
 2774SOL    HW119781   3.583   1.226  16.925  1.9639 -0.4228  0.2873
 2774SOL    HW219782   3.624   1.349  17.004 -1.1068 -0.1571  0.1348
 2775SOL     OW19783   3.770   4.411  10.003 -0.1057 -0.0999  0.5831
 2775SOL    HW119784   3.801   4.446   9.919 -1.4412  0.6287  0.3968
 2775SOL    HW219785   3.814   4.470  10.064  0.5388  0.7000 -0.6440
 2776SOL     OW19786   0.809   2.779   6.569  0.2046  0.1227  0.0914
 2776SOL    HW119787   0.797   2.753   6.661  1.4374 -1.2329 -0.1273
 2776SOL    HW219788   0.888   2.834   6.570  0.9521 -0.9149 -2.8730
 2777SOL     OW19789   0.110   1.966  17.464  0.1965  0.3804 -0.0911
 2777SOL    HW119790   0.026   2.006  17.485  1.1199  2.2156  0.1419
 2777SOL    HW219791   0.145   1.947  17.552  2.6296  0.8584 -0.9475
 2778SOL     OW19792   2.771   4.643   7.533  0.3270 -0.0162 -0.0829
 2778SOL    HW119793   2.736   4.555   7.549 -0.9010  0.6219  0.7360
 2778SOL    HW219794   2.772   4.656   7.439 -1.2963  1.2393  0.0730
 2779SOL     OW19795   3.087   3.073   5.462 -0.1117  0.1344  0.0601
 2779SOL    HW119796   3.100   3.140   5.529 -0.0334 -0.7276  0.9200
 2779SOL    HW219797   3.113   3.124   5.386  1.8773  1.2201  1.4706
 2780SOL     OW19798   1.315   0.678   4.514  0.0245 -0.2366  0.1550
 2780SOL    HW119799   1.286   0.587   4.520 -0.5368 -0.2456 -2.6261
 2780SOL    HW219800   1.319   0.684   4.418 -4.3092  1.1039  0.0657
 2781SOL     OW19801   1.156   2.259   3.910 -0.1883 -0.1558 -0.6929
 2781SOL    HW119802   1.077   2.281   3.961  0.0553 -2.1675  0.5316
 2781SOL    HW219803   1.127   2.171   3.888  1.1522 -0.5289 -0.9360
 2782SOL     OW19804   3.677   4.364   8.276 -0.3132  0.2852 -0.0975
 2782SOL    HW119805   3.682   4.360   8.372 -2.1880 -0.5692 -0.0310
 2782SOL    HW219806   3.592   4.326   8.255 -1.5394  1.7387  2.2488
 2783SOL     OW19807   2.042   4.394   4.784  0.2772 -0.2478  0.6588
 2783SOL    HW119808   2.109   4.448   4.825 -0.6914 -0.0820  2.0258
 2783SOL    HW219809   1.975   4.383   4.851 -1.3799  1.1887 -0.7791
 2784SOL     OW19810   0.076   1.985   7.145  0.1568  0.2655 -0.1980
 2784SOL    HW119811   4.706   1.994   7.124 -0.0837  0.4302  0.9531
 2784SOL    HW219812   0.123   2.021   7.069  1.2244  0.3923  0.5155
 2785SOL     OW19813   0.387   2.332   7.479  0.0939 -0.0861 -0.2147
 2785SOL    HW119814   0.478   2.303   7.478 -0.1600 -0.9205  0.2556
 2785SOL    HW219815   0.377   2.347   7.573  2.5269 -1.7094  0.3012
 2786SOL     OW19816   0.955   3.002   4.300  0.0337 -0.8513 -0.1599
 2786SOL    HW119817   1.040   3.028   4.337 -0.0940  0.7371 -0.9466
 2786SOL    HW219818   0.935   2.931   4.361 -2.7748  1.2118  1.3322
 2787SOL     OW19819   0.762   4.231   4.944  0.0390 -0.0317 -0.2121
 2787SOL    HW119820   0.833   4.167   4.947 -0.0293  0.0507  3.7630
 2787SOL    HW219821   0.721   4.226   5.031  1.2127 -4.2888  0.1037
 2788SOL     OW19822   3.521   4.557  14.798 -0.2275  0.1567 -0.2540
 2788SOL    HW119823   3.428   4.579  14.789 -0.4951 -1.5806 -1.5863
 2788SOL    HW219824   3.554   4.640  14.833 -0.9950 -0.0523  0.9700
 2789SOL     OW19825   1.538   4.511   5.833 -0.1568 -0.2021  0.6363
 2789SOL    HW119826   1.617   4.458   5.849  0.1885 -0.0088 -0.3949
 2789SOL    HW219827   1.508   4.497   5.743  1.1405  0.4109  0.1110
 2790SOL     OW19828   3.545   4.272  14.517 -0.4669  0.2295 -0.2137
 2790SOL    HW119829   3.631   4.254  14.480  0.2367  0.6235  1.2212
 2790SOL    HW219830   3.563   4.348  14.573 -0.7557  0.8603 -0.9871
 2791SOL     OW19831   1.121   0.984   1.060  0.2046 -0.0463  0.1507
 2791SOL    HW119832   1.147   0.895   1.084  0.3977  0.2236  0.9140
 2791SOL    HW219833   1.064   1.011   1.132 -0.1625  0.0008 -0.1572
 2792SOL     OW19834   0.207   2.648   0.102  0.2794  0.2564  0.5450
 2792SOL    HW119835   0.163   2.733   0.107 -0.2412 -0.1509  2.5644
 2792SOL    HW219836   0.153   2.602   0.038 -0.0822  1.1382  0.2026
 2793SOL     OW19837   4.064   3.162   9.922 -0.7735  0.1296 -0.3774
 2793SOL    HW119838   4.002   3.161   9.849 -0.0828  1.5514 -0.9894
 2793SOL    HW219839   4.065   3.070   9.948 -2.4745 -0.1156 -1.1749
 2794SOL     OW19840   4.252   2.633   5.956  0.0967 -0.7409  0.4988
 2794SOL    HW119841   4.220   2.698   6.019  1.0688  1.5132 -1.3517
 2794SOL    HW219842   4.344   2.648   5.935 -0.9791  1.2081 -2.6393
 2795SOL     OW19843   1.798   2.483   0.304  0.7049  0.3927  0.5994
 2795SOL    HW119844   1.806   2.452   0.395 -0.3803 -1.9383 -0.1036
 2795SOL    HW219845   1.852   2.412   0.270 -0.8098  0.3690 -1.7756
 2796SOL     OW19846   4.465   2.457   7.062 -0.0218 -0.4942 -0.1752
 2796SOL    HW119847   4.505   2.500   7.138 -0.9366  0.7268 -0.3919
 2796SOL    HW219848   4.417   2.532   7.026 -0.2577 -0.5291  0.0672
 2797SOL     OW19849   2.357   0.103   5.336 -0.2818  0.0662 -0.3734
 2797SOL    HW119850   2.277   0.151   5.357  1.2738  1.7348  1.8574
 2797SOL    HW219851   2.339   0.063   5.251  1.8698  1.8872 -1.6878
 2798SOL     OW19852   0.714   2.115   6.056 -0.1905 -0.0202  0.1503
 2798SOL    HW119853   0.672   2.138   5.973 -0.1189 -1.5538 -0.3111
 2798SOL    HW219854   0.656   2.166   6.112  0.7125  1.1996 -0.0164
 2799SOL     OW19855   2.001   3.961   9.842 -0.4964 -0.3634  0.0363
 2799SOL    HW119856   2.075   3.926   9.792  0.2579 -0.2877  1.0808
 2799SOL    HW219857   2.012   3.905   9.919  0.0931 -0.7124 -0.2949
 2800SOL     OW19858   3.440   1.744   3.490  0.3036 -0.1536 -0.3622
 2800SOL    HW119859   3.511   1.802   3.463 -0.7185  0.8694 -0.8382
 2800SOL    HW219860   3.359   1.793   3.477  0.5388  0.9736  2.5021
 2801SOL     OW19861   2.400   2.870   3.435  0.7501 -0.0997 -0.1459
 2801SOL    HW119862   2.358   2.956   3.434  1.8139  0.4173 -0.8764
 2801SOL    HW219863   2.348   2.816   3.495 -1.1423  0.6335 -1.1094
 2802SOL     OW19864   1.212   3.565  10.148  0.1544 -0.5290 -0.3940
 2802SOL    HW119865   1.260   3.493  10.190  0.5167  1.0278  1.8697
 2802SOL    HW219866   1.130   3.537  10.189  1.3772 -0.6179  1.9958
 2803SOL     OW19867   0.265   0.710   6.538  0.0111 -0.7011  0.1955
 2803SOL    HW119868   0.315   0.783   6.574 -2.9672  0.9151  1.1169
 2803SOL    HW219869   0.325   0.671   6.475  0.7118  2.2591 -0.9564
 2804SOL     OW19870   0.196   4.395   2.961  0.1318 -0.6500 -0.4355
 2804SOL    HW119871   0.278   4.429   2.996  0.8263 -1.0896 -1.6397
 2804SOL    HW219872   0.196   4.448   2.881 -1.5013  3.1064  2.1104
 2805SOL     OW19873   2.427   0.973   8.293  0.1824  0.4988 -0.5507
 2805SOL    HW119874   2.517   0.940   8.294 -0.4798 -1.2829 -0.3036
 2805SOL    HW219875   2.397   0.927   8.372  1.7869 -2.5533 -1.7281
 2806SOL     OW19876   1.538   2.885   9.965  0.0231 -0.2002 -0.4153
 2806SOL    HW119877   1.622   2.859   9.927 -0.3861  0.5516 -1.8127
 2806SOL    HW219878   1.562   2.935  10.043 -0.4797 -0.2772 -0.2098
 2807SOL     OW19879   3.440   2.936   7.957 -0.5214 -0.2158 -0.7075
 2807SOL    HW119880   3.466   2.859   8.007  0.4708  1.9842  2.1810
 2807SOL    HW219881   3.504   3.000   7.987  1.2656 -1.5276 -1.6845
 2808SOL     OW19882   3.195   1.729   4.657 -0.2299 -0.3106 -0.2388
 2808SOL    HW119883   3.112   1.684   4.673 -1.1028  0.4106 -2.7386
 2808SOL    HW219884   3.163   1.816   4.631 -0.8235  0.4360  3.0085
 2809SOL     OW19885   3.829   4.380   4.127  0.4535  0.6725 -0.2847
 2809SOL    HW119886   3.834   4.309   4.190  0.3579  0.8542 -0.0718
 2809SOL    HW219887   3.760   4.347   4.070  1.1959  1.4404 -1.6393
 2810SOL     OW19888   2.581   2.882   4.755 -0.2274 -0.0988 -0.2065
 2810SOL    HW119889   2.564   2.976   4.756 -0.7091 -0.1822 -0.7285
 2810SOL    HW219890   2.546   2.869   4.843 -2.4879  0.7094 -0.9924
 2811SOL     OW19891   4.454   3.193   9.938  0.1617 -0.6188 -0.1159
 2811SOL    HW119892   4.435   3.152  10.022 -0.5336  0.4208  0.2252
 2811SOL    HW219893   4.389   3.263   9.946  1.8021  0.9366 -0.2841
 2812SOL     OW19894   3.183   1.737  10.536  0.0136  0.1470 -0.5891
 2812SOL    HW119895   3.275   1.743  10.508  0.1060 -1.0011 -0.5425
 2812SOL    HW219896   3.150   1.824  10.515  0.3863  0.3305 -0.4130
 2813SOL     OW19897   4.343   4.012   2.614  0.3737  0.3069 -0.0275
 2813SOL    HW119898   4.436   4.030   2.627  0.7811 -0.4884 -1.7657
 2813SOL    HW219899   4.331   3.929   2.660  0.4739  0.2440 -0.1166
 2814SOL     OW19900   3.767   4.639   5.326 -0.2153 -0.5013 -0.8504
 2814SOL    HW119901   3.847   4.591   5.305 -0.2883 -1.0566  0.1542
 2814SOL    HW219902   3.746   4.684   5.244 -1.4645  1.2837  0.4311
 2815SOL     OW19903   2.186   2.862   9.989  0.0495  0.0022  0.0652
 2815SOL    HW119904   2.206   2.779  10.034 -0.8021  0.4808  1.3239
 2815SOL    HW219905   2.143   2.914  10.057  1.1669  0.4873  0.4082
 2816SOL     OW19906   3.696   4.468  13.850 -0.0711 -0.0278 -0.4116
 2816SOL    HW119907   3.726   4.556  13.828  2.7462 -0.4067  1.9111
 2816SOL    HW219908   3.729   4.449  13.938 -0.3779  0.2722 -0.2335
 2817SOL     OW19909   0.643   4.001  16.443  0.4661 -0.1867 -0.0833
 2817SOL    HW119910   0.667   4.012  16.535  2.4061 -1.4656 -0.4331
 2817SOL    HW219911   0.646   4.086  16.401  4.2673 -0.0870  0.4146
 2818SOL     OW19912   2.784   3.771   8.508  0.5341  0.4631 -0.3808
 2818SOL    HW119913   2.812   3.806   8.592  2.4154 -1.2852 -0.2800
 2818SOL    HW219914   2.857   3.712   8.491  1.4522  0.9719  1.8105
 2819SOL     OW19915   4.132   4.267   4.653  0.3288  0.6166 -0.2757
 2819SOL    HW119916   4.162   4.203   4.588 -2.5833  1.9544 -2.9209
 2819SOL    HW219917   4.210   4.323   4.653 -1.0576  2.5583 -2.0164
 2820SOL     OW19918   1.921   4.023  13.012  0.0181 -0.2296 -0.4323
 2820SOL    HW119919   1.906   4.097  13.070 -0.6470  0.7575 -1.8510
 2820SOL    HW219920   1.906   4.052  12.922 -0.6494 -0.2165 -0.3195
 2821SOL     OW19921   1.440   2.943   3.910  0.0867 -0.0764  0.2347
 2821SOL    HW119922   1.400   2.932   3.824 -0.0517 -0.0475  0.2950
 2821SOL    HW219923   1.400   3.023   3.943  0.4006 -0.5059  1.7025
 2822SOL     OW19924   4.719   0.384  12.663 -0.2741 -0.4749  0.1808
 2822SOL    HW119925   4.692   0.331  12.587  1.1039  0.2820 -0.8448
 2822SOL    HW219926   0.081   0.341  12.679  1.4765  2.7924 -0.3927
 2823SOL     OW19927   1.315   2.598   3.479  0.1117 -0.2124 -0.4657
 2823SOL    HW119928   1.268   2.676   3.507 -1.2522 -1.0062 -0.5530
 2823SOL    HW219929   1.273   2.598   3.393 -1.0306  2.9967  0.0901
 2824SOL     OW19930   4.147   4.703   0.717 -0.0422 -0.0697 -0.3816
 2824SOL    HW119931   4.064   0.007   0.677 -0.8669 -0.5301  1.0229
 2824SOL    HW219932   4.194   0.064   0.715  0.6772 -0.5395 -3.5840
 2825SOL     OW19933   0.129   3.348  10.533 -0.4417 -0.2368 -0.4172
 2825SOL    HW119934   0.153   3.289  10.604  0.0453  0.8807  0.3460
 2825SOL    HW219935   0.153   3.428  10.580  1.5691 -0.1414 -1.6074
 2826SOL     OW19936   2.748   0.984   3.656  0.3015  0.3263  0.0137
 2826SOL    HW119937   2.667   0.937   3.678  0.6977  0.2899  1.3461
 2826SOL    HW219938   2.749   0.987   3.560 -0.2729 -0.6020 -0.0221
 2827SOL     OW19939   3.015   0.129   5.357  0.2485  0.9451  0.1823
 2827SOL    HW119940   3.037   0.038   5.378 -1.1589 -0.0707 -2.7661
 2827SOL    HW219941   2.981   0.115   5.269  0.6568 -0.4982  0.2490
 2828SOL     OW19942   3.783   4.590   6.103  0.7326  0.2671 -0.2792
 2828SOL    HW119943   3.792   4.496   6.118 -1.7720  0.1832  0.6499
 2828SOL    HW219944   3.688   4.598   6.110  0.9104  0.7557  1.5743
 2829SOL     OW19945   2.713   1.790   5.910  0.3516 -0.1962  0.3071
 2829SOL    HW119946   2.803   1.822   5.900  0.9105 -1.3009  1.8188
 2829SOL    HW219947   2.700   1.831   5.995  2.6243  1.6764 -0.2395
 2830SOL     OW19948   4.709   0.425  10.928  0.0318  0.2646 -0.0327
 2830SOL    HW119949   4.683   0.514  10.952 -2.4544 -0.8617  1.5340
 2830SOL    HW219950   4.671   0.414  10.841  2.1207  0.0323 -0.8989
 2831SOL     OW19951   2.656   2.430   8.427 -0.4219 -0.8490  0.2586
 2831SOL    HW119952   2.589   2.373   8.464  0.0737 -0.4737  1.7276
 2831SOL    HW219953   2.715   2.440   8.502 -0.3186  2.3023 -0.2535
 2832SOL     OW19954   2.889   2.553   3.560 -0.0263  0.0499 -0.0840
 2832SOL    HW119955   2.848   2.520   3.480  2.1113  0.2105 -1.2346
 2832SOL    HW219956   2.900   2.645   3.536  0.6638  0.1070  0.4277
 2833SOL     OW19957   0.831   3.033   2.905  0.2967  0.2714  0.5299
 2833SOL    HW119958   0.777   2.994   2.836 -1.3186  2.0442  0.7677
 2833SOL    HW219959   0.877   3.103   2.858  0.1357 -0.2834 -0.4601
 2834SOL     OW19960   2.230   3.190   9.125 -0.2529 -0.0433 -0.4341
 2834SOL    HW119961   2.269   3.199   9.212  0.8536 -1.0310 -0.8231
 2834SOL    HW219962   2.255   3.099   9.105  0.3328  0.1509 -0.5847
 2835SOL     OW19963   0.504   3.053   4.538 -0.1296  0.2065 -0.1877
 2835SOL    HW119964   0.577   3.018   4.590  1.3606 -0.3722 -2.6279
 2835SOL    HW219965   0.543   3.055   4.450 -2.5273  2.8847 -1.1732
 2836SOL     OW19966   1.805   2.489   0.637  0.3033  0.3398 -0.0007
 2836SOL    HW119967   1.780   2.558   0.698  1.4890  1.5239 -0.8741
 2836SOL    HW219968   1.844   2.541   0.568  0.0809 -1.5526 -1.5617
 2837SOL     OW19969   2.681   0.623  10.095  0.4690 -0.0510 -0.2950
 2837SOL    HW119970   2.762   0.671  10.111  0.4267  1.3413 -4.2631
 2837SOL    HW219971   2.643   0.655  10.177 -1.3458  0.8478 -1.4866
 2838SOL     OW19972   3.902   3.887   8.216  0.1586 -0.5322 -0.3991
 2838SOL    HW119973   3.883   3.846   8.300  0.1351  1.1216  0.4125
 2838SOL    HW219974   3.955   3.964   8.239 -0.7387 -0.4048  1.2525
 2839SOL     OW19975   2.462   0.497   4.080  0.1662 -0.2651 -0.5263
 2839SOL    HW119976   2.443   0.439   4.006 -0.8527  2.1459 -2.1505
 2839SOL    HW219977   2.405   0.454   4.144 -0.0679  0.2432 -0.3914
 2840SOL     OW19978   4.587   2.768   6.750 -0.3403 -0.4348 -0.0111
 2840SOL    HW119979   4.580   2.844   6.692 -3.3748  0.3114  1.3401
 2840SOL    HW219980   4.664   2.784   6.804 -0.4907  1.4356 -0.3692
 2841SOL     OW19981   3.925   3.557   4.862 -0.6408 -0.0228 -0.0778
 2841SOL    HW119982   3.949   3.479   4.811  2.5015 -0.0923  1.5404
 2841SOL    HW219983   3.988   3.618   4.825 -1.6914  1.0036 -0.1634
 2842SOL     OW19984   3.921   3.183   7.059 -0.0836 -0.6052  0.3079
 2842SOL    HW119985   3.967   3.134   7.127 -0.5927 -0.1327  0.9871
 2842SOL    HW219986   3.926   3.261   7.115 -2.9076 -0.8024  0.8443
 2843SOL     OW19987   0.766   0.087  13.284 -0.0676  0.2920 -0.6834
 2843SOL    HW119988   0.814   0.033  13.221 -1.2938  0.3776 -1.6956
 2843SOL    HW219989   0.815   0.072  13.364  0.4825 -0.3750 -1.1402
 2844SOL     OW19990   1.415   0.962  14.625  0.2093 -0.3790 -0.0640
 2844SOL    HW119991   1.444   1.028  14.688 -0.3397 -0.9956  0.8223
 2844SOL    HW219992   1.392   1.018  14.551 -1.3520 -2.3461 -1.0802
 2845SOL     OW19993   4.001   1.042   6.973  0.2368 -0.2890 -0.5621
 2845SOL    HW119994   3.955   1.064   6.892 -2.1351 -0.7511  0.6719
 2845SOL    HW219995   3.952   1.088   7.041 -1.6163 -2.8945 -0.1204
 2846SOL     OW19996   1.873   1.482  10.418 -0.0927  0.2191  0.0073
 2846SOL    HW119997   1.966   1.505  10.418 -0.1547  0.4602  0.6162
 2846SOL    HW219998   1.842   1.567  10.387 -1.1980 -0.1753  0.0239
 2847SOL     OW19999   1.407   1.510  14.086  0.3289  0.1567  0.5877
 2847SOL    HW120000   1.353   1.542  14.014  0.8408 -1.5556 -0.5667
 2847SOL    HW220001   1.349   1.518  14.162  1.3435 -0.0758  1.3738
 2848SOL     OW20002   3.108   4.419   4.587  0.1427  0.0965 -0.3707
 2848SOL    HW120003   3.098   4.360   4.513  0.4016 -0.3038 -0.0882
 2848SOL    HW220004   3.196   4.389   4.613 -0.6674 -1.2317  0.8530
 2849SOL     OW20005   0.794   4.342   3.012 -0.9507 -0.4452 -0.1582
 2849SOL    HW120006   0.780   4.435   3.030 -0.9478 -0.6971  1.0862
 2849SOL    HW220007   0.770   4.351   2.919  0.6845  0.0396 -0.5256
 2850SOL     OW20008   0.283   0.778   4.059 -0.1757  0.3017 -0.2447
 2850SOL    HW120009   0.313   0.865   4.032 -0.3153  0.2001 -0.7342
 2850SOL    HW220010   0.277   0.719   3.984  1.9153  0.6478 -0.6687
 2851SOL     OW20011   2.574   3.612   6.333  0.8382 -0.1144  0.4461
 2851SOL    HW120012   2.611   3.699   6.345  0.4893  0.0078  0.6477
 2851SOL    HW220013   2.628   3.568   6.398  1.5979 -0.8357 -0.6856
 2852SOL     OW20014   3.968   1.582   6.131  0.0195 -0.6608  0.1313
 2852SOL    HW120015   3.961   1.602   6.225 -0.3449 -2.5807  0.5113
 2852SOL    HW220016   3.945   1.491   6.118 -0.7599  0.0949 -3.6452
 2853SOL     OW20017   4.463   2.703  17.050  0.3637 -0.1253  0.0941
 2853SOL    HW120018   4.454   2.775  17.112  0.9510 -0.7101  0.8673
 2853SOL    HW220019   4.386   2.722  16.997  0.9969  0.6397 -0.5353
 2854SOL     OW20020   4.222   3.190   5.622  0.1876 -0.2041  0.0748
 2854SOL    HW120021   4.269   3.139   5.555 -3.7017 -1.4910 -1.6481
 2854SOL    HW220022   4.227   3.124   5.691  0.7558 -0.3673 -0.1209
 2855SOL     OW20023   1.327   0.963   5.550 -0.1058  0.1225  0.3642
 2855SOL    HW120024   1.367   1.048   5.537 -0.9415  0.6211  1.0789
 2855SOL    HW220025   1.275   0.956   5.470  1.1395 -0.6921 -0.3808
 2856SOL     OW20026   4.281   1.410   6.697  0.3371  0.4514  0.0625
 2856SOL    HW120027   4.367   1.368   6.708 -0.3376 -1.0544 -0.4701
 2856SOL    HW220028   4.230   1.341   6.654 -0.4573 -0.6318  2.7500
 2857SOL     OW20029   2.388   0.213   1.836 -0.2313  0.0963 -0.1028
 2857SOL    HW120030   2.299   0.229   1.868  0.6657 -1.4945  3.1248
 2857SOL    HW220031   2.383   0.121   1.811 -2.8698  0.2012  0.0237
 2858SOL     OW20032   2.922   4.545   8.542  0.1075  0.7951 -0.0645
 2858SOL    HW120033   2.881   4.474   8.592 -0.5642  0.5664 -0.9440
 2858SOL    HW220034   2.968   4.494   8.475 -0.3296  0.8853 -0.4378
 2859SOL     OW20035   0.138   4.701   2.657  0.0122 -0.1125  0.8625
 2859SOL    HW120036   0.149   0.061   2.611  0.5517  0.3092  1.7516
 2859SOL    HW220037   0.070   4.714   2.723  1.4057  2.4114  1.8137
 2860SOL     OW20038   4.372   1.659  11.714 -0.1465 -0.2165 -0.6475
 2860SOL    HW120039   4.458   1.642  11.752 -0.3068  1.9171  0.6613
 2860SOL    HW220040   4.343   1.572  11.687  1.8183 -0.2681 -2.5848
 2861SOL     OW20041   2.977   4.707  15.757 -0.6623 -0.0690 -0.5205
 2861SOL    HW120042   3.069   4.688  15.739 -1.4743 -1.8794 -2.8574
 2861SOL    HW220043   2.932   4.653  15.692 -1.6371  1.2546 -0.9255
 2862SOL     OW20044   3.678   1.404  15.728  0.0423 -0.1403  0.2607
 2862SOL    HW120045   3.649   1.493  15.710 -2.0001 -1.4130 -2.7575
 2862SOL    HW220046   3.599   1.354  15.707  0.0699 -0.0941  0.0402
 2863SOL     OW20047   0.397   0.205   8.587 -0.1931  0.0987 -0.1944
 2863SOL    HW120048   0.303   0.214   8.575  0.0468  1.7779 -0.8173
 2863SOL    HW220049   0.396   0.110   8.600 -0.4950  0.2227  0.7196
 2864SOL     OW20050   1.728   0.649   7.381  0.3289 -0.0986  0.0326
 2864SOL    HW120051   1.762   0.566   7.349  3.1197  1.0918 -0.1618
 2864SOL    HW220052   1.688   0.693   7.305  2.3078 -0.6747 -1.3419
 2865SOL     OW20053   1.937   1.330   3.510  0.5062 -0.2281 -0.2069
 2865SOL    HW120054   1.988   1.284   3.443  1.9229  1.4822 -0.3120
 2865SOL    HW220055   1.860   1.351   3.459  0.9839  0.6591 -0.5491
 2866SOL     OW20056   0.323   2.249   7.149 -0.2865  0.0007  0.3415
 2866SOL    HW120057   0.266   2.224   7.221 -0.0793 -2.5156 -0.3605
 2866SOL    HW220058   0.266   2.248   7.071  0.5793  1.9014 -0.3138
 2867SOL     OW20059   2.767   2.770   5.046  0.7856 -0.6786  0.3347
 2867SOL    HW120060   2.800   2.856   5.072 -0.1570  0.0719 -0.9630
 2867SOL    HW220061   2.808   2.714   5.112 -1.6049  0.0868  2.4376
 2868SOL     OW20062   4.592   3.523  17.421  0.2260 -1.0043  0.2168
 2868SOL    HW120063   4.584   3.591  17.354  0.3386 -0.6491  0.5612
 2868SOL    HW220064   4.499   3.502  17.421  0.0820 -0.3790 -0.3360
 2869SOL     OW20065   2.904   2.821   3.527 -0.6050 -0.3550  0.3334
 2869SOL    HW120066   2.958   2.878   3.582  0.6756 -0.5723 -0.6783
 2869SOL    HW220067   2.821   2.869   3.533 -1.1036 -1.1465 -0.3035
 2870SOL     OW20068   2.548   1.755   0.685  0.0680 -0.2689  0.6516
 2870SOL    HW120069   2.457   1.724   0.679  0.3941 -1.2996  0.9535
 2870SOL    HW220070   2.534   1.849   0.675  1.1033  0.0404  2.1037
 2871SOL     OW20071   4.162   2.723   7.277 -0.4071 -0.2971 -0.4216
 2871SOL    HW120072   4.167   2.747   7.184  0.1917 -0.8803 -0.5358
 2871SOL    HW220073   4.136   2.631   7.277 -0.4514 -0.2794  0.9958
 2872SOL     OW20074   4.188   2.844   6.144 -0.6831 -0.0819  0.0130
 2872SOL    HW120075   4.140   2.826   6.225 -0.8015 -0.9109 -0.2412
 2872SOL    HW220076   4.274   2.850   6.185 -1.4174 -0.3643  1.5995
 2873SOL     OW20077   3.497   4.125   2.244  0.0787  0.4773  0.2204
 2873SOL    HW120078   3.572   4.065   2.245  0.8259  1.4093  0.0222
 2873SOL    HW220079   3.431   4.060   2.267  0.4407 -0.1979 -0.6319
 2874SOL     OW20080   3.275   0.299  15.439 -0.1224  0.2414  0.2173
 2874SOL    HW120081   3.235   0.323  15.522 -0.3800  0.8655 -0.0847
 2874SOL    HW220082   3.317   0.383  15.420  0.8574 -0.3117 -0.0505
 2875SOL     OW20083   3.929   0.541  15.739 -0.0801 -0.2938  0.1461
 2875SOL    HW120084   3.889   0.482  15.674  1.0561  1.0148 -1.7343
 2875SOL    HW220085   3.942   0.482  15.813  1.3496 -0.2607 -0.0942
 2876SOL     OW20086   3.137   0.597   4.485 -0.0435 -0.3598  0.2165
 2876SOL    HW120087   3.138   0.693   4.494  0.2634 -0.3291 -0.1908
 2876SOL    HW220088   3.129   0.583   4.391 -0.7610  1.5602 -0.0044
 2877SOL     OW20089   4.401   3.864   1.656  0.1211 -0.3566  0.0428
 2877SOL    HW120090   4.330   3.910   1.613 -1.6189 -2.1027  1.0197
 2877SOL    HW220091   4.373   3.775   1.635 -0.2941  0.0379 -1.0237
 2878SOL     OW20092   4.597   1.910   6.014 -0.3040  0.3435 -0.2521
 2878SOL    HW120093   4.529   1.959   6.060  1.7389  0.8222  2.2200
 2878SOL    HW220094   4.651   1.883   6.088  0.8930 -0.9203 -1.5909
 2879SOL     OW20095   1.511   0.800   6.315 -0.0233 -0.0161  0.5357
 2879SOL    HW120096   1.427   0.766   6.285  0.1904 -0.7921  0.8068
 2879SOL    HW220097   1.489   0.885   6.353  1.7714 -0.0477  1.6620
 2880SOL     OW20098   1.692   0.432  14.380 -0.5946  0.2992 -0.4309
 2880SOL    HW120099   1.651   0.470  14.458 -1.3271 -1.7284  0.1624
 2880SOL    HW220100   1.725   0.345  14.401 -1.0104  0.0356 -0.8713
 2881SOL     OW20101   0.226   0.275  12.524  0.1788  0.0977 -0.1316
 2881SOL    HW120102   0.286   0.348  12.542 -1.8457  1.4080  1.3243
 2881SOL    HW220103   0.244   0.273  12.431 -0.5962 -1.8222 -0.2258
 2882SOL     OW20104   2.563   0.859  14.664  0.1232  0.5196 -0.6120
 2882SOL    HW120105   2.606   0.853  14.578 -1.7576 -3.9841 -1.2676
 2882SOL    HW220106   2.599   0.945  14.684 -0.5778  0.5092  0.6473
 2883SOL     OW20107   1.672   1.288   9.510 -0.5918 -0.3183 -0.8041
 2883SOL    HW120108   1.612   1.336   9.453 -0.3487  0.3096 -0.5364
 2883SOL    HW220109   1.723   1.231   9.453 -0.6376 -0.5496 -0.6085
 2884SOL     OW20110   3.761   3.032  10.664  0.0288 -0.2516 -0.1586
 2884SOL    HW120111   3.706   3.054  10.740 -1.8221 -2.9466 -0.6789
 2884SOL    HW220112   3.818   2.973  10.714 -1.1254 -0.9261  0.3841
 2885SOL     OW20113   3.066   2.876  12.580 -0.6681  0.4141  0.3511
 2885SOL    HW120114   3.037   2.962  12.611 -4.7039 -0.5365 -0.8130
 2885SOL    HW220115   3.076   2.834  12.666  0.7318  0.3827  0.1781
 2886SOL     OW20116   1.881   2.265   0.493 -0.1105 -0.0645 -0.4026
 2886SOL    HW120117   1.845   2.326   0.558  2.8891  0.0252  1.1816
 2886SOL    HW220118   1.829   2.191   0.523  0.2068 -0.9476 -2.0421
 2887SOL     OW20119   3.111   0.586   4.196  0.1328 -0.3346 -0.3683
 2887SOL    HW120120   3.029   0.537   4.187 -0.8479  1.2978 -0.2048
 2887SOL    HW220121   3.104   0.649   4.125 -0.7628  2.5517  2.2801
 2888SOL     OW20122   0.983   4.469   9.252  0.3136  0.1144 -0.0639
 2888SOL    HW120123   0.997   4.464   9.157 -1.5001  1.1100 -0.3727
 2888SOL    HW220124   0.952   4.559   9.254 -0.6763 -0.2391  0.1284
 2889SOL     OW20125   1.395   4.704   4.891 -0.3025  0.1471 -0.3691
 2889SOL    HW120126   1.447   4.695   4.811  1.5300  2.2117  0.5734
 2889SOL    HW220127   1.306   0.004   4.863 -1.0268  0.4252  2.1812
 2890SOL     OW20128   0.858   2.315   3.786 -0.3568 -0.0683 -0.4509
 2890SOL    HW120129   0.782   2.334   3.841 -0.3379  1.6822 -1.0196
 2890SOL    HW220130   0.824   2.241   3.735  1.2991  1.6307 -4.0792
 2891SOL     OW20131   0.328   1.685  17.127  0.1631 -0.4361 -0.7037
 2891SOL    HW120132   0.268   1.626  17.173 -1.7378  1.4344 -0.8248
 2891SOL    HW220133   0.407   1.656  17.174  0.4524  1.0062 -0.3099
 2892SOL     OW20134   2.748   0.639   1.336 -0.2160 -0.1935 -0.1511
 2892SOL    HW120135   2.671   0.640   1.279  1.1777 -0.8591 -2.0313
 2892SOL    HW220136   2.748   0.732   1.358 -2.6982 -0.7862  2.3667
 2893SOL     OW20137   1.617   1.710  17.340 -0.4092 -0.3636  0.4525
 2893SOL    HW120138   1.594   1.726  17.249 -0.1462 -1.5033  0.1821
 2893SOL    HW220139   1.648   1.799  17.356  0.6486 -0.7234  0.3753
 2894SOL     OW20140   1.425   1.099  15.433  0.4067 -0.1514  0.1796
 2894SOL    HW120141   1.400   1.127  15.345 -2.5654 -1.2039  0.6862
 2894SOL    HW220142   1.347   1.047  15.452 -0.8797  1.4076 -0.8370
 2895SOL     OW20143   2.357   2.168  10.887  0.4714  0.5371 -0.1395
 2895SOL    HW120144   2.364   2.117  10.968  0.9159 -0.0501 -0.5467
 2895SOL    HW220145   2.266   2.195  10.898  0.4886  0.8722 -0.8191
 2896SOL     OW20146   3.258   4.562   4.364 -0.1399  0.2237  0.6213
 2896SOL    HW120147   3.235   4.518   4.282  0.5691 -0.1601  0.6313
 2896SOL    HW220148   3.347   4.584   4.336 -1.6475  1.9981 -2.8154
 2897SOL     OW20149   0.091   2.390   3.893 -0.0367  0.0627  0.9229
 2897SOL    HW120150   0.046   2.421   3.972 -0.2441  0.8228  0.5125
 2897SOL    HW220151   0.179   2.422   3.910  0.6402 -0.1143 -2.1846
 2898SOL     OW20152   4.037   4.352  16.528  0.2495  0.2689  0.2044
 2898SOL    HW120153   3.983   4.274  16.539 -0.8654  0.9656 -0.3039
 2898SOL    HW220154   4.102   4.317  16.467  0.9326 -1.2819  1.8202
 2899SOL     OW20155   3.466   1.072  12.495  0.0419  0.0388 -0.3836
 2899SOL    HW120156   3.474   1.054  12.588  1.1751  1.5727 -0.1684
 2899SOL    HW220157   3.557   1.052  12.470 -0.2330 -0.0294 -1.3441
 2900SOL     OW20158   1.676   4.165  13.204  0.2152  0.7007  0.1789
 2900SOL    HW120159   1.731   4.196  13.131 -1.2315  0.3260 -1.0729
 2900SOL    HW220160   1.669   4.239  13.263  0.6893  0.8232  0.0800
 2901SOL     OW20161   2.480   0.432   1.138 -0.3947 -0.2353 -0.1764
 2901SOL    HW120162   2.404   0.375   1.144 -1.4071  0.9055 -2.0678
 2901SOL    HW220163   2.529   0.380   1.074  0.9250  2.3602 -1.2726
 2902SOL     OW20164   2.970   1.751   6.680 -0.1679 -0.6291  0.0267
 2902SOL    HW120165   2.956   1.777   6.588 -0.7280 -0.3379  0.1899
 2902SOL    HW220166   2.954   1.657   6.678 -0.7210 -0.5410  0.2602
 2903SOL     OW20167   4.314   3.231   9.280  0.2293 -0.1418 -0.2825
 2903SOL    HW120168   4.393   3.177   9.286  1.2521  1.2101 -1.4162
 2903SOL    HW220169   4.252   3.184   9.224 -4.0075  3.6018  1.3690
 2904SOL     OW20170   2.385   2.248   7.777 -0.6352 -0.2549 -0.0752
 2904SOL    HW120171   2.427   2.169   7.810  0.5641  1.2774  2.0582
 2904SOL    HW220172   2.297   2.210   7.777 -0.9607  0.4988 -0.0811
 2905SOL     OW20173   1.452   1.568   2.368 -0.1119  0.3505 -0.6762
 2905SOL    HW120174   1.363   1.586   2.399  0.0163 -1.2975  0.6863
 2905SOL    HW220175   1.484   1.522   2.445  0.4238 -0.3042 -1.2910
 2906SOL     OW20176   3.607   3.405  12.194  0.2232  0.7108 -0.3921
 2906SOL    HW120177   3.613   3.492  12.154 -0.0938  0.3543 -1.2114
 2906SOL    HW220178   3.532   3.362  12.154  1.4495 -0.2988 -1.6211
 2907SOL     OW20179   3.627   0.767  12.678 -0.5325 -0.0501  0.3718
 2907SOL    HW120180   3.561   0.730  12.620  2.1632 -2.1439 -1.3176
 2907SOL    HW220181   3.711   0.729  12.652 -0.5261  0.7308 -0.7219
 2908SOL     OW20182   0.458   2.136   7.948 -0.6981 -0.0516  0.6423
 2908SOL    HW120183   0.415   2.171   8.026  0.1075  0.0132  1.0547
 2908SOL    HW220184   0.543   2.180   7.950 -0.2287 -1.0113  1.7460
 2909SOL     OW20185   1.481   0.733  12.983  0.8289  0.2830  0.1835
 2909SOL    HW120186   1.516   0.649  12.952 -0.4182 -0.2154  0.1177
 2909SOL    HW220187   1.471   0.779  12.900 -4.0629  0.7008  0.9946
 2910SOL     OW20188   3.841   3.777   7.417 -0.2992 -0.1178  0.7544
 2910SOL    HW120189   3.781   3.713   7.377  1.4462 -1.3025  0.0251
 2910SOL    HW220190   3.865   3.727   7.495 -1.3285 -0.3078  0.9519
 2911SOL     OW20191   4.670   2.703  12.762  0.3373 -0.0306 -0.1252
 2911SOL    HW120192   4.652   2.793  12.737 -0.5078  0.0635  0.8149
 2911SOL    HW220193   4.588   2.683  12.808  1.2213  1.4751  2.1123
 2912SOL     OW20194   1.475   4.499   5.193 -0.4671  0.0964 -0.1602
 2912SOL    HW120195   1.428   4.579   5.171  0.0299  1.0593  2.2332
 2912SOL    HW220196   1.564   4.522   5.223  0.3299  0.6681 -2.9823
 2913SOL     OW20197   3.689   3.875   2.963  0.3173  0.1629  0.2214
 2913SOL    HW120198   3.716   3.964   2.942 -1.8546  0.8074  0.1495
 2913SOL    HW220199   3.752   3.824   2.911  0.1409  0.9462 -0.7771
 2914SOL     OW20200   0.918   2.123   4.990  0.4585 -0.2015  0.0865
 2914SOL    HW120201   0.960   2.174   4.920 -0.9419  0.9789  0.0855
 2914SOL    HW220202   0.927   2.037   4.949  0.4925 -0.9231  1.6309
 2915SOL     OW20203   0.335   2.607  10.684 -0.0313 -0.1375  0.0186
 2915SOL    HW120204   0.425   2.579  10.698 -0.1488 -1.7678 -2.3454
 2915SOL    HW220205   0.320   2.614  10.589  3.1044  0.8850 -0.4069
 2916SOL     OW20206   4.506   2.358  10.094 -0.4909 -0.1811  0.9210
 2916SOL    HW120207   4.582   2.303  10.081 -0.3830  0.7249 -2.1304
 2916SOL    HW220208   4.507   2.392  10.005  0.1231 -0.5884  0.7771
 2917SOL     OW20209   2.314   4.181   7.498  0.0238  0.0471 -0.1878
 2917SOL    HW120210   2.374   4.131   7.443  1.3630 -1.1441  2.3747
 2917SOL    HW220211   2.345   4.156   7.585  1.4590 -1.3970 -1.0996
 2918SOL     OW20212   2.803   2.962   5.281  0.1900 -0.0176  0.2333
 2918SOL    HW120213   2.878   2.972   5.341 -0.2219  0.0970  0.7300
 2918SOL    HW220214   2.757   2.894   5.329 -1.1204  0.7112  0.0222
 2919SOL     OW20215   0.617   0.216  15.617  0.2595  0.7126  0.2615
 2919SOL    HW120216   0.686   0.157  15.587 -0.3714  0.2748 -0.3250
 2919SOL    HW220217   0.667   0.297  15.629  0.7369  0.2519  1.3011
 2920SOL     OW20218   0.737   2.697   0.825  0.2421  0.1811  0.1503
 2920SOL    HW120219   0.735   2.769   0.761 -0.9833  0.2376  0.2635
 2920SOL    HW220220   0.698   2.626   0.775  1.5443  0.0697 -0.7338
 2921SOL     OW20221   3.038   0.931   6.189 -0.0927  0.0188 -0.1647
 2921SOL    HW120222   3.043   1.026   6.185  2.5268 -0.1385 -0.6415
 2921SOL    HW220223   2.990   0.904   6.111 -0.1622 -1.7545  0.4982
 2922SOL     OW20224   2.153   2.847   8.860  0.1334  0.3086  0.1834
 2922SOL    HW120225   2.192   2.882   8.940 -0.2846 -1.7557  1.2945
 2922SOL    HW220226   2.227   2.826   8.804 -0.2613  0.8129 -0.5218
 2923SOL     OW20227   3.639   1.100   4.860 -0.2501 -0.4673  0.1570
 2923SOL    HW120228   3.592   1.092   4.942  0.6531 -1.1589  0.6169
 2923SOL    HW220229   3.714   1.155   4.882 -1.0521  1.0086 -0.8536
 2924SOL     OW20230   3.641   4.439  16.361 -0.2086  0.1951 -0.4935
 2924SOL    HW120231   3.613   4.471  16.275  2.1602 -0.5390 -1.5487
 2924SOL    HW220232   3.577   4.473  16.423 -2.2521 -1.9384 -1.4470
 2925SOL     OW20233   2.183   4.171  12.358 -0.6812 -0.4673  0.4054
 2925SOL    HW120234   2.237   4.136  12.287 -1.0764  0.0682 -0.1601
 2925SOL    HW220235   2.093   4.170  12.326 -0.7288  1.5699  0.4804
 2926SOL     OW20236   0.880   3.683   2.175  0.2769 -0.5118 -0.3117
 2926SOL    HW120237   0.836   3.768   2.179  1.1008 -0.0233 -1.4570
 2926SOL    HW220238   0.915   3.691   2.086  0.1951  0.0515 -0.2971
 2927SOL     OW20239   0.152   1.939  13.623  0.2931  0.1468  0.4409
 2927SOL    HW120240   0.107   1.982  13.550  0.4110 -0.2890  0.1200
 2927SOL    HW220241   0.237   1.982  13.624  0.6524 -0.6177  2.5090
 2928SOL     OW20242   3.648   2.533   7.346  0.0463 -0.1083  0.2198
 2928SOL    HW120243   3.642   2.520   7.441 -1.2287 -2.1892 -0.1417
 2928SOL    HW220244   3.723   2.590   7.332  0.3731 -0.8533 -1.0472
 2929SOL     OW20245   1.084   2.163   6.005 -0.9356  0.5745 -0.1386
 2929SOL    HW120246   1.015   2.223   5.976  0.6699  1.8806 -1.2614
 2929SOL    HW220247   1.165   2.213   6.001 -1.0929  1.1023  3.2938
 2930SOL     OW20248   2.362   0.611   1.683 -0.3228  0.1531 -0.5343
 2930SOL    HW120249   2.292   0.625   1.620 -0.4339 -0.2483 -0.5000
 2930SOL    HW220250   2.395   0.701   1.687 -0.6623  0.2673 -0.3324
 2931SOL     OW20251   1.363   3.521  12.215  0.5132 -0.5396  0.5336
 2931SOL    HW120252   1.305   3.562  12.151 -0.0746  0.0122  1.4218
 2931SOL    HW220253   1.306   3.531  12.292  1.1716 -0.0296  0.9610
 2932SOL     OW20254   0.202   1.097   4.203 -0.4537  0.2049  0.3036
 2932SOL    HW120255   0.270   1.056   4.149 -1.9594 -0.4216 -1.1208
 2932SOL    HW220256   0.120   1.075   4.159 -1.0763  2.3985  0.4148
 2933SOL     OW20257   3.993   1.826   0.763 -0.1521  0.0392 -1.2135
 2933SOL    HW120258   3.924   1.804   0.826  0.4858  0.3639 -0.4097
 2933SOL    HW220259   3.938   1.821   0.684  0.6263 -0.0387 -1.7510
 2934SOL     OW20260   1.461   1.403   6.456 -0.6225  0.4824 -0.2574
 2934SOL    HW120261   1.419   1.318   6.445  2.0770 -1.0246  1.1266
 2934SOL    HW220262   1.402   1.471   6.422 -0.5678  0.6291 -0.0618
 2935SOL     OW20263   0.047   1.301  14.090 -0.0254  0.1906 -0.1556
 2935SOL    HW120264   0.125   1.325  14.140 -0.7028  2.7985 -0.3470
 2935SOL    HW220265   0.043   1.372  14.026 -1.7369 -0.4883 -0.8067
 2936SOL     OW20266   0.827   4.422  15.924 -0.1029 -0.7726  0.1393
 2936SOL    HW120267   0.906   4.477  15.921 -0.4834 -0.1844  1.0604
 2936SOL    HW220268   0.799   4.427  15.833  1.9090 -0.8494 -0.4823
 2937SOL     OW20269   1.411   4.175  15.548  0.1521  0.7952  0.1502
 2937SOL    HW120270   1.474   4.234  15.588 -0.9348  1.3343  1.0733
 2937SOL    HW220271   1.428   4.091  15.591 -1.1960 -0.0212 -0.8899
 2938SOL     OW20272   4.221   0.525   2.055  0.0328  0.0138  0.0216
 2938SOL    HW120273   4.229   0.533   1.960 -1.0548  2.4686  0.1321
 2938SOL    HW220274   4.314   0.536   2.076 -0.5929  2.2292  1.6830
 2939SOL     OW20275   3.553   0.087   8.879  1.0223 -0.1582 -0.5492
 2939SOL    HW120276   3.577   0.096   8.786  1.4788  1.5740 -0.2573
 2939SOL    HW220277   3.464   0.053   8.873  1.4680 -1.5473  0.7653
 2940SOL     OW20278   4.619   1.921  12.440 -0.0755 -0.0426  0.2478
 2940SOL    HW120279   4.700   1.964  12.413  0.5050 -0.1571  1.8003
 2940SOL    HW220280   4.582   1.995  12.488 -1.9217  1.0884 -2.9377
 2941SOL     OW20281   2.387   3.885   9.266 -0.4924 -0.2016 -0.4146
 2941SOL    HW120282   2.369   3.918   9.354  0.4999 -1.1524  0.1451
 2941SOL    HW220283   2.463   3.831   9.288 -1.7417 -2.7135 -2.2481
 2942SOL     OW20284   2.809   0.897   3.396  0.2472 -0.1494  0.3897
 2942SOL    HW120285   2.862   0.945   3.332  0.4243 -0.4420  0.3166
 2942SOL    HW220286   2.834   0.807   3.374 -0.8417 -0.1989 -0.6243
 2943SOL     OW20287   0.946   4.132   8.329  0.7632  0.5183  0.0121
 2943SOL    HW120288   0.977   4.105   8.243  0.9062 -1.7724  0.7872
 2943SOL    HW220289   0.908   4.056   8.373  1.1456  1.0613  1.2964
 2944SOL     OW20290   0.653   2.218   7.388 -0.0245  0.8030 -0.1473
 2944SOL    HW120291   0.698   2.160   7.326  0.7243 -1.1154  2.1964
 2944SOL    HW220292   0.638   2.157   7.460  1.1506  0.9430  0.2000
 2945SOL     OW20293   2.172   2.951   8.174 -0.0760 -0.1979  0.1908
 2945SOL    HW120294   2.158   2.906   8.257  1.8081 -1.3285 -0.1150
 2945SOL    HW220295   2.197   3.038   8.207 -0.4584  0.4446 -1.1842
 2946SOL     OW20296   3.515   2.745   5.094 -0.2855 -0.5091 -0.1176
 2946SOL    HW120297   3.510   2.788   5.180 -1.0869  1.1801 -1.0089
 2946SOL    HW220298   3.606   2.770   5.077  0.0326 -2.0399 -0.6190
 2947SOL     OW20299   1.789   0.286   5.306 -0.0934 -0.7072 -0.2732
 2947SOL    HW120300   1.713   0.255   5.356 -0.5215  1.9862  0.7969
 2947SOL    HW220301   1.851   0.310   5.375 -1.1673  1.2150  0.0268
 2948SOL     OW20302   2.622   0.597  12.248 -0.0839 -0.1850 -0.0259
 2948SOL    HW120303   2.577   0.654  12.311 -0.1364 -0.6948  0.3984
 2948SOL    HW220304   2.711   0.614  12.278 -0.8450 -1.5270  2.9355
 2949SOL     OW20305   3.082   4.495   7.401  0.1779 -0.4315 -0.0033
 2949SOL    HW120306   3.146   4.559   7.366 -1.1365 -0.2175 -2.0408
 2949SOL    HW220307   3.130   4.453   7.472  2.1989  0.6221 -0.7169
 2950SOL     OW20308   4.145   1.639  10.344 -0.5524 -0.0935  0.2246
 2950SOL    HW120309   4.117   1.694  10.418 -0.8506 -0.0926  0.1147
 2950SOL    HW220310   4.129   1.703  10.274 -0.6104  1.6071  1.7673
 2951SOL     OW20311   1.290   4.258   4.270 -0.1773  0.4970  0.3935
 2951SOL    HW120312   1.346   4.304   4.206 -5.0604 -0.0570 -4.2955
 2951SOL    HW220313   1.259   4.328   4.327  1.6819  2.6116 -1.1529
 2952SOL     OW20314   1.264   2.242  10.823 -0.4180 -0.6500  0.4071
 2952SOL    HW120315   1.301   2.301  10.757 -0.7448 -0.6837  0.1973
 2952SOL    HW220316   1.202   2.188  10.775  2.0369 -2.5764 -0.5869
 2953SOL     OW20317   4.124   1.151   7.565  0.0724  0.3700 -0.0985
 2953SOL    HW120318   4.053   1.196   7.611 -1.1047 -0.8735 -0.7107
 2953SOL    HW220319   4.192   1.150   7.632 -0.2594  3.0145  0.2802
 2954SOL     OW20320   0.726   4.058  17.369  0.3291 -0.0685 -0.2721
 2954SOL    HW120321   0.695   4.034  17.281  1.3400 -1.5209 -0.2343
 2954SOL    HW220322   0.703   4.151  17.375 -1.9471 -0.6650  0.3459
 2955SOL     OW20323   2.870   4.155   1.256  0.5489  0.0109  0.5082
 2955SOL    HW120324   2.846   4.186   1.344  1.6368  1.0476  0.4405
 2955SOL    HW220325   2.965   4.159   1.262  0.4770  2.3907 -0.1996
 2956SOL     OW20326   0.245   0.136   1.496 -0.0709 -0.4903  0.1050
 2956SOL    HW120327   0.270   0.095   1.579 -0.5541 -0.3037  0.3439
 2956SOL    HW220328   0.152   0.155   1.494 -0.3551 -2.1301 -2.3319
 2957SOL     OW20329   3.925   1.493   3.970  0.1880 -0.3202  0.3966
 2957SOL    HW120330   4.000   1.529   3.923 -1.1613 -0.4813 -1.8885
 2957SOL    HW220331   3.949   1.400   3.968  2.3184  0.2889 -2.5157
 2958SOL     OW20332   2.013   1.571   6.303 -0.2105 -0.3565  0.4561
 2958SOL    HW120333   2.044   1.537   6.387 -1.0170 -0.9989  0.4957
 2958SOL    HW220334   1.948   1.635   6.331 -0.7394  0.0034 -1.6185
 2959SOL     OW20335   0.260   0.607  16.829 -0.0050 -0.1102  0.1263
 2959SOL    HW120336   0.331   0.656  16.786 -0.3377 -0.5140 -0.8886
 2959SOL    HW220337   0.203   0.678  16.857  0.3823  0.5213 -0.7018
 2960SOL     OW20338   2.661   1.556  16.710  0.3601 -0.2486 -0.2769
 2960SOL    HW120339   2.722   1.493  16.749 -0.2819 -0.5887  0.1781
 2960SOL    HW220340   2.688   1.633  16.761 -1.3132  0.3660 -0.3299
 2961SOL     OW20341   3.235   0.941   8.182 -0.3555  0.0173 -0.9578
 2961SOL    HW120342   3.235   0.965   8.274 -2.1716 -0.5026 -0.8313
 2961SOL    HW220343   3.219   1.028   8.146  1.5926  1.1885  0.9733
 2962SOL     OW20344   1.045   3.550   3.953  0.3923 -0.2132 -0.4648
 2962SOL    HW120345   1.012   3.474   3.904 -4.3857  0.8929  1.1187
 2962SOL    HW220346   1.137   3.527   3.963  0.1401 -0.8971  0.2767
 2963SOL     OW20347   3.739   1.190   7.876 -0.2497  0.3407  0.0882
 2963SOL    HW120348   3.736   1.102   7.914 -0.3970 -0.0673 -0.8651
 2963SOL    HW220349   3.704   1.179   7.788 -0.7264 -2.0987  0.5726
 2964SOL     OW20350   1.510   0.454   8.412 -0.4110  0.2891  0.0331
 2964SOL    HW120351   1.481   0.529   8.359 -0.5761 -1.1841 -1.9449
 2964SOL    HW220352   1.426   0.414   8.432  0.0786 -0.4306  0.6068
 2965SOL     OW20353   3.429   4.610   7.603  0.0236  0.5617 -0.2969
 2965SOL    HW120354   3.465   4.684   7.555 -1.4871  0.8632 -0.9837
 2965SOL    HW220355   3.375   4.658   7.666  0.9277 -0.1114  0.9947
 2966SOL     OW20356   0.347   2.297   6.837 -0.8969  0.8488 -0.2422
 2966SOL    HW120357   0.266   2.344   6.855 -0.9333  0.5823  0.2869
 2966SOL    HW220358   0.391   2.373   6.799 -1.6676  0.7581 -1.3097
 2967SOL     OW20359   0.287   1.678   3.386  0.5719  0.5953 -0.2656
 2967SOL    HW120360   0.330   1.687   3.301  2.9697  1.9250  1.0670
 2967SOL    HW220361   0.271   1.770   3.406  0.1083  0.2944  0.7281
 2968SOL     OW20362   0.976   2.620   6.194 -0.2205  0.0554  0.8449
 2968SOL    HW120363   0.998   2.570   6.274 -0.0066  0.8319  1.2693
 2968SOL    HW220364   1.065   2.652   6.177 -0.6345  1.0475  0.6112
 2969SOL     OW20365   0.935   2.106   4.302 -0.1314  0.4082  0.1285
 2969SOL    HW120366   0.986   2.166   4.355 -0.4180 -0.0834  0.9521
 2969SOL    HW220367   0.893   2.043   4.360  0.0879  0.9672  0.8855
 2970SOL     OW20368   4.396   4.274   1.468 -0.2948 -0.1804 -0.3601
 2970SOL    HW120369   4.478   4.226   1.466 -0.3291 -0.3660  2.8351
 2970SOL    HW220370   4.343   4.232   1.400  0.8187 -2.1256 -0.0244
 2971SOL     OW20371   3.159   0.064   5.705 -0.1794 -0.2194 -0.3334
 2971SOL    HW120372   3.080   0.117   5.697 -1.0453 -1.3541  0.6061
 2971SOL    HW220373   3.159   0.044   5.799  1.5842  0.3870 -0.1913
 2972SOL     OW20374   0.399   2.458  16.245 -0.2499 -0.3743 -0.8678
 2972SOL    HW120375   0.375   2.369  16.221 -1.5686  0.1006 -1.3040
 2972SOL    HW220376   0.358   2.457  16.331 -1.7646 -2.9924 -1.6098
 2973SOL     OW20377   4.326   1.747   3.910  0.0085 -0.1208 -0.5067
 2973SOL    HW120378   4.389   1.675   3.916 -0.8504 -0.7752  0.6624
 2973SOL    HW220379   4.336   1.768   3.817  0.1091 -0.3001 -0.5357
 2974SOL     OW20380   3.851   4.078   9.932 -0.1332 -0.0042  0.0807
 2974SOL    HW120381   3.789   4.007   9.948  1.9671 -1.5436  1.4058
 2974SOL    HW220382   3.902   4.092  10.012 -0.5978  0.9171  0.2136
 2975SOL     OW20383   1.342   2.322   3.708  0.2800  0.3314  0.3578
 2975SOL    HW120384   1.279   2.333   3.779 -1.4120 -0.3845 -1.0300
 2975SOL    HW220385   1.292   2.285   3.635  0.0863  1.5658 -0.1194
 2976SOL     OW20386   4.225   1.196   7.034  0.3721 -0.4071  0.4539
 2976SOL    HW120387   4.155   1.147   6.991 -0.0249  0.3331  0.2722
 2976SOL    HW220388   4.186   1.242   7.108 -0.8591  0.0496 -0.4797
 2977SOL     OW20389   3.857   3.868   7.177 -0.3569 -0.1236  0.4036
 2977SOL    HW120390   3.840   3.849   7.269  1.0559 -0.3183  0.6313
 2977SOL    HW220391   3.840   3.961   7.162  1.1463 -0.3105 -2.5518
 2978SOL     OW20392   2.232   3.988   8.347  0.0896  0.0922  0.1535
 2978SOL    HW120393   2.187   4.046   8.286  3.1940  2.1385 -0.1792
 2978SOL    HW220394   2.246   3.917   8.283 -1.3022  0.1485 -0.2056
 2979SOL     OW20395   3.655   4.642   2.876  1.1210  0.4953  0.2243
 2979SOL    HW120396   3.610   4.679   2.800  1.2560  2.7630  1.2730
 2979SOL    HW220397   3.718   4.709   2.900  1.3167  0.6970 -0.8829
 2980SOL     OW20398   3.276   3.327   1.944 -0.3249  0.7284  0.3129
 2980SOL    HW120399   3.367   3.318   1.970 -1.3192 -3.0207  2.4275
 2980SOL    HW220400   3.289   3.319   1.850  0.4811 -0.2711  0.5074
 2981SOL     OW20401   3.009   2.416   6.386 -0.1748 -0.2337  0.0840
 2981SOL    HW120402   3.028   2.417   6.292  0.4679 -2.6159  0.1991
 2981SOL    HW220403   3.039   2.503   6.411  1.3302 -0.2651 -1.5964
 2982SOL     OW20404   3.170   1.418   7.871  0.3975  0.2259  0.1129
 2982SOL    HW120405   3.212   1.447   7.790 -0.2485  1.2615  0.1526
 2982SOL    HW220406   3.096   1.372   7.832 -0.2215  0.8763  0.5293
 2983SOL     OW20407   2.744   3.645   1.796 -0.0214  0.2785 -0.2591
 2983SOL    HW120408   2.818   3.677   1.744  1.0893 -2.7434 -0.5095
 2983SOL    HW220409   2.749   3.707   1.869 -2.3251 -0.6715  0.7091
 2984SOL     OW20410   1.687   1.621   3.186 -0.5002  0.0719 -0.3783
 2984SOL    HW120411   1.709   1.657   3.100  3.0638  2.5549  1.5911
 2984SOL    HW220412   1.733   1.684   3.242 -0.8573  0.6337 -0.7135
 2985SOL     OW20413   2.453   1.493   6.527  0.2829  0.0861 -0.0547
 2985SOL    HW120414   2.449   1.530   6.439  1.5395 -1.4376 -0.7551
 2985SOL    HW220415   2.387   1.547   6.572 -0.8861  0.9883 -2.8661
 2986SOL     OW20416   1.538   0.048   6.906 -0.4734  0.2234  0.1409
 2986SOL    HW120417   1.591   4.692   6.922  0.4992  0.9311  0.3713
 2986SOL    HW220418   1.542   0.041   6.811  0.4904  0.3073  0.1729
 2987SOL     OW20419   2.677   4.352   4.220 -0.5775  0.2161  0.0729
 2987SOL    HW120420   2.692   4.362   4.126  1.2854 -1.8905  0.1496
 2987SOL    HW220421   2.649   4.441   4.239 -0.8117 -0.1190  1.3016
 2988SOL     OW20422   2.933   0.830   2.713  0.1544  0.3024 -0.0307
 2988SOL    HW120423   3.028   0.834   2.701  0.4707 -1.8753  1.6462
 2988SOL    HW220424   2.916   0.738   2.733 -1.7641  0.8173  0.7234
 2989SOL     OW20425   0.923   2.968   1.073  0.1609  0.4255  0.6919
 2989SOL    HW120426   0.842   2.983   1.121 -1.1615  0.1720 -1.4606
 2989SOL    HW220427   0.914   3.030   1.001 -1.5781  0.3236  0.8138
 2990SOL     OW20428   0.865   0.306   8.300 -0.1407  0.5388 -0.0005
 2990SOL    HW120429   0.898   0.227   8.342 -1.7910  0.2857  0.8350
 2990SOL    HW220430   0.892   0.368   8.368  0.5022 -3.5045  3.4494
 2991SOL     OW20431   3.281   3.576  12.825  0.6077  0.5674 -0.6097
 2991SOL    HW120432   3.325   3.554  12.743  1.7585  2.0249 -0.3874
 2991SOL    HW220433   3.342   3.534  12.885 -0.1255  0.1328 -0.1680
 2992SOL     OW20434   4.152   1.356   5.726 -0.2900 -0.3612 -0.7644
 2992SOL    HW120435   4.194   1.319   5.803 -0.8501  0.7640  0.0822
 2992SOL    HW220436   4.178   1.301   5.652  0.9921 -3.2921  1.8803
 2993SOL     OW20437   3.887   1.716  13.285  0.5318  0.4014 -0.0130
 2993SOL    HW120438   3.874   1.806  13.316  1.9224  0.3571  0.6811
 2993SOL    HW220439   3.965   1.721  13.231  1.4838 -1.5660  1.2097
 2994SOL     OW20440   0.599   0.634   1.885  0.0644  0.0467  0.0258
 2994SOL    HW120441   0.639   0.700   1.941  0.2644  0.3373 -0.4585
 2994SOL    HW220442   0.669   0.569   1.888  1.0248  1.0740 -0.0211
 2995SOL     OW20443   3.478   4.362  12.500 -0.0082  0.3204 -0.0166
 2995SOL    HW120444   3.546   4.338  12.438 -1.1868 -1.9143 -0.4508
 2995SOL    HW220445   3.410   4.383  12.437  0.3618  1.2512 -0.1013
 2996SOL     OW20446   3.454   2.676   7.800 -0.2686 -0.4175 -0.2366
 2996SOL    HW120447   3.364   2.693   7.828  0.0233  1.5379 -0.5366
 2996SOL    HW220448   3.507   2.663   7.879 -0.8948 -1.1472  0.0681
 2997SOL     OW20449   4.007   2.482   7.247 -0.2272  0.5865  0.7412
 2997SOL    HW120450   4.077   2.432   7.205  0.5035 -0.2324  2.9618
 2997SOL    HW220451   3.940   2.414   7.257 -0.8543  1.0759 -0.0995
 2998SOL     OW20452   1.342   3.959  10.297  0.5202 -0.0750  0.3987
 2998SOL    HW120453   1.360   3.962  10.203 -1.2486 -0.7387  0.0361
 2998SOL    HW220454   1.408   3.897  10.328 -3.0346 -3.9714  0.2188
 2999SOL     OW20455   2.067   0.787   9.621  0.3253  0.2166 -0.0243
 2999SOL    HW120456   2.085   0.693   9.618  0.6910  0.3134 -0.7707
 2999SOL    HW220457   2.013   0.791   9.543 -1.9162  2.5956  1.6284
 3000SOL     OW20458   1.547   2.144  17.395  0.3394  0.0622 -0.2464
 3000SOL    HW120459   1.625   2.193  17.369  1.1793 -1.0051  0.2686
 3000SOL    HW220460   1.506   2.122  17.312 -0.1998 -1.0250  0.3051
 3001SOL     OW20461   0.634   2.999   2.695  0.3721 -0.0118  0.0142
 3001SOL    HW120462   0.691   3.066   2.657  0.0868  1.1855  1.6665
 3001SOL    HW220463   0.548   3.043   2.697 -0.5781 -1.9016  0.9250
 3002SOL     OW20464   3.642   2.208   5.413  0.0129  0.7299  0.3790
 3002SOL    HW120465   3.642   2.299   5.381 -1.2719  1.1663  1.6366
 3002SOL    HW220466   3.737   2.198   5.421 -0.0040 -0.1245 -0.4569
 3003SOL     OW20467   1.837   4.251  10.227  0.8205 -0.0654  0.1372
 3003SOL    HW120468   1.772   4.317  10.203  1.0411 -0.2314 -0.8899
 3003SOL    HW220469   1.834   4.193  10.152  0.7604  0.9874 -0.6782
 3004SOL     OW20470   3.630   3.139  11.406  0.1425  0.1529 -0.8101
 3004SOL    HW120471   3.576   3.189  11.346  2.4200  3.0251 -0.4773
 3004SOL    HW220472   3.705   3.198  11.414 -0.5102  0.8318  0.3815
 3005SOL     OW20473   1.872   4.156   0.894 -0.9053 -0.0939  0.0038
 3005SOL    HW120474   1.874   4.081   0.953  1.8874  0.4286  0.5449
 3005SOL    HW220475   1.853   4.221   0.962 -2.1485 -1.7008  1.2116
 3006SOL     OW20476   4.402   3.810  10.724 -0.5102 -0.4952  0.1921
 3006SOL    HW120477   4.413   3.716  10.738  0.1219 -0.3502  0.6726
 3006SOL    HW220478   4.310   3.819  10.701 -0.6437 -0.4876  0.7342
 3007SOL     OW20479   1.078   1.163  16.392  0.2774  0.0555  0.1208
 3007SOL    HW120480   1.095   1.250  16.429  0.6813 -0.6097  1.5018
 3007SOL    HW220481   1.052   1.124  16.475 -1.3985  0.6792 -0.1012
 3008SOL     OW20482   0.548   1.483   8.676  0.0167 -0.2016 -0.7265
 3008SOL    HW120483   0.596   1.453   8.753 -2.4230 -0.1643  0.8289
 3008SOL    HW220484   0.495   1.407   8.652 -1.8219  0.1715  2.1175
 3009SOL     OW20485   4.202   4.200   6.932 -0.4063  0.1980 -0.2845
 3009SOL    HW120486   4.198   4.245   7.016 -1.7284 -0.7065  0.1395
 3009SOL    HW220487   4.294   4.220   6.917 -0.5718  2.1620  1.3310
 3010SOL     OW20488   2.177   0.059   3.297 -0.3099 -1.1993 -0.0461
 3010SOL    HW120489   2.203   0.039   3.207 -0.9917  1.4887 -0.8317
 3010SOL    HW220490   2.138   4.702   3.333 -1.7359 -0.0765  0.9154
 3011SOL     OW20491   0.437   4.020   8.658 -0.7211 -0.5916  0.1507
 3011SOL    HW120492   0.505   4.069   8.611  0.4797 -0.1694  2.3154
 3011SOL    HW220493   0.399   3.989   8.576  0.5849 -1.3844 -0.1530
 3012SOL     OW20494   4.641   0.035   5.178  0.2401 -0.0046  0.4396
 3012SOL    HW120495   0.009   0.005   5.186  0.5614  0.3513 -1.9362
 3012SOL    HW220496   4.644   0.128   5.200 -1.6222 -0.0023  0.6857
 3013SOL     OW20497   0.064   2.303   2.412  0.1324 -0.0809 -0.1635
 3013SOL    HW120498   0.126   2.319   2.341  1.1246 -3.0056  0.0391
 3013SOL    HW220499   0.119   2.265   2.481  2.1260 -0.4181 -1.9680
 3014SOL     OW20500   4.592   3.281  17.580  0.1861  0.8527 -0.6004
 3014SOL    HW120501   4.655   3.327  17.525  0.7372  2.2346  1.1658
 3014SOL    HW220502   4.636   3.286  17.665  0.2065  3.2702 -0.7387
 3015SOL     OW20503   1.994   0.260   7.508  0.7365 -0.2114  0.6839
 3015SOL    HW120504   1.937   0.187   7.482 -1.9602  2.0286  0.4131
 3015SOL    HW220505   1.989   0.254   7.603  2.4245 -0.2824  0.7838
 3016SOL     OW20506   4.490   2.752   8.261 -0.4700 -0.0382 -0.6046
 3016SOL    HW120507   4.552   2.689   8.226 -0.2031 -0.6394  0.9367
 3016SOL    HW220508   4.502   2.827   8.203  3.0212  0.0921  0.2912
 3017SOL     OW20509   1.833   1.458   8.784 -0.6733  0.2652 -0.1468
 3017SOL    HW120510   1.884   1.390   8.827 -0.3634  1.2682  1.0711
 3017SOL    HW220511   1.885   1.460   8.703 -0.9073 -0.3188 -0.3133
 3018SOL     OW20512   2.376   0.252   3.096 -0.1499  0.0340  0.1125
 3018SOL    HW120513   2.413   0.169   3.124 -1.6494 -0.5906  0.2567
 3018SOL    HW220514   2.404   0.305   3.171  0.4750 -0.1731  0.0248
 3019SOL     OW20515   1.776   0.726  13.822  0.1933  0.0991  0.1560
 3019SOL    HW120516   1.815   0.737  13.736  1.8544  0.2422  0.9230
 3019SOL    HW220517   1.705   0.664  13.801 -0.4509  1.4134 -1.4853
 3020SOL     OW20518   1.312   2.113  11.469 -0.6368 -0.3487 -0.2190
 3020SOL    HW120519   1.283   2.202  11.488 -0.0159 -0.3727  0.7948
 3020SOL    HW220520   1.357   2.093  11.551 -2.0858 -1.2103  0.3538
 3021SOL     OW20521   1.806   3.984   4.855  0.3346 -0.2079 -0.3905
 3021SOL    HW120522   1.805   3.995   4.950  1.6577 -1.4554 -0.2489
 3021SOL    HW220523   1.899   3.975   4.837  0.2818 -0.4934 -0.5243
 3022SOL     OW20524   1.640   4.148   1.262 -1.0871  0.2588  0.3760
 3022SOL    HW120525   1.578   4.220   1.270  0.3892  1.3310  2.1092
 3022SOL    HW220526   1.662   4.138   1.354  0.6109 -2.6088 -0.3468
 3023SOL     OW20527   3.135   3.958   4.138 -0.1404 -0.3286  0.7868
 3023SOL    HW120528   3.159   4.047   4.163 -3.1976  0.6643  0.1417
 3023SOL    HW220529   3.126   3.907   4.218  1.1917 -1.7588  0.0392
 3024SOL     OW20530   4.334   0.421   7.846 -0.6330 -0.3030 -0.3602
 3024SOL    HW120531   4.290   0.491   7.893  0.8473 -1.6027  2.8983
 3024SOL    HW220532   4.271   0.398   7.777 -0.6972 -1.8787  0.2240
 3025SOL     OW20533   1.219   3.251   7.237 -0.3896  0.0436  0.4538
 3025SOL    HW120534   1.265   3.210   7.310 -0.3437  1.0890  1.0080
 3025SOL    HW220535   1.130   3.263   7.270 -0.3236  1.3657  0.1338
 3026SOL     OW20536   4.285   4.219   9.186  0.3324  0.1890 -0.0470
 3026SOL    HW120537   4.357   4.202   9.247  0.0286  0.0808  0.2804
 3026SOL    HW220538   4.333   4.226   9.103  1.8478 -0.6215  0.7598
 3027SOL     OW20539   4.314   4.101  13.393  0.3378 -0.0493  0.1301
 3027SOL    HW120540   4.236   4.068  13.437 -0.5915  0.9090 -0.7790
 3027SOL    HW220541   4.273   4.083  13.309  1.3240 -2.3504  0.1603
 3028SOL     OW20542   4.026   4.179   0.666 -0.1160 -0.3011  0.0159
 3028SOL    HW120543   3.942   4.150   0.703 -0.4267  2.2583  1.3204
 3028SOL    HW220544   3.990   4.234   0.597  1.8349  1.4452  0.4108
 3029SOL     OW20545   4.048   1.513   4.550  0.3459  0.1145  0.1307
 3029SOL    HW120546   4.089   1.427   4.564  0.4781 -0.3200 -2.7603
 3029SOL    HW220547   4.086   1.540   4.466 -0.7165  1.4631  0.1014
 3030SOL     OW20548   1.402   3.927   8.430 -0.3536 -0.1866  0.8861
 3030SOL    HW120549   1.333   3.990   8.409 -0.2935 -1.0578 -1.9864
 3030SOL    HW220550   1.348   3.848   8.438 -2.2105  0.8254 -1.5727
 3031SOL     OW20551   3.284   4.339   8.520 -0.2087 -0.0457  0.6335
 3031SOL    HW120552   3.370   4.381   8.523 -0.1846  0.2308 -3.1035
 3031SOL    HW220553   3.246   4.370   8.437 -2.1754 -1.4721  0.9995
 3032SOL     OW20554   0.970   1.401   8.902 -0.4163  0.4635 -0.2593
 3032SOL    HW120555   1.003   1.469   8.843  0.5104  0.9505  0.8223
 3032SOL    HW220556   0.973   1.451   8.984  0.9554  0.7141 -0.4607
 3033SOL     OW20557   1.905   0.313  16.261  0.6239 -0.0758  0.5902
 3033SOL    HW120558   1.939   0.283  16.177 -3.0915 -1.4807 -0.3761
 3033SOL    HW220559   1.833   0.369  16.234  1.0462  0.1436 -0.0709
 3034SOL     OW20560   1.777   0.805  14.100  0.1190  0.4236 -0.2573
 3034SOL    HW120561   1.740   0.883  14.140 -1.9420 -0.4040 -0.5480
 3034SOL    HW220562   1.765   0.814  14.006 -0.7749 -0.8272 -0.2626
 3035SOL     OW20563   0.794   0.234   6.190 -0.0606 -0.0866  0.0661
 3035SOL    HW120564   0.886   0.256   6.199  0.9113 -3.7393 -0.9022
 3035SOL    HW220565   0.783   0.140   6.207  2.4698  0.1945  3.3778
 3036SOL     OW20566   1.730   3.547   1.322  0.1087 -0.1114  0.1071
 3036SOL    HW120567   1.744   3.454   1.337  0.3789 -0.3664 -1.7743
 3036SOL    HW220568   1.637   3.554   1.301  0.2208  1.5815  0.1611
 3037SOL     OW20569   1.550   3.764   5.634 -0.3019 -0.0740  0.8880
 3037SOL    HW120570   1.630   3.768   5.687 -0.1652 -2.1383  0.8278
 3037SOL    HW220571   1.565   3.827   5.563  2.2453  0.3267  1.7553
 3038SOL     OW20572   0.523   2.123   8.301  0.1458  0.3056  0.1701
 3038SOL    HW120573   0.612   2.141   8.271  0.3152  1.7548  1.5614
 3038SOL    HW220574   0.512   2.184   8.374 -0.9404 -0.6232  0.7795
 3039SOL     OW20575   1.823   2.402   0.908  0.2443 -0.7908 -0.2604
 3039SOL    HW120576   1.767   2.355   0.847  0.0560 -1.1824  0.2181
 3039SOL    HW220577   1.790   2.490   0.889  0.8339 -0.6780 -0.8039
 3040SOL     OW20578   3.648   3.036   0.493 -0.3169 -0.4734 -0.1342
 3040SOL    HW120579   3.635   2.943   0.510  3.9805 -0.8969  0.9551
 3040SOL    HW220580   3.744   3.039   0.494 -0.2835 -1.6247  0.0230
 3041SOL     OW20581   2.903   3.498   2.845  0.6061 -0.1349 -0.9733
 3041SOL    HW120582   2.916   3.592   2.858  2.3283 -0.5877  0.5714
 3041SOL    HW220583   2.811   3.497   2.870  0.7208  0.7230 -0.4949
 3042SOL     OW20584   4.414   2.040   6.155  0.1110  0.5287  0.1556
 3042SOL    HW120585   4.349   1.974   6.179  1.4809 -1.1286 -0.6985
 3042SOL    HW220586   4.439   2.074   6.241 -3.7040  2.1401  0.6585
 3043SOL     OW20587   3.609   2.367   1.060  0.0116  0.0592 -0.2788
 3043SOL    HW120588   3.573   2.287   1.098  1.8866 -0.5790  0.1205
 3043SOL    HW220589   3.698   2.338   1.043  0.5767  0.4056  2.1069
 3044SOL     OW20590   1.039   2.892   7.906 -0.5482 -0.2929  0.1757
 3044SOL    HW120591   1.082   2.810   7.932  0.4777  0.1307 -0.1907
 3044SOL    HW220592   1.048   2.881   7.811  1.3789  1.8977  0.1214
 3045SOL     OW20593   2.873   0.657   3.262  0.0049  0.2373  0.3077
 3045SOL    HW120594   2.938   0.647   3.332 -0.6817  0.1556  0.9372
 3045SOL    HW220595   2.939   0.673   3.195 -0.4053 -0.8598 -0.3626
 3046SOL     OW20596   4.614   2.960  17.623 -0.3406 -0.7435 -0.1957
 3046SOL    HW120597   4.584   2.874  17.650 -0.9913 -1.1876 -2.3733
 3046SOL    HW220598   4.568   2.972  17.541  0.8550  1.1728 -0.5952
 3047SOL     OW20599   4.096   2.800   6.393  0.5085 -0.2280  0.3868
 3047SOL    HW120600   4.159   2.834   6.456 -0.2709 -0.4355  1.2658
 3047SOL    HW220601   4.080   2.712   6.428 -1.7081  1.2759  3.1097
 3048SOL     OW20602   1.559   3.691   7.666  0.1525  0.6028  0.3197
 3048SOL    HW120603   1.582   3.783   7.663 -1.6094  1.0475  0.1409
 3048SOL    HW220604   1.550   3.692   7.761 -0.0484 -0.2940  0.3113
 3049SOL     OW20605   3.792   4.131   7.153 -0.1847  0.5275 -0.3698
 3049SOL    HW120606   3.710   4.169   7.185  0.0622  1.2511 -0.5916
 3049SOL    HW220607   3.790   4.153   7.060 -0.6319 -1.8693 -0.9242
 3050SOL     OW20608   1.039   4.616   6.409 -0.2612  0.0302  0.3740
 3050SOL    HW120609   1.111   4.557   6.432 -1.1019 -1.5667 -1.0082
 3050SOL    HW220610   1.081   4.655   6.332 -0.7110 -0.4657 -0.1324
 3051SOL     OW20611   1.737   0.405  13.565  0.3165  0.9108  0.3611
 3051SOL    HW120612   1.734   0.462  13.488 -0.6449 -1.2719 -1.2384
 3051SOL    HW220613   1.824   0.366  13.556  0.8309  1.9398  0.8898
 3052SOL     OW20614   1.156   4.095   7.642  0.0149  0.2469  0.5223
 3052SOL    HW120615   1.166   4.053   7.727 -2.1802 -2.4106 -0.5628
 3052SOL    HW220616   1.133   4.022   7.586  1.9308 -0.6537  0.9061
 3053SOL     OW20617   2.523   2.585   7.443 -0.2414 -0.6236 -0.2771
 3053SOL    HW120618   2.555   2.549   7.360 -0.2905  1.9813 -1.4551
 3053SOL    HW220619   2.574   2.531   7.504 -3.5443 -3.7265 -0.2959
 3054SOL     OW20620   0.295   4.119   2.280  0.3002  0.1415 -0.1065
 3054SOL    HW120621   0.216   4.067   2.270  0.2884 -0.0412  0.8916
 3054SOL    HW220622   0.275   4.189   2.218 -1.3792  1.2009  1.6130
 3055SOL     OW20623   2.549   1.619   6.860 -0.0966  0.2194  0.0169
 3055SOL    HW120624   2.465   1.623   6.815  1.1044 -2.1497 -2.4434
 3055SOL    HW220625   2.586   1.705   6.839  0.0851  0.6712  2.1887
 3056SOL     OW20626   1.935   0.405   1.090  0.0230 -0.4351  0.4991
 3056SOL    HW120627   1.943   0.440   1.002  0.0106 -1.9311 -0.0955
 3056SOL    HW220628   2.008   0.444   1.139 -1.3507  0.1796  2.0597
 3057SOL     OW20629   4.601   2.763  13.257 -0.3568  0.4096 -0.0963
 3057SOL    HW120630   4.577   2.792  13.169  0.7350  0.1238 -0.4938
 3057SOL    HW220631   4.580   2.841  13.308 -2.4635  0.2826 -0.7561
 3058SOL     OW20632   2.343   0.413   0.278  0.2630  0.1935 -0.2738
 3058SOL    HW120633   2.354   0.326   0.315 -0.5913 -0.2307 -1.0092
 3058SOL    HW220634   2.248   0.419   0.262  0.5192 -0.6423 -2.1251
 3059SOL     OW20635   4.200   0.013   8.153 -0.1610 -0.4207  0.3682
 3059SOL    HW120636   4.265   0.036   8.086  2.1515 -1.3480  2.2867
 3059SOL    HW220637   4.247   0.054   8.226  1.2402  1.0071 -1.3215
 3060SOL     OW20638   3.015   4.101   6.730  0.1342  0.7765  0.3162
 3060SOL    HW120639   3.056   4.048   6.798 -0.5060  1.3277  1.1379
 3060SOL    HW220640   3.027   4.040   6.658 -2.7553  1.9592 -1.1695
 3061SOL     OW20641   0.162   1.560   6.911  0.9016  0.3695  0.0433
 3061SOL    HW120642   0.131   1.594   6.827 -1.1843  0.3022  0.7865
 3061SOL    HW220643   0.199   1.642   6.943  1.8675 -0.6466  1.5461
 3062SOL     OW20644   4.223   1.262  12.991  0.5779 -0.1567  0.2644
 3062SOL    HW120645   4.131   1.289  12.991 -0.0308 -2.2751  3.6453
 3062SOL    HW220646   4.211   1.171  13.018  0.5634 -0.6039 -1.2446
 3063SOL     OW20647   4.646   0.007   3.120 -0.4878  0.5245 -0.1306
 3063SOL    HW120648   4.590   0.084   3.127 -0.0674  0.8963 -0.8727
 3063SOL    HW220649   4.658   4.718   3.026  1.1858  0.3020  0.1031
 3064SOL     OW20650   4.523   4.224   9.521 -0.3479 -0.2259  0.1072
 3064SOL    HW120651   4.442   4.177   9.542  1.6051 -1.7518  4.0887
 3064SOL    HW220652   4.504   4.278   9.444 -1.8311 -0.7555  0.0929
 3065SOL     OW20653   2.782   1.300   8.678 -0.7250 -0.1844  0.2060
 3065SOL    HW120654   2.752   1.212   8.702  1.4643 -1.0648 -0.2832
 3065SOL    HW220655   2.797   1.328   8.768  0.7148  1.9214 -0.6893
 3066SOL     OW20656   1.404   3.081  16.462  0.4015 -0.2433 -0.4380
 3066SOL    HW120657   1.498   3.097  16.455  0.5189 -0.3071  1.0735
 3066SOL    HW220658   1.387   3.076  16.368 -2.3605  2.3837 -0.0546
 3067SOL     OW20659   3.777   0.734  16.654 -0.0381 -0.2380  0.3998
 3067SOL    HW120660   3.755   0.824  16.680  1.0231  0.7520 -2.1311
 3067SOL    HW220661   3.845   0.755  16.590 -0.6907  0.0226 -0.2113
 3068SOL     OW20662   1.828   0.892  17.457  0.3533  0.1899  0.2937
 3068SOL    HW120663   1.852   0.830  17.389 -0.5040  1.4010 -1.1128
 3068SOL    HW220664   1.910   0.931  17.487  0.6353  0.1207 -0.4117
 3069SOL     OW20665   2.826   3.955  11.727  0.5104 -0.0240 -0.4291
 3069SOL    HW120666   2.919   3.932  11.725  1.1705  2.7201 -0.6512
 3069SOL    HW220667   2.805   3.927  11.816  3.2454  1.4345  0.6583
 3070SOL     OW20668   0.340   3.689   7.802  0.1194  0.0912  0.2811
 3070SOL    HW120669   0.346   3.670   7.708 -0.3982  0.6956  0.1235
 3070SOL    HW220670   0.273   3.631   7.835  0.1493 -0.6777 -1.0039
 3071SOL     OW20671   1.406   3.136   2.725  0.3826  0.2589  0.3713
 3071SOL    HW120672   1.322   3.093   2.741  0.7363 -0.8494 -0.7970
 3071SOL    HW220673   1.435   3.096   2.644 -2.3762 -1.5442  0.2546
 3072SOL     OW20674   1.273   3.376   2.814 -0.3746 -0.2761 -0.7406
 3072SOL    HW120675   1.329   3.309   2.774 -0.6535 -1.0051  0.0943
 3072SOL    HW220676   1.333   3.452   2.808  0.5594 -0.8626  1.2824
 3073SOL     OW20677   2.943   1.784   0.538  0.4662  0.1334  0.1492
 3073SOL    HW120678   2.972   1.739   0.617  1.3643 -1.2162 -0.9392
 3073SOL    HW220679   2.894   1.853   0.581  0.8987  0.0241  0.8101
 3074SOL     OW20680   0.527   1.395  14.399 -0.2063  0.1369 -0.0979
 3074SOL    HW120681   0.574   1.478  14.397 -2.5174  1.4912  3.6457
 3074SOL    HW220682   0.595   1.346  14.352  1.8522  1.6724  1.2743
 3075SOL     OW20683   2.666   3.199   5.686  0.2896 -0.0197  0.2287
 3075SOL    HW120684   2.682   3.253   5.763  1.8370  1.1290 -0.8923
 3075SOL    HW220685   2.625   3.120   5.720  0.7781  0.8552  2.8678
 3076SOL     OW20686   3.005   2.088   7.187  0.0367 -0.1163 -0.4136
 3076SOL    HW120687   3.015   2.113   7.279  0.1106  0.5312 -0.5975
 3076SOL    HW220688   2.951   2.161   7.159 -1.5598 -1.4924 -0.9020
 3077SOL     OW20689   4.350   4.081   4.531 -0.0705  0.0813  0.3416
 3077SOL    HW120690   4.356   3.991   4.499 -1.7394 -0.7506  2.3501
 3077SOL    HW220691   4.315   4.130   4.456 -2.4578 -0.5576  1.0294
 3078SOL     OW20692   1.775   2.561   4.796  0.2258  0.1962  0.7484
 3078SOL    HW120693   1.813   2.546   4.882  1.0646 -2.5193 -0.1003
 3078SOL    HW220694   1.759   2.655   4.798  0.9988  0.2971  2.1342
 3079SOL     OW20695   3.457   4.704   5.664 -0.4517 -0.2762 -0.8858
 3079SOL    HW120696   3.380   4.673   5.712  0.2655 -0.5162  0.1169
 3079SOL    HW220697   3.446   0.076   5.660  0.6078 -0.1588 -1.0573
 3080SOL     OW20698   3.774   3.059   4.392 -0.0915 -0.2437  0.0422
 3080SOL    HW120699   3.767   3.146   4.353 -0.8739 -0.1450  0.3939
 3080SOL    HW220700   3.764   3.071   4.486 -0.1170  0.1616 -0.0155
 3081SOL     OW20701   2.254   0.266  10.444  0.2461  0.5974  0.1436
 3081SOL    HW120702   2.253   0.174  10.470 -1.6159  0.1439 -1.5600
 3081SOL    HW220703   2.190   0.266  10.373  0.2673 -0.6611  0.1163
 3082SOL     OW20704   1.385   3.049   6.865 -0.0949  0.1944 -0.3578
 3082SOL    HW120705   1.346   3.026   6.781 -1.5597 -3.4832  1.3216
 3082SOL    HW220706   1.331   3.126   6.887 -0.7236 -0.6767  1.1860
 3083SOL     OW20707   3.339   1.819  17.664 -0.4879 -0.4464  0.3350
 3083SOL    HW120708   3.398   1.747  17.645  0.9111  0.0663  2.8407
 3083SOL    HW220709   3.368   1.843   0.059 -1.4749  1.9767  0.0176
 3084SOL     OW20710   0.001   2.621   9.376  0.0614  0.3463 -0.6639
 3084SOL    HW120711   0.012   2.671   9.457  1.1858  0.1960 -0.7282
 3084SOL    HW220712   0.084   2.575   9.386  0.8730  2.1826  1.1566
 3085SOL     OW20713   2.473   3.333  11.775 -0.1045  0.5873 -0.5572
 3085SOL    HW120714   2.495   3.314  11.684  0.6883  0.7717 -0.3980
 3085SOL    HW220715   2.515   3.416  11.797  1.2320 -0.6237  1.5221
 3086SOL     OW20716   0.206   3.581   2.260 -0.3931  0.1033 -0.2136
 3086SOL    HW120717   0.257   3.514   2.306  2.1340  2.8776  1.0179
 3086SOL    HW220718   0.274   3.619   2.204  0.9486  1.3279  2.2170
 3087SOL     OW20719   1.824   3.206   7.106  0.9413 -0.6993  0.0244
 3087SOL    HW120720   1.745   3.187   7.054  1.1818 -3.6192  0.7780
 3087SOL    HW220721   1.888   3.195   7.035  0.3498  2.0364 -0.9442
 3088SOL     OW20722   0.152   4.365   8.974 -0.4467 -0.4459  0.1509
 3088SOL    HW120723   0.192   4.381   9.060  1.0848  0.7078 -0.7744
 3088SOL    HW220724   0.152   4.270   8.972  0.6428 -0.4143 -1.0288
 3089SOL     OW20725   3.514   4.450  11.579  0.7291  0.6516 -0.1456
 3089SOL    HW120726   3.572   4.489  11.645 -0.9971  0.1794  1.6264
 3089SOL    HW220727   3.456   4.524  11.563  0.7758  0.9120  0.9231
 3090SOL     OW20728   0.460   4.614   5.415  0.0933  0.6091  0.2378
 3090SOL    HW120729   0.520   4.563   5.470  0.2479 -0.6565 -1.0967
 3090SOL    HW220730   0.514   4.622   5.336  0.4438  0.1192  0.4264
 3091SOL     OW20731   0.815   2.244   0.025  0.2007  0.5526 -0.6188
 3091SOL    HW120732   0.888   2.250   0.088  0.9268  0.4333 -1.4443
 3091SOL    HW220733   0.817   2.148   0.018  0.6392  0.6064 -1.2460
 3092SOL     OW20734   0.771   4.046  14.145 -0.3106 -0.0032 -0.9064
 3092SOL    HW120735   0.776   3.956  14.178 -0.8579  1.4273  3.0981
 3092SOL    HW220736   0.835   4.048  14.073 -0.6542 -1.0576 -1.2401
 3093SOL     OW20737   3.456   2.932  10.473  0.0428 -0.5053 -0.4060
 3093SOL    HW120738   3.448   2.992  10.547 -5.2076 -1.9902  0.2188
 3093SOL    HW220739   3.383   2.965  10.421 -0.1794  0.5554  0.6007
 3094SOL     OW20740   0.106   0.369   4.541 -0.2035 -0.2785 -0.4072
 3094SOL    HW120741   0.075   0.454   4.511  1.1202  0.5821  0.7058
 3094SOL    HW220742   0.030   0.315   4.566 -1.2265  2.3761  2.2156
 3095SOL     OW20743   0.186   1.510  12.279  0.3073  0.0423 -0.4165
 3095SOL    HW120744   0.114   1.541  12.225 -0.5275  1.8063  1.7008
 3095SOL    HW220745   0.162   1.539  12.367  0.0754  1.2969 -0.8864
 3096SOL     OW20746   1.994   4.364   5.613  0.1022 -0.0933  0.0096
 3096SOL    HW120747   1.979   4.458   5.624  0.5557  0.0552 -0.6689
 3096SOL    HW220748   1.992   4.360   5.517 -0.3423 -0.9287  0.0520
 3097SOL     OW20749   3.303   3.062   6.101  0.1337  0.3865  0.1937
 3097SOL    HW120750   3.367   3.119   6.143  0.3226  0.3442 -0.0329
 3097SOL    HW220751   3.357   2.985   6.083 -0.8278  0.0950 -1.4944
 3098SOL     OW20752   3.706   0.346   5.848  0.1437 -0.0488  0.3242
 3098SOL    HW120753   3.681   0.439   5.846  0.5310  0.0221 -1.4914
 3098SOL    HW220754   3.643   0.312   5.784 -1.0026  2.0430  0.3237
 3099SOL     OW20755   1.687   4.320   4.732  0.6446 -0.2594 -0.5610
 3099SOL    HW120756   1.718   4.266   4.805 -0.4004 -0.7705 -0.4846
 3099SOL    HW220757   1.676   4.403   4.777 -0.6996 -0.9136  0.3038
 3100SOL     OW20758   0.194   3.989   0.876 -0.6454  0.3638 -0.2453
 3100SOL    HW120759   0.263   4.028   0.930 -0.7429  0.8667 -0.4768
 3100SOL    HW220760   0.179   3.902   0.912 -0.4195  0.4176 -0.0219
 3101SOL     OW20761   2.972   4.293   7.246  0.6663 -0.4957 -0.2151
 3101SOL    HW120762   2.881   4.318   7.262  0.8544  0.0336  0.0061
 3101SOL    HW220763   3.012   4.352   7.309  0.8422  0.8804 -1.6370
 3102SOL     OW20764   3.444   0.650  17.687  0.8008 -0.3681 -0.4539
 3102SOL    HW120765   3.460   0.728   0.047  1.3127 -0.4039 -0.5587
 3102SOL    HW220766   3.413   0.582   0.055  0.0966 -0.1338 -0.5474
 3103SOL     OW20767   1.061   0.711   3.811  0.1878 -0.5503  0.4039
 3103SOL    HW120768   1.134   0.744   3.863  0.4884 -0.9873  0.2556
 3103SOL    HW220769   1.044   0.628   3.856 -0.5297 -0.7678 -0.2646
 3104SOL     OW20770   2.872   4.577  11.850 -0.4444  0.8513 -0.1141
 3104SOL    HW120771   2.960   4.589  11.813 -0.6663  1.0760 -0.5644
 3104SOL    HW220772   2.815   4.578  11.773 -2.1244  0.8600  1.1347
 3105SOL     OW20773   3.267   3.001   7.772  0.6639 -0.0918 -0.1347
 3105SOL    HW120774   3.236   2.911   7.760  2.1400 -0.7247  0.8589
 3105SOL    HW220775   3.329   2.964   7.835 -0.6624 -1.7584  0.2092
 3106SOL     OW20776   4.397   4.380   4.674 -0.0206 -0.6384 -0.5491
 3106SOL    HW120777   4.450   4.422   4.742  1.5246 -1.9130 -0.9552
 3106SOL    HW220778   4.464   4.350   4.611 -0.1751 -1.3595 -0.3757
 3107SOL     OW20779   2.552   2.486  17.379  0.2781  0.2176  0.6888
 3107SOL    HW120780   2.628   2.532  17.415 -0.6430  1.9854  0.3351
 3107SOL    HW220781   2.561   2.504  17.286 -0.4510  0.8163  0.7299
 3108SOL     OW20782   2.289   0.045   6.116 -0.1334 -0.2839 -0.7614
 3108SOL    HW120783   2.216   4.715   6.148 -0.5885  0.7476 -0.1550
 3108SOL    HW220784   2.299   0.031   6.021  3.0990 -1.7615 -0.2446
 3109SOL     OW20785   1.481   2.108  17.112  0.0804  0.3246 -0.9003
 3109SOL    HW120786   1.529   2.176  17.065  2.1228 -0.1520  0.5262
 3109SOL    HW220787   1.391   2.124  17.083 -1.0912 -0.3873  2.3453
 3110SOL     OW20788   1.180   4.233  11.495  0.2284  0.0325 -0.3356
 3110SOL    HW120789   1.263   4.199  11.528 -1.5031 -0.8861  3.1492
 3110SOL    HW220790   1.162   4.292  11.569  1.7227  1.1974 -0.9056
 3111SOL     OW20791   4.564   1.135   8.566  0.2248  0.5192 -0.3425
 3111SOL    HW120792   4.619   1.103   8.638  1.6920  1.3632 -1.0682
 3111SOL    HW220793   4.598   1.080   8.496 -0.0675  0.4953 -0.4617
 3112SOL     OW20794   1.853   2.540   1.926 -0.2618 -0.1068 -0.5480
 3112SOL    HW120795   1.827   2.515   2.015 -0.3142 -3.2664 -1.4552
 3112SOL    HW220796   1.777   2.502   1.881 -2.0966  1.8217  0.9108
 3113SOL     OW20797   4.021   2.339   6.418 -0.1990  0.5951 -0.0504
 3113SOL    HW120798   4.076   2.274   6.462  0.4012  0.7073 -0.6391
 3113SOL    HW220799   4.059   2.423   6.444  1.5579 -0.3389  0.3490
 3114SOL     OW20800   3.317   0.935   9.548 -0.2566 -0.1337 -0.4850
 3114SOL    HW120801   3.356   0.936   9.635 -0.9087  1.5932 -0.2196
 3114SOL    HW220802   3.224   0.933   9.568 -0.7766 -0.6064 -2.8979
 3115SOL     OW20803   1.437   1.920   6.528 -0.0289 -0.1663 -0.4907
 3115SOL    HW120804   1.359   1.974   6.522  0.1245  0.1631  0.4025
 3115SOL    HW220805   1.465   1.898   6.440 -0.8563  0.0414 -0.8041
 3116SOL     OW20806   4.049   1.122   8.609 -0.0625 -0.3899 -0.0058
 3116SOL    HW120807   4.034   1.039   8.654  1.0286 -0.2087  0.6834
 3116SOL    HW220808   3.980   1.175   8.649  1.5688  0.8346  1.2010
 3117SOL     OW20809   1.375   2.763   5.378 -0.0042  0.1946  0.3158
 3117SOL    HW120810   1.294   2.713   5.383  1.2473 -1.9056 -0.4720
 3117SOL    HW220811   1.435   2.718   5.438  2.8421  1.7892 -1.3159
 3118SOL     OW20812   2.318   3.073  16.277 -0.5109 -0.3153  0.7594
 3118SOL    HW120813   2.304   3.084  16.371 -3.2359 -2.1428  0.6015
 3118SOL    HW220814   2.238   3.105  16.234  0.2194 -1.2867 -1.3101
 3119SOL     OW20815   3.434   0.034   0.141  0.3276  0.1558  0.4064
 3119SOL    HW120816   3.527   0.027   0.119  0.7957  1.4659  1.9582
 3119SOL    HW220817   3.429   0.004   0.232  0.2106  0.6721  0.5687
 3120SOL     OW20818   2.307   0.430  15.165 -0.2014  0.0588 -0.1211
 3120SOL    HW120819   2.376   0.371  15.197 -2.4445 -2.7473 -0.5041
 3120SOL    HW220820   2.234   0.409  15.223 -0.9645  1.2584 -0.6645
 3121SOL     OW20821   2.140   1.179   2.657  0.1585  0.1797 -0.1623
 3121SOL    HW120822   2.072   1.180   2.589 -1.7254 -0.9860  1.6859
 3121SOL    HW220823   2.188   1.260   2.641 -1.4604  1.0083 -0.9070
 3122SOL     OW20824   2.039   4.562   3.345 -0.8989 -0.2881  0.0531
 3122SOL    HW120825   2.094   4.486   3.330 -0.4666  0.1602 -0.6509
 3122SOL    HW220826   1.949   4.531   3.357 -0.3496 -2.5307 -1.5726
 3123SOL     OW20827   0.119   3.050   4.399  0.1286  0.0243 -0.1579
 3123SOL    HW120828   0.084   3.005   4.323 -1.6758  1.7653 -0.3548
 3123SOL    HW220829   0.137   3.133   4.355 -0.1024 -0.5602 -1.3444
 3124SOL     OW20830   3.516   1.927   9.943  0.3055  0.5361  0.1465
 3124SOL    HW120831   3.499   1.920  10.037 -0.3062  2.4311  0.1828
 3124SOL    HW220832   3.432   1.904   9.904 -0.0745 -1.6043  2.1988
 3125SOL     OW20833   1.362   4.095   9.200  0.0577 -0.0510 -0.5890
 3125SOL    HW120834   1.443   4.144   9.182  0.6618 -1.3863 -1.5306
 3125SOL    HW220835   1.361   4.039   9.122 -1.2024  0.8941 -1.2524
 3126SOL     OW20836   2.011   1.924   2.498 -0.2794 -0.0563  0.1500
 3126SOL    HW120837   1.964   1.949   2.418  3.9748  2.0573 -1.7073
 3126SOL    HW220838   2.012   2.007   2.546 -0.3548 -0.3269  0.6152
 3127SOL     OW20839   2.467   4.005   7.987 -0.0982 -0.3002 -0.3954
 3127SOL    HW120840   2.528   3.932   7.974 -0.3093 -0.9714  2.4562
 3127SOL    HW220841   2.511   4.059   8.052  1.9859 -2.1556 -0.2702
 3128SOL     OW20842   1.243   3.821   2.661  0.2249  0.8656 -0.0059
 3128SOL    HW120843   1.232   3.825   2.756 -1.4423 -4.2151  0.0060
 3128SOL    HW220844   1.168   3.765   2.638  1.9098 -1.7633  0.9565
 3129SOL     OW20845   1.348   2.031   2.659  0.2398 -0.0176 -0.2017
 3129SOL    HW120846   1.392   2.042   2.575  0.9529  0.5907  0.2527
 3129SOL    HW220847   1.427   2.027   2.714 -0.6270 -1.0702  0.9854
 3130SOL     OW20848   1.681   0.794   4.529 -0.5425 -0.2111 -0.2436
 3130SOL    HW120849   1.651   0.859   4.466  0.2004  1.1401  0.8069
 3130SOL    HW220850   1.742   0.753   4.468 -1.0114 -1.2166 -0.0358
 3131SOL     OW20851   0.022   2.004   0.834 -0.2988  0.2985  0.5608
 3131SOL    HW120852   4.708   1.932   0.885 -1.3479  0.4532  0.0356
 3131SOL    HW220853   4.718   1.974   0.746  1.9164 -1.6013  0.5369
 3132SOL     OW20854   1.723   3.799   8.165  0.2723 -0.2319  0.3232
 3132SOL    HW120855   1.704   3.882   8.209  0.4568  0.3891 -0.7652
 3132SOL    HW220856   1.806   3.820   8.122  1.6660 -4.0933  1.1061
 3133SOL     OW20857   0.239   3.974   3.474 -0.0049 -0.1741  0.2900
 3133SOL    HW120858   0.334   3.963   3.485 -0.0672 -0.0430  0.9396
 3133SOL    HW220859   0.237   4.015   3.388  0.5521  1.5187  1.0747
 3134SOL     OW20860   0.477   2.642   0.041  0.1655  0.2579  0.3947
 3134SOL    HW120861   0.489   2.549   0.059  1.5988  0.1724 -1.1091
 3134SOL    HW220862   0.382   2.645   0.054  0.2204 -0.5864  0.9689
 3135SOL     OW20863   4.103   0.842   7.264  0.2182 -0.1797 -0.5755
 3135SOL    HW120864   4.052   0.772   7.306 -0.2700 -0.0986 -1.0276
 3135SOL    HW220865   4.137   0.797   7.187  0.2556  0.1997 -0.7832
 3136SOL     OW20866   3.464   0.499  15.721  0.0151 -0.1631 -0.0008
 3136SOL    HW120867   3.525   0.565  15.754  1.1338 -0.1741 -2.0536
 3136SOL    HW220868   3.463   0.515  15.627 -0.6544 -1.7849 -0.2663
 3137SOL     OW20869   0.273   3.044   3.816 -0.1776  0.4017 -0.0945
 3137SOL    HW120870   0.187   3.063   3.855 -0.9144 -1.1156 -0.9525
 3137SOL    HW220871   0.249   2.990   3.741 -0.0923 -0.1417  0.2703
 3138SOL     OW20872   3.586   0.216   1.634 -0.2041  0.1532  0.3962
 3138SOL    HW120873   3.614   0.307   1.636  0.9435 -0.1225 -2.6744
 3138SOL    HW220874   3.495   0.207   1.605  0.9477  3.8802 -4.3203
 3139SOL     OW20875   1.324   1.808   0.695  0.2172  0.2328 -0.9090
 3139SOL    HW120876   1.259   1.873   0.666  1.4509  1.5462 -0.7346
 3139SOL    HW220877   1.368   1.791   0.612 -0.0856  0.0145 -1.0241
 3140SOL     OW20878   4.097   2.554   2.977 -0.1278 -0.1876 -0.2331
 3140SOL    HW120879   4.060   2.489   2.917  2.5991 -1.5259 -0.4762
 3140SOL    HW220880   4.177   2.507   3.000  0.3847  0.1837 -1.2781
 3141SOL     OW20881   2.861   2.698   7.281 -0.1794 -0.3225 -0.8283
 3141SOL    HW120882   2.894   2.610   7.260 -1.0956 -0.2163 -2.7452
 3141SOL    HW220883   2.807   2.681   7.358 -0.7659 -0.0460 -1.1734
 3142SOL     OW20884   3.381   2.384   7.699  0.1442  0.6487  0.0443
 3142SOL    HW120885   3.426   2.468   7.710 -0.9372  1.1355  0.7460
 3142SOL    HW220886   3.368   2.378   7.604  0.6653 -2.5802  0.1709
 3143SOL     OW20887   2.823   0.267   6.401  0.2491  0.0094 -0.3850
 3143SOL    HW120888   2.767   0.235   6.330 -0.2049 -1.6481  0.7215
 3143SOL    HW220889   2.792   0.357   6.410  0.6322  0.1471 -0.4778
 3144SOL     OW20890   1.615   1.605   6.564  0.5961 -0.2869 -0.3184
 3144SOL    HW120891   1.549   1.538   6.546  0.1338  0.1869 -0.3822
 3144SOL    HW220892   1.605   1.610   6.659 -1.1018  0.8802 -0.5604
 3145SOL     OW20893   2.551   2.351   3.057 -0.1068 -0.0298  0.1840
 3145SOL    HW120894   2.638   2.375   3.088  1.5465 -1.9517 -2.8794
 3145SOL    HW220895   2.521   2.305   3.135 -1.0275 -1.6083 -1.0816
 3146SOL     OW20896   4.493   0.822  17.581 -0.2212 -0.1127 -0.2674
 3146SOL    HW120897   4.578   0.864  17.574 -0.2919 -0.1106 -1.0991
 3146SOL    HW220898   4.439   0.878  17.526  0.5282  0.6829 -0.1806
 3147SOL     OW20899   1.628   0.618   5.577  0.6178  0.2548  0.2677
 3147SOL    HW120900   1.654   0.660   5.494  1.9912 -1.0665  0.0343
 3147SOL    HW220901   1.643   0.688   5.640 -1.7990  3.1979 -2.3992
 3148SOL     OW20902   2.072   1.893  11.833 -0.3986  0.0625 -0.2083
 3148SOL    HW120903   2.119   1.875  11.915  0.3711 -0.5060 -0.7818
 3148SOL    HW220904   2.121   1.845  11.767  0.3229  0.3850  0.0803
 3149SOL     OW20905   3.855   4.113   7.565  0.0099  0.0483 -0.1015
 3149SOL    HW120906   3.894   4.174   7.627 -1.3300  0.4444  0.3407
 3149SOL    HW220907   3.760   4.126   7.564  0.0299  0.1557 -0.9970
 3150SOL     OW20908   2.749   4.033   1.042 -0.3166  0.0855 -0.0040
 3150SOL    HW120909   2.805   3.960   1.020  0.0620  0.4395 -0.2133
 3150SOL    HW220910   2.793   4.054   1.125 -0.1423  1.0175 -0.3295
 3151SOL     OW20911   2.872   1.023  17.536 -0.0370  0.4145  0.0333
 3151SOL    HW120912   2.923   1.086  17.486 -1.7581  0.8809 -1.1376
 3151SOL    HW220913   2.821   0.981  17.467  2.7228 -0.2542 -1.6160
 3152SOL     OW20914   3.539   0.335   3.322 -0.0014 -0.2534  0.0861
 3152SOL    HW120915   3.507   0.266   3.264 -0.4842  1.6556 -1.9505
 3152SOL    HW220916   3.458   0.385   3.325  1.4778  1.9559  3.0416
 3153SOL     OW20917   1.648   1.640   9.410  0.2043 -0.6769  0.2785
 3153SOL    HW120918   1.655   1.688   9.493  0.9285  3.2507 -2.0322
 3153SOL    HW220919   1.741   1.629   9.391  0.1339 -0.0885 -0.4490
 3154SOL     OW20920   2.683   0.638   3.030 -0.1248  0.1512 -0.2990
 3154SOL    HW120921   2.686   0.544   3.015 -0.2667  0.1422 -0.2711
 3154SOL    HW220922   2.748   0.642   3.099 -0.3406  1.6465 -0.1701
 3155SOL     OW20923   3.063   3.808  11.678  0.2429  0.1404 -0.4262
 3155SOL    HW120924   3.083   3.771  11.764  1.3055  1.0213 -0.2879
 3155SOL    HW220925   3.150   3.843  11.657  1.0620 -1.3688  0.4031
 3156SOL     OW20926   2.482   4.630   0.291 -0.0676  0.1657 -0.2646
 3156SOL    HW120927   2.568   4.637   0.250 -0.1023  0.4374 -0.2917
 3156SOL    HW220928   2.503   4.605   0.382 -1.8054 -1.7827 -0.3963
 3157SOL     OW20929   0.243   0.956   3.334 -0.4569 -0.1193 -0.1690
 3157SOL    HW120930   0.254   0.999   3.249  0.9885  1.6343  0.9045
 3157SOL    HW220931   0.268   1.026   3.394  1.3436 -0.9047 -0.0211
 3158SOL     OW20932   1.054   3.166  17.183 -0.1312 -0.6423  0.1831
 3158SOL    HW120933   1.081   3.251  17.147  0.7394 -1.2682 -0.6133
 3158SOL    HW220934   1.130   3.109  17.183  0.9079  0.7443 -1.4466
 3159SOL     OW20935   3.107   1.436   5.909  0.7816 -0.1604 -0.6853
 3159SOL    HW120936   3.138   1.372   5.973  0.3876 -1.5057 -1.8617
 3159SOL    HW220937   3.018   1.407   5.890  1.0308 -0.7688 -0.8954
 3160SOL     OW20938   1.515   1.682   1.899 -0.0449  0.5843  0.0839
 3160SOL    HW120939   1.608   1.663   1.913 -0.3033  0.4414  1.6663
 3160SOL    HW220940   1.481   1.622   1.966 -0.3922  1.3085  0.5648
 3161SOL     OW20941   1.907   0.260  10.904  0.5260 -0.7106  0.1819
 3161SOL    HW120942   1.903   0.271  10.999 -2.8844  0.0360 -0.0506
 3161SOL    HW220943   1.990   0.212  10.909 -2.3157 -5.3701  2.7271
 3162SOL     OW20944   3.665   3.690  16.652  0.1247  0.2519  0.8677
 3162SOL    HW120945   3.700   3.608  16.617  1.5987  1.7719 -1.1611
 3162SOL    HW220946   3.732   3.705  16.719  0.7414  1.4804 -0.0364
 3163SOL     OW20947   3.711   1.557   7.540  0.3951  0.2824  0.3086
 3163SOL    HW120948   3.803   1.567   7.567  0.3965  1.3225 -0.0804
 3163SOL    HW220949   3.729   1.486   7.479  1.4217 -0.3898  1.3745
 3164SOL     OW20950   0.487   0.321   7.366  0.1431 -0.3643  0.7641
 3164SOL    HW120951   0.446   0.286   7.287 -2.2330  2.8224  0.5599
 3164SOL    HW220952   0.505   0.235   7.402  2.2142 -0.9204 -1.5816
 3165SOL     OW20953   2.892   3.712   3.058  0.4415 -0.4535  0.8917
 3165SOL    HW120954   2.888   3.639   3.120 -0.9385  1.4693  3.0626
 3165SOL    HW220955   2.970   3.701   3.004  1.5171 -0.0474  2.3777
 3166SOL     OW20956   0.136   3.499   6.670 -0.0168 -0.1786  0.2148
 3166SOL    HW120957   0.150   3.573   6.729 -1.1853 -0.2947  0.6429
 3166SOL    HW220958   0.214   3.449   6.697  1.4633  1.8754 -0.2724
 3167SOL     OW20959   1.774   2.168   2.586  0.7707 -0.6302  0.0487
 3167SOL    HW120960   1.814   2.107   2.648  2.6018 -1.1468 -1.6222
 3167SOL    HW220961   1.718   2.221   2.642 -1.5069 -3.2542  0.2750
 3168SOL     OW20962   2.996   1.686   3.972 -0.5582 -0.2220 -0.2091
 3168SOL    HW120963   2.966   1.776   3.961  1.1410  0.8294  3.7359
 3168SOL    HW220964   3.009   1.677   4.067 -1.2683 -0.8810 -0.1669
 3169SOL     OW20965   1.715   4.650   3.653 -0.9787  0.1796 -0.0332
 3169SOL    HW120966   1.709   4.706   3.576 -0.6182  1.8519  1.1432
 3169SOL    HW220967   1.649   4.697   3.704 -1.9629  0.9738 -2.0787
 3170SOL     OW20968   3.642   3.816   0.121  0.3240 -0.6665  0.0619
 3170SOL    HW120969   3.723   3.866   0.131  0.1654 -0.4188  0.1345
 3170SOL    HW220970   3.591   3.838   0.199 -0.9118 -0.6655 -0.7251
 3171SOL     OW20971   3.537   4.706   3.229  0.6094  0.0507  0.0294
 3171SOL    HW120972   3.551   0.052   3.164  0.0694 -0.6548 -0.8465
 3171SOL    HW220973   3.618   4.660   3.208  1.5481  0.4507  2.7935
 3172SOL     OW20974   2.645   1.853   9.655  0.0758  0.0289  0.7419
 3172SOL    HW120975   2.670   1.890   9.571 -0.0114  0.2380  0.8079
 3172SOL    HW220976   2.727   1.808   9.675  0.3788  0.1966 -0.1525
 3173SOL     OW20977   2.712   1.796  16.208  0.4571  0.6448  0.1116
 3173SOL    HW120978   2.745   1.708  16.193 -1.8811 -0.0816 -0.7384
 3173SOL    HW220979   2.648   1.767  16.273  0.2782  1.5321  0.3384
 3174SOL     OW20980   3.914   0.882   7.524  0.4334 -0.7620  0.1102
 3174SOL    HW120981   4.006   0.905   7.542  0.0161  1.1391 -0.1809
 3174SOL    HW220982   3.895   0.824   7.597  0.4897 -0.6267  0.2328
 3175SOL     OW20983   3.127   1.288  17.513 -0.4333  0.1232 -0.7306
 3175SOL    HW120984   3.137   1.332  17.429  0.9160  0.9130 -0.1482
 3175SOL    HW220985   3.036   1.311  17.531 -0.2229  2.5678 -2.8273
 3176SOL     OW20986   4.269   2.572   8.985 -0.0036 -0.0253 -0.0266
 3176SOL    HW120987   4.333   2.632   8.946  0.7129 -0.8725 -0.1509
 3176SOL    HW220988   4.193   2.585   8.929  0.5511  0.6166 -0.6425
 3177SOL     OW20989   2.236   0.730   2.072  0.0037  0.0128  0.2121
 3177SOL    HW120990   2.316   0.685   2.048  0.0562 -0.1961  0.7791
 3177SOL    HW220991   2.225   0.781   1.992 -0.6173 -2.7801 -1.4556
 3178SOL     OW20992   4.463   4.535   9.538  0.1112 -0.3000 -0.2060
 3178SOL    HW120993   4.554   4.532   9.507  0.5495  1.9338  0.8416
 3178SOL    HW220994   4.422   4.609   9.494  2.8224  1.7066  0.6821
 3179SOL     OW20995   3.459   3.015   8.948  0.1503 -0.2013  0.4413
 3179SOL    HW120996   3.482   2.956   9.020  0.1980 -0.1944  0.4318
 3179SOL    HW220997   3.522   2.979   8.885  1.2151 -0.1889  1.5130
 3180SOL     OW20998   3.090   1.388   8.599 -0.1857 -0.3872 -0.0903
 3180SOL    HW120999   3.161   1.376   8.536 -0.4968  0.3669 -0.5893
 3180SOL    HW221000   3.055   1.473   8.571  0.6707  0.6186  1.9392
 3181SOL     OW21001   2.448   3.773   8.626  0.1239 -0.3560 -0.6874
 3181SOL    HW121002   2.419   3.723   8.551 -2.7637 -0.8565  0.7602
 3181SOL    HW221003   2.544   3.766   8.625  0.2058  0.6052 -0.0773
 3182SOL     OW21004   3.954   3.083  10.284 -0.8571  0.0608  0.0687
 3182SOL    HW121005   3.867   3.058  10.315  0.0127 -2.5054  0.4780
 3182SOL    HW221006   3.940   3.088  10.189 -1.8027 -0.4443  0.1835
 3183SOL     OW21007   0.263   2.926   4.603 -0.2679  0.2761  0.7224
 3183SOL    HW121008   0.205   2.996   4.572 -0.0791  0.2027  0.2066
 3183SOL    HW221009   0.347   2.961   4.574 -0.8246  0.9989 -0.0293
 3184SOL     OW21010   2.200   3.490   2.564  0.6633  0.4229 -0.1461
 3184SOL    HW121011   2.183   3.531   2.478  0.5281 -1.4413 -0.9998
 3184SOL    HW221012   2.166   3.403   2.545  1.9505 -0.3105  0.9907
 3185SOL     OW21013   2.723   4.385   6.132  0.3668  0.3037 -0.4903
 3185SOL    HW121014   2.694   4.470   6.165 -1.6499 -0.4507 -0.3059
 3185SOL    HW221015   2.746   4.341   6.213  2.5242 -0.0563 -1.2881
 3186SOL     OW21016   3.452   2.745   8.259  0.2144  0.9469  0.1683
 3186SOL    HW121017   3.491   2.794   8.331  1.0700  0.7508 -0.1618
 3186SOL    HW221018   3.517   2.675   8.261 -0.3489  0.4910  2.0586
 3187SOL     OW21019   1.386   2.846   3.004  0.3052  0.5251 -0.0145
 3187SOL    HW121020   1.368   2.817   2.914 -1.1246 -0.8902  0.7488
 3187SOL    HW221021   1.315   2.908   3.018 -1.0248 -1.0817  0.3256
 3188SOL     OW21022   0.877   1.441  17.164 -0.0463 -0.0928  0.2534
 3188SOL    HW121023   0.819   1.488  17.104  1.2497 -1.0886 -1.7606
 3188SOL    HW221024   0.956   1.431  17.112  0.0714  0.1722  0.3829
 3189SOL     OW21025   4.011   1.374   5.406 -0.5312  0.0869 -0.1616
 3189SOL    HW121026   4.033   1.465   5.384 -0.4796  0.1984  0.3294
 3189SOL    HW221027   3.927   1.388   5.450 -0.7182  3.5092 -1.5922
 3190SOL     OW21028   3.869   2.031  10.230  0.4103  0.5993 -0.2025
 3190SOL    HW121029   3.833   2.035  10.141  1.0937  3.7019 -0.3207
 3190SOL    HW221030   3.795   1.987  10.273 -2.0443  2.4788 -2.5089
 3191SOL     OW21031   3.679   0.198   0.810 -0.2161 -0.2432 -0.1566
 3191SOL    HW121032   3.673   0.244   0.894 -1.8482  0.4531 -0.6636
 3191SOL    HW221033   3.723   0.267   0.760 -0.4803  0.1840  0.2056
 3192SOL     OW21034   1.645   2.254  15.598  0.0780 -0.0598 -0.5099
 3192SOL    HW121035   1.564   2.294  15.567  0.0702  0.3777  0.0767
 3192SOL    HW221036   1.632   2.230  15.690 -0.0775  0.2760 -0.4482
 3193SOL     OW21037   1.470   2.166   5.686 -0.6189 -0.1623  0.0270
 3193SOL    HW121038   1.526   2.160   5.764  0.6740 -2.3301 -1.0695
 3193SOL    HW221039   1.445   2.258   5.695 -1.5480 -0.3938 -0.1923
 3194SOL     OW21040   2.765   2.829   6.392  0.2645  0.0455 -0.7280
 3194SOL    HW121041   2.847   2.794   6.356  0.0442  0.1340 -1.3293
 3194SOL    HW221042   2.789   2.824   6.484  0.9730  2.3930 -0.7752
 3195SOL     OW21043   1.526   3.530   1.734  0.0443  0.5869 -0.6349
 3195SOL    HW121044   1.467   3.571   1.798 -1.5166 -3.1131  0.2541
 3195SOL    HW221045   1.598   3.593   1.739  0.0960  0.4860 -0.0949
 3196SOL     OW21046   1.723   1.565   7.001  0.2365  0.6764  0.1259
 3196SOL    HW121047   1.750   1.581   7.091  1.0071 -0.5995  0.1230
 3196SOL    HW221048   1.669   1.642   6.985  1.9414  1.9819  0.7025
 3197SOL     OW21049   1.925   2.720  10.866  0.5405  0.3172 -0.8625
 3197SOL    HW121050   1.892   2.771  10.940  0.7278 -1.8877  0.7454
 3197SOL    HW221051   2.016   2.749  10.869  0.1162  1.5316  0.5908
 3198SOL     OW21052   4.513   3.720   6.928 -0.0617 -0.1464 -0.0934
 3198SOL    HW121053   4.424   3.757   6.925 -0.3060 -0.7135  0.0158
 3198SOL    HW221054   4.567   3.782   6.880  0.2365 -0.2862  0.0659
 3199SOL     OW21055   3.578   4.418   3.716 -0.8137  0.2221 -0.5455
 3199SOL    HW121056   3.568   4.388   3.626 -0.7826  0.1783 -0.5342
 3199SOL    HW221057   3.489   4.397   3.744  0.1622 -1.1898  1.4855
 3200SOL     OW21058   0.384   1.234  16.000 -0.0687 -0.3269  0.8152
 3200SOL    HW121059   0.405   1.178  16.074  0.3470 -0.2384  0.7655
 3200SOL    HW221060   0.289   1.240  16.008 -0.0105 -0.0517  1.2970
 3201SOL     OW21061   3.172   0.810   5.942 -0.5684 -0.4155 -0.1648
 3201SOL    HW121062   3.136   0.878   5.884  0.1348 -0.2449 -0.3922
 3201SOL    HW221063   3.102   0.748   5.963 -1.0465 -0.2719 -1.3225
 3202SOL     OW21064   0.144   3.444   4.788 -0.3428  1.2355 -0.7744
 3202SOL    HW121065   0.075   3.490   4.835  0.9135  1.5555  0.7667
 3202SOL    HW221066   0.223   3.484   4.826  2.1886 -3.5203 -0.9804
 3203SOL     OW21067   4.611   3.572  11.058  0.7111  0.0115  0.2180
 3203SOL    HW121068   4.532   3.625  11.072  1.4117  1.3628 -0.9218
 3203SOL    HW221069   4.604   3.559  10.963 -0.1532 -0.9539  0.4118
 3204SOL     OW21070   0.186   2.854  16.878  0.0539 -0.6635 -0.1618
 3204SOL    HW121071   0.211   2.834  16.968  0.9809 -1.2634 -0.5392
 3204SOL    HW221072   0.226   2.939  16.863  0.0398 -0.9825 -1.9961
 3205SOL     OW21073   1.902   1.816  10.004  0.0927 -0.4490  0.4567
 3205SOL    HW121074   1.913   1.889   9.942 -0.1511 -0.1723  0.7361
 3205SOL    HW221075   1.954   1.752   9.956  0.3231 -0.4701  0.7352
 3206SOL     OW21076   4.055   0.067  14.980 -0.5109 -0.4584 -0.8984
 3206SOL    HW121077   4.061   4.713  15.038 -0.1888 -1.8997 -2.8504
 3206SOL    HW221078   4.146   0.072  14.953 -0.9986  2.2422 -2.1033
 3207SOL     OW21079   0.018   0.837   5.335 -0.0797  0.1334 -0.1637
 3207SOL    HW121080   0.034   0.927   5.364  0.7033 -0.9767  2.8779
 3207SOL    HW221081   4.665   0.807   5.386  0.2398 -0.5018 -0.0627
 3208SOL     OW21082   3.821   3.717   6.021 -0.3002 -0.5136  0.2820
 3208SOL    HW121083   3.771   3.677   5.950  0.5366  0.8420 -1.0611
 3208SOL    HW221084   3.774   3.704   6.103 -0.7533  1.6369  0.3587
 3209SOL     OW21085   1.961   4.387   4.319 -0.2919 -0.3075  0.0777
 3209SOL    HW121086   1.989   4.442   4.392 -2.6671  0.9621  0.0510
 3209SOL    HW221087   1.969   4.297   4.349 -2.3522  0.2382  2.2417
 3210SOL     OW21088   1.777   1.152   7.551 -0.4182 -0.2617  0.1631
 3210SOL    HW121089   1.829   1.130   7.628 -1.5400 -0.5182  0.8435
 3210SOL    HW221090   1.842   1.162   7.482 -0.7935 -2.0513 -0.4624
 3211SOL     OW21091   2.954   3.154  16.141 -0.3695 -0.4198  0.2422
 3211SOL    HW121092   2.884   3.211  16.108  0.4004  0.3683 -0.0195
 3211SOL    HW221093   3.015   3.215  16.182 -3.5932  2.9584  0.1043
 3212SOL     OW21094   1.867   3.852   7.219 -0.0479  0.1981 -0.2173
 3212SOL    HW121095   1.942   3.902   7.253  0.0819 -1.5334  2.1207
 3212SOL    HW221096   1.843   3.814   7.304  1.1644  1.8683  0.8744
 3213SOL     OW21097   2.619   1.117   3.406 -0.3722 -0.1797 -0.1686
 3213SOL    HW121098   2.659   1.033   3.384 -1.0454 -0.6328  0.3261
 3213SOL    HW221099   2.526   1.095   3.409 -0.7024  0.6754 -3.8138
 3214SOL     OW21100   2.112   2.382  10.107  0.2879 -0.3279 -0.2260
 3214SOL    HW121101   2.135   2.321  10.037 -1.2466 -3.3555  1.8706
 3214SOL    HW221102   2.028   2.350  10.141  0.7049  0.3396  1.4072
 3215SOL     OW21103   3.637   1.218   3.021  0.3943 -0.3756  0.6234
 3215SOL    HW121104   3.721   1.262   3.012  0.4769 -0.7721 -0.5014
 3215SOL    HW221105   3.622   1.209   3.115 -0.1617 -0.1445  0.5602
 3216SOL     OW21106   3.581   3.568   4.177  0.0758 -0.0712  0.0760
 3216SOL    HW121107   3.639   3.594   4.249 -0.8414 -0.7449  1.0585
 3216SOL    HW221108   3.587   3.649   4.127  4.0492  0.1537  0.8962
 3217SOL     OW21109   3.248   3.971   6.436 -0.1147  0.9134 -0.3045
 3217SOL    HW121110   3.305   3.897   6.415 -0.0313  1.3052 -1.4264
 3217SOL    HW221111   3.324   4.019   6.468  0.0258  1.4682 -1.4832
 3218SOL     OW21112   0.123   3.538   6.008 -0.0907 -0.9268  0.6804
 3218SOL    HW121113   0.180   3.470   5.973 -0.5404 -1.3119  0.6880
 3218SOL    HW221114   0.080   3.575   5.931  0.3103 -1.0956  0.3766
 3219SOL     OW21115   1.657   0.042   5.812 -0.4502  0.7549 -0.2508
 3219SOL    HW121116   1.609   4.683   5.827  0.1992  0.5846  0.8131
 3219SOL    HW221117   1.602   0.082   5.743  0.3012  2.0489 -0.0972
 3220SOL     OW21118   4.037   2.738  17.138  0.2674  0.3119 -0.0297
 3220SOL    HW121119   4.115   2.780  17.102 -0.6776  0.2733 -2.1254
 3220SOL    HW221120   4.082   2.657  17.162 -2.5061 -1.3024 -0.2322
 3221SOL     OW21121   1.376   3.017  14.221 -0.1529 -0.0827 -0.2550
 3221SOL    HW121122   1.367   2.974  14.305  0.1421 -0.3758 -0.3734
 3221SOL    HW221123   1.289   3.057  14.221  0.0924  0.4680 -2.6381
 3222SOL     OW21124   0.399   0.105   7.791 -0.0253 -0.5144  0.0144
 3222SOL    HW121125   0.377   0.198   7.787  2.5128  0.1466  1.3417
 3222SOL    HW221126   0.444   0.098   7.875  0.7241  2.3265 -0.1465
 3223SOL     OW21127   3.304   1.374   3.918 -0.0794  0.0241  0.1799
 3223SOL    HW121128   3.325   1.384   3.825  0.1186 -2.3054 -0.0384
 3223SOL    HW221129   3.209   1.371   3.915 -0.1254  1.7627 -0.2375
 3224SOL     OW21130   3.372   1.410   4.164 -0.0854 -0.0629  0.0346
 3224SOL    HW121131   3.434   1.344   4.196 -1.2819 -0.6201  1.1881
 3224SOL    HW221132   3.361   1.390   4.071 -0.6665 -0.7457  0.2522
 3225SOL     OW21133   0.630   3.090   5.738 -0.1181  0.1444 -0.0845
 3225SOL    HW121134   0.541   3.064   5.715  0.3186 -1.8704  0.5321
 3225SOL    HW221135   0.683   3.010   5.736 -0.6999 -0.2052 -2.1628
 3226SOL     OW21136   2.116   2.240   3.907  0.1121 -0.0630  0.1527
 3226SOL    HW121137   2.098   2.185   3.831 -2.3188 -0.3382  0.9200
 3226SOL    HW221138   2.029   2.275   3.930  1.3480  3.5156 -0.5063
 3227SOL     OW21139   3.231   3.896   1.259  0.1291  0.5161 -0.1441
 3227SOL    HW121140   3.326   3.906   1.261  0.5930 -3.5278 -0.9462
 3227SOL    HW221141   3.217   3.888   1.164 -0.9916 -0.1881  0.0790
 3228SOL     OW21142   4.276   4.156   1.251  0.0983 -0.3930  0.2847
 3228SOL    HW121143   4.229   4.231   1.214 -0.2972 -0.8814 -0.2066
 3228SOL    HW221144   4.219   4.080   1.236  1.8674 -1.7901  0.6707
 3229SOL     OW21145   1.524   1.402  15.445 -0.1079  0.1025 -0.4328
 3229SOL    HW121146   1.461   1.331  15.453  2.2027 -2.0604 -1.4432
 3229SOL    HW221147   1.463   1.475  15.434  2.0535  2.3111  2.0078
 3230SOL     OW21148   3.269   3.015   3.446  0.2372  0.9160 -0.1373
 3230SOL    HW121149   3.274   2.920   3.433  0.4078  0.9457 -0.2948
 3230SOL    HW221150   3.185   3.019   3.491 -0.0091 -0.8192 -0.4519
 3231SOL     OW21151   4.660   3.586   3.472 -0.2885  0.2287 -0.0944
 3231SOL    HW121152   4.633   3.497   3.494 -1.5394  0.8270  0.7659
 3231SOL    HW221153   4.669   3.578   3.377 -1.4251  2.9068 -0.4111
 3232SOL     OW21154   2.019   0.716   7.749 -0.3313 -0.4523 -0.1456
 3232SOL    HW121155   2.045   0.725   7.841  0.1337  0.3391 -0.3573
 3232SOL    HW221156   2.087   0.654   7.722 -0.3055 -1.1042  1.3667
 3233SOL     OW21157   0.385   3.327  16.992  0.4171  0.4678 -0.1616
 3233SOL    HW121158   0.382   3.423  16.987  0.1266  0.3204 -2.4982
 3233SOL    HW221159   0.292   3.315  17.009  1.2020 -1.5142  2.8235
 3234SOL     OW21160   2.508   4.591   0.551  0.3671 -0.6871 -0.7508
 3234SOL    HW121161   2.594   4.567   0.587  0.5905  1.1026 -0.0784
 3234SOL    HW221162   2.466   4.635   0.625 -1.1517 -1.1836 -1.3348
 3235SOL     OW21163   1.020   4.242   3.446  0.2768  0.1210  0.5544
 3235SOL    HW121164   1.041   4.160   3.491  0.3378  0.4317  1.0905
 3235SOL    HW221165   1.109   4.269   3.423  0.0241  0.9546  0.5522
 3236SOL     OW21166   4.334   2.237   2.779 -0.0518 -0.5633 -0.3935
 3236SOL    HW121167   4.344   2.321   2.734 -1.9509 -1.1714 -1.9518
 3236SOL    HW221168   4.321   2.269   2.868  0.2019 -0.3963 -0.4166
 3237SOL     OW21169   0.169   2.513  17.080 -0.0937 -0.0010 -0.4906
 3237SOL    HW121170   0.264   2.507  17.091  0.0104  0.9940 -0.8899
 3237SOL    HW221171   0.142   2.561  17.158  3.1282 -0.5126  0.9303
 3238SOL     OW21172   3.052   1.846   5.567  0.3143 -0.4478 -0.5620
 3238SOL    HW121173   3.072   1.858   5.474  1.5678  0.7766 -0.1311
 3238SOL    HW221174   3.091   1.926   5.602 -1.4854  0.7934 -1.3906
 3239SOL     OW21175   0.123   4.137  11.316  0.2717 -0.7789 -0.8184
 3239SOL    HW121176   0.210   4.129  11.356 -0.0639 -0.2480 -0.0050
 3239SOL    HW221177   0.101   4.212  11.370 -0.0096 -1.7266  0.3880
 3240SOL     OW21178   0.116   2.526  10.173 -0.2165 -0.0470 -0.3631
 3240SOL    HW121179   0.100   2.450  10.118 -1.4222 -0.6104  0.7621
 3240SOL    HW221180   0.062   2.509  10.250  2.1080  1.1800  1.5564
 3241SOL     OW21181   3.954   4.210  14.266  0.6717  0.3874  0.6861
 3241SOL    HW121182   4.034   4.192  14.216  1.3231  1.2313  1.4246
 3241SOL    HW221183   3.916   4.273  14.205 -2.9509 -1.0682  1.4425
 3242SOL     OW21184   4.167   3.947   4.204  0.0341  0.5919  0.2851
 3242SOL    HW121185   4.163   3.984   4.116  0.2406  3.7978  1.6160
 3242SOL    HW221186   4.205   3.860   4.192  0.9374  1.0375 -0.1500
 3243SOL     OW21187   0.506   3.576   0.662 -0.1400  0.1466 -0.0639
 3243SOL    HW121188   0.544   3.518   0.727  0.2069  0.2968 -0.1346
 3243SOL    HW221189   0.462   3.514   0.603 -0.9135  1.5445 -0.9630
 3244SOL     OW21190   1.391   0.476   3.607 -0.1646 -0.6262  0.0825
 3244SOL    HW121191   1.484   0.455   3.600 -0.0865 -0.2460 -0.0437
 3244SOL    HW221192   1.353   0.444   3.525  0.2680  0.2706 -0.4734
 3245SOL     OW21193   4.042   1.919   9.874 -0.3389 -0.2576  0.6626
 3245SOL    HW121194   3.988   1.984   9.919 -2.8119 -0.6637 -1.7131
 3245SOL    HW221195   4.088   1.979   9.815 -0.3191 -0.9109  0.0146
 3246SOL     OW21196   0.838   1.173   2.950 -0.3690  0.1642  0.4121
 3246SOL    HW121197   0.841   1.077   2.946  1.6704  0.3830 -2.7431
 3246SOL    HW221198   0.817   1.184   3.043 -0.4381 -0.0495  0.4216
 3247SOL     OW21199   0.170   3.696   0.996 -0.4332 -0.1168  0.2165
 3247SOL    HW121200   0.118   3.648   1.060 -1.4028 -0.1665 -0.6092
 3247SOL    HW221201   0.262   3.675   1.013  0.3535  1.8928 -1.4442
 3248SOL     OW21202   2.603   4.283  14.043  0.2545  0.1554  0.3574
 3248SOL    HW121203   2.689   4.315  14.017  0.7984 -0.7255  1.0408
 3248SOL    HW221204   2.576   4.255  13.955  0.8213 -1.1344  0.5866
 3249SOL     OW21205   2.170   4.525   9.847 -0.0578  0.3991 -0.0558
 3249SOL    HW121206   2.196   4.461   9.913 -0.6502 -1.0287 -1.2224
 3249SOL    HW221207   2.139   4.474   9.773  0.9920 -1.9555  1.1076
 3250SOL     OW21208   3.110   3.265   6.731  0.5637  0.7893  0.3672
 3250SOL    HW121209   3.175   3.206   6.769 -0.1773 -1.6278 -2.1149
 3250SOL    HW221210   3.113   3.340   6.789 -1.6240  0.5173  0.8223
 3251SOL     OW21211   1.288   3.006   5.527  0.2788  0.1810  0.2063
 3251SOL    HW121212   1.347   3.080   5.543 -1.4307  1.7093 -0.5602
 3251SOL    HW221213   1.344   2.935   5.495  0.5597  0.9148 -0.9500
 3252SOL     OW21214   3.729   0.923   4.222  1.0361 -0.1948  0.4230
 3252SOL    HW121215   3.745   0.996   4.162  0.3557 -1.6876 -1.5891
 3252SOL    HW221216   3.802   0.863   4.203  0.6746 -0.7227  0.7117
 3253SOL     OW21217   4.672   1.738  10.607 -0.0071 -0.4734 -0.1725
 3253SOL    HW121218   0.001   1.749  10.527  1.2593  1.5273  0.9175
 3253SOL    HW221219   4.618   1.660  10.593  0.6915 -0.9802 -0.0619
 3254SOL     OW21220   0.649   0.141   8.345  0.6519 -0.1493 -0.8620
 3254SOL    HW121221   0.700   0.098   8.414 -1.5074 -0.3494  0.5848
 3254SOL    HW221222   0.709   0.212   8.321 -1.8678  2.0737 -0.5947
 3255SOL     OW21223   3.787   1.042   2.096 -0.6159 -0.0206  0.2288
 3255SOL    HW121224   3.832   1.018   2.177 -1.4531 -0.7692  0.4656
 3255SOL    HW221225   3.785   0.960   2.048 -1.4703  0.8797 -1.2584
 3256SOL     OW21226   0.318   2.186  16.201  0.4128  0.1064  0.5465
 3256SOL    HW121227   0.364   2.104  16.183  2.3645  1.3986 -0.3609
 3256SOL    HW221228   0.251   2.139  16.252  1.3650  0.2941  1.9748
 3257SOL     OW21229   4.116   0.514   2.642 -0.4248  0.2705  0.3035
 3257SOL    HW121230   4.109   0.448   2.711  0.4111 -0.7107 -0.5481
 3257SOL    HW221231   4.197   0.489   2.599  0.4561  1.4620  1.2881
 3258SOL     OW21232   1.037   2.955   6.278  0.3578  0.4219  0.0476
 3258SOL    HW121233   1.086   2.932   6.198 -2.5334 -1.6696 -1.1180
 3258SOL    HW221234   1.061   2.878   6.330  1.7396  0.2620 -0.8200
 3259SOL     OW21235   0.360   2.279  13.851  0.3940  0.7144  0.3574
 3259SOL    HW121236   0.364   2.343  13.780  0.8127 -1.2939 -1.3999
 3259SOL    HW221237   0.378   2.339  13.924 -0.8580  0.3533  0.9606
 3260SOL     OW21238   2.298   3.958   1.704 -0.5302  0.4225  0.6770
 3260SOL    HW121239   2.259   3.873   1.686  0.7033 -0.0624  0.2989
 3260SOL    HW221240   2.353   3.981   1.630 -1.2193 -1.8631 -0.5246
 3261SOL     OW21241   1.570   1.245  13.714  1.3792  0.2779 -0.0910
 3261SOL    HW121242   1.557   1.171  13.775 -1.2317 -0.3774 -1.4607
 3261SOL    HW221243   1.609   1.314  13.768  1.0157  0.3409  0.0912
 3262SOL     OW21244   3.724   1.928   5.603  0.3149  0.1465  0.2791
 3262SOL    HW121245   3.769   1.895   5.681  1.2783  2.7907  0.8195
 3262SOL    HW221246   3.643   1.967   5.635  1.8927  1.1068  3.1233
 3263SOL     OW21247   3.198   0.706   0.374 -0.0370 -0.1621  0.0363
 3263SOL    HW121248   3.274   0.656   0.344 -0.4983  0.2118 -1.6982
 3263SOL    HW221249   3.204   0.697   0.470 -1.5300 -0.2437  0.1250
 3264SOL     OW21250   1.702   0.777   5.348 -0.2403 -0.0160 -0.3022
 3264SOL    HW121251   1.650   0.761   5.269  0.0363  0.0446 -0.4944
 3264SOL    HW221252   1.704   0.873   5.347 -0.9442  0.0597  2.6916
 3265SOL     OW21253   2.083   3.752   6.318 -0.4290 -0.1875  0.0182
 3265SOL    HW121254   2.150   3.688   6.344  1.4888  1.4201 -0.9591
 3265SOL    HW221255   2.086   3.737   6.224 -0.2617 -1.0918  0.1679
 3266SOL     OW21256   3.688   1.883   7.644  0.9532  0.3709 -0.3475
 3266SOL    HW121257   3.754   1.832   7.692 -1.2696 -1.1956  1.0911
 3266SOL    HW221258   3.626   1.817   7.611 -1.1071  2.1123  0.0775
 3267SOL     OW21259   2.226   0.028   3.744  0.1725  0.0128  0.0324
 3267SOL    HW121260   2.137   0.061   3.760 -0.4730 -1.6599 -0.1440
 3267SOL    HW221261   2.210   4.667   3.787  1.0894 -0.0275  0.3054
 3268SOL     OW21262   0.646   0.619  14.156 -0.4003 -0.1319 -0.4794
 3268SOL    HW121263   0.591   0.618  14.234 -0.4364 -3.4803 -0.5322
 3268SOL    HW221264   0.600   0.684  14.103  0.0181  0.9130  0.4477
 3269SOL     OW21265   1.698   3.180   2.842 -0.8822 -0.0126  0.9143
 3269SOL    HW121266   1.666   3.093   2.818  2.0879 -0.1940 -2.2525
 3269SOL    HW221267   1.685   3.234   2.764 -0.6639 -1.3139 -0.0179
 3270SOL     OW21268   3.408   1.540   3.122 -0.1148 -0.2722  0.1913
 3270SOL    HW121269   3.425   1.601   3.050 -1.4866 -0.0642  0.0483
 3270SOL    HW221270   3.498   1.512   3.139  0.3775  1.3029  0.2107
 3271SOL     OW21271   3.957   3.377   4.381 -0.4374  0.1373  0.0748
 3271SOL    HW121272   3.945   3.457   4.330 -0.4149 -0.2581 -0.5503
 3271SOL    HW221273   3.970   3.308   4.315  0.3036  2.0976 -1.8422
 3272SOL     OW21274   0.011   0.990   8.771  0.1868  0.4157  0.2055
 3272SOL    HW121275   0.014   0.895   8.781 -0.5080  0.3065 -0.5830
 3272SOL    HW221276   4.654   1.006   8.821  0.6150 -0.8219  1.2708
 3273SOL     OW21277   1.624   4.590   2.157 -0.0424 -0.6291  0.3211
 3273SOL    HW121278   1.614   4.543   2.074 -1.3707 -2.5551  1.5707
 3273SOL    HW221279   1.718   4.609   2.156  0.0308 -1.0620 -1.0835
 3274SOL     OW21280   0.271   3.721   8.841 -0.0131  0.1589  0.0298
 3274SOL    HW121281   0.186   3.754   8.870 -0.7294 -0.0516 -1.8425
 3274SOL    HW221282   0.330   3.792   8.868 -0.9743  1.5940 -1.6525
 3275SOL     OW21283   3.172   1.938   8.205 -0.1590 -0.3305 -1.1707
 3275SOL    HW121284   3.223   1.868   8.246 -1.3498 -0.2610  0.4001
 3275SOL    HW221285   3.145   1.879   8.134 -0.1157 -0.1387 -1.3478
 3276SOL     OW21286   2.364   0.545   5.652  0.2231  0.1965 -0.0879
 3276SOL    HW121287   2.286   0.567   5.704 -0.5099 -0.0231 -1.1049
 3276SOL    HW221288   2.439   0.566   5.708 -0.3790  0.5397  0.5941
 3277SOL     OW21289   2.270   2.228   7.040  0.2218 -1.1409  0.4205
 3277SOL    HW121290   2.303   2.150   6.994 -1.4708  0.2798 -3.2017
 3277SOL    HW221291   2.265   2.198   7.130  0.2229  1.9477  1.4564
 3278SOL     OW21292   2.102   0.307   2.757  0.1325 -0.0963 -0.0762
 3278SOL    HW121293   2.144   0.393   2.750  2.7005 -1.2379  1.1326
 3278SOL    HW221294   2.174   0.259   2.799  0.0617  0.5169  0.7388
 3279SOL     OW21295   2.983   3.961  14.830  0.3956  0.4225  0.1481
 3279SOL    HW121296   3.063   3.949  14.779  1.4129  0.2156  1.7915
 3279SOL    HW221297   3.002   4.049  14.863 -1.3901  0.5658  0.7631
 3280SOL     OW21298   3.026   3.510   4.448  0.2842  0.0268  0.4418
 3280SOL    HW121299   3.027   3.545   4.537  1.1264  2.4856 -0.5373
 3280SOL    HW221300   2.963   3.442   4.474  1.4180 -1.3571 -0.4771
 3281SOL     OW21301   0.748   0.811   5.301  0.2447  0.3124 -0.3304
 3281SOL    HW121302   0.829   0.817   5.252  0.8861  0.6987  0.7649
 3281SOL    HW221303   0.776   0.867   5.374 -0.4734 -0.6866  0.7265
 3282SOL     OW21304   0.341   2.578   7.363  0.2298  0.6135 -0.2024
 3282SOL    HW121305   0.358   2.495   7.408  2.0218  0.9169 -0.2904
 3282SOL    HW221306   0.389   2.566   7.281  0.8103 -0.2177  0.2652
 3283SOL     OW21307   3.435   3.871   4.784  0.4095 -0.3711 -0.1009
 3283SOL    HW121308   3.472   3.815   4.715  1.1776 -0.6634  0.5536
 3283SOL    HW221309   3.467   3.957   4.759  3.0908 -1.4372 -0.3174
 3284SOL     OW21310   0.538   0.342   5.017  0.2450 -0.4986 -0.4808
 3284SOL    HW121311   0.619   0.387   5.042 -0.2319 -0.3006  0.6795
 3284SOL    HW221312   0.488   0.352   5.097 -0.8919 -1.2725 -1.0980
 3285SOL     OW21313   0.602   2.060  16.384  0.5595 -0.4024  0.0593
 3285SOL    HW121314   0.635   2.134  16.332  3.4547 -2.2066 -0.6859
 3285SOL    HW221315   0.638   1.982  16.342 -0.5789 -0.8609 -0.0489
 3286SOL     OW21316   1.905   0.459   2.162  0.3289  0.0215 -0.4056
 3286SOL    HW121317   1.947   0.503   2.088 -0.1772  1.6010  0.2255
 3286SOL    HW221318   1.914   0.538   2.217 -0.9124  1.7570 -2.6810
 3287SOL     OW21319   2.502   0.507  17.353 -0.4571 -0.9694 -0.3871
 3287SOL    HW121320   2.508   0.588  17.403  1.2778 -1.9259  0.9300
 3287SOL    HW221321   2.426   0.478  17.403  1.1326 -0.3979  2.3661
 3288SOL     OW21322   4.719   3.409   6.207 -0.4450 -0.4694  0.5088
 3288SOL    HW121323   0.055   3.444   6.140  0.3407 -3.2530 -0.2862
 3288SOL    HW221324   4.712   3.480   6.270 -2.0250 -0.0651 -0.1220
 3289SOL     OW21325   2.146   4.711   0.802  0.3434  0.1498 -0.0950
 3289SOL    HW121326   2.094   4.684   0.878  0.1104 -0.7372 -0.5719
 3289SOL    HW221327   2.224   4.661   0.822  0.4669  0.4063  0.0736
 3290SOL     OW21328   4.505   3.766   8.152 -0.0975  1.1265 -0.1695
 3290SOL    HW121329   4.595   3.796   8.165  0.1090  0.2849  0.3590
 3290SOL    HW221330   4.513   3.682   8.107 -0.5144  0.3700  1.1852
 3291SOL     OW21331   1.789   1.743   7.557 -0.0055 -0.3883  0.0929
 3291SOL    HW121332   1.815   1.660   7.598  0.0476 -0.8357 -0.8539
 3291SOL    HW221333   1.809   1.806   7.626  0.5088  0.8807 -1.2073
 3292SOL     OW21334   0.783   4.309   6.996  0.2715 -0.0099 -0.4941
 3292SOL    HW121335   0.841   4.381   6.971 -2.1247  0.7356 -3.8808
 3292SOL    HW221336   0.697   4.349   7.011  0.1279 -0.9370  1.1506
 3293SOL     OW21337   3.968   3.334   7.618 -0.1776 -0.2300  0.1348
 3293SOL    HW121338   3.953   3.295   7.532  0.4802 -0.5662  0.1671
 3293SOL    HW221339   3.884   3.318   7.660 -0.1062  0.8205  0.6953
 3294SOL     OW21340   2.071   2.856   2.435 -0.2771 -0.1532 -0.3582
 3294SOL    HW121341   2.009   2.839   2.364 -0.8413  1.4428 -0.2663
 3294SOL    HW221342   2.111   2.938   2.407 -2.2221  1.3121  1.1546
 3295SOL     OW21343   3.636   0.292   4.828  0.6454 -0.3955 -0.0456
 3295SOL    HW121344   3.564   0.241   4.791  2.1950 -0.4613 -2.9651
 3295SOL    HW221345   3.701   0.223   4.836 -0.7839 -1.9283 -1.6770
 3296SOL     OW21346   0.423   3.393   3.246 -0.3885 -0.2799 -0.1478
 3296SOL    HW121347   0.369   3.319   3.220  2.3985 -1.7947 -1.6074
 3296SOL    HW221348   0.354   3.455   3.270  1.0694  2.2188 -2.4163
 3297SOL     OW21349   3.079   3.905   4.512  0.1255 -0.4848 -0.2629
 3297SOL    HW121350   3.092   3.861   4.596  1.5090 -0.3173 -0.3730
 3297SOL    HW221351   3.135   3.855   4.453  0.1882 -1.0695  0.2998
 3298SOL     OW21352   1.142   1.559   0.381  0.4346 -0.9569  0.0514
 3298SOL    HW121353   1.113   1.612   0.455  2.2180  3.2571 -2.2268
 3298SOL    HW221354   1.061   1.525   0.344  1.0274 -0.5412 -1.6499
 3299SOL     OW21355   0.619   3.202   5.042  0.8187 -0.4263  0.3349
 3299SOL    HW121356   0.554   3.186   4.973 -1.3842  0.2442  2.2630
 3299SOL    HW221357   0.702   3.198   4.995  0.3588 -0.8918 -0.4626
 3300SOL     OW21358   3.045   1.962  10.403  0.0345 -0.0702  0.0855
 3300SOL    HW121359   2.998   1.963  10.487 -0.4680 -0.9212 -0.1895
 3300SOL    HW221360   3.003   1.887  10.362 -1.2169  0.0250  1.1814
 3301SOL     OW21361   2.915   1.425   0.823 -0.1488  0.1164 -0.0177
 3301SOL    HW121362   2.849   1.448   0.758 -1.3184 -2.1444  0.3782
 3301SOL    HW221363   2.865   1.416   0.904 -0.4526  1.1445 -0.0931
 3302SOL     OW21364   3.821   0.936   1.752  0.2364  0.1117  0.0658
 3302SOL    HW121365   3.769   0.912   1.676  1.0941 -2.2983  0.2585
 3302SOL    HW221366   3.796   0.870   1.817  2.0900 -0.6749 -0.0184
 3303SOL     OW21367   3.370   2.997   5.217 -0.0805 -0.2252 -0.0436
 3303SOL    HW121368   3.462   3.022   5.227 -0.5629  1.6730 -0.2922
 3303SOL    HW221369   3.346   3.061   5.150 -0.3134 -0.3077 -0.0399
 3304SOL     OW21370   0.421   2.561  17.202 -0.0218 -0.5043 -0.2793
 3304SOL    HW121371   0.448   2.641  17.157 -3.0810  0.6025 -0.0918
 3304SOL    HW221372   0.432   2.583  17.294  1.2502 -1.8513 -0.1095
 3305SOL     OW21373   0.617   2.184   0.820  0.1268  0.3881 -0.4079
 3305SOL    HW121374   0.542   2.230   0.782 -0.3515 -1.9935 -2.3892
 3305SOL    HW221375   0.604   2.090   0.802 -1.0529 -0.0800  2.8570
 3306SOL     OW21376   1.751   2.275   9.859 -0.7092 -0.6444 -0.6875
 3306SOL    HW121377   1.732   2.342   9.925 -0.3672 -0.7778 -0.4561
 3306SOL    HW221378   1.670   2.264   9.808 -0.7775 -0.0917 -0.7077
 3307SOL     OW21379   1.128   2.395  15.438  0.5387  0.3955 -0.7447
 3307SOL    HW121380   1.151   2.343  15.515  1.4983  2.7147  0.5442
 3307SOL    HW221381   1.069   2.458  15.479  0.0483 -0.7419  0.3036
 3308SOL     OW21382   3.180   3.843   1.651  0.1593 -0.2004  0.0319
 3308SOL    HW121383   3.165   3.914   1.589 -1.2148 -1.2084 -0.8124
 3308SOL    HW221384   3.160   3.893   1.730 -0.6193  1.1037 -1.0048
 3309SOL     OW21385   2.266   3.129  10.719  0.6466  0.7600  0.1546
 3309SOL    HW121386   2.353   3.125  10.679  1.2684 -0.1787  1.6155
 3309SOL    HW221387   2.294   3.184  10.792 -0.4472 -1.0396  1.9006
 3310SOL     OW21388   2.110   3.801  13.346  0.7943 -0.1626 -0.0683
 3310SOL    HW121389   2.039   3.777  13.286 -0.2793  0.4054  0.9873
 3310SOL    HW221390   2.167   3.842  13.281 -0.1539 -0.1401 -0.9008
 3311SOL     OW21391   4.395   2.662   7.897  0.2268 -0.1257  0.5918
 3311SOL    HW121392   4.395   2.691   7.806  0.0217  0.6570  0.8430
 3311SOL    HW221393   4.489   2.672   7.912  0.6824 -0.8462 -1.7329
 3312SOL     OW21394   3.074   3.744   2.407  0.7051  0.1867 -0.2634
 3312SOL    HW121395   3.164   3.776   2.413  1.5635 -2.0605 -1.2400
 3312SOL    HW221396   3.045   3.791   2.485  0.0413 -1.0763  0.2521
 3313SOL     OW21397   1.687   1.452  10.894  0.0214 -0.8477  0.0998
 3313SOL    HW121398   1.705   1.360  10.917  0.3407 -1.1508 -1.3717
 3313SOL    HW221399   1.768   1.491  10.926 -1.4032  1.0749  1.3928
 3314SOL     OW21400   1.090   1.277   2.677 -0.1574  0.1397  0.3377
 3314SOL    HW121401   1.022   1.228   2.630 -0.1495  0.9345 -0.4882
 3314SOL    HW221402   1.145   1.205   2.709  0.0853  0.6708  1.1061
 3315SOL     OW21403   2.251   0.109   9.890  0.5252 -0.2354  0.1082
 3315SOL    HW121404   2.260   0.204   9.896 -1.6604 -0.0202 -0.1699
 3315SOL    HW221405   2.329   0.083   9.841  0.9151  0.1462  0.5312
 3316SOL     OW21406   1.723   0.254   2.713  0.1370 -0.2902  0.2128
 3316SOL    HW121407   1.768   0.171   2.728  4.1004  1.6819 -0.8000
 3316SOL    HW221408   1.675   0.233   2.633  2.0155  0.5779 -1.1193
 3317SOL     OW21409   1.929   0.142   3.462 -0.0582  0.6317  0.2210
 3317SOL    HW121410   1.996   0.083   3.428 -1.1874  0.1764 -1.2098
 3317SOL    HW221411   1.902   0.184   3.380 -2.6749 -0.8897  0.3066
 3318SOL     OW21412   4.382   2.017   4.730 -0.2541 -0.4781  0.1677
 3318SOL    HW121413   4.366   1.980   4.644 -0.4829  2.4916 -1.0724
 3318SOL    HW221414   4.467   1.975   4.739 -0.6198 -1.2223  0.2151
 3319SOL     OW21415   4.717   3.642   2.090 -0.3451 -0.0617  0.4335
 3319SOL    HW121416   0.022   3.693   2.014 -0.9309  1.1629  1.0408
 3319SOL    HW221417   0.076   3.612   2.130 -0.4517  0.2101  0.8486
 3320SOL     OW21418   1.446   3.958   4.342 -0.1075  0.4273 -0.1934
 3320SOL    HW121419   1.404   4.002   4.268 -0.3886  2.5940  1.2620
 3320SOL    HW221420   1.486   4.031   4.388  0.0732 -0.6788  1.4043
 3321SOL     OW21421   1.283   1.184  17.478 -0.2230 -0.0026  0.1813
 3321SOL    HW121422   1.323   1.108  17.520  1.3917  0.5245 -0.4090
 3321SOL    HW221423   1.362   1.222  17.440  0.0316 -0.0171  0.7020
 3322SOL     OW21424   2.849   0.580   7.141  0.1115 -0.5531 -0.2404
 3322SOL    HW121425   2.860   0.485   7.146 -1.0560 -0.6414  0.6171
 3322SOL    HW221426   2.861   0.597   7.235  1.2874  2.6027 -0.9905
 3323SOL     OW21427   1.027   3.998  12.198 -0.3564 -0.4452  0.0870
 3323SOL    HW121428   0.963   4.022  12.264 -0.6968 -2.4724  0.4934
 3323SOL    HW221429   1.084   4.075  12.199  1.2601 -1.6890  2.2079
 3324SOL     OW21430   0.428   2.240   3.715 -0.2202  0.5337  0.2277
 3324SOL    HW121431   0.467   2.235   3.802  0.2459  0.5689  0.0252
 3324SOL    HW221432   0.337   2.213   3.728  0.3621 -1.0076  1.1683
 3325SOL     OW21433   2.217   2.054  15.815  0.0123  0.5176 -0.0033
 3325SOL    HW121434   2.253   1.990  15.754 -1.9834 -1.3374  0.7319
 3325SOL    HW221435   2.128   2.024  15.837  1.1381 -2.6405  0.2000
 3326SOL     OW21436   1.619   2.725   2.062  0.2257 -0.1809  0.4581
 3326SOL    HW121437   1.694   2.667   2.077  0.4458 -0.5024 -1.8544
 3326SOL    HW221438   1.548   2.668   2.092  0.3951  0.4235  1.9940
 3327SOL     OW21439   2.999   4.478   3.787 -0.0399 -0.2022 -0.1352
 3327SOL    HW121440   2.969   4.568   3.801 -0.0213 -0.0317 -1.1781
 3327SOL    HW221441   3.089   4.490   3.818  0.2193 -1.1919 -0.5027
 3328SOL     OW21442   0.643   1.232   2.459  0.3998  0.0838 -0.1530
 3328SOL    HW121443   0.664   1.143   2.487 -2.1189  0.3044  2.4949
 3328SOL    HW221444   0.635   1.281   2.541 -0.5937  1.2949 -0.9646
 3329SOL     OW21445   3.264   0.621   6.389 -0.4205 -0.4584  0.9744
 3329SOL    HW121446   3.315   0.540   6.389 -0.8422 -0.7374 -1.7313
 3329SOL    HW221447   3.180   0.586   6.358 -1.3955  2.1451  0.6655
 3330SOL     OW21448   4.280   0.107  15.175  0.1649  0.2741 -0.4534
 3330SOL    HW121449   4.346   0.073  15.115  0.9063 -0.4525  0.7770
 3330SOL    HW221450   4.265   0.187  15.125 -0.1366 -0.7363 -2.0019
 3331SOL     OW21451   1.640   2.054   7.196 -0.3940  0.1485  0.0134
 3331SOL    HW121452   1.626   2.014   7.281 -0.8804  2.9648  1.2500
 3331SOL    HW221453   1.600   2.140   7.209  1.1346  1.0969 -1.5002
 3332SOL     OW21454   0.320   0.745  16.446  0.1737  0.1583  0.1095
 3332SOL    HW121455   0.302   0.839  16.454 -1.1759 -0.1364  0.5046
 3332SOL    HW221456   0.236   0.703  16.426  1.3045 -0.9902 -2.2511
 3333SOL     OW21457   4.201   1.668   5.793 -0.2314 -0.5757 -0.5223
 3333SOL    HW121458   4.126   1.683   5.736  0.7506 -0.7453 -1.8668
 3333SOL    HW221459   4.228   1.582   5.761  1.4790 -0.2583  0.0698
 3334SOL     OW21460   4.205   3.632  15.714  0.2471 -0.1917  0.2964
 3334SOL    HW121461   4.282   3.632  15.772 -0.2980 -0.9397  1.0388
 3334SOL    HW221462   4.212   3.540  15.688  0.2005 -0.2484  0.4806
 3335SOL     OW21463   2.250   2.619  16.443  0.1353 -0.2279 -0.7240
 3335SOL    HW121464   2.248   2.560  16.367  2.8826  1.4901 -2.1079
 3335SOL    HW221465   2.225   2.694  16.389 -1.3780  0.6830  1.2438
 3336SOL     OW21466   1.738   1.201   0.825  0.2809 -0.0874 -0.1948
 3336SOL    HW121467   1.676   1.257   0.873 -2.3837 -1.6959 -1.7389
 3336SOL    HW221468   1.820   1.219   0.870  0.4670 -0.1229 -0.5222
 3337SOL     OW21469   4.393   0.831   6.400  0.6666  0.4298  0.4882
 3337SOL    HW121470   4.380   0.836   6.495 -0.7579  1.7966  0.2276
 3337SOL    HW221471   4.391   0.736   6.392 -0.8897  0.4502  0.6074
 3338SOL     OW21472   1.915   3.784  13.153  0.4302 -0.3021  0.4130
 3338SOL    HW121473   1.908   3.864  13.101 -0.6135  0.4060  1.6150
 3338SOL    HW221474   1.941   3.721  13.086 -1.3200  1.5603 -2.0394
 3339SOL     OW21475   0.775   2.011   8.872  0.0096 -0.1597  0.3399
 3339SOL    HW121476   0.701   2.002   8.812 -0.5796 -1.1648  1.2137
 3339SOL    HW221477   0.750   2.097   8.905  0.9674 -0.8933  3.0415
 3340SOL     OW21478   0.474   3.884   8.891 -0.6106  0.6549  0.3367
 3340SOL    HW121479   0.469   3.935   8.810  3.4078  0.3755 -0.0616
 3340SOL    HW221480   0.420   3.941   8.947 -1.6453 -0.8070  0.8147
 3341SOL     OW21481   4.682   0.576  17.324 -0.7951  0.4118  0.0065
 3341SOL    HW121482   0.023   0.546  17.259 -0.6423  0.0466  0.3252
 3341SOL    HW221483   4.645   0.490  17.343 -1.2580  0.9406  1.5591
 3342SOL     OW21484   2.338   4.395   8.428  0.1974 -0.2087  0.1049
 3342SOL    HW121485   2.258   4.418   8.475 -0.0247 -0.8491  0.0399
 3342SOL    HW221486   2.398   4.382   8.502  0.9461 -3.9115 -1.1806
 3343SOL     OW21487   4.512   1.972   7.129 -0.4457  0.6911  0.3954
 3343SOL    HW121488   4.516   2.050   7.073 -0.4627  0.0164 -0.5451
 3343SOL    HW221489   4.439   1.917   7.099 -0.6500  1.9129 -1.3503
 3344SOL     OW21490   2.232   3.045   6.463  0.1717 -0.0292 -0.3663
 3344SOL    HW121491   2.157   3.088   6.505 -0.2741 -2.4214  1.3067
 3344SOL    HW221492   2.191   2.984   6.402 -2.2740  0.1541  1.0785
 3345SOL     OW21493   4.438   2.883   4.896  0.1723  0.2384  0.7021
 3345SOL    HW121494   4.495   2.952   4.862  1.2619 -0.1712  1.7028
 3345SOL    HW221495   4.347   2.910   4.882  0.1124 -0.2710  0.1004
 3346SOL     OW21496   4.449   2.373   1.123 -0.3442  0.0990 -0.3910
 3346SOL    HW121497   4.442   2.368   1.218 -0.0284  0.6070 -0.3399
 3346SOL    HW221498   4.532   2.327   1.112  0.6319  1.8631 -0.4328
 3347SOL     OW21499   3.022   4.508  15.057  1.0578  0.4332  0.1403
 3347SOL    HW121500   3.037   4.599  15.031 -1.5175  0.5124 -1.0937
 3347SOL    HW221501   3.026   4.468  14.970  2.5097 -0.8104  0.7695
 3348SOL     OW21502   1.494   0.187   1.707 -0.0350  0.3849 -0.1252
 3348SOL    HW121503   1.419   0.223   1.755 -0.4740  0.8023 -1.1210
 3348SOL    HW221504   1.447   0.106   1.687  2.0126 -0.6108 -0.8247
 3349SOL     OW21505   1.281   0.376   2.533  0.3865 -0.0920  0.1597
 3349SOL    HW121506   1.272   0.298   2.479  2.9283  0.5805 -1.2324
 3349SOL    HW221507   1.220   0.426   2.479 -0.0246 -1.3721 -0.5591
 3350SOL     OW21508   0.745   1.553   2.747 -0.2000  0.3246  1.1155
 3350SOL    HW121509   0.758   1.565   2.842  1.5777 -1.6771  1.1235
 3350SOL    HW221510   0.750   1.458   2.741  0.0166  0.4328 -0.2810
 3351SOL     OW21511   3.072   1.565   8.074  0.2117  0.1778  0.0012
 3351SOL    HW121512   3.120   1.508   8.015  2.3868  1.1896  0.7832
 3351SOL    HW221513   3.072   1.642   8.017 -1.3921  0.3660  0.2466
 3352SOL     OW21514   2.560   1.050   7.129 -0.0643  0.2403  0.2577
 3352SOL    HW121515   2.614   1.129   7.130 -1.2936  1.0970 -3.2038
 3352SOL    HW221516   2.590   1.009   7.047 -1.0431 -0.6031  0.3185
 3353SOL     OW21517   1.566   0.352   0.987 -0.2880  0.3012 -0.3501
 3353SOL    HW121518   1.636   0.364   0.923  0.9705  0.8801  1.1498
 3353SOL    HW221519   1.595   0.414   1.054  1.2990 -0.6400 -0.1704
 3354SOL     OW21520   3.262   1.539   4.962  0.2444  0.6588 -0.1629
 3354SOL    HW121521   3.277   1.634   4.957  2.7245  0.2886  0.1963
 3354SOL    HW221522   3.187   1.536   5.021 -0.0721  1.6988 -0.5043
 3355SOL     OW21523   2.929   3.389  12.397 -0.1114  0.4201  0.0670
 3355SOL    HW121524   3.009   3.337  12.406  0.4503  1.1670 -0.7141
 3355SOL    HW221525   2.888   3.366  12.481 -0.0288  0.2429  0.0596
 3356SOL     OW21526   4.181   2.281   6.878  0.5892  0.1852 -0.2564
 3356SOL    HW121527   4.096   2.245   6.853  0.2992  0.3924  0.4395
 3356SOL    HW221528   4.155   2.368   6.908 -1.6701 -0.3226 -0.7283
 3357SOL     OW21529   0.643   0.170  16.670 -0.4748  0.1231 -0.0623
 3357SOL    HW121530   0.549   0.163  16.684 -0.4070 -0.5192  0.1088
 3357SOL    HW221531   0.662   0.263  16.675  1.7456 -0.3535  0.2617
 3358SOL     OW21532   0.295   3.466   8.759 -0.0468 -0.0665 -0.4449
 3358SOL    HW121533   0.242   3.427   8.828  1.4514  1.9249  1.8488
 3358SOL    HW221534   0.282   3.559   8.777  1.4299  0.4814 -2.1632
 3359SOL     OW21535   2.723   0.278   1.838  0.0265  0.7456 -0.3573
 3359SOL    HW121536   2.636   0.318   1.837  0.3979  1.5589 -1.0528
 3359SOL    HW221537   2.772   0.356   1.866 -0.0139  0.3963  0.6896
 3360SOL     OW21538   2.270   2.582   7.586  0.1335  0.1512 -0.0273
 3360SOL    HW121539   2.326   2.583   7.664  0.6846  3.3430 -0.4727
 3360SOL    HW221540   2.332   2.586   7.513 -2.2510  0.3382 -2.0635
 3361SOL     OW21541   0.900   0.937   5.469  0.1993 -0.3813  0.0403
 3361SOL    HW121542   0.971   0.981   5.422  0.6210 -1.7055 -0.5614
 3361SOL    HW221543   0.931   0.909   5.555  1.1946  0.6841  0.0329
 3362SOL     OW21544   0.612   3.612   0.147 -0.0787  0.0738 -0.3897
 3362SOL    HW121545   0.663   3.629   0.067 -1.5577 -1.7001 -1.7043
 3362SOL    HW221546   0.585   3.698   0.177  0.5003  0.0242  0.2848
 3363SOL     OW21547   3.196   1.971   5.035 -0.8319 -0.4289 -0.3604
 3363SOL    HW121548   3.256   2.043   5.018  0.3872 -1.0215  1.4277
 3363SOL    HW221549   3.243   1.901   4.990 -1.0057  1.1465 -3.0097
 3364SOL     OW21550   1.794   0.778   8.588 -0.1104 -0.0115 -0.1785
 3364SOL    HW121551   1.785   0.762   8.682  1.9290 -0.4057 -0.0540
 3364SOL    HW221552   1.706   0.812   8.568 -0.6312 -0.0740  1.9575
 3365SOL     OW21553   2.878   4.075  11.422  0.0152 -0.0496 -0.0538
 3365SOL    HW121554   2.940   4.005  11.402  1.4187  1.1826 -0.0582
 3365SOL    HW221555   2.794   4.029  11.423 -0.8488  1.5668  1.6866
 3366SOL     OW21556   0.656   3.608   3.770  0.2701 -0.0585 -0.4853
 3366SOL    HW121557   0.577   3.577   3.728 -1.1733  0.8202  1.5714
 3366SOL    HW221558   0.722   3.596   3.702  1.3027  3.4060 -0.1009
 3367SOL     OW21559   2.785   3.720   7.175 -0.1958 -0.2177 -0.0420
 3367SOL    HW121560   2.754   3.650   7.233  1.0320 -0.7557 -0.0246
 3367SOL    HW221561   2.877   3.696   7.163 -0.5333 -0.4462 -2.2030
 3368SOL     OW21562   1.913   0.198   5.546  0.2266 -0.1067 -0.1124
 3368SOL    HW121563   1.848   0.248   5.596  0.6258 -1.8299  2.1447
 3368SOL    HW221564   1.883   0.107   5.547  0.3204 -0.1331  0.3251
 3369SOL     OW21565   4.398   0.628   2.947  0.4945  0.0426  0.1475
 3369SOL    HW121566   4.315   0.646   2.992  0.6322 -0.2168  0.5038
 3369SOL    HW221567   4.403   0.698   2.882 -0.4663  1.5489  1.6777
 3370SOL     OW21568   2.089   0.472   3.140  0.6249 -0.1510 -0.2746
 3370SOL    HW121569   2.042   0.553   3.160  0.7684  0.1678 -1.2569
 3370SOL    HW221570   2.014   0.445   3.086  0.8053  2.2236 -1.6984
 3371SOL     OW21571   0.620   3.171   4.015 -0.4339 -0.3159  0.1310
 3371SOL    HW121572   0.711   3.143   4.028 -0.1150  0.7372  0.1137
 3371SOL    HW221573   0.637   3.259   4.048  2.7068 -1.6376  2.1159
 3372SOL     OW21574   3.322   2.033   8.462 -0.1541 -0.2079  0.3039
 3372SOL    HW121575   3.345   1.994   8.546 -0.8980 -1.8694 -0.2447
 3372SOL    HW221576   3.271   1.959   8.429 -0.8416  1.1033 -1.5586
 3373SOL     OW21577   0.864   2.253   2.145 -0.3097  0.2264 -0.2335
 3373SOL    HW121578   0.943   2.200   2.152  0.3706  1.1258 -0.9738
 3373SOL    HW221579   0.901   2.341   2.143 -1.8820  0.9168  1.3599
 3374SOL     OW21580   4.148   3.150   6.276 -0.7123  0.0192 -0.0993
 3374SOL    HW121581   4.067   3.100   6.270 -1.3088  0.9754 -0.0029
 3374SOL    HW221582   4.167   3.142   6.182  1.5383 -0.6729  0.4148
 3375SOL     OW21583   3.932   1.641   4.908  0.3589 -0.2541  1.1527
 3375SOL    HW121584   3.852   1.675   4.949 -0.1513 -0.9977  0.7849
 3375SOL    HW221585   3.896   1.607   4.825 -1.2393  0.1258  1.6856
 3376SOL     OW21586   3.269   4.693  14.944  0.6619  0.4706  0.4810
 3376SOL    HW121587   3.280   4.709  15.038  1.0230 -3.3344  1.0789
 3376SOL    HW221588   3.332   0.033  14.909  1.6024 -1.0203 -0.4717
 3377SOL     OW21589   2.323   3.763   4.479  0.3930  0.3090  0.5515
 3377SOL    HW121590   2.397   3.733   4.532 -0.7466  1.7592  2.9889
 3377SOL    HW221591   2.336   3.858   4.477 -0.2970  0.3383 -1.8427
 3378SOL     OW21592   2.482   2.379   6.746 -0.3514  0.0682 -0.1474
 3378SOL    HW121593   2.465   2.291   6.779  0.0764 -0.3352 -1.0088
 3378SOL    HW221594   2.554   2.386   6.809  0.8472 -2.3780 -1.2380
 3379SOL     OW21595   4.094   1.329   7.999 -0.2839 -0.0529  0.4750
 3379SOL    HW121596   4.074   1.278   8.078  0.2061 -0.6006  0.2478
 3379SOL    HW221597   4.189   1.341   8.005 -0.8085  3.8604  1.1535
 3380SOL     OW21598   2.487   1.337   0.648  0.5667 -0.0426 -0.2377
 3380SOL    HW121599   2.491   1.290   0.565 -1.8222  2.9874 -2.0967
 3380SOL    HW221600   2.563   1.394   0.642  0.5863 -0.2175 -1.6461
 3381SOL     OW21601   1.053   1.716   2.599  0.2930 -0.5098 -0.0764
 3381SOL    HW121602   1.031   1.701   2.691 -0.2314 -0.2435 -0.1550
 3381SOL    HW221603   1.121   1.649   2.592  2.4136  1.5673  0.9114
 3382SOL     OW21604   0.725   2.359   7.661  0.0253  0.5403 -0.2795
 3382SOL    HW121605   0.663   2.290   7.640  1.2233 -0.4299 -0.6553
 3382SOL    HW221606   0.808   2.318   7.686 -0.2442  2.0154  3.0595
 3383SOL     OW21607   2.806   4.375  13.497 -0.3148 -0.9137 -0.0222
 3383SOL    HW121608   2.780   4.315  13.566 -0.9739 -0.4378  0.1510
 3383SOL    HW221609   2.723   4.400  13.455 -0.9216 -0.4502  1.4500
 3384SOL     OW21610   4.655   2.943  12.239  0.0758  0.4256 -0.8649
 3384SOL    HW121611   4.657   2.969  12.332  1.3355  0.9228 -1.0374
 3384SOL    HW221612   0.015   2.897  12.227 -1.5807 -2.9002  0.4898
 3385SOL     OW21613   0.997   1.773   1.100 -0.0905  0.6346  0.1555
 3385SOL    HW121614   0.922   1.771   1.041  0.3430  2.2269 -0.4510
 3385SOL    HW221615   0.989   1.866   1.124  0.5689  0.6638  0.2858
 3386SOL     OW21616   1.296   1.661   6.654  0.2557  0.2272  0.2436
 3386SOL    HW121617   1.305   1.577   6.698 -2.3381  0.4305  1.1703
 3386SOL    HW221618   1.284   1.632   6.563  1.2061 -2.8895  1.1410
 3387SOL     OW21619   2.292   1.633   4.313 -0.0841  0.0394 -0.1442
 3387SOL    HW121620   2.313   1.572   4.384  2.9428  0.0459 -1.0172
 3387SOL    HW221621   2.219   1.600   4.262  0.2947 -0.1131 -0.5883
 3388SOL     OW21622   4.396   0.831  17.284  0.6952 -0.0724  0.4822
 3388SOL    HW121623   4.439   0.757  17.327  0.2431 -0.5820  0.0615
 3388SOL    HW221624   4.317   0.836  17.339 -0.2086 -1.7936 -0.6508
 3389SOL     OW21625   1.422   2.784  16.755 -0.6481  0.5707  0.4594
 3389SOL    HW121626   1.465   2.763  16.672  1.4489 -1.6593  2.1297
 3389SOL    HW221627   1.347   2.726  16.741  0.3228 -0.8401  1.1611
 3390SOL     OW21628   0.344   0.727  16.154 -0.2566 -0.4173 -0.0620
 3390SOL    HW121629   0.332   0.638  16.123 -0.4322  0.4923 -2.6220
 3390SOL    HW221630   0.350   0.714  16.248 -0.7364 -1.2459 -0.1489
 3391SOL     OW21631   4.452   3.565   3.772  0.2182  0.0926 -0.2240
 3391SOL    HW121632   4.436   3.531   3.684  0.8623 -1.4173  0.2226
 3391SOL    HW221633   4.546   3.546   3.781 -0.2429 -0.6869  2.9059
 3392SOL     OW21634   4.410   1.388   4.837 -0.2367  0.0554 -0.0717
 3392SOL    HW121635   4.503   1.377   4.857 -0.1762  0.9508  0.1425
 3392SOL    HW221636   4.379   1.299   4.853 -0.5655  0.4051  1.1982
 3393SOL     OW21637   2.275   4.448   3.479  0.3100  0.0629 -0.0471
 3393SOL    HW121638   2.242   4.366   3.515 -2.9461  1.2020 -0.4438
 3393SOL    HW221639   2.300   4.486   3.563 -2.9277  1.3513  0.3126
 3394SOL     OW21640   3.269   2.147   6.287  0.3818 -0.2822 -0.6676
 3394SOL    HW121641   3.289   2.054   6.300 -0.7813 -0.5412 -0.7498
 3394SOL    HW221642   3.353   2.177   6.250  0.1934 -1.5724 -2.1333
 3395SOL     OW21643   1.688   0.146   6.297 -0.4330 -0.1429 -0.0195
 3395SOL    HW121644   1.716   0.058   6.273  0.5776  0.6506 -1.7976
 3395SOL    HW221645   1.633   0.154   6.219 -1.1728 -0.6315  0.4530
 3396SOL     OW21646   1.308   3.172   7.648  0.3967 -1.0373  0.4042
 3396SOL    HW121647   1.371   3.148   7.716 -2.3158  1.2590  3.7106
 3396SOL    HW221648   1.311   3.268   7.658 -0.8517 -1.1195  1.5030
 3397SOL     OW21649   4.230   2.053   2.397 -0.3720 -0.2209 -0.2820
 3397SOL    HW121650   4.277   1.992   2.340 -0.9892  0.4518 -1.5133
 3397SOL    HW221651   4.159   2.074   2.336  1.4424  2.2701 -1.5495
 3398SOL     OW21652   2.335   0.723   5.929  0.3329  0.4388  0.0649
 3398SOL    HW121653   2.278   0.684   5.862 -0.8704  1.6287  0.3987
 3398SOL    HW221654   2.286   0.713   6.010 -0.7092 -0.4796 -0.6840
 3399SOL     OW21655   2.814   4.050   2.426  0.1555 -0.6392 -0.6498
 3399SOL    HW121656   2.858   4.111   2.367  0.2457 -0.0370  0.0488
 3399SOL    HW221657   2.856   4.071   2.509  0.1629 -1.4230 -0.4487
 3400SOL     OW21658   2.454   3.273   6.705  0.0977  0.2185  0.3769
 3400SOL    HW121659   2.376   3.287   6.759 -1.2809 -1.1465 -1.2567
 3400SOL    HW221660   2.515   3.243   6.772 -0.5836 -0.6979  0.5962
 3401SOL     OW21661   3.562   3.821  16.035  0.2588 -0.0091  0.0677
 3401SOL    HW121662   3.492   3.840  15.972  0.5535 -1.3120 -0.6407
 3401SOL    HW221663   3.631   3.792  15.976  0.1084  0.0279 -0.1275
 3402SOL     OW21664   3.585   1.429   0.467 -0.2523 -0.3339  0.2769
 3402SOL    HW121665   3.599   1.334   0.466  1.1102 -0.1477  0.8238
 3402SOL    HW221666   3.662   1.464   0.421  0.1760  0.3440  1.5005
 3403SOL     OW21667   3.244   1.123   6.478 -0.1057 -0.3573  0.3329
 3403SOL    HW121668   3.200   1.173   6.547  1.5089 -0.6867  1.5811
 3403SOL    HW221669   3.231   1.036   6.516 -1.2651  0.3767  1.6061
 3404SOL     OW21670   2.923   1.454  13.139 -0.2114 -0.3930  0.2863
 3404SOL    HW121671   2.923   1.444  13.044  0.0892  0.7823  0.1547
 3404SOL    HW221672   2.996   1.515  13.149  1.3886 -2.0333 -1.4680
 3405SOL     OW21673   2.066   4.151   0.694 -0.5977 -0.3388 -0.4866
 3405SOL    HW121674   1.995   4.139   0.758 -0.4777  0.2259 -0.2477
 3405SOL    HW221675   2.033   4.228   0.647 -1.7346  1.0639  2.5661
 3406SOL     OW21676   1.773   0.130   1.727 -0.1847  0.3112 -0.7797
 3406SOL    HW121677   1.681   0.140   1.749 -0.0432 -1.2070  0.5783
 3406SOL    HW221678   1.775   0.163   1.638  0.9560 -0.6882 -1.1293
 3407SOL     OW21679   2.605   3.634   0.778  0.2159 -0.1914 -0.2833
 3407SOL    HW121680   2.597   3.699   0.847 -1.1604 -1.0201  0.3290
 3407SOL    HW221681   2.674   3.585   0.823 -0.5394 -1.4483 -0.4789
 3408SOL     OW21682   2.724   1.423   5.403 -0.5396  0.4893 -0.4247
 3408SOL    HW121683   2.636   1.412   5.438 -0.9578 -0.1951 -1.6891
 3408SOL    HW221684   2.767   1.476   5.470  0.3213  0.0640 -0.6326
 3409SOL     OW21685   3.086   3.523   5.776  0.5294  0.3858 -0.8101
 3409SOL    HW121686   3.003   3.545   5.819  0.7090  1.0117 -0.7831
 3409SOL    HW221687   3.116   3.600   5.726  0.9472  0.8650  0.1676
 3410SOL     OW21688   4.257   3.534  15.340 -0.5697 -0.4133 -0.7402
 3410SOL    HW121689   4.266   3.439  15.338  0.6783 -0.3374  1.3150
 3410SOL    HW221690   4.173   3.542  15.294 -1.0487 -0.5616  0.1138
 3411SOL     OW21691   2.691   3.346   5.905  0.1989  0.0224  0.1984
 3411SOL    HW121692   2.620   3.345   5.969 -1.5810  0.4544 -1.7855
 3411SOL    HW221693   2.763   3.352   5.968 -0.1611  0.6068  0.5563
 3412SOL     OW21694   1.049   0.362   6.247 -0.2950 -0.3524 -0.4352
 3412SOL    HW121695   1.080   0.326   6.164 -1.7055 -0.6256 -0.8345
 3412SOL    HW221696   1.120   0.417   6.280 -1.6535 -0.3580  2.5464
 3413SOL     OW21697   3.295   1.771   7.650  0.1802  0.1236 -0.0502
 3413SOL    HW121698   3.364   1.763   7.584 -0.7390  3.3710 -1.3878
 3413SOL    HW221699   3.351   1.788   7.726  1.7568  0.5405 -1.3028
 3414SOL     OW21700   3.790   4.608   3.758  0.3558 -0.1963  0.3924
 3414SOL    HW121701   3.731   4.663   3.810 -0.0019 -1.3803  1.2435
 3414SOL    HW221702   3.739   4.527   3.760 -0.7273  0.4540 -2.0647
 3415SOL     OW21703   2.102   3.351   1.890 -0.4825 -0.3610 -0.4825
 3415SOL    HW121704   2.160   3.363   1.814  1.1569 -1.6213  0.5799
 3415SOL    HW221705   2.016   3.370   1.852  0.3331  1.5746 -1.3535
 3416SOL     OW21706   1.590   1.728   5.616  0.3294  0.0605 -0.0677
 3416SOL    HW121707   1.642   1.788   5.563  0.5182 -0.4649 -0.4814
 3416SOL    HW221708   1.520   1.713   5.553  1.8063 -0.6625 -1.5270
 3417SOL     OW21709   4.715   3.580   2.768  0.0872 -0.1797  0.2549
 3417SOL    HW121710   4.634   3.545   2.730 -0.3787  1.8429 -0.5681
 3417SOL    HW221711   0.059   3.579   2.699 -0.5475  0.0144 -0.3582
 3418SOL     OW21712   4.186   2.116  13.495  0.3350 -0.1738 -0.0283
 3418SOL    HW121713   4.157   2.042  13.442  1.5304  1.2035 -2.6186
 3418SOL    HW221714   4.099   2.151  13.513  0.0937 -0.4626 -0.6455
 3419SOL     OW21715   0.366   0.141   2.844 -0.2876  0.3895  0.0110
 3419SOL    HW121716   0.302   0.182   2.902  1.0999  0.3840  1.5774
 3419SOL    HW221717   0.335   0.164   2.757  0.3252  0.5024 -0.1822
 3420SOL     OW21718   2.451   0.038   6.590  0.3329  0.3857 -0.8375
 3420SOL    HW121719   2.381   0.021   6.654  1.3164 -0.3160  0.0509
 3420SOL    HW221720   2.419   0.000   6.508 -1.9642  0.1078  0.1751
 3421SOL     OW21721   1.327   3.515  14.789  0.4427 -0.7457  0.1344
 3421SOL    HW121722   1.272   3.552  14.859  2.6232 -0.1808  1.5696
 3421SOL    HW221723   1.364   3.431  14.817 -0.3841 -1.2072 -0.1786
 3422SOL     OW21724   2.975   0.388   7.611 -0.2067  0.6997  0.6246
 3422SOL    HW121725   2.900   0.431   7.653  0.7738  2.6812  0.3381
 3422SOL    HW221726   2.937   0.383   7.523  1.0671  3.7118 -0.0759
 3423SOL     OW21727   1.561   4.598   7.162 -0.4304  0.0924 -0.6333
 3423SOL    HW121728   1.475   4.605   7.122 -1.8720  0.0387  2.4255
 3423SOL    HW221729   1.556   4.507   7.192 -3.1104 -0.3712 -2.5205
 3424SOL     OW21730   0.529   3.910  12.789  0.1067  0.9171  0.4414
 3424SOL    HW121731   0.486   3.845  12.734 -0.1635  1.2514  0.2630
 3424SOL    HW221732   0.617   3.920  12.751  0.8451  0.8135  2.0973
 3425SOL     OW21733   3.861   4.188   6.892 -0.0512 -0.1302  0.1882
 3425SOL    HW121734   3.953   4.198   6.869  0.4011 -0.0475  2.0308
 3425SOL    HW221735   3.832   4.278   6.883 -1.5203 -0.8391 -2.0756
 3426SOL     OW21736   4.513   2.888   5.638 -0.4658  0.4552 -0.0695
 3426SOL    HW121737   4.419   2.869   5.641 -0.0899 -1.2814  0.9298
 3426SOL    HW221738   4.521   2.944   5.716  2.9431  0.1993 -0.2459
 3427SOL     OW21739   4.108   0.416   8.777  0.2992 -0.5892  0.5900
 3427SOL    HW121740   4.161   0.389   8.852  0.5425 -1.3049  0.1606
 3427SOL    HW221741   4.088   0.328   8.746  0.3713  0.6340 -2.8531
 3428SOL     OW21742   2.135   2.024   5.387 -0.2224  0.0602 -0.3667
 3428SOL    HW121743   2.192   1.953   5.415 -1.1974 -0.4292  0.4143
 3428SOL    HW221744   2.198   2.095   5.395  0.0117  0.1754 -3.5124
 3429SOL     OW21745   3.554   0.509   3.906  0.2782 -0.0849  0.0353
 3429SOL    HW121746   3.570   0.545   3.819 -0.0230  1.1511  0.4924
 3429SOL    HW221747   3.636   0.504   3.954 -1.2447 -0.0394  2.6708
 3430SOL     OW21748   3.122   2.920   6.237  0.0330  0.0345  0.2747
 3430SOL    HW121749   3.191   2.978   6.205 -0.2904  0.7419  0.8672
 3430SOL    HW221750   3.166   2.860   6.297  1.6425  0.6124 -0.3117
 3431SOL     OW21751   0.819   0.356  15.490 -0.1116  0.2088 -0.2752
 3431SOL    HW121752   0.894   0.371  15.432  0.1516  0.8056  0.2245
 3431SOL    HW221753   0.821   0.262  15.505  0.7124  0.0254 -1.5009
 3432SOL     OW21754   1.355   1.885   7.051  0.6113  0.6903 -0.6495
 3432SOL    HW121755   1.331   1.952   6.987  2.1829  1.2282 -0.6713
 3432SOL    HW221756   1.387   1.947   7.116  0.3281 -0.5354  0.6605
 3433SOL     OW21757   2.091   0.231   7.087 -0.1036  0.7438  0.6894
 3433SOL    HW121758   2.058   0.285   7.015  0.6766  1.2691  0.7176
 3433SOL    HW221759   2.183   0.227   7.059  0.0707 -2.9700  1.8518
 3434SOL     OW21760   1.660   1.668   9.998 -0.1365  0.4024  0.1964
 3434SOL    HW121761   1.595   1.725   9.957  0.0857 -0.8647 -1.9388
 3434SOL    HW221762   1.730   1.729  10.021 -0.2327 -0.3806  2.5519
 3435SOL     OW21763   0.743   0.021   5.818 -0.5200  0.2152 -0.1711
 3435SOL    HW121764   0.727   0.115   5.808  3.0594  0.8103 -0.1050
 3435SOL    HW221765   0.707   0.003   5.905 -0.6627  1.2431 -0.0103
 3436SOL     OW21766   2.424   0.304   2.213  0.5510 -0.3495  0.0560
 3436SOL    HW121767   2.358   0.291   2.145  1.4047 -2.5976 -0.3337
 3436SOL    HW221768   2.388   0.384   2.251  0.9811  0.4340 -1.1865
 3437SOL     OW21769   2.593   4.043   3.812  0.1531  0.1090 -0.4926
 3437SOL    HW121770   2.550   4.116   3.858 -0.3583 -0.6862  0.2747
 3437SOL    HW221771   2.676   4.081   3.784  0.9623 -2.6924 -1.8677
 3438SOL     OW21772   0.210   1.823   1.963 -0.4198 -0.0399  0.3958
 3438SOL    HW121773   0.259   1.786   1.890  0.5035 -1.2994  1.6502
 3438SOL    HW221774   0.192   1.746   2.017 -0.7604 -0.3055 -0.0981
 3439SOL     OW21775   3.539   4.448   8.555  0.0628  0.6025  0.6585
 3439SOL    HW121776   3.619   4.409   8.590  0.6241 -0.5818 -1.9088
 3439SOL    HW221777   3.553   4.538   8.583 -2.7155  1.6026 -1.1596
 3440SOL     OW21778   3.721   3.524   7.382 -0.4087  0.1345  0.0572
 3440SOL    HW121779   3.642   3.537   7.330  0.6400  0.4862 -1.4459
 3440SOL    HW221780   3.696   3.454   7.442 -0.3946  0.8743  0.9285
 3441SOL     OW21781   4.310   0.328   4.345 -0.0910 -0.0306 -0.7652
 3441SOL    HW121782   4.389   0.275   4.354  0.2909  0.4733 -1.1461
 3441SOL    HW221783   4.294   0.367   4.431  1.8405  0.0321 -0.4258
 3442SOL     OW21784   2.537   0.655  11.990 -0.1287 -0.2056 -0.5152
 3442SOL    HW121785   2.563   0.617  12.074 -2.4108 -1.3495 -0.3179
 3442SOL    HW221786   2.576   0.591  11.931 -0.6436 -4.0203  3.2837
 3443SOL     OW21787   1.621   1.483   0.244  0.3622 -0.2124  0.2749
 3443SOL    HW121788   1.536   1.450   0.217 -0.3924  3.6382 -2.0344
 3443SOL    HW221789   1.648   1.419   0.310  0.6085  2.8814  3.1540
 3444SOL     OW21790   4.603   2.498   2.571  0.1061 -0.7912  0.0193
 3444SOL    HW121791   4.579   2.531   2.484  0.9319 -1.4971 -0.4646
 3444SOL    HW221792   4.653   2.423   2.539 -2.1391 -3.2073  2.1909
 3445SOL     OW21793   4.213   3.469   2.259 -0.3600  0.3858  0.0231
 3445SOL    HW121794   4.120   3.475   2.279 -0.2772 -1.6691  1.0945
 3445SOL    HW221795   4.226   3.422   2.177 -0.5068 -0.5495  0.5288
 3446SOL     OW21796   4.390   2.985  11.517  0.0115  0.0714  0.2194
 3446SOL    HW121797   4.398   3.079  11.503  4.1853 -0.2259  0.6111
 3446SOL    HW221798   4.423   2.981  11.607 -0.3565  0.7797  0.3845
 3447SOL     OW21799   3.091   0.777   8.426 -0.2158  0.3609  0.3938
 3447SOL    HW121800   3.015   0.828   8.401  0.1789 -0.0306 -1.6332
 3447SOL    HW221801   3.162   0.842   8.424 -0.9018  1.0184 -3.7076
 3448SOL     OW21802   1.045   1.772   3.907 -0.1888  0.2476 -0.0954
 3448SOL    HW121803   1.120   1.763   3.966 -0.7538  2.7137  1.0135
 3448SOL    HW221804   1.005   1.689   3.932  0.3546 -0.3465 -1.1919
 3449SOL     OW21805   2.761   0.524   7.694  0.5681 -0.0668  0.1765
 3449SOL    HW121806   2.692   0.588   7.710 -0.0637 -0.5973 -0.4478
 3449SOL    HW221807   2.742   0.475   7.775 -0.1313 -1.0065 -0.5570
 3450SOL     OW21808   3.315   4.682   8.895 -0.3136 -0.8307 -0.3399
 3450SOL    HW121809   3.279   4.651   8.977 -1.5521  0.0353 -0.5557
 3450SOL    HW221810   3.249   4.661   8.829 -0.6401 -0.5212 -0.1090
 3451SOL     OW21811   4.388   3.183   4.312  0.4797 -0.3008  0.1077
 3451SOL    HW121812   4.425   3.129   4.242 -0.5836  0.2290 -0.8781
 3451SOL    HW221813   4.329   3.124   4.359  1.1494 -0.6232  0.5331
 3452SOL     OW21814   4.534   2.166   0.159  0.1334  0.2670 -0.1789
 3452SOL    HW121815   4.533   2.108   0.083 -1.1693  0.7013 -0.4945
 3452SOL    HW221816   4.627   2.172   0.180 -0.7195  3.1882  2.7277
 3453SOL     OW21817   1.189   0.032  10.100  0.1528 -0.1936 -0.4432
 3453SOL    HW121818   1.182   4.694  10.026  1.3652  1.1421 -1.6680
 3453SOL    HW221819   1.097   0.051  10.119  0.7163 -1.7805  3.7290
 3454SOL     OW21820   1.384   0.349  17.206  0.1479 -0.1669 -0.4413
 3454SOL    HW121821   1.333   0.296  17.144  0.7307 -0.3229 -0.7854
 3454SOL    HW221822   1.471   0.311  17.193 -0.0841  0.0056 -2.5011
 3455SOL     OW21823   3.795   4.135   2.904  0.5466 -0.2046 -0.0076
 3455SOL    HW121824   3.719   4.189   2.926  0.8467  0.0241  0.4638
 3455SOL    HW221825   3.809   4.173   2.818 -0.9628 -0.4884 -0.3895
 3456SOL     OW21826   1.890   1.462  15.485  0.3778  0.4216  0.6049
 3456SOL    HW121827   1.982   1.452  15.508  0.5250  1.0626  0.2770
 3456SOL    HW221828   1.858   1.531  15.544 -1.1434 -0.1012  0.3913
 3457SOL     OW21829   0.155   0.259  11.606 -0.4646 -0.7452  0.3205
 3457SOL    HW121830   0.194   0.314  11.674  1.8457 -1.1621 -0.6651
 3457SOL    HW221831   0.191   0.306  11.531  0.7745 -3.1357 -0.5961
 3458SOL     OW21832   2.271   3.096   3.390  0.3390 -0.2153  0.2780
 3458SOL    HW121833   2.177   3.106   3.380  0.4355 -0.7584 -1.2683
 3458SOL    HW221834   2.288   3.160   3.460 -2.6645 -1.7284  2.3691
 3459SOL     OW21835   0.335   4.371   8.244  0.1436 -0.1622 -0.4746
 3459SOL    HW121836   0.344   4.381   8.149  1.4290  1.9569 -0.1219
 3459SOL    HW221837   0.421   4.340   8.272  0.0638 -0.4148 -0.5108
 3460SOL     OW21838   0.672   3.960   6.848 -0.1527  0.1877 -0.0291
 3460SOL    HW121839   0.609   3.893   6.820 -0.0308 -0.5406  1.4600
 3460SOL    HW221840   0.650   4.028   6.784  2.8062  0.4824 -0.7100
 3461SOL     OW21841   0.454   2.837  10.407 -0.7903 -0.3027  0.4615
 3461SOL    HW121842   0.508   2.767  10.445 -0.4340 -0.1873  0.1630
 3461SOL    HW221843   0.368   2.797  10.401 -0.3778 -1.3071  1.2657
 3462SOL     OW21844   2.284   1.527   4.043  0.2740  0.3584  0.0392
 3462SOL    HW121845   2.378   1.513   4.035  0.3743  0.6039  0.8512
 3462SOL    HW221846   2.246   1.448   4.083  1.4609  1.4490  3.3154
 3463SOL     OW21847   1.138   2.541   3.193  0.3910 -0.5318  0.4169
 3463SOL    HW121848   1.150   2.484   3.118 -0.0775 -1.2979  0.9268
 3463SOL    HW221849   1.045   2.562   3.182  0.4689  0.2537  1.2009
 3464SOL     OW21850   0.021   0.057   6.146 -0.0822 -0.5854 -0.1849
 3464SOL    HW121851   4.655   0.085   6.121 -1.4171 -2.9206  2.0357
 3464SOL    HW221852   0.048   4.719   6.077  2.3915  2.0177 -1.5511
 3465SOL     OW21853   1.888   2.339   4.012  0.1793  0.6618 -1.0236
 3465SOL    HW121854   1.870   2.403   3.944 -0.5085  0.1194 -1.3556
 3465SOL    HW221855   1.840   2.381   4.083  0.5349 -1.0795  0.2536
 3466SOL     OW21856   0.835   1.551   3.357  0.1800 -0.1393 -0.6376
 3466SOL    HW121857   0.750   1.552   3.402  1.0687 -0.3171  1.0547
 3466SOL    HW221858   0.869   1.638   3.375  1.7181 -0.8520 -0.1172
 3467SOL     OW21859   1.143   3.756  13.668  0.7420  0.1128  0.1242
 3467SOL    HW121860   1.231   3.746  13.704 -0.5763  0.4145  3.4809
 3467SOL    HW221861   1.107   3.820  13.730  0.7374  1.4140 -1.2016
 3468SOL     OW21862   0.497   0.359  16.358 -0.2611 -0.3071  0.7696
 3468SOL    HW121863   0.480   0.381  16.450  0.3943  0.0898  0.7934
 3468SOL    HW221864   0.459   0.272  16.347 -0.6185 -0.2416  1.4430
 3469SOL     OW21865   0.945   2.085  10.307 -0.6339  0.3202  0.6159
 3469SOL    HW121866   0.920   2.057  10.395 -0.7040  0.0385  0.5073
 3469SOL    HW221867   0.922   2.007  10.256  0.8208  0.2923  0.0047
 3470SOL     OW21868   1.999   0.682   1.480  0.5130  0.0554  0.1390
 3470SOL    HW121869   1.987   0.613   1.545  2.0988  0.3833  0.7853
 3470SOL    HW221870   2.026   0.759   1.530 -0.3453  0.9963 -0.8438
 3471SOL     OW21871   3.350   3.386   1.093 -0.1419 -0.4020 -0.2793
 3471SOL    HW121872   3.328   3.472   1.129 -0.9833 -1.3762  1.5171
 3471SOL    HW221873   3.262   3.357   1.070  0.6211 -2.0648 -1.0500
 3472SOL     OW21874   2.577   1.495   3.057 -0.2976 -0.0641 -0.2563
 3472SOL    HW121875   2.596   1.577   3.011  0.6762 -0.0065  0.2547
 3472SOL    HW221876   2.661   1.485   3.101 -0.4553 -0.1598  0.0239
 3473SOL     OW21877   1.590   1.576  12.919 -0.1371 -0.0578 -0.1680
 3473SOL    HW121878   1.565   1.512  12.852  1.0262 -0.5248 -0.1503
 3473SOL    HW221879   1.574   1.662  12.880  0.8099 -0.6684 -1.9071
 3474SOL     OW21880   0.086   3.996   7.295 -0.8353 -0.3282 -0.1419
 3474SOL    HW121881   0.123   4.083   7.305 -0.3201 -0.7920  2.0531
 3474SOL    HW221882   0.045   4.000   7.209 -1.1305  2.3571  0.1436
 3475SOL     OW21883   2.466   3.260  14.786  0.2846  0.2250 -0.6516
 3475SOL    HW121884   2.430   3.341  14.751 -0.7160 -0.1669 -0.5486
 3475SOL    HW221885   2.556   3.263  14.754  1.2161  3.5565  2.2878
 3476SOL     OW21886   1.498   0.979   2.190 -0.0545 -0.3675 -0.1812
 3476SOL    HW121887   1.527   0.935   2.110  2.1510 -0.7464  0.8510
 3476SOL    HW221888   1.491   1.071   2.164 -1.2372 -0.9518 -1.9365
 3477SOL     OW21889   2.412   2.657   9.175  0.6513 -0.0233 -0.2970
 3477SOL    HW121890   2.327   2.625   9.146  0.6536 -1.8270  1.7027
 3477SOL    HW221891   2.454   2.573   9.197 -0.3316 -0.1779  0.9704
 3478SOL     OW21892   0.895   0.640   8.375 -0.3606  0.1899  0.1284
 3478SOL    HW121893   0.889   0.575   8.445  1.2325 -0.4648 -0.3336
 3478SOL    HW221894   0.906   0.716   8.432 -1.4061  0.4439 -0.0114
 3479SOL     OW21895   0.373   2.093   4.860  0.0640 -0.1147  0.2888
 3479SOL    HW121896   0.294   2.112   4.810  0.2629  0.4245  0.1744
 3479SOL    HW221897   0.396   2.176   4.901  2.3331 -1.0852  1.0066
 3480SOL     OW21898   3.076   2.595   3.213  0.0937 -0.1220 -0.0223
 3480SOL    HW121899   3.047   2.537   3.142  0.9198 -1.1072  0.4494
 3480SOL    HW221900   3.171   2.594   3.202  0.0845 -1.1010 -0.0340
 3481SOL     OW21901   2.307   0.932  17.241  0.1422 -0.0463 -0.3137
 3481SOL    HW121902   2.371   0.866  17.215 -0.5620 -0.2510 -1.5518
 3481SOL    HW221903   2.360   1.011  17.248  0.5363 -0.0633 -3.0690
 3482SOL     OW21904   4.004   3.924  13.176  0.0407 -0.6259  0.0311
 3482SOL    HW121905   4.010   3.884  13.089  1.2431 -0.8982  0.2435
 3482SOL    HW221906   4.088   3.970  13.176 -1.0328  1.3548 -0.6394
 3483SOL     OW21907   4.116   1.142  14.131  0.6066 -0.4321 -0.3599
 3483SOL    HW121908   4.050   1.200  14.092 -1.6549 -1.4537  1.9532
 3483SOL    HW221909   4.148   1.202  14.198 -0.5191  1.1444 -1.2175
 3484SOL     OW21910   0.585   1.525   7.975  0.3229 -0.4530 -0.0345
 3484SOL    HW121911   0.576   1.508   8.069  2.1735 -1.4543 -0.0505
 3484SOL    HW221912   0.614   1.439   7.946  0.2163  0.0871 -1.7010
 3485SOL     OW21913   4.122   3.193  16.377  0.1284 -0.5400 -0.3721
 3485SOL    HW121914   4.028   3.205  16.393  0.5309 -0.2913  1.7873
 3485SOL    HW221915   4.140   3.205  16.284 -1.3190 -0.4944 -0.6472
 3486SOL     OW21916   1.553   0.636   8.189 -0.0498 -0.1555  0.0789
 3486SOL    HW121917   1.476   0.628   8.133 -1.3029  0.2126  1.7511
 3486SOL    HW221918   1.570   0.730   8.195  0.9921 -0.3336 -0.1551
 3487SOL     OW21919   3.502   1.745  16.598  0.7890 -0.3971 -0.0865
 3487SOL    HW121920   3.545   1.680  16.654  2.0606 -0.6327 -1.3416
 3487SOL    HW221921   3.582   1.791  16.572 -0.5086  0.6127 -2.2752
 3488SOL     OW21922   3.935   4.037   4.685 -0.3214 -0.3421 -0.0845
 3488SOL    HW121923   4.013   4.073   4.643  0.1562 -1.2269  0.0407
 3488SOL    HW221924   3.975   3.978   4.748 -0.6338 -0.6791 -0.2023
 3489SOL     OW21925   3.343   2.649   2.117  0.4674  0.1324 -0.3078
 3489SOL    HW121926   3.311   2.736   2.139 -1.4470 -0.2212 -1.7459
 3489SOL    HW221927   3.302   2.642   2.031 -0.6984  2.9267  0.0097
 3490SOL     OW21928   3.140   0.226   2.365  0.4396 -0.0792 -0.8580
 3490SOL    HW121929   3.061   0.205   2.316  0.1295 -1.2001  0.1160
 3490SOL    HW221930   3.107   0.283   2.434 -1.3888 -0.2231 -1.6233
 3491SOL     OW21931   2.148   0.222   5.395 -0.4284  0.0849  0.2080
 3491SOL    HW121932   2.090   0.195   5.466 -0.1933  0.1899  0.4404
 3491SOL    HW221933   2.099   0.300   5.372 -0.9218 -0.4853 -0.7086
 3492SOL     OW21934   3.365   0.595  14.016 -0.2367 -0.4246 -0.0955
 3492SOL    HW121935   3.452   0.562  13.995 -0.9170 -1.2493 -1.6703
 3492SOL    HW221936   3.353   0.649  13.937 -1.7984  0.2245  0.5890
 3493SOL     OW21937   4.138   2.179   4.116  0.2214  0.7594  0.2807
 3493SOL    HW121938   4.064   2.119   4.124  0.9538 -0.2697 -0.7804
 3493SOL    HW221939   4.178   2.146   4.036 -1.3967 -0.2247 -0.1245
 3494SOL     OW21940   0.484   2.867   0.888  0.1611 -0.4316  0.2458
 3494SOL    HW121941   0.535   2.902   0.815  2.2073 -0.5702  1.6122
 3494SOL    HW221942   0.545   2.798   0.916 -0.5089 -1.5746 -1.1066
 3495SOL     OW21943   2.754   1.916   4.529  0.1420 -0.3391  0.1661
 3495SOL    HW121944   2.800   1.950   4.453 -0.3179  1.3423  0.6387
 3495SOL    HW221945   2.751   1.990   4.589 -1.7456  0.4673 -0.9339
 3496SOL     OW21946   2.292   3.515   2.927 -0.1071 -0.7462  0.0630
 3496SOL    HW121947   2.197   3.528   2.934  0.1636  0.5663  1.3980
 3496SOL    HW221948   2.324   3.605   2.917 -1.3258 -0.0672  2.1734
 3497SOL     OW21949   2.480   2.283   2.793  0.9786 -0.6985 -0.1200
 3497SOL    HW121950   2.536   2.314   2.864 -0.4943  1.3707  0.1452
 3497SOL    HW221951   2.433   2.205   2.825  0.6611 -1.4131 -2.3319
 3498SOL     OW21952   1.027   4.224   6.026 -0.0982  0.1500  0.6961
 3498SOL    HW121953   1.083   4.158   6.069  0.0219  0.8436  1.5935
 3498SOL    HW221954   1.014   4.190   5.937 -0.9694 -0.0015  0.8794
 3499SOL     OW21955   1.445   3.021   8.935 -0.8766  0.3852 -0.0476
 3499SOL    HW121956   1.464   2.938   8.891 -1.6559  0.7379 -1.0328
 3499SOL    HW221957   1.520   3.031   8.994 -0.1184 -0.7330 -0.8230
 3500SOL     OW21958   0.535   1.696   7.504  0.0622  0.8276 -0.1305
 3500SOL    HW121959   0.509   1.691   7.596  1.0527 -1.8311 -0.0079
 3500SOL    HW221960   0.604   1.630   7.504  1.4045  2.2107  1.9770
 3501SOL     OW21961   0.170   2.227   5.881  0.0341  0.3603  0.2272
 3501SOL    HW121962   0.106   2.225   5.953  1.0505  1.5331  1.1690
 3501SOL    HW221963   0.149   2.142   5.842  0.6512  0.3457 -0.0806
 3502SOL     OW21964   0.751   3.747  10.225 -0.1015 -0.2720  0.6168
 3502SOL    HW121965   0.772   3.795  10.306 -1.3285  0.6405  0.4020
 3502SOL    HW221966   0.702   3.667  10.246  0.9310 -0.5702  1.8433
 3503SOL     OW21967   0.414   1.063  10.335 -0.5187 -0.3450  0.5701
 3503SOL    HW121968   0.354   1.072  10.409 -1.5728  0.5588 -0.3953
 3503SOL    HW221969   0.435   1.156  10.330  1.5652 -0.7487  1.7285
 3504SOL     OW21970   0.999   1.212   4.672  0.2329 -0.1587 -0.1344
 3504SOL    HW121971   0.981   1.305   4.690  0.3238 -0.2116  0.2321
 3504SOL    HW221972   1.061   1.217   4.600 -2.5876 -1.1212 -2.6461
 3505SOL     OW21973   3.678   1.407   3.862  0.3206 -0.3462 -0.1154
 3505SOL    HW121974   3.706   1.368   3.780  0.9102 -1.6270  0.6949
 3505SOL    HW221975   3.756   1.444   3.903  0.0571 -1.0469  1.0376
 3506SOL     OW21976   3.447   4.557   6.354 -0.3198  0.2257  0.7432
 3506SOL    HW121977   3.502   4.513   6.419  1.5356  0.1103 -0.8869
 3506SOL    HW221978   3.417   4.483   6.303  1.4970 -0.9060  1.3220
 3507SOL     OW21979   3.317   2.901   5.478  0.4727 -0.1580  0.1824
 3507SOL    HW121980   3.230   2.939   5.489  1.1686  0.7572  2.4575
 3507SOL    HW221981   3.354   2.956   5.410  2.2856 -0.3625  0.9942
 3508SOL     OW21982   0.177   0.020   4.151  0.7773  0.5465  0.1757
 3508SOL    HW121983   0.259   0.039   4.105 -0.1559  1.2056 -1.2018
 3508SOL    HW221984   0.192   0.058   4.238 -0.4059  0.2297  0.5202
 3509SOL     OW21985   1.234   1.771   2.843 -0.7510 -0.1550  0.0270
 3509SOL    HW121986   1.148   1.735   2.861 -1.5106  1.1915 -0.8400
 3509SOL    HW221987   1.201   1.861   2.841 -1.0173 -0.2397  0.5798
 3510SOL     OW21988   3.551   1.145   3.937  0.3848 -0.2526  0.0839
 3510SOL    HW121989   3.532   1.235   3.963  0.1070 -0.6761  1.3376
 3510SOL    HW221990   3.468   1.116   3.898 -0.2025  2.6035 -0.7969
 3511SOL     OW21991   1.827   3.395   4.047  0.4539 -0.9142  0.6259
 3511SOL    HW121992   1.898   3.416   4.107 -0.1700  3.7422 -0.2799
 3511SOL    HW221993   1.839   3.462   3.980 -1.2132  1.0567  2.2718
 3512SOL     OW21994   3.496   0.093   3.483 -0.6801 -0.2631  1.4093
 3512SOL    HW121995   3.471   0.028   3.418  1.7898  0.6998 -0.5065
 3512SOL    HW221996   3.582   0.117   3.450 -1.0674  0.7395  1.1405
 3513SOL     OW21997   1.747   4.183   1.840  0.1133  0.1003 -0.6458
 3513SOL    HW121998   1.787   4.186   1.753  0.2479 -1.4202 -0.6219
 3513SOL    HW221999   1.792   4.114   1.888  1.0106  0.5181 -0.8828
 3514SOL     OW22000   2.180   3.208   5.582 -0.7280 -0.3883 -0.1241
 3514SOL    HW122001   2.208   3.157   5.658 -1.6825  0.5925  0.8955
 3514SOL    HW222002   2.108   3.154   5.549 -0.0215 -0.8292 -0.9522
 3515SOL     OW22003   3.434   2.081   0.385 -1.3978  0.5769  0.1283
 3515SOL    HW122004   3.485   2.077   0.466 -0.6903  2.0999 -0.2374
 3515SOL    HW222005   3.461   2.170   0.360  0.0006 -0.8357 -3.3591
 3516SOL     OW22006   0.272   2.102  14.066  0.4887 -0.2720 -0.3932
 3516SOL    HW122007   0.262   2.153  13.985  0.4976  0.8413  0.3133
 3516SOL    HW222008   0.183   2.094  14.102  1.1869 -1.1942  1.0960
 3517SOL     OW22009   3.264   0.631  13.241  0.5922  0.4460 -0.4369
 3517SOL    HW122010   3.173   0.657  13.227  0.7529  0.8176 -0.7793
 3517SOL    HW222011   3.322   0.689  13.192 -0.0087  1.1583 -0.2887
 3518SOL     OW22012   2.660   0.597  12.591  0.2526 -0.1205  0.5106
 3518SOL    HW122013   2.712   0.646  12.527  0.0779 -0.2769  0.2482
 3518SOL    HW222014   2.576   0.643  12.600  0.3521 -0.0132  0.8869
 3519SOL     OW22015   4.268   0.976  10.955  0.8111  0.1773  0.2396
 3519SOL    HW122016   4.178   0.987  10.925 -0.0587  1.0309  3.1748
 3519SOL    HW222017   4.284   0.894  10.909  1.4143  0.7269 -0.5186
 3520SOL     OW22018   4.063   1.298   7.321 -0.0322 -0.5401 -0.0418
 3520SOL    HW122019   4.074   1.392   7.330 -1.8308 -0.4099  0.9745
 3520SOL    HW222020   4.096   1.273   7.408  1.9777  3.5299  0.3637
 3521SOL     OW22021   1.418   3.263   9.217  0.0228  0.1291  0.6307
 3521SOL    HW122022   1.426   3.348   9.260  0.9287  1.1345 -1.5661
 3521SOL    HW222023   1.463   3.204   9.278  0.2989  0.9266  1.2011
 3522SOL     OW22024   4.178   3.194  10.620 -0.3218 -0.3854  0.0892
 3522SOL    HW122025   4.129   3.191  10.702 -0.6647 -0.2739 -0.1143
 3522SOL    HW222026   4.244   3.252  10.660  0.0745 -0.8773  0.1425
 3523SOL     OW22027   2.019   4.354   5.338  0.2141 -0.2240  0.0823
 3523SOL    HW122028   2.022   4.402   5.255  0.0534  0.2615  0.3595
 3523SOL    HW222029   2.076   4.278   5.327 -0.9355 -1.0807  0.1165
 3524SOL     OW22030   3.525   3.139  14.459 -0.1445  0.0555 -0.2494
 3524SOL    HW122031   3.478   3.184  14.389 -1.1372  0.7292  0.8535
 3524SOL    HW222032   3.517   3.048  14.430 -1.9852  0.8041 -2.1077
 3525SOL     OW22033   1.646   4.449   8.236 -0.2318 -0.1137  0.1347
 3525SOL    HW122034   1.737   4.481   8.234 -0.2105 -0.0403  2.0463
 3525SOL    HW222035   1.638   4.378   8.300 -1.7151  0.4115  0.5276
 3526SOL     OW22036   4.272   0.750   4.039 -1.3005  0.2423  0.3495
 3526SOL    HW122037   4.194   0.744   3.985 -2.1744  0.1229  1.6230
 3526SOL    HW222038   4.287   0.665   4.081 -1.2208 -0.9170 -2.0429
 3527SOL     OW22039   0.281   3.677  15.301 -0.0246 -0.7162 -0.0878
 3527SOL    HW122040   0.248   3.608  15.358 -1.1403  0.2829  0.4590
 3527SOL    HW222041   0.371   3.666  15.332 -0.0548 -0.9656 -0.0843
 3528SOL     OW22042   3.008   2.475  16.318  0.4796 -0.0035  0.3541
 3528SOL    HW122043   3.026   2.405  16.380 -0.8593 -0.2617  0.4625
 3528SOL    HW222044   2.979   2.544  16.377  3.5896  1.5418  0.0614
 3529SOL     OW22045   1.131   0.175   5.656 -0.1128  0.2094  0.1816
 3529SOL    HW122046   1.050   0.201   5.700 -1.0848 -2.6133  0.1048
 3529SOL    HW222047   1.182   0.250   5.686  1.0495 -0.3781 -0.3391
 3530SOL     OW22048   3.442   2.629   7.191 -0.2663  0.3619  0.1668
 3530SOL    HW122049   3.514   2.586   7.236 -0.9435 -1.8103 -0.8132
 3530SOL    HW222050   3.457   2.609   7.099 -1.1079  2.3047 -0.3848
 3531SOL     OW22051   4.122   3.671   6.785  0.0064  0.3424 -0.6579
 3531SOL    HW122052   4.097   3.640   6.699  0.2816  2.6105 -1.5651
 3531SOL    HW222053   4.063   3.626   6.846 -0.9712  0.2787 -1.6651
 3532SOL     OW22054   4.228   0.296   9.008  0.0255 -0.3190  0.1540
 3532SOL    HW122055   4.265   0.226   9.062 -2.6819 -2.1550 -0.3843
 3532SOL    HW222056   4.275   0.373   9.041  1.3480 -0.6762 -0.9167
 3533SOL     OW22057   1.659   3.740   6.685 -0.1674  0.3791  0.1318
 3533SOL    HW122058   1.588   3.754   6.749 -1.4823 -0.3258 -1.1829
 3533SOL    HW222059   1.721   3.680   6.726 -1.1251  0.0281  1.0643
 3534SOL     OW22060   3.205   1.944  17.465 -0.1188  0.2012  0.0553
 3534SOL    HW122061   3.267   1.958  17.394 -0.1045 -3.7784 -0.7080
 3534SOL    HW222062   3.248   1.908  17.542 -1.1315  1.4011  1.1962
 3535SOL     OW22063   2.907   2.097   2.956 -0.2171 -0.4890  0.4618
 3535SOL    HW122064   2.980   2.051   2.996 -1.2281 -2.0787  0.4844
 3535SOL    HW222065   2.950   2.161   2.899 -0.3702 -0.6143  0.2066
 3536SOL     OW22066   2.397   1.511  16.691  0.3003  0.5694  0.1831
 3536SOL    HW122067   2.377   1.561  16.612  0.4404  1.0962  0.4783
 3536SOL    HW222068   2.492   1.498  16.686  0.4776  1.2937  1.6038
 3537SOL     OW22069   4.500   1.223   7.705  0.2893 -0.2853 -0.2857
 3537SOL    HW122070   4.419   1.184   7.737 -0.3398  1.5979  0.4640
 3537SOL    HW222071   4.454   1.305   7.684  0.9680  0.8603  2.7267
 3538SOL     OW22072   4.096   0.609  13.175  0.2067  0.2921  0.1656
 3538SOL    HW122073   4.053   0.694  13.189  1.1394  1.0820 -1.7179
 3538SOL    HW222074   4.017   0.554  13.178  0.6284 -0.2452  1.3124
 3539SOL     OW22075   0.538   3.835   0.957  0.4122  0.1241 -0.1015
 3539SOL    HW122076   0.479   3.856   1.029 -0.1189  1.6222 -0.9847
 3539SOL    HW222077   0.477   3.846   0.883  0.0717  0.4214  0.2244
 3540SOL     OW22078   4.692   4.346   9.704  0.4540 -0.5443 -0.0744
 3540SOL    HW122079   4.625   4.302   9.652 -1.3912  0.8488  1.1312
 3540SOL    HW222080   0.044   4.290   9.683  0.9141  0.6349 -1.6071
 3541SOL     OW22081   1.770   2.649   6.703  0.6178  0.5871 -0.2303
 3541SOL    HW122082   1.766   2.612   6.791 -0.0558 -1.7480 -1.2459
 3541SOL    HW222083   1.723   2.732   6.709  0.0159  0.3524 -1.8473
 3542SOL     OW22084   3.121   2.367   3.069 -0.1318  0.1166 -0.2881
 3542SOL    HW122085   3.153   2.375   2.979  0.3255 -2.5147 -0.3618
 3542SOL    HW222086   3.197   2.373   3.127  1.9883  1.2159 -3.2087
 3543SOL     OW22087   2.297   3.966   3.231 -0.3658  0.0866  0.6059
 3543SOL    HW122088   2.241   4.042   3.212 -0.6726 -0.7924 -1.9455
 3543SOL    HW222089   2.252   3.900   3.179  1.1063  0.3375 -0.9802
 3544SOL     OW22090   2.436   4.135   7.756 -0.2679 -0.1388  0.0600
 3544SOL    HW122091   2.464   4.222   7.783  0.8226 -1.1828  2.2884
 3544SOL    HW222092   2.450   4.093   7.841 -3.8987 -0.8010  0.3607
 3545SOL     OW22093   1.262   4.387   9.095 -0.4497 -0.0356 -0.6577
 3545SOL    HW122094   1.218   4.302   9.085  2.0330 -1.4148  0.2592
 3545SOL    HW222095   1.355   4.368   9.102 -0.7038 -1.4880 -1.2915
 3546SOL     OW22096   2.662   2.351  15.843 -0.4135  0.1730  0.4077
 3546SOL    HW122097   2.617   2.269  15.822  2.9232 -1.5250 -0.0549
 3546SOL    HW222098   2.599   2.418  15.815 -0.4200  0.9168  2.1967
 3547SOL     OW22099   3.510   0.578   7.198 -0.3192  0.4106  0.0244
 3547SOL    HW122100   3.567   0.565   7.273  1.7810 -2.1971 -2.0325
 3547SOL    HW222101   3.445   0.512   7.223 -1.1114  0.3913 -2.0092
 3548SOL     OW22102   0.528   4.015   7.728 -0.4183 -0.2742  0.3426
 3548SOL    HW122103   0.476   3.974   7.658 -1.3704 -2.1462  2.1635
 3548SOL    HW222104   0.475   4.094   7.734 -1.2440 -0.7531 -0.5094
 3549SOL     OW22105   1.798   1.062   6.457 -0.5632  0.8519  0.4765
 3549SOL    HW122106   1.874   1.094   6.409 -2.2637  2.4123 -1.1845
 3549SOL    HW222107   1.777   0.982   6.407 -0.5990  1.4205 -0.4211
 3550SOL     OW22108   1.380   1.422   3.773  0.1732  0.0632  0.4383
 3550SOL    HW122109   1.307   1.375   3.813 -0.1704 -0.3424 -0.6731
 3550SOL    HW222110   1.348   1.417   3.683 -1.1441 -0.6595  0.9666
 3551SOL     OW22111   0.700   2.017   1.143  0.1085  0.0400 -0.3446
 3551SOL    HW122112   0.776   2.076   1.152  1.0750 -1.0491 -1.4822
 3551SOL    HW222113   0.706   1.983   1.054 -0.1201  0.5943 -0.5716
 3552SOL     OW22114   3.937   2.604   3.853 -0.1297  0.2991  0.1678
 3552SOL    HW122115   3.996   2.594   3.928  2.0075 -2.8920 -1.9593
 3552SOL    HW222116   3.967   2.526   3.807 -0.5963 -0.7285  1.6114
 3553SOL     OW22117   1.530   3.281   1.651  0.2063 -0.5268 -0.3526
 3553SOL    HW122118   1.501   3.370   1.668 -0.6789 -0.7768 -0.5478
 3553SOL    HW222119   1.463   3.232   1.699 -0.3960  1.4750  0.8333
 3554SOL     OW22120   0.700   4.679   3.044  0.0479 -0.3845  0.7955
 3554SOL    HW122121   0.717   0.039   2.999 -1.3650 -1.5174 -1.7806
 3554SOL    HW222122   0.784   4.635   3.032  0.0181  0.7159 -3.4850
 3555SOL     OW22123   2.309   1.161   7.689 -0.1982 -0.2044 -0.1896
 3555SOL    HW122124   2.314   1.132   7.780 -1.1719  1.4397  0.3853
 3555SOL    HW222125   2.341   1.080   7.649 -0.4908  0.2857 -1.4270
 3556SOL     OW22126   0.861   4.033   8.629  0.3427  0.0950  0.1249
 3556SOL    HW122127   0.770   4.060   8.631  0.1806 -0.5264  1.4360
 3556SOL    HW222128   0.907   4.077   8.700  2.2115 -1.6177 -0.0077
 3557SOL     OW22129   1.223   1.468   2.550  0.3933  0.0746  0.0090
 3557SOL    HW122130   1.166   1.408   2.596  1.9504  1.5166  3.8177
 3557SOL    HW222131   1.286   1.472   2.622 -0.8885  0.1105  1.1294
 3558SOL     OW22132   2.879   1.806  15.792 -0.4389  0.0996 -0.2118
 3558SOL    HW122133   2.809   1.818  15.857 -1.1014 -0.4517 -0.8240
 3558SOL    HW222134   2.931   1.886  15.799 -0.6086  0.0967  1.0735
 3559SOL     OW22135   2.569   4.312   6.841 -0.2809  0.0222 -1.0426
 3559SOL    HW122136   2.547   4.243   6.779  0.1025 -2.8295  2.0381
 3559SOL    HW222137   2.511   4.387   6.826 -0.0964  0.8091  2.0708
 3560SOL     OW22138   1.815   1.638   8.040 -0.6346 -0.4098 -0.5324
 3560SOL    HW122139   1.786   1.713   7.988 -1.0876  0.7729  1.4263
 3560SOL    HW222140   1.881   1.679   8.096  0.6138  0.5188 -2.6540
 3561SOL     OW22141   2.853   3.110  14.417 -0.3023 -0.1317 -0.6116
 3561SOL    HW122142   2.778   3.139  14.365 -1.4577 -0.2014  1.0182
 3561SOL    HW222143   2.852   3.016  14.404 -1.7860 -0.0739 -0.8836
 3562SOL     OW22144   2.804   3.476   1.227  0.5799  0.9082 -0.1411
 3562SOL    HW122145   2.822   3.396   1.276 -0.8092  1.2885  0.9826
 3562SOL    HW222146   2.736   3.511   1.284  1.2679  0.7732  0.7506
 3563SOL     OW22147   1.103   3.291   2.402 -0.6397 -0.2543  0.2083
 3563SOL    HW122148   1.134   3.365   2.453 -1.2199 -0.5788  1.0206
 3563SOL    HW222149   1.096   3.340   2.320  0.7975  0.9078  0.7867
 3564SOL     OW22150   1.383   0.528   5.533 -0.2245 -0.0938 -0.8508
 3564SOL    HW122151   1.336   0.534   5.450 -1.1947  3.6995 -0.0422
 3564SOL    HW222152   1.469   0.567   5.521  0.1401 -1.4187 -2.6052
 3565SOL     OW22153   0.851   4.018   5.306 -0.3646  0.6953  0.6033
 3565SOL    HW122154   0.833   3.982   5.392  0.4002 -1.7038 -0.2535
 3565SOL    HW222155   0.769   4.064   5.288 -1.2029 -1.1108 -0.1466
 3566SOL     OW22156   0.153   0.563  12.788 -0.4139  0.0086 -0.1260
 3566SOL    HW122157   0.230   0.537  12.738 -1.2195  0.7373 -1.7325
 3566SOL    HW222158   0.091   0.519  12.731 -0.8037 -1.6298  1.5836
 3567SOL     OW22159   3.022   3.434   2.074 -0.0690  0.4500  0.3696
 3567SOL    HW122160   3.112   3.404   2.066 -1.0797 -2.3476 -0.3388
 3567SOL    HW222161   3.006   3.444   2.168  1.4708 -0.3688  0.7193
 3568SOL     OW22162   4.466   1.501   3.918  0.2774  0.0232  0.3587
 3568SOL    HW122163   4.483   1.454   3.837  0.1959  0.6994 -0.0554
 3568SOL    HW222164   4.416   1.432   3.961 -1.5086 -0.1151 -1.9246
 3569SOL     OW22165   1.720   0.374   0.112  0.1759  0.0095  0.2831
 3569SOL    HW122166   1.745   0.402   0.024 -0.6236  0.0186  0.0613
 3569SOL    HW222167   1.638   0.415   0.138  0.2624  0.0142  0.5488
 3570SOL     OW22168   0.784   4.560  12.869  0.1509  0.1604  0.1587
 3570SOL    HW122169   0.700   4.602  12.855 -0.9784 -1.8431  0.9579
 3570SOL    HW222170   0.782   4.512  12.786  1.4704  0.4342 -0.0318
 3571SOL     OW22171   2.386   1.194   8.569  0.6040  0.0801  0.5637
 3571SOL    HW122172   2.460   1.155   8.616 -0.0501  1.3637  2.6438
 3571SOL    HW222173   2.313   1.178   8.629 -1.4502  0.6458 -1.7850
 3572SOL     OW22174   0.448   0.137   3.217 -0.2539 -0.1743 -0.3466
 3572SOL    HW122175   0.515   0.079   3.253 -2.1447 -1.3911  1.2023
 3572SOL    HW222176   0.367   0.086   3.223  0.7311 -1.7143 -0.0411
 3573SOL     OW22177   1.889   2.450   9.678 -0.3923 -0.1063 -0.5050
 3573SOL    HW122178   1.959   2.385   9.679 -1.0361 -0.7774  1.2656
 3573SOL    HW222179   1.834   2.396   9.734 -0.1828  1.2583  1.0255
 3574SOL     OW22180   0.600   1.785   9.365 -0.3266 -0.3832 -0.0475
 3574SOL    HW122181   0.595   1.847   9.292 -1.0651  1.1195  1.2999
 3574SOL    HW222182   0.512   1.754   9.347 -0.1358  0.2672 -2.0898
 3575SOL     OW22183   2.295   3.541  12.484 -0.2991 -0.1271 -0.6081
 3575SOL    HW122184   2.307   3.532  12.390  1.8189 -1.2222 -0.2315
 3575SOL    HW222185   2.284   3.635  12.498 -0.4108 -0.0875 -0.9651
 3576SOL     OW22186   1.987   1.687   4.210  0.9769 -0.4000  0.6649
 3576SOL    HW122187   1.970   1.592   4.208  1.6828 -0.6054  3.4852
 3576SOL    HW222188   1.939   1.708   4.291 -0.9765 -0.2797 -0.5315
 3577SOL     OW22189   0.688   2.477   0.635 -0.2595 -0.9752  0.4688
 3577SOL    HW122190   0.665   2.403   0.579  0.5721 -1.2242  0.4464
 3577SOL    HW222191   0.712   2.539   0.566 -1.2193 -0.9823  0.1381
 3578SOL     OW22192   1.224   3.844  17.538 -0.3382 -0.3939  0.1639
 3578SOL    HW122193   1.274   3.768  17.508  0.7702  0.0134  0.9872
 3578SOL    HW222194   1.166   3.844  17.462  0.7344 -0.6802 -0.6565
 3579SOL     OW22195   0.337   2.655  12.701  0.5808 -0.0947  0.4691
 3579SOL    HW122196   0.282   2.577  12.692  1.0557 -0.1823 -1.6993
 3579SOL    HW222197   0.342   2.667  12.796  2.6664  0.9442  0.2388
 3580SOL     OW22198   3.079   1.423  17.260  0.2760  0.3076  0.2826
 3580SOL    HW122199   3.099   1.503  17.308 -1.3456  0.6460  0.3591
 3580SOL    HW222200   3.127   1.436  17.178  0.5856 -1.9806  0.0909
 3581SOL     OW22201   0.804   3.084   9.408  0.6327  0.5224  0.0989
 3581SOL    HW122202   0.812   2.988   9.407 -1.5488  0.3696 -1.8697
 3581SOL    HW222203   0.880   3.105   9.463  2.4888 -1.9385 -1.5358
 3582SOL     OW22204   0.533   0.988   5.325  0.4575  0.1015 -0.0212
 3582SOL    HW122205   0.607   0.929   5.317  0.2739 -0.7093  4.4565
 3582SOL    HW222206   0.554   1.032   5.407  1.6907  0.0939 -0.3431
 3583SOL     OW22207   0.892   4.491   1.866  0.4631 -0.1624 -0.1790
 3583SOL    HW122208   0.877   4.404   1.904 -0.8941  0.2370  0.2209
 3583SOL    HW222209   0.855   4.469   1.780  0.8132  1.4032 -0.7179
 3584SOL     OW22210   4.571   2.161  12.584 -1.2207 -0.2492  0.4778
 3584SOL    HW122211   4.578   2.218  12.507  0.1580  1.5173  1.9326
 3584SOL    HW222212   4.576   2.226  12.654 -0.1038  0.6942 -0.4892
 3585SOL     OW22213   0.595   0.220   6.875 -0.5821  0.0159 -0.6437
 3585SOL    HW122214   0.542   0.300   6.877 -2.5360 -1.2699 -0.9505
 3585SOL    HW222215   0.542   0.169   6.814  1.2628 -0.4136 -1.8668
 3586SOL     OW22216   0.238   1.162  16.895  0.1460 -0.2527 -0.0623
 3586SOL    HW122217   0.314   1.120  16.854 -0.6289 -2.6788  1.0321
 3586SOL    HW222218   0.172   1.159  16.825 -0.1375  2.0479  0.0982
 3587SOL     OW22219   1.505   1.552  14.719 -0.9648 -0.3436 -0.3302
 3587SOL    HW122220   1.550   1.475  14.684 -0.6725 -0.8547  1.1763
 3587SOL    HW222221   1.526   1.619  14.655 -0.3038  0.2249  0.4836
 3588SOL     OW22222   1.868   2.780   7.718 -0.6530  0.4373 -0.1892
 3588SOL    HW122223   1.876   2.697   7.670 -0.4456  0.2253  0.2130
 3588SOL    HW222224   1.900   2.846   7.657 -0.0807 -1.1842 -1.6681
 3589SOL     OW22225   2.135   2.558   5.259 -0.2722 -0.3832 -0.4257
 3589SOL    HW122226   2.142   2.565   5.164 -0.5929  0.0552 -0.4187
 3589SOL    HW222227   2.198   2.629   5.272 -2.2561  1.6986 -2.3067
 3590SOL     OW22228   1.412   2.565   6.338 -0.1545  0.3133  0.9264
 3590SOL    HW122229   1.493   2.544   6.293 -0.6195  0.0918  0.1951
 3590SOL    HW222230   1.436   2.652   6.372  0.5920 -0.6908  2.9695
 3591SOL     OW22231   2.980   0.983   3.217  0.7113 -0.1376  0.2740
 3591SOL    HW122232   3.032   1.061   3.200 -2.2208  1.9060  0.8348
 3591SOL    HW222233   2.925   0.982   3.138 -1.7708  0.2271  2.0139
 3592SOL     OW22234   4.619   0.142   7.178  0.3575  0.5485  0.0529
 3592SOL    HW122235   4.586   0.224   7.214  2.0958  0.9668  0.6904
 3592SOL    HW222236   4.693   0.138   7.238  0.0756 -0.4172  0.3375
 3593SOL     OW22237   2.167   2.863   8.442 -0.3160 -0.1112 -0.2077
 3593SOL    HW122238   2.129   2.816   8.516  1.9053 -0.5494  0.6562
 3593SOL    HW222239   2.163   2.951   8.481 -0.2490  0.0523 -0.5650
 3594SOL     OW22240   1.719   2.145   0.221 -0.0595 -0.1688 -0.4019
 3594SOL    HW122241   1.812   2.160   0.233 -0.2041  1.5852 -1.4274
 3594SOL    HW222242   1.714   2.139   0.125 -0.3983 -0.3800 -0.3718
 3595SOL     OW22243   1.722   1.065   5.356 -0.9806 -0.1813 -0.2302
 3595SOL    HW122244   1.638   1.091   5.319 -1.6448  1.6884  2.6928
 3595SOL    HW222245   1.779   1.098   5.286  1.2903  0.1734  1.7876
 3596SOL     OW22246   2.440   1.306  15.708 -0.1177  0.0334  0.2912
 3596SOL    HW122247   2.528   1.279  15.733 -0.2254 -0.3945  0.2135
 3596SOL    HW222248   2.443   1.314  15.612  1.0061  2.6438  0.5503
 3597SOL     OW22249   1.939   0.018   0.177 -0.1875 -0.0580 -0.0609
 3597SOL    HW122250   2.017   4.696   0.143 -0.3599  0.5359 -1.1934
 3597SOL    HW222251   1.923   4.684   0.253 -2.0766 -1.0206 -1.1881
 3598SOL     OW22252   1.834   4.646   2.419 -0.7839  0.2487  0.4309
 3598SOL    HW122253   1.792   4.685   2.342 -2.3133 -0.7450  0.7744
 3598SOL    HW222254   1.871   0.001   2.461 -2.5926  0.7624  1.0749
 3599SOL     OW22255   2.025   3.595   0.514 -0.4771 -0.4008 -0.3186
 3599SOL    HW122256   2.074   3.672   0.486 -0.8554  0.0513  0.2552
 3599SOL    HW222257   2.036   3.541   0.437 -0.0711  1.3064 -1.4656
 3600SOL     OW22258   1.328   3.161   4.006 -0.7510 -0.3286  0.2472
 3600SOL    HW122259   1.396   3.213   4.048 -2.5215  1.5666  0.7718
 3600SOL    HW222260   1.271   3.220   3.957  0.3130  1.2988  0.9591
 3601SOL     OW22261   2.519   1.031  12.667  0.2555 -0.1802 -0.3223
 3601SOL    HW122262   2.570   0.962  12.623 -1.6205 -0.5533 -1.9043
 3601SOL    HW222263   2.431   0.995  12.679 -0.5335  1.7012 -0.4109
 3602SOL     OW22264   3.133   3.960   6.944  0.1054 -0.2285  0.5746
 3602SOL    HW122265   3.100   3.954   7.034  1.4729 -1.1406  1.0107
 3602SOL    HW222266   3.227   3.950   6.959 -0.0245 -0.6039  1.1148
 3603SOL     OW22267   0.995   3.783   1.949 -0.1090 -0.2505  0.1554
 3603SOL    HW122268   1.010   3.874   1.971  1.7297 -0.3529 -0.6959
 3603SOL    HW222269   1.052   3.785   1.872  0.9738 -0.4108  0.9595
 3604SOL     OW22270   1.115   4.090   5.354  0.2289  0.3275 -0.3415
 3604SOL    HW122271   1.034   4.039   5.359  0.9385 -0.8739 -1.1155
 3604SOL    HW222272   1.068   4.170   5.375  1.9866  0.5231  2.8004
 3605SOL     OW22273   4.355   3.793   4.404  0.6617  0.3615  0.0323
 3605SOL    HW122274   4.426   3.768   4.345  0.5346 -2.2367  0.9645
 3605SOL    HW222275   4.283   3.746   4.362  1.2573 -0.4969 -0.0301
 3606SOL     OW22276   3.793   2.697   8.902 -0.3587  0.4593 -0.2469
 3606SOL    HW122277   3.710   2.671   8.941 -0.1231  0.8258  0.4967
 3606SOL    HW222278   3.767   2.763   8.838  1.2075  0.6823 -0.6496
 3607SOL     OW22279   0.347   2.345  11.487  0.0679 -0.2788  0.1699
 3607SOL    HW122280   0.344   2.301  11.402 -1.0019 -0.5478  0.3472
 3607SOL    HW222281   0.400   2.288  11.541  0.2581  0.8297  1.1542
 3608SOL     OW22282   1.894   3.506   2.089 -0.0898 -0.7227 -0.0235
 3608SOL    HW122283   1.887   3.514   1.993 -0.4392  1.2983  0.1638
 3608SOL    HW222284   1.875   3.412   2.091 -0.4481 -0.6633 -0.4292
 3609SOL     OW22285   1.208   0.207   9.735 -0.1738 -0.0867 -1.0592
 3609SOL    HW122286   1.121   0.186   9.768 -0.2360 -0.3520 -1.3923
 3609SOL    HW222287   1.259   0.153   9.795 -1.3214  0.2960  0.2650
 3610SOL     OW22288   1.675   4.425   2.852  0.1290  0.3977  0.0020
 3610SOL    HW122289   1.721   4.440   2.934  1.3528 -2.6886 -0.1314
 3610SOL    HW222290   1.726   4.351   2.819 -0.6618 -0.4321  0.6545
 3611SOL     OW22291   2.219   1.372   6.020 -0.0410  0.5826 -0.1459
 3611SOL    HW122292   2.153   1.436   5.997  0.0792 -0.1033 -2.3877
 3611SOL    HW222293   2.170   1.290   6.028 -1.5478  1.4795 -0.2481
 3612SOL     OW22294   1.444   0.957   1.666  0.6924 -0.3834  0.1116
 3612SOL    HW122295   1.449   0.878   1.720  2.6002 -1.9955 -2.4556
 3612SOL    HW222296   1.360   0.947   1.621  0.3128  3.0300  0.0721
 3613SOL     OW22297   0.569   3.302   8.929 -0.2463  0.1457  0.0776
 3613SOL    HW122298   0.560   3.206   8.929 -0.3202  0.1521  0.2041
 3613SOL    HW222299   0.654   3.315   8.971 -0.7795  0.2854  1.1221
 3614SOL     OW22300   0.541   4.099   3.455  0.2391  0.2899 -0.0274
 3614SOL    HW122301   0.533   4.188   3.420 -1.2937  0.0786 -0.2140
 3614SOL    HW222302   0.578   4.112   3.542 -0.9686  0.9061  0.4024
 3615SOL     OW22303   0.514   0.423   1.306 -0.2045 -0.2766  0.0403
 3615SOL    HW122304   0.553   0.419   1.219  1.6603 -0.2715  0.8723
 3615SOL    HW222305   0.419   0.428   1.293 -0.2035 -0.1754  0.0669
 3616SOL     OW22306   0.888   3.247   4.943  0.3308 -0.0331 -0.0458
 3616SOL    HW122307   0.917   3.162   4.975 -0.2139  0.2959  1.3239
 3616SOL    HW222308   0.943   3.254   4.864  0.5510 -0.2237  0.0937
 3617SOL     OW22309   2.562   2.035   7.745 -0.0844  0.1155 -0.1988
 3617SOL    HW122310   2.580   1.942   7.735  1.3251  0.4029 -0.4451
 3617SOL    HW222311   2.647   2.071   7.719  0.1078 -0.0612  0.1747
 3618SOL     OW22312   1.763   1.227  11.018  0.1659 -0.4014  0.1127
 3618SOL    HW122313   1.724   1.239  11.104  0.7825  1.3324  0.1518
 3618SOL    HW222314   1.827   1.157  11.029 -0.0918 -0.4950  1.0236
 3619SOL     OW22315   4.373   2.765   8.797 -0.3596 -0.2489  0.3451
 3619SOL    HW122316   4.420   2.730   8.722  0.3447 -0.6445  0.9637
 3619SOL    HW222317   4.290   2.801   8.766  0.6656  1.1670 -0.7167
 3620SOL     OW22318   0.174   2.540   0.617 -0.0166  0.0580 -0.5694
 3620SOL    HW122319   0.185   2.493   0.700 -2.7357 -3.0226 -1.9288
 3620SOL    HW222320   0.144   2.626   0.644  1.5931  0.4160  0.0497
 3621SOL     OW22321   2.735   0.269   5.239 -0.0705 -0.2032  0.5388
 3621SOL    HW122322   2.766   0.229   5.157  0.4174 -1.1857  1.2054
 3621SOL    HW222323   2.799   0.341   5.248  0.7928 -1.0964  1.5376
 3622SOL     OW22324   3.465   3.196   0.579 -0.3937  0.0333 -0.3289
 3622SOL    HW122325   3.536   3.148   0.535 -1.1027 -0.4293 -0.9750
 3622SOL    HW222326   3.487   3.191   0.672  1.1737  2.8666 -0.5305
 3623SOL     OW22327   1.226   3.661  15.552 -0.3011  0.2730 -0.6911
 3623SOL    HW122328   1.174   3.637  15.629 -0.2409  0.9403 -0.4439
 3623SOL    HW222329   1.185   3.744  15.528 -0.5796  0.0894 -0.8603
 3624SOL     OW22330   2.106   3.678   4.638  0.6614  0.2037 -0.2150
 3624SOL    HW122331   2.155   3.693   4.557 -0.1650 -0.9618 -0.9260
 3624SOL    HW222332   2.151   3.600   4.669 -2.1730 -2.6376 -3.2705
 3625SOL     OW22333   4.344   4.246  13.683  0.0749  0.1043 -0.2943
 3625SOL    HW122334   4.290   4.275  13.609  0.7471 -1.5262 -1.4368
 3625SOL    HW222335   4.418   4.198  13.645  0.4555 -0.4595  1.1633
 3626SOL     OW22336   0.791   1.361   8.476  0.0168 -0.2240  0.0734
 3626SOL    HW122337   0.745   1.431   8.523 -2.4714 -1.4496 -0.5616
 3626SOL    HW222338   0.806   1.385   8.385  0.9654 -0.9014  0.0551
 3627SOL     OW22339   4.305   4.545   9.056  0.1456 -0.5439 -0.4882
 3627SOL    HW122340   4.357   4.468   9.080 -0.9595 -0.8772  0.8464
 3627SOL    HW222341   4.217   4.506   9.054 -0.1621  0.0916  0.9094
 3628SOL     OW22342   2.431   1.598   9.717  0.0700  0.4217 -0.0514
 3628SOL    HW122343   2.452   1.691   9.720 -2.3564  0.9641 -0.1156
 3628SOL    HW222344   2.504   1.557   9.672 -0.0953  0.5535 -0.4412
 3629SOL     OW22345   1.576   2.320  13.661  0.5253 -0.1239 -0.2307
 3629SOL    HW122346   1.555   2.315  13.567 -0.3701 -0.2103 -0.0297
 3629SOL    HW222347   1.528   2.239  13.680  1.7850 -1.0634 -1.0421
 3630SOL     OW22348   3.109   2.736  12.340  0.0553 -0.1639 -0.5212
 3630SOL    HW122349   3.014   2.734  12.328 -0.4267  1.6735  2.8813
 3630SOL    HW222350   3.106   2.780  12.425  0.2618 -1.6847  0.2663
 3631SOL     OW22351   3.487   0.886   2.380 -0.5274  0.2252  0.7657
 3631SOL    HW122352   3.408   0.933   2.352  0.7799  1.6972 -0.4329
 3631SOL    HW222353   3.480   0.817   2.314 -0.6256  1.3706 -0.4222
 3632SOL     OW22354   3.948   3.229  10.769 -0.0446  0.6412  0.5192
 3632SOL    HW122355   3.865   3.210  10.812 -0.3562 -0.5532 -0.6260
 3632SOL    HW222356   3.940   3.156  10.708  1.2967  2.7176 -2.1521
 3633SOL     OW22357   1.979   3.260   0.912 -0.0387 -0.9014  0.0291
 3633SOL    HW122358   2.041   3.265   0.839  0.5769  1.1909  0.6896
 3633SOL    HW222359   2.020   3.189   0.961 -1.9473 -1.9774  0.0653
 3634SOL     OW22360   2.286   0.856   0.734 -0.1163 -0.4484 -0.2592
 3634SOL    HW122361   2.229   0.879   0.660  0.4480 -0.0981 -0.5870
 3634SOL    HW222362   2.345   0.931   0.726 -2.4802  1.3632 -0.6984
 3635SOL     OW22363   3.011   1.454   4.503 -0.6321  0.1044 -0.1070
 3635SOL    HW122364   3.031   1.529   4.447 -0.2960  1.0183  1.2195
 3635SOL    HW222365   3.089   1.455   4.558 -1.0115 -1.5903  0.4774
 3636SOL     OW22366   0.261   2.056  10.101  0.2105  0.1379  0.1519
 3636SOL    HW122367   0.351   2.081  10.123 -0.2519  1.2215  0.8012
 3636SOL    HW222368   0.271   1.989  10.033 -0.2141  1.6663 -1.4082
 3637SOL     OW22369   4.719   3.924   7.045  0.1593 -0.0417 -0.1001
 3637SOL    HW122370   4.711   3.920   6.949  0.3842 -0.8373 -0.0895
 3637SOL    HW222371   4.632   3.953   7.073 -0.0447  1.7711 -2.5572
 3638SOL     OW22372   0.828   3.691  12.303  0.1454 -0.4732 -0.6515
 3638SOL    HW122373   0.776   3.771  12.313 -0.5519 -1.0053  0.0755
 3638SOL    HW222374   0.798   3.661  12.217 -0.1598 -1.4508 -0.2019
 3639SOL     OW22375   3.709   0.928  17.582 -1.0779 -0.1708 -0.5764
 3639SOL    HW122376   3.676   1.012  17.615  2.2526  1.7098 -2.0659
 3639SOL    HW222377   3.644   0.911  17.513 -1.5869 -3.0386  0.6087
 3640SOL     OW22378   4.052   1.626   5.274 -0.6703  0.3668  0.5444
 3640SOL    HW122379   4.119   1.688   5.303 -0.8360  0.6602  0.2996
 3640SOL    HW222380   3.969   1.674   5.281 -0.9618 -0.0991  0.3174
 3641SOL     OW22381   1.955   3.858   8.036 -0.4743 -0.0528  0.1185
 3641SOL    HW122382   2.044   3.838   8.062 -0.5736 -2.9853 -1.7518
 3641SOL    HW222383   1.948   3.951   8.058  0.1613 -0.2944  1.2964
 3642SOL     OW22384   3.035   1.032   3.571 -0.5483  0.0850  0.2183
 3642SOL    HW122385   3.049   0.989   3.656  0.4806  0.6198  0.3305
 3642SOL    HW222386   2.978   0.972   3.524  2.2101 -0.1504 -2.8563
 3643SOL     OW22387   0.141   1.359   2.941  0.0470 -0.2157  0.3936
 3643SOL    HW122388   0.198   1.343   2.866 -1.9929  0.2691 -1.2621
 3643SOL    HW222389   0.078   1.288   2.935  2.3693 -2.1065 -1.3995
 3644SOL     OW22390   1.263   2.362   2.077 -0.2117  0.3858  0.1572
 3644SOL    HW122391   1.276   2.293   2.012 -1.5486 -0.7244  1.0580
 3644SOL    HW222392   1.212   2.429   2.032 -0.3068 -1.1370 -1.9774
 3645SOL     OW22393   1.091   4.135   9.117  0.3026 -0.2497  0.0396
 3645SOL    HW122394   1.156   4.066   9.125  0.3040 -0.2831 -0.2701
 3645SOL    HW222395   1.089   4.164   9.209  0.1798  1.0125 -0.3560
 3646SOL     OW22396   1.810   2.287   6.035  0.1506 -0.5857  0.2014
 3646SOL    HW122397   1.857   2.206   6.054  1.6171  0.4739  1.0669
 3646SOL    HW222398   1.879   2.352   6.024 -2.6518  2.2774 -0.6215
 3647SOL     OW22399   2.460   1.437  15.927  0.4199 -0.0780 -0.1726
 3647SOL    HW122400   2.539   1.469  15.883  1.1019  0.5400  1.5188
 3647SOL    HW222401   2.435   1.382  15.853  1.5448 -0.0203 -0.6004
 3648SOL     OW22402   4.160   4.051   3.962  0.5446  0.0128  0.1651
 3648SOL    HW122403   4.214   4.047   3.882  0.1446 -1.4276 -0.0287
 3648SOL    HW222404   4.080   4.020   3.920  1.1406  2.6007 -2.9187
 3649SOL     OW22405   0.722   3.337   6.476 -0.0793  0.3407 -0.5067
 3649SOL    HW122406   0.763   3.252   6.461  0.7460  0.7286 -0.4849
 3649SOL    HW222407   0.632   3.321   6.502  0.4983 -0.6420  0.9350
 3650SOL     OW22408   1.550   2.709   5.579 -0.3446  0.2652  0.5445
 3650SOL    HW122409   1.519   2.631   5.624  0.9313  0.8529  2.4703
 3650SOL    HW222410   1.641   2.709   5.608  0.0319 -1.5760 -0.6471
 3651SOL     OW22411   1.986   2.974   7.533 -0.4616  0.1519 -0.4745
 3651SOL    HW122412   2.051   2.915   7.494 -0.0627  1.1541 -1.3324
 3651SOL    HW222413   2.002   3.051   7.478 -1.0488  1.2829  0.9527
 3652SOL     OW22414   3.283   0.567  11.633 -0.9786  0.2233  0.3481
 3652SOL    HW122415   3.252   0.531  11.716  0.0330 -1.7999 -0.1355
 3652SOL    HW222416   3.205   0.585  11.581 -0.4193  0.0603 -0.5364
 3653SOL     OW22417   4.347   3.452  10.197 -0.3820  0.3599  0.2522
 3653SOL    HW122418   4.418   3.408  10.243 -2.0231 -2.9634 -0.3254
 3653SOL    HW222419   4.285   3.381  10.178  0.1789 -0.4065  1.3210
 3654SOL     OW22420   1.581   0.555  12.758  0.1255  0.1379  0.2955
 3654SOL    HW122421   1.493   0.522  12.740  0.2267 -1.3248  2.3537
 3654SOL    HW222422   1.594   0.607  12.680  0.6270  2.0632  1.6740
 3655SOL     OW22423   2.836   0.487  16.491 -0.3530  0.2957  0.2367
 3655SOL    HW122424   2.868   0.408  16.534  1.1342  0.0204 -1.3456
 3655SOL    HW222425   2.910   0.548  16.490  0.4333 -0.6592  0.3908
 3656SOL     OW22426   1.805   3.422   5.751  0.3614 -0.1499 -0.5235
 3656SOL    HW122427   1.792   3.399   5.659 -0.1259 -1.5697 -0.0948
 3656SOL    HW222428   1.725   3.387   5.791 -1.1453  2.3692 -1.3634
 3657SOL     OW22429   1.388   1.171  11.908 -0.1527  0.2389 -0.0621
 3657SOL    HW122430   1.412   1.158  11.816  0.4031 -0.5172  0.1820
 3657SOL    HW222431   1.472   1.151  11.949 -1.2525  0.0369  2.1168
 3658SOL     OW22432   1.150   3.993   2.388 -0.6145  0.0066 -0.3636
 3658SOL    HW122433   1.150   3.991   2.292  0.6185  2.2075 -0.4037
 3658SOL    HW222434   1.164   3.900   2.405 -1.1223  0.0388  0.2096
 3659SOL     OW22435   3.285   4.719   2.425  0.5604  0.2280  0.5954
 3659SOL    HW122436   3.257   4.704   2.335  0.6604 -2.4133  1.0009
 3659SOL    HW222437   3.222   0.068   2.436  0.5735  0.4135 -0.5345
 3660SOL     OW22438   1.317   2.010   8.699 -0.0193 -0.0216  0.1397
 3660SOL    HW122439   1.242   1.985   8.753  0.9060 -1.3524  0.7981
 3660SOL    HW222440   1.334   1.922   8.664 -0.4900 -0.0347 -0.0577
 3661SOL     OW22441   2.441   1.089   0.722  0.5988  0.3352  0.2002
 3661SOL    HW122442   2.436   1.180   0.693 -0.4697  0.1885 -0.0779
 3661SOL    HW222443   2.462   1.105   0.814  1.4787  1.8390 -0.2716
 3662SOL     OW22444   0.881   1.356   4.915 -0.4295 -0.5682 -0.2481
 3662SOL    HW122445   0.839   1.295   4.855  0.8049 -3.1119  1.4590
 3662SOL    HW222446   0.822   1.347   4.990  0.0066 -0.3520  0.1256
 3663SOL     OW22447   1.710   1.026  14.436 -0.3316 -0.0372 -0.6665
 3663SOL    HW122448   1.744   1.092  14.376  0.0310 -1.5206 -2.1091
 3663SOL    HW222449   1.659   1.077  14.498 -0.9460  1.2210 -2.2184
 3664SOL     OW22450   3.070   3.040  10.594 -0.0072  0.3825 -0.2965
 3664SOL    HW122451   3.095   2.952  10.621  1.7195 -0.0827 -3.4176
 3664SOL    HW222452   3.156   3.072  10.569 -1.3525  1.6637 -3.2772
 3665SOL     OW22453   3.931   0.254   7.587 -0.2083  0.1559  0.1652
 3665SOL    HW122454   3.991   0.184   7.616 -0.1464  0.1249 -0.0398
 3665SOL    HW222455   3.917   0.294   7.673  1.0796 -0.0025  0.4555
 3666SOL     OW22456   2.540   0.930   6.538  0.1906 -0.0295 -0.4282
 3666SOL    HW122457   2.572   1.012   6.501  0.9316 -0.0550  0.1577
 3666SOL    HW222458   2.469   0.964   6.593 -0.5466  2.2201 -2.8355
 3667SOL     OW22459   0.035   1.779   4.577 -0.0808 -0.1344  0.3799
 3667SOL    HW122460   0.066   1.689   4.568 -2.0865 -0.7190 -0.7661
 3667SOL    HW222461   0.103   1.828   4.533 -0.6871 -0.4519 -0.9095
 3668SOL     OW22462   3.601   0.105  17.451  0.1932  0.7898  0.4582
 3668SOL    HW122463   3.523   0.074  17.406  0.2973  0.1489  0.7172
 3668SOL    HW222464   3.610   0.191  17.410 -0.5154  0.0762 -1.1553
 3669SOL     OW22465   2.222   4.719   9.622 -0.2490 -0.5489  0.7393
 3669SOL    HW122466   2.161   0.054   9.668  1.2653  1.0474  0.7132
 3669SOL    HW222467   2.230   4.650   9.688  0.7811  0.6893  1.9081
 3670SOL     OW22468   3.435   0.834  13.147 -0.2883  0.7493 -0.1484
 3670SOL    HW122469   3.494   0.787  13.089 -0.3491 -0.9570  1.1710
 3670SOL    HW222470   3.429   0.911  13.091  1.5261  0.0073 -1.3712
 3671SOL     OW22471   1.617   3.312   5.912  0.0794  0.0611 -0.1923
 3671SOL    HW122472   1.542   3.371   5.923 -0.2770 -0.1034 -1.7171
 3671SOL    HW222473   1.639   3.296   6.004 -0.2506 -2.6632 -0.6132
 3672SOL     OW22474   0.499   4.609   4.115  0.1064  1.0270 -0.0608
 3672SOL    HW122475   0.457   4.609   4.029  1.2041 -1.2288 -0.5883
 3672SOL    HW222476   0.498   4.702   4.138 -0.8526  0.4692  2.0952
 3673SOL     OW22477   2.158   0.618  13.524  0.0948 -0.8126  0.0229
 3673SOL    HW122478   2.187   0.704  13.493  0.3928 -0.9587 -0.1153
 3673SOL    HW222479   2.190   0.563  13.452  1.9093 -0.1165  0.2969
 3674SOL     OW22480   2.127   3.209  14.664  0.7091  0.3075  0.0155
 3674SOL    HW122481   2.135   3.254  14.748  1.0070  0.3405 -0.0292
 3674SOL    HW222482   2.189   3.137  14.673  1.7827  0.9782 -1.9362
 3675SOL     OW22483   4.013   4.528  12.769  0.1193 -0.2659  0.0603
 3675SOL    HW122484   3.950   4.511  12.838  1.2253 -1.9784  0.6792
 3675SOL    HW222485   4.069   4.593  12.812  3.1502 -2.2419 -0.8140
 3676SOL     OW22486   1.143   0.643   7.723 -0.4153 -0.7127  0.0526
 3676SOL    HW122487   1.174   0.681   7.805  0.5960  0.1638 -0.7204
 3676SOL    HW222488   1.205   0.697   7.673 -0.3133 -2.6598 -1.9231
 3677SOL     OW22489   1.691   4.623   5.311  0.3010  0.1330 -0.1302
 3677SOL    HW122490   1.657   4.712   5.308 -0.4993 -0.1277  0.9569
 3677SOL    HW222491   1.746   4.629   5.390  0.4265 -0.6522 -0.1547
 3678SOL     OW22492   3.446   4.264   8.185 -0.4047 -0.9200  0.2163
 3678SOL    HW122493   3.403   4.179   8.186  0.9616 -1.5818  2.6450
 3678SOL    HW222494   3.383   4.311   8.130  0.2349 -1.0287 -0.6002
 3679SOL     OW22495   3.419   3.434   6.888  0.5751  0.3100 -0.6899
 3679SOL    HW122496   3.497   3.474   6.928  0.2452  2.1381 -1.8701
 3679SOL    HW222497   3.349   3.492   6.918 -0.8375 -1.7772  0.0460
 3680SOL     OW22498   2.144   1.917   9.190 -0.0512 -0.2672  0.6955
 3680SOL    HW122499   2.204   1.932   9.264 -0.0624 -2.1534  1.0715
 3680SOL    HW222500   2.117   1.828   9.213  0.3354 -0.3836  0.7078
 3681SOL     OW22501   0.948   4.600   2.965  0.3807  0.1842  0.1032
 3681SOL    HW122502   0.957   4.673   2.904 -3.0338  0.9739  0.5625
 3681SOL    HW222503   0.955   4.520   2.912 -0.2841 -1.0123  1.8147
 3682SOL     OW22504   1.816   2.728   4.213  0.1644 -0.5114  0.3456
 3682SOL    HW122505   1.861   2.811   4.196 -0.1194 -0.1787  1.2201
 3682SOL    HW222506   1.794   2.711   4.121  2.2090 -0.6204 -0.1076
 3683SOL     OW22507   3.064   0.869   9.542 -0.4782  0.2165 -0.0205
 3683SOL    HW122508   3.008   0.827   9.606 -0.2219 -0.2296 -0.0820
 3683SOL    HW222509   3.064   0.801   9.474  1.0020 -0.4954  0.6785
 3684SOL     OW22510   3.977   0.664   4.836  0.2149 -0.2568 -0.2078
 3684SOL    HW122511   3.927   0.598   4.886  0.7481 -1.0796 -0.7629
 3684SOL    HW222512   4.069   0.646   4.854  0.3561 -1.3989 -2.0768
 3685SOL     OW22513   4.387   3.313   2.418  0.5767  0.0345 -0.0753
 3685SOL    HW122514   4.423   3.275   2.338  1.1099  0.9291 -0.2598
 3685SOL    HW222515   4.316   3.367   2.385 -0.2274 -2.1355 -1.8541
 3686SOL     OW22516   2.757   3.291  12.604 -0.5466 -0.1234 -0.1793
 3686SOL    HW122517   2.687   3.230  12.582  0.5785 -1.1826 -0.8413
 3686SOL    HW222518   2.719   3.376  12.623 -0.9930 -0.4237  0.2514
 3687SOL     OW22519   3.026   4.659   4.495  0.1834 -0.7538 -0.4662
 3687SOL    HW122520   3.060   4.583   4.544  1.5117  1.3287  1.8303
 3687SOL    HW222521   3.076   4.645   4.415  1.1890  1.6534 -0.2413
 3688SOL     OW22522   4.198   3.173   6.719 -0.3438  0.0708 -0.1424
 3688SOL    HW122523   4.161   3.252   6.678  0.5559  1.3635  1.5202
 3688SOL    HW222524   4.289   3.171   6.689  0.1370  3.1148  1.0531
 3689SOL     OW22525   1.569   1.093   5.869  0.1080 -0.7192  0.1454
 3689SOL    HW122526   1.632   1.100   5.941  2.1918 -1.0495 -1.6545
 3689SOL    HW222527   1.581   1.176   5.823  1.3870 -2.3617 -2.5080
 3690SOL     OW22528   3.010   2.772   2.383  0.7029  0.2378 -0.8732
 3690SOL    HW122529   3.027   2.758   2.290  2.2263  2.4980 -0.9601
 3690SOL    HW222530   3.043   2.859   2.407 -1.6777  0.6387  0.8714
 3691SOL     OW22531   1.807   3.352  16.359 -0.3410  0.2658 -0.7784
 3691SOL    HW122532   1.747   3.412  16.317 -1.6170 -0.8857 -0.6033
 3691SOL    HW222533   1.756   3.340  16.439  0.3390  0.5204 -0.3057
 3692SOL     OW22534   3.154   2.190   8.791 -0.0200 -1.0847 -0.0251
 3692SOL    HW122535   3.175   2.283   8.797  2.3164 -1.2511 -5.2387
 3692SOL    HW222536   3.077   2.205   8.736  2.3295  1.5130 -2.6079
 3693SOL     OW22537   2.240   3.888  11.569  0.4846 -0.0354  0.0423
 3693SOL    HW122538   2.307   3.851  11.512 -0.5940 -2.4675  0.3582
 3693SOL    HW222539   2.167   3.838  11.533 -0.1509  1.8341 -1.2459
 3694SOL     OW22540   1.045   2.066  10.829  0.1270 -0.6103 -0.1816
 3694SOL    HW122541   1.098   2.010  10.886  1.6773  0.7593 -0.2722
 3694SOL    HW222542   0.985   2.008  10.782 -1.7681  1.0617  0.1680
 3695SOL     OW22543   0.632   3.681   3.323 -0.0568  0.0502 -0.7670
 3695SOL    HW122544   0.611   3.775   3.328  1.4462  0.3190  0.7820
 3695SOL    HW222545   0.544   3.649   3.341  0.1005  0.9709  1.8041
 3696SOL     OW22546   1.600   0.932  11.716 -0.4868 -0.3152 -0.4990
 3696SOL    HW122547   1.612   0.983  11.796 -1.9494 -1.9109  0.7466
 3696SOL    HW222548   1.619   0.843  11.746 -1.5736 -0.6908 -0.9039
 3697SOL     OW22549   2.752   2.784   8.808 -0.2352  0.5608  0.5412
 3697SOL    HW122550   2.690   2.752   8.873  1.8380 -1.2557  1.6123
 3697SOL    HW222551   2.805   2.849   8.855 -0.1286  1.1480 -0.3899
 3698SOL     OW22552   1.714   3.697   3.224 -0.0846 -0.3961  0.2013
 3698SOL    HW122553   1.640   3.654   3.180  0.3859  0.7456 -1.6806
 3698SOL    HW222554   1.716   3.775   3.169  0.5904 -0.1246  0.6076
 3699SOL     OW22555   1.472   2.812   8.760  0.4413 -0.0371 -0.0517
 3699SOL    HW122556   1.439   2.841   8.675  0.3154 -2.5781 -0.8912
 3699SOL    HW222557   1.454   2.718   8.748 -2.1702  0.5017 -0.3859
 3700SOL     OW22558   4.065   2.535  13.156  0.1846 -0.1617  0.7371
 3700SOL    HW122559   4.026   2.485  13.229 -0.0520 -1.7147 -0.4551
 3700SOL    HW222560   3.991   2.569  13.105 -0.2957  1.1764  2.3249
 3701SOL     OW22561   2.853   0.853   2.027  0.0879  0.0689 -0.3575
 3701SOL    HW122562   2.924   0.790   2.029  0.6126  0.7196  1.3348
 3701SOL    HW222563   2.900   0.933   2.003  2.6321 -1.0501  0.9873
 3702SOL     OW22564   1.483   4.351   8.035  0.6528  0.6513 -0.1952
 3702SOL    HW122565   1.458   4.427   7.982 -0.1935  0.3051 -0.2951
 3702SOL    HW222566   1.527   4.398   8.106  2.3165 -1.6405  0.2852
 3703SOL     OW22567   3.837   1.602   2.278 -0.1702  0.0725 -0.2031
 3703SOL    HW122568   3.920   1.581   2.236  0.2483 -0.3106  0.8099
 3703SOL    HW222569   3.858   1.691   2.306 -1.6337  0.3492 -0.0094
 3704SOL     OW22570   2.248   3.708   6.982  0.2560  0.4983 -0.1364
 3704SOL    HW122571   2.176   3.696   6.920  1.5555  2.6104 -2.0403
 3704SOL    HW222572   2.204   3.696   7.066  1.2266  1.9383  0.5822
 3705SOL     OW22573   2.303   3.909   2.521 -0.4235  0.2851  0.0255
 3705SOL    HW122574   2.344   3.928   2.606 -0.8092  0.9199  0.0637
 3705SOL    HW222575   2.382   3.923   2.468  0.0633 -0.2566  0.6021
 3706SOL     OW22576   0.365   0.306   0.581  0.0409 -0.2858  0.0094
 3706SOL    HW122577   0.291   0.335   0.528  0.8719  2.1967  0.2138
 3706SOL    HW222578   0.327   0.247   0.646 -2.0152  1.1745  0.1049
 3707SOL     OW22579   2.259   0.468   6.365  0.1425 -0.3226  0.2326
 3707SOL    HW122580   2.233   0.406   6.297  1.7733 -0.2367 -0.4619
 3707SOL    HW222581   2.311   0.403   6.412  2.7895  1.0229 -0.8328
 3708SOL     OW22582   2.833   3.542   0.926 -0.1920 -0.0107 -0.4197
 3708SOL    HW122583   2.885   3.608   0.879  0.3565  0.9161  1.5014
 3708SOL    HW222584   2.873   3.521   1.010 -1.7866 -1.5455 -0.0580
 3709SOL     OW22585   1.224   0.408   9.990 -0.2487 -0.7763  0.4725
 3709SOL    HW122586   1.204   0.465  10.064  0.3404  1.3147 -0.9579
 3709SOL    HW222587   1.318   0.421   9.978 -0.5927  1.2162 -0.1807
 3710SOL     OW22588   1.115   0.711  13.477 -0.3557 -0.6379 -0.0565
 3710SOL    HW122589   1.070   0.790  13.505 -0.0435 -0.0028 -1.3290
 3710SOL    HW222590   1.085   0.660  13.552 -0.7122  1.0758  0.9692
 3711SOL     OW22591   2.224   0.374   4.491  0.1670  0.0773  0.7954
 3711SOL    HW122592   2.183   0.460   4.502  1.5688  0.8620 -0.1190
 3711SOL    HW222593   2.169   0.340   4.421  0.4996 -2.1362  1.6079
 3712SOL     OW22594   2.572   4.279   4.456  0.5846  0.2268  0.1420
 3712SOL    HW122595   2.654   4.255   4.498 -0.1338  0.2065  1.5433
 3712SOL    HW222596   2.604   4.300   4.369  0.7894  0.2715  0.2298
 3713SOL     OW22597   1.369   3.305   4.717  0.1950  0.2796 -0.1621
 3713SOL    HW122598   1.447   3.333   4.669  0.4184 -1.0801 -0.5759
 3713SOL    HW222599   1.410   3.274   4.797 -0.7990  0.9783  0.6207
 3714SOL     OW22600   2.418   4.327   5.422  0.1413 -0.6885  0.2325
 3714SOL    HW122601   2.469   4.408   5.415  0.9115 -0.9921  2.3494
 3714SOL    HW222602   2.380   4.317   5.335  0.8568  0.0344 -0.1641
 3715SOL     OW22603   3.723   1.440   6.717  0.8536 -0.3360 -0.0358
 3715SOL    HW122604   3.714   1.493   6.797 -2.9920 -2.6182  1.0578
 3715SOL    HW222605   3.669   1.501   6.667 -1.0008 -0.0811  2.2693
 3716SOL     OW22606   2.920   1.399   6.415 -0.3889 -0.6396 -0.3898
 3716SOL    HW122607   2.848   1.370   6.471  0.1078  1.0943  1.1440
 3716SOL    HW222608   2.875   1.478   6.384  0.9355  0.6681  1.0310
 3717SOL     OW22609   0.472   2.302  15.965 -0.4703  0.4141 -0.6567
 3717SOL    HW122610   0.435   2.241  16.029 -0.3397 -1.7752 -2.6677
 3717SOL    HW222611   0.559   2.320  15.999  0.6678 -1.2550 -2.7110
 3718SOL     OW22612   1.645   3.803  11.963  0.0338  0.0140  0.3676
 3718SOL    HW122613   1.598   3.831  12.042  0.3653 -0.1506  0.6246
 3718SOL    HW222614   1.600   3.720  11.948  1.0518 -0.4809  0.0400
 3719SOL     OW22615   3.323   3.158   2.357  0.0164  0.2756  0.3501
 3719SOL    HW122616   3.404   3.125   2.318 -0.2289 -0.3840  0.3984
 3719SOL    HW222617   3.350   3.244   2.386 -0.1399  0.1222  0.9429
 3720SOL     OW22618   3.240   1.020  17.534 -0.0385 -0.5198  0.3401
 3720SOL    HW122619   3.177   1.046  17.467  0.1272 -0.6585  0.1296
 3720SOL    HW222620   3.272   1.104  17.565 -0.7703  0.2404 -0.9642
 3721SOL     OW22621   1.419   1.993  14.354  0.0758  0.0162  0.0357
 3721SOL    HW122622   1.342   2.039  14.321 -0.0664 -0.7211 -0.6650
 3721SOL    HW222623   1.393   1.905  14.324 -1.9775  0.4433  0.5675
 3722SOL     OW22624   4.070   4.450  16.818 -0.2526 -0.4078  0.1559
 3722SOL    HW122625   4.030   4.537  16.817 -0.2762 -0.4282 -0.4301
 3722SOL    HW222626   4.032   4.408  16.740  1.5095 -3.8101  1.1287
 3723SOL     OW22627   1.637   3.671   7.124  0.3861  0.4064 -0.4621
 3723SOL    HW122628   1.656   3.636   7.211  1.1358 -1.4145 -1.3477
 3723SOL    HW222629   1.636   3.585   7.081 -0.2775 -0.5986  1.5591
 3724SOL     OW22630   4.421   3.631  15.915 -0.6245 -0.0916 -0.4322
 3724SOL    HW122631   4.486   3.695  15.945 -0.5020  0.1329 -1.1682
 3724SOL    HW222632   4.391   3.591  15.996 -0.7601  1.3302  0.2304
 3725SOL     OW22633   0.678   1.973   3.275  0.5807 -0.6324  0.1246
 3725SOL    HW122634   0.669   2.026   3.355  1.1852  0.6664 -0.6791
 3725SOL    HW222635   0.655   2.046   3.217  0.3888  0.2889  1.3397
 3726SOL     OW22636   3.974   0.999  10.293  0.3432  0.1446  0.8124
 3726SOL    HW122637   3.965   0.936  10.364 -1.0306  0.9185  1.3123
 3726SOL    HW222638   3.978   1.073  10.353  2.2651  1.3718 -0.8111
 3727SOL     OW22639   3.809   3.455   8.139 -0.7082  0.6253  0.4069
 3727SOL    HW122640   3.888   3.432   8.090 -0.7830  2.9634 -0.8201
 3727SOL    HW222641   3.803   3.406   8.221 -0.4760 -0.0911 -0.0009
 3728SOL     OW22642   3.453   3.402   3.549 -0.0799 -0.1915 -0.2058
 3728SOL    HW122643   3.459   3.468   3.619 -2.9156  0.8169 -0.9210
 3728SOL    HW222644   3.446   3.327   3.608  2.5820  0.2524  0.6820
 3729SOL     OW22645   1.125   4.286   2.115 -0.0250  0.1719 -0.1140
 3729SOL    HW122646   1.052   4.237   2.154  0.8423 -2.2053 -1.4902
 3729SOL    HW222647   1.140   4.349   2.186  0.5433  1.0028 -0.9729
 3730SOL     OW22648   2.747   2.191   3.930  0.0049  0.6458  0.3904
 3730SOL    HW122649   2.807   2.254   3.970 -0.6472  0.3206  1.8732
 3730SOL    HW222650   2.690   2.261   3.896 -0.5293  0.2695  0.5115
 3731SOL     OW22651   2.875   1.661   2.273  0.3094 -0.1894  0.1887
 3731SOL    HW122652   2.832   1.659   2.187  0.2691 -0.0243  0.2043
 3731SOL    HW222653   2.880   1.570   2.301  1.0835 -1.2512 -3.4510
 3732SOL     OW22654   1.190   3.327   7.903 -0.0307 -0.3058  0.9273
 3732SOL    HW122655   1.250   3.392   7.938  0.1515 -0.4774  0.9360
 3732SOL    HW222656   1.112   3.382   7.891  1.5067  1.0920 -2.4991
 3733SOL     OW22657   3.982   2.926  13.201 -0.1532 -0.0793  0.1421
 3733SOL    HW122658   3.901   2.875  13.194 -0.2887  0.1346  0.1328
 3733SOL    HW222659   3.948   3.005  13.243 -0.3214 -0.2203  0.2694
 3734SOL     OW22660   0.476   2.290  14.138 -0.3302 -0.3772 -0.1342
 3734SOL    HW122661   0.439   2.326  14.219 -0.4488  0.9678 -0.7803
 3734SOL    HW222662   0.438   2.202  14.142 -0.0826 -0.4286  1.3766
 3735SOL     OW22663   4.183   3.321  13.063  0.0113  0.6260 -0.0903
 3735SOL    HW122664   4.171   3.242  13.009 -1.9612  0.5353  0.4899
 3735SOL    HW222665   4.092   3.348  13.077  0.2408  1.1341  0.3775
 3736SOL     OW22666   2.630   0.140   5.457 -0.1588  0.0094  0.3487
 3736SOL    HW122667   2.678   0.178   5.384 -1.4267  2.5018  0.8022
 3736SOL    HW222668   2.541   0.132   5.421  0.7350 -1.5062 -1.5466
 3737SOL     OW22669   1.870   3.804   4.098  0.0696  0.1512 -0.4432
 3737SOL    HW122670   1.956   3.800   4.140  0.4657  0.3822 -1.2265
 3737SOL    HW222671   1.862   3.721   4.050  1.0059  0.0620 -0.4476
 3738SOL     OW22672   3.419   0.610  10.350  0.1193  0.0792 -0.4494
 3738SOL    HW122673   3.423   0.565  10.266 -0.2384  2.2929 -1.6598
 3738SOL    HW222674   3.498   0.664  10.353  0.4462 -0.4851  1.6600
 3739SOL     OW22675   3.213   4.218  10.773  0.1868 -0.6828  0.4581
 3739SOL    HW122676   3.138   4.255  10.727  1.7283  0.2916 -1.2309
 3739SOL    HW222677   3.245   4.288  10.830  0.8456 -1.9076  1.6267
 3740SOL     OW22678   0.512   1.978   9.941  0.2554  0.3016 -0.1083
 3740SOL    HW122679   0.579   2.009   9.880  0.7578 -1.3698 -0.4053
 3740SOL    HW222680   0.501   2.047  10.007  0.8514  0.8442 -0.5692
 3741SOL     OW22681   4.553   4.423   4.403  0.1906  0.5910 -0.2952
 3741SOL    HW122682   4.460   4.415   4.381 -0.4572  1.7260  2.0393
 3741SOL    HW222683   4.568   4.516   4.387  0.1099  0.3980 -1.4823
 3742SOL     OW22684   1.934   3.462   3.517 -0.5342 -0.3719 -0.3381
 3742SOL    HW122685   1.848   3.503   3.508 -0.1320  0.0700 -2.0891
 3742SOL    HW222686   1.983   3.543   3.499 -1.7320 -0.0780 -2.2514
 3743SOL     OW22687   3.707   2.547   0.068  0.6015 -0.3730 -0.0172
 3743SOL    HW122688   3.644   2.565   0.137  0.3008 -2.4171  0.2493
 3743SOL    HW222689   3.784   2.561   0.123  0.3684  1.1358 -0.0849
 3744SOL     OW22690   1.047   1.995   2.887  0.8343 -0.6638 -0.1458
 3744SOL    HW122691   0.970   1.993   2.944  0.4624  1.7237 -0.5862
 3744SOL    HW222692   1.020   2.038   2.806 -0.1047 -1.5565 -0.3037
 3745SOL     OW22693   1.484   0.785  17.534 -1.1505 -0.2869  0.3188
 3745SOL    HW122694   1.454   0.700  17.568  0.5484  0.1217  2.9294
 3745SOL    HW222695   1.413   0.848  17.541 -1.9279 -1.4154  2.7975
 3746SOL     OW22696   2.943   0.119   8.838 -0.0273 -0.1021 -0.5853
 3746SOL    HW122697   2.956   0.128   8.933 -1.7239  2.7386 -0.6413
 3746SOL    HW222698   2.976   0.201   8.802 -3.6280  1.3951 -0.3670
 3747SOL     OW22699   1.132   0.280   3.456  0.3963  0.5294 -0.4228
 3747SOL    HW122700   1.114   0.311   3.367  0.4233  2.4444  0.2208
 3747SOL    HW222701   1.042   0.286   3.488  0.5925  1.1477  0.0129
 3748SOL     OW22702   3.912   0.567   6.291  0.3146  0.0715  0.0675
 3748SOL    HW122703   3.865   0.492   6.255 -0.2354  0.8973 -0.9325
 3748SOL    HW222704   3.976   0.580   6.222 -1.8023  0.6148 -1.8004
 3749SOL     OW22705   3.707   0.260  16.738 -0.1544 -0.4581 -0.6144
 3749SOL    HW122706   3.660   0.329  16.692  1.4416  0.6692 -0.5505
 3749SOL    HW222707   3.704   0.187  16.676 -0.2599 -0.9262 -0.0624
 3750SOL     OW22708   4.542   4.012   8.469  0.5195 -0.2214 -0.2464
 3750SOL    HW122709   4.577   3.937   8.421 -1.3652  0.2486 -2.3770
 3750SOL    HW222710   4.622   4.054   8.497 -0.9960  1.0485  2.1042
 3751SOL     OW22711   1.207   3.312  11.122  0.4455  0.0042 -0.1884
 3751SOL    HW122712   1.112   3.324  11.122  0.6434  1.5507 -0.3468
 3751SOL    HW222713   1.217   3.259  11.201  0.1786  0.6956  0.3086
 3752SOL     OW22714   2.241   3.158   1.401  0.5455  0.0058  0.0014
 3752SOL    HW122715   2.309   3.197   1.345 -1.1575  3.3086  0.2775
 3752SOL    HW222716   2.162   3.204   1.371  0.7332  0.2914 -0.0602
 3753SOL     OW22717   1.415   2.934   1.216  0.2894  0.6674  0.4175
 3753SOL    HW122718   1.323   2.929   1.241 -0.2780 -0.7844 -1.9851
 3753SOL    HW222719   1.435   2.841   1.213 -2.7734  0.0358 -0.6975
 3754SOL     OW22720   2.120   1.892  10.709 -0.2974  0.0592  0.1627
 3754SOL    HW122721   2.121   1.858  10.620  0.6946 -2.3479  1.1030
 3754SOL    HW222722   2.103   1.986  10.700 -1.9425 -0.3233 -0.8045
 3755SOL     OW22723   0.756   3.496   8.365 -0.3118  0.0864  0.1371
 3755SOL    HW122724   0.830   3.538   8.321 -0.0267 -0.0556  0.4829
 3755SOL    HW222725   0.691   3.566   8.365 -1.5571 -1.0675  0.5571
 3756SOL     OW22726   3.963   1.522   7.647  0.5704  0.5466 -0.0247
 3756SOL    HW122727   3.967   1.558   7.735  1.1115 -0.1915  0.2545
 3756SOL    HW222728   3.998   1.436   7.670 -0.3469 -0.3871 -2.1478
 3757SOL     OW22729   2.507   3.265   1.370 -0.1095 -0.1034  0.2710
 3757SOL    HW122730   2.519   3.250   1.464  1.3542  1.7058  0.3879
 3757SOL    HW222731   2.535   3.356   1.356 -0.6691  0.2264  1.3215
 3758SOL     OW22732   4.035   3.902   7.674  0.0614  0.1912  0.2135
 3758SOL    HW122733   3.978   3.950   7.615  3.8386 -1.8780 -5.1200
 3758SOL    HW222734   3.991   3.914   7.758  0.1565 -3.1155  0.7219
 3759SOL     OW22735   1.295   2.995   7.403  0.4178 -0.2171  0.8841
 3759SOL    HW122736   1.317   3.048   7.480 -0.7062 -2.8917  3.0677
 3759SOL    HW222737   1.199   3.000   7.400  0.3092 -2.6131  0.1703
 3760SOL     OW22738   0.582   0.039   1.916 -0.0234 -0.3181 -0.0202
 3760SOL    HW122739   0.532   4.682   1.902  0.5279 -0.5371 -0.7812
 3760SOL    HW222740   0.664   0.013   1.874 -0.7132  1.0476 -2.2470
 3761SOL     OW22741   3.033   0.764  13.139  0.2821  0.7394 -0.0602
 3761SOL    HW122742   3.016   0.732  13.050 -1.4921 -1.7846  1.1735
 3761SOL    HW222743   3.046   0.858  13.125  3.8201 -0.0241 -1.9655
 3762SOL     OW22744   0.485   0.031   8.852 -0.0761 -0.7031 -0.3033
 3762SOL    HW122745   0.529   0.116   8.859 -2.1879  0.2845  0.9956
 3762SOL    HW222746   0.509   4.713   8.935  1.4465 -1.8889 -1.3297
 3763SOL     OW22747   1.890   1.131   8.304  0.0068 -0.5048 -0.0908
 3763SOL    HW122748   1.977   1.152   8.338  0.7651  0.0271 -2.3632
 3763SOL    HW222749   1.887   1.036   8.310 -1.6039 -0.6105 -2.4432
 3764SOL     OW22750   4.018   0.282   3.438 -0.4031  0.5052 -0.5168
 3764SOL    HW122751   4.062   0.197   3.451  2.3963  1.7477 -1.7610
 3764SOL    HW222752   3.954   0.281   3.509 -0.7201  0.5591 -0.8039
 3765SOL     OW22753   1.806   2.096   3.377 -0.4807 -0.6235  0.3635
 3765SOL    HW122754   1.791   2.130   3.466 -2.0495 -1.2216  0.3370
 3765SOL    HW222755   1.720   2.118   3.341  0.6649  0.6656 -1.5190
 3766SOL     OW22756   1.887   4.559   5.142 -0.3172  0.3609 -0.3280
 3766SOL    HW122757   1.817   4.576   5.205 -2.1621  1.2638 -2.6210
 3766SOL    HW222758   1.902   4.645   5.105 -1.8878  0.0624 -1.6470
 3767SOL     OW22759   3.582   4.003  16.895  0.4172 -0.2860  0.0950
 3767SOL    HW122760   3.618   4.056  16.965 -2.1383 -0.0499  1.2607
 3767SOL    HW222761   3.663   3.964  16.862 -0.3744  0.3389 -2.6546
 3768SOL     OW22762   3.889   0.895   3.716 -0.0163  0.6031  0.0732
 3768SOL    HW122763   3.822   0.963   3.719 -1.8182 -1.2492  2.0390
 3768SOL    HW222764   3.931   0.925   3.635 -0.9654  0.5627 -0.4355
 3769SOL     OW22765   4.518   4.571   6.683  0.5693  0.2052  0.7208
 3769SOL    HW122766   4.493   4.479   6.691  3.2137 -0.5326  0.4502
 3769SOL    HW222767   4.495   4.595   6.773 -1.0079  0.9889  0.1146
 3770SOL     OW22768   4.360   3.774   2.767  0.0776  0.2088  0.3899
 3770SOL    HW122769   4.448   3.765   2.805  0.5043 -1.6068 -1.0349
 3770SOL    HW222770   4.313   3.817   2.839 -0.1191  1.5674 -0.5655
 3771SOL     OW22771   4.519   1.876   3.270  0.2744  0.1238  0.5000
 3771SOL    HW122772   4.518   1.811   3.199  0.8880 -0.1239  0.7221
 3771SOL    HW222773   4.454   1.934   3.231  0.8905 -0.8848 -2.0408
 3772SOL     OW22774   2.663   1.901   7.256 -0.2878 -0.0922  0.1158
 3772SOL    HW122775   2.706   1.826   7.297 -0.8968 -0.9817 -0.8618
 3772SOL    HW222776   2.570   1.880   7.249  0.0131 -1.5535  0.6707
 3773SOL     OW22777   3.523   4.505  13.617 -0.1019  0.0873 -0.1298
 3773SOL    HW122778   3.466   4.476  13.545 -1.4162 -0.9588  1.3437
 3773SOL    HW222779   3.485   4.589  13.641 -0.4559 -0.1761  0.2163
 3774SOL     OW22780   4.000   0.704  15.511  0.4452  0.3658  0.7675
 3774SOL    HW122781   3.972   0.643  15.579 -1.2833  1.7946  1.3580
 3774SOL    HW222782   4.090   0.719  15.539  1.1064 -2.1245  0.0028
 3775SOL     OW22783   3.541   1.285   6.852 -0.1316 -0.0939 -0.1428
 3775SOL    HW122784   3.592   1.297   6.771  0.1807 -2.4182 -0.3096
 3775SOL    HW222785   3.611   1.281   6.917  0.5444 -1.1405 -0.9230
 3776SOL     OW22786   0.016   0.711   8.790 -0.5437 -0.2433 -0.1416
 3776SOL    HW122787   0.105   0.688   8.816 -0.2635  0.2430 -0.6700
 3776SOL    HW222788   4.670   0.649   8.814  0.7525 -1.2582  0.9078
 3777SOL     OW22789   3.225   4.677   6.417 -0.5940 -0.0094 -0.4061
 3777SOL    HW122790   3.315   4.659   6.389 -0.4789 -0.6560  0.3772
 3777SOL    HW222791   3.232   4.637   6.504 -1.8739 -0.2474 -0.4118
 3778SOL     OW22792   0.900   0.808   6.012  0.0928  0.0733 -0.0117
 3778SOL    HW122793   0.812   0.841   6.031  1.2500  2.9037  0.3782
 3778SOL    HW222794   0.915   0.742   6.080  0.9647 -0.4723 -0.7378
 3779SOL     OW22795   3.727   0.191   5.160 -0.3026 -0.1772 -0.2279
 3779SOL    HW122796   3.738   0.262   5.223  0.6242 -0.4018 -0.1452
 3779SOL    HW222797   3.634   0.172   5.174 -0.6672  1.4801 -0.3907
 3780SOL     OW22798   4.001   2.779   4.100 -0.0998  0.2253 -0.7401
 3780SOL    HW122799   3.919   2.796   4.147 -0.4277 -2.1227 -0.4793
 3780SOL    HW222800   3.988   2.703   4.043  0.6463  0.7315 -1.5832
 3781SOL     OW22801   4.273   2.015   2.895 -0.4159  0.3154 -0.0813
 3781SOL    HW122802   4.257   2.079   2.825 -1.6319  0.6982  0.5338
 3781SOL    HW222803   4.222   1.940   2.865 -0.0753  1.1273 -2.7013
 3782SOL     OW22804   3.815   3.041   2.259  0.5100 -0.0065  0.7669
 3782SOL    HW122805   3.889   2.981   2.251  0.7844  0.3015  0.9553
 3782SOL    HW222806   3.844   3.104   2.325  0.8506  0.3872  0.2450
 3783SOL     OW22807   1.468   3.461  10.383 -0.4926 -0.7907  0.1177
 3783SOL    HW122808   1.405   3.493  10.448 -0.6498  3.3347 -2.0595
 3783SOL    HW222809   1.409   3.389  10.361  0.2960 -1.0201 -1.2218
 3784SOL     OW22810   0.554   3.662  14.518 -0.7214 -0.2824  0.0788
 3784SOL    HW122811   0.500   3.736  14.544 -0.3792  0.6478 -1.8356
 3784SOL    HW222812   0.632   3.704  14.481 -1.4757 -0.0344 -1.2058
 3785SOL     OW22813   1.562   2.797   4.916  0.2282 -0.3010  0.0444
 3785SOL    HW122814   1.546   2.847   4.835  1.0355  0.0348  0.0905
 3785SOL    HW222815   1.655   2.814   4.933  0.3680 -0.6610 -0.3460
 3786SOL     OW22816   2.683   1.138   5.785 -0.5623 -0.0267 -0.9577
 3786SOL    HW122817   2.665   1.151   5.878 -1.5418  0.6534 -1.2425
 3786SOL    HW222818   2.595   1.140   5.749 -0.5381  1.3042 -0.9174
 3787SOL     OW22819   2.653   1.171  14.205 -0.0140  0.0266  0.1345
 3787SOL    HW122820   2.673   1.264  14.204  2.0623 -0.4240 -1.8553
 3787SOL    HW222821   2.705   1.145  14.128 -0.3917 -0.7192  0.1269
 3788SOL     OW22822   2.919   1.442   2.665 -0.2951  0.3125 -0.0204
 3788SOL    HW122823   2.934   1.450   2.759 -0.6741 -2.8440  0.3192
 3788SOL    HW222824   2.983   1.372   2.655  1.4966  2.1466 -1.3696
 3789SOL     OW22825   3.766   0.663  14.103  0.0301 -0.0535 -0.1837
 3789SOL    HW122826   3.688   0.638  14.153  1.4477  1.0750  2.6503
 3789SOL    HW222827   3.765   0.758  14.112  1.8848 -0.2388  2.3129
 3790SOL     OW22828   2.926   0.793   6.993  0.1187  0.1154 -0.0537
 3790SOL    HW122829   2.954   0.727   6.930  0.0482  0.5323 -0.5191
 3790SOL    HW222830   2.912   0.735   7.068  0.8094  0.5647  0.4340
 3791SOL     OW22831   3.688   3.425   3.976 -0.4996 -0.6148 -0.1758
 3791SOL    HW122832   3.643   3.454   4.055 -0.5502  0.2897 -0.5364
 3791SOL    HW222833   3.714   3.507   3.935 -0.4839 -0.5635 -0.0638
 3792SOL     OW22834   2.067   1.328   3.244  0.1185  0.0567  0.2246
 3792SOL    HW122835   2.037   1.419   3.243 -0.9283 -0.2724  1.6775
 3792SOL    HW222836   1.992   1.282   3.205  1.4305 -3.2832  1.6332
 3793SOL     OW22837   1.381   0.900   8.770 -0.1327 -0.0361  0.4313
 3793SOL    HW122838   1.468   0.882   8.805  0.0851  1.2912  0.5879
 3793SOL    HW222839   1.367   0.994   8.786  0.2249 -0.0136  0.6194
 3794SOL     OW22840   3.911   1.854   2.351  0.1177  0.3569  0.1804
 3794SOL    HW122841   3.942   1.869   2.441 -1.9028 -1.9777  1.2589
 3794SOL    HW222842   3.988   1.875   2.299 -0.9235  3.3308 -0.1647
 3795SOL     OW22843   4.226   1.190   4.958 -0.2438 -0.4136 -0.3952
 3795SOL    HW122844   4.227   1.112   5.014 -1.0359  0.4817  0.8668
 3795SOL    HW222845   4.171   1.252   5.005  0.4328  0.7333 -1.1283
 3796SOL     OW22846   0.291   4.625   8.337 -0.3488 -0.2754  0.3003
 3796SOL    HW122847   0.297   4.532   8.315  0.3466 -0.2132  0.2309
 3796SOL    HW222848   0.217   4.637   8.396 -0.9442 -0.9397 -0.3117
 3797SOL     OW22849   0.192   2.618  14.057  0.0838  0.2521  0.7404
 3797SOL    HW122850   0.286   2.616  14.039  0.0023 -0.7185  0.4210
 3797SOL    HW222851   0.156   2.652  13.975  0.1235  1.4971  1.2493
 3798SOL     OW22852   2.163   3.213  11.618 -0.0009  0.6562 -0.1106
 3798SOL    HW122853   2.193   3.302  11.636 -2.3597  1.3127  0.6498
 3798SOL    HW222854   2.068   3.216  11.631  0.0734 -1.6433  1.0167
 3799SOL     OW22855   4.241   0.135   4.678 -0.5189 -0.0136 -0.2755
 3799SOL    HW122856   4.239   0.090   4.594  0.5755 -0.6543  0.0431
 3799SOL    HW222857   4.155   0.177   4.685 -0.0533  0.3209  3.5912
 3800SOL     OW22858   0.184   1.946   2.437  0.2745  0.3855 -0.1155
 3800SOL    HW122859   0.268   1.988   2.418  0.2473 -0.9580 -3.2895
 3800SOL    HW222860   0.190   1.933   2.531  0.3530  1.0265 -0.0272
 3801SOL     OW22861   1.921   3.942  10.304  0.5316  0.3844 -0.1130
 3801SOL    HW122862   1.840   3.937  10.253  0.0591 -1.1057  0.7845
 3801SOL    HW222863   1.893   3.899  10.385  0.8313 -0.8126 -0.6418
 3802SOL     OW22864   0.408   2.811   7.511  0.0428  0.1304  0.1738
 3802SOL    HW122865   0.404   2.790   7.417 -1.9531 -0.1787  0.3257
 3802SOL    HW222866   0.459   2.735   7.537 -2.6194 -1.7046 -0.0037
 3803SOL     OW22867   1.532   1.267   1.566  0.1773 -0.1435 -0.2873
 3803SOL    HW122868   1.497   1.211   1.496  1.7252  0.7577 -1.7522
 3803SOL    HW222869   1.535   1.349   1.517  1.3607  1.2841  2.1684
 3804SOL     OW22870   3.112   1.005   7.321  0.9232 -0.4989  0.0279
 3804SOL    HW122871   3.136   0.949   7.395 -1.5648 -1.4813  0.0837
 3804SOL    HW222872   3.194   1.035   7.281  0.0030  0.4005 -1.1582
 3805SOL     OW22873   2.119   2.708  13.738 -0.1569 -0.2271 -0.5204
 3805SOL    HW122874   2.032   2.725  13.701 -0.5111 -1.7211 -0.3661
 3805SOL    HW222875   2.115   2.629  13.792 -0.9427 -0.6128 -1.1394
 3806SOL     OW22876   1.455   4.182   5.818  0.5511 -0.6567 -0.0411
 3806SOL    HW122877   1.377   4.189   5.763  0.0142  2.7442  1.1295
 3806SOL    HW222878   1.424   4.225   5.898 -1.1535 -1.3959 -0.3076
 3807SOL     OW22879   2.460   0.685  11.617  0.0200  0.2424  0.5819
 3807SOL    HW122880   2.459   0.744  11.693 -0.4086  1.1188 -0.1067
 3807SOL    HW222881   2.423   0.741  11.549  4.0848  1.5782 -0.5261
 3808SOL     OW22882   3.012   0.132   1.923 -0.0756  0.0779  0.0747
 3808SOL    HW122883   3.051   0.173   1.845  1.3158  1.2023  1.3480
 3808SOL    HW222884   3.097   0.107   1.960 -0.4763  0.7804  1.4697
 3809SOL     OW22885   0.010   4.099   5.782  0.4284 -0.6357 -0.1107
 3809SOL    HW122886   0.030   4.092   5.875 -1.7030 -1.5093  0.2818
 3809SOL    HW222887   0.099   4.107   5.748  1.2468  0.8736  2.3546
 3810SOL     OW22888   1.637   2.367   2.767 -0.4658 -0.2481  0.3363
 3810SOL    HW122889   1.690   2.333   2.839  1.9537  1.7731 -0.4943
 3810SOL    HW222890   1.549   2.343   2.797  0.0429 -0.1918  1.9083
 3811SOL     OW22891   4.132   4.373   3.804 -0.6613 -0.5192 -0.0085
 3811SOL    HW122892   4.107   4.451   3.754 -4.0080 -0.3810  1.8990
 3811SOL    HW222893   4.050   4.331   3.780 -0.2984 -0.8206 -0.7326
 3812SOL     OW22894   3.811   3.067  12.242  0.2981  0.8313 -0.1463
 3812SOL    HW122895   3.754   3.100  12.311 -0.3888  0.4931 -0.5525
 3812SOL    HW222896   3.874   3.018  12.294  0.4987 -0.1271 -1.2809
 3813SOL     OW22897   0.489   3.231   0.104  0.5478 -0.4855 -0.1707
 3813SOL    HW122898   0.531   3.251   0.188  1.3957 -1.2902 -0.4008
 3813SOL    HW222899   0.466   3.138   0.116 -0.8413 -0.0437  0.6358
 3814SOL     OW22900   1.366   3.805  13.296 -0.7815  0.4162  0.2016
 3814SOL    HW122901   1.419   3.849  13.229 -0.0675 -0.5384  0.1403
 3814SOL    HW222902   1.289   3.762  13.258  0.6186 -0.7873 -1.3075
 3815SOL     OW22903   1.570   3.151   7.033  0.4438  0.1817  0.4962
 3815SOL    HW122904   1.509   3.099   6.982  1.9884 -0.3901 -0.7794
 3815SOL    HW222905   1.581   3.101   7.114 -0.7837  0.7641  1.0306
 3816SOL     OW22906   2.390   2.826   2.007 -0.0826  0.6288 -0.6982
 3816SOL    HW122907   2.404   2.738   1.970 -1.2379  0.4980 -0.7967
 3816SOL    HW222908   2.473   2.866   1.981  0.2306 -1.1798 -2.4959
 3817SOL     OW22909   1.351   2.592   4.857  0.0578 -0.1571 -0.0853
 3817SOL    HW122910   1.419   2.527   4.869 -1.2323 -1.0316  2.4744
 3817SOL    HW222911   1.398   2.669   4.890 -2.3722  1.2279  0.1716
 3818SOL     OW22912   1.558   3.337   4.090  0.6704  0.0778  0.3006
 3818SOL    HW122913   1.570   3.389   4.170  0.9056  2.7669 -1.4881
 3818SOL    HW222914   1.645   3.355   4.055  0.7226  0.4521  0.6107
 3819SOL     OW22915   3.022   4.193   7.828 -0.2736 -0.3752 -0.0421
 3819SOL    HW122916   2.998   4.279   7.794  1.4029 -0.2795 -0.9383
 3819SOL    HW222917   2.940   4.159   7.864  0.6154 -1.5861  0.8152
 3820SOL     OW22918   3.657   1.983   3.532  0.4963  0.1618 -0.0153
 3820SOL    HW122919   3.687   1.904   3.486 -2.7935 -1.3427  0.4816
 3820SOL    HW222920   3.682   1.956   3.620 -0.3891 -0.8359 -0.0694
 3821SOL     OW22921   3.664   3.974   7.891 -0.0316 -0.3717 -0.1905
 3821SOL    HW122922   3.661   3.961   7.797 -0.5271 -0.5147 -0.1557
 3821SOL    HW222923   3.753   4.007   7.901 -0.2442 -0.2561  1.3299
 3822SOL     OW22924   4.346   0.242   2.394  0.4824  0.7092  0.4116
 3822SOL    HW122925   4.388   0.226   2.310 -1.2036 -0.3478 -0.2290
 3822SOL    HW222926   4.394   0.184   2.454  0.0649  1.7937  1.8065
 3823SOL     OW22927   2.295   3.089   9.666  0.1690 -0.0914  0.3266
 3823SOL    HW122928   2.331   3.017   9.719 -0.4487 -1.3489 -0.9726
 3823SOL    HW222929   2.276   3.148   9.738 -1.4391  0.3488 -0.4592
 3824SOL     OW22930   1.011   2.812   2.924 -0.7213  0.5520 -0.0280
 3824SOL    HW122931   0.963   2.895   2.917 -1.0168  0.4553  0.8992
 3824SOL    HW222932   0.974   2.781   3.006  0.0282 -2.4318 -0.8280
 3825SOL     OW22933   0.884   2.600  12.350 -0.5413 -0.0141  0.3448
 3825SOL    HW122934   0.921   2.649  12.277 -0.5987 -1.8024 -0.8866
 3825SOL    HW222935   0.960   2.548  12.379  0.0697  0.0358 -1.1446
 3826SOL     OW22936   2.994   0.048   3.847 -0.1512  0.2393 -0.2486
 3826SOL    HW122937   2.992   0.112   3.918  0.8940  0.7770 -0.7164
 3826SOL    HW222938   3.016   0.109   3.777  0.7335 -0.6648 -0.7572
 3827SOL     OW22939   0.939   0.435   7.984 -0.0016  0.0442  0.4410
 3827SOL    HW122940   1.021   0.434   8.034  0.0653 -0.2530  0.3292
 3827SOL    HW222941   0.921   0.529   7.990 -0.8971 -0.1369  0.5249
 3828SOL     OW22942   2.194   1.603   6.952 -0.1205  0.0952 -0.2852
 3828SOL    HW122943   2.119   1.544   6.949  0.8548 -1.1766  0.0817
 3828SOL    HW222944   2.177   1.650   7.034  2.2654 -0.1054  0.3202
 3829SOL     OW22945   0.562   2.765  16.556  0.2219 -0.5670 -0.7510
 3829SOL    HW122946   0.629   2.697  16.544  1.2169  0.3661 -0.5638
 3829SOL    HW222947   0.473   2.731  16.560  0.0582  0.2867  3.2254
 3830SOL     OW22948   1.579   2.279   9.335  0.2071  0.4159 -0.2832
 3830SOL    HW122949   1.515   2.344   9.364  1.8005  1.8237  0.0911
 3830SOL    HW222950   1.585   2.228   9.416  0.1771  1.9399  0.6916
 3831SOL     OW22951   1.028   1.673   8.490  0.3208  0.2074  0.1563
 3831SOL    HW122952   0.983   1.627   8.561  1.8939  1.7869  2.1848
 3831SOL    HW222953   1.086   1.602   8.462  2.1603  1.2725  1.2314
 3832SOL     OW22954   1.296   2.950  16.987 -0.1223  0.2056 -0.0631
 3832SOL    HW122955   1.341   2.878  16.945 -1.4558 -0.1917 -0.8291
 3832SOL    HW222956   1.216   2.907  17.015 -1.8665  2.1726 -1.9462
 3833SOL     OW22957   2.991   2.161   5.164 -0.1669  0.4770 -0.3014
 3833SOL    HW122958   3.047   2.237   5.147 -1.9488  1.9152  0.2564
 3833SOL    HW222959   3.057   2.100   5.198  0.1996  0.3437 -1.2631
 3834SOL     OW22960   1.256   4.138   6.554 -1.1648 -0.3715 -0.2365
 3834SOL    HW122961   1.214   4.131   6.639 -0.9501  2.4351  0.1178
 3834SOL    HW222962   1.315   4.064   6.566  0.9639  1.1449 -1.2097
 3835SOL     OW22963   2.845   2.828  17.291 -0.3421 -0.1405  0.0421
 3835SOL    HW122964   2.834   2.764  17.221 -0.5496  1.3101 -1.2447
 3835SOL    HW222965   2.768   2.883  17.279  0.7761  1.0207 -1.8665
 3836SOL     OW22966   3.797   3.202  11.121  0.5849  0.2444 -0.0248
 3836SOL    HW122967   3.705   3.221  11.141  0.7061 -1.3790  2.0302
 3836SOL    HW222968   3.837   3.183  11.205  0.4105 -2.2382 -0.5044
 3837SOL     OW22969   2.277   2.570   4.717 -0.1530 -0.7214 -0.6793
 3837SOL    HW122970   2.266   2.508   4.646 -0.1451  0.4555 -1.7084
 3837SOL    HW222971   2.372   2.574   4.711  0.0681  0.1627  3.2769
 3838SOL     OW22972   2.333   3.125   5.004  0.5199  0.2630 -0.4027
 3838SOL    HW122973   2.373   3.048   4.964  2.7633  0.2302  1.9438
 3838SOL    HW222974   2.395   3.196   4.986 -0.2043  0.6998 -1.1965
 3839SOL     OW22975   0.726   2.043   3.821 -0.0880 -0.2392  0.1235
 3839SOL    HW122976   0.821   2.037   3.811 -0.0119  1.8411 -0.2179
 3839SOL    HW222977   0.730   2.081   3.908 -0.2185 -0.4468  0.2204
 3840SOL     OW22978   1.981   1.809  15.372  0.1468 -0.1059 -0.2218
 3840SOL    HW122979   1.888   1.829  15.360  0.0739 -0.7591 -0.7507
 3840SOL    HW222980   2.025   1.846  15.295  1.2973  0.5873  0.7602
 3841SOL     OW22981   4.666   2.547   8.159  0.0358 -0.0013  1.3764
 3841SOL    HW122982   4.675   2.460   8.197  0.0220 -1.6438 -2.3591
 3841SOL    HW222983   4.661   2.522   8.067 -0.4051 -0.9533  1.6526
 3842SOL     OW22984   0.756   0.110   7.612 -0.7366  0.4041  0.4115
 3842SOL    HW122985   0.813   0.162   7.669 -1.5364  1.7778 -0.0271
 3842SOL    HW222986   0.818   0.053   7.568 -1.3268  1.2387 -1.5010
 3843SOL     OW22987   2.804   2.000   0.981  0.2633  0.0925  0.2003
 3843SOL    HW122988   2.741   2.042   1.041  2.1901  2.8633  0.2637
 3843SOL    HW222989   2.881   2.056   0.988  1.1130 -1.1797  1.1522
 3844SOL     OW22990   1.871   2.738   6.116 -0.0722 -0.3315 -0.0322
 3844SOL    HW122991   1.804   2.733   6.047 -0.7686  0.3649  0.5992
 3844SOL    HW222992   1.905   2.827   6.115 -0.9316 -0.0071 -1.2801
 3845SOL     OW22993   3.282   3.237   0.395 -0.2860  0.0241 -0.5151
 3845SOL    HW122994   3.234   3.300   0.448 -0.5091 -0.5157 -0.0703
 3845SOL    HW222995   3.354   3.217   0.456  0.8096 -1.0796 -2.1734
 3846SOL     OW22996   4.257   4.489   3.339 -0.3958  0.1948  0.4810
 3846SOL    HW122997   4.264   4.427   3.412 -0.4023  0.1389  0.4343
 3846SOL    HW222998   4.340   4.536   3.335 -1.7318  2.5910  0.9632
 3847SOL     OW22999   3.653   4.443  15.080  0.0691 -0.4912 -0.4073
 3847SOL    HW123000   3.613   4.436  14.993  0.1645 -3.3656 -0.2259
 3847SOL    HW223001   3.631   4.359  15.120 -2.1264  1.7296  3.0938
 3848SOL     OW23002   1.881   2.152   8.443 -0.1545 -0.3172 -0.2730
 3848SOL    HW123003   1.848   2.208   8.372  0.4461  1.5929  0.9320
 3848SOL    HW223004   1.917   2.077   8.397  0.0177 -1.0779  1.1129
 3849SOL     OW23005   1.456   3.324   2.411 -0.4936  0.2255  0.3703
 3849SOL    HW123006   1.405   3.393   2.453 -2.0191 -0.7244  0.0835
 3849SOL    HW223007   1.462   3.358   2.322  0.4184  1.5798  0.9394
 3850SOL     OW23008   2.905   2.892   7.080 -0.3080 -0.5953  0.1388
 3850SOL    HW123009   2.838   2.827   7.062  0.0579 -0.4743 -1.6093
 3850SOL    HW223010   2.922   2.864   7.170  2.9426 -0.6092 -0.4916
 3851SOL     OW23011   0.140   1.498  11.678  0.0624 -0.0190 -0.0091
 3851SOL    HW123012   0.129   1.443  11.756  0.5907  0.8284  0.6632
 3851SOL    HW223013   0.194   1.569  11.713 -0.6130  0.3911  0.2047
 3852SOL     OW23014   1.217   1.886   2.432 -0.3153  0.0241  0.1292
 3852SOL    HW123015   1.162   1.843   2.497 -1.2153  1.0247  0.0179
 3852SOL    HW223016   1.284   1.935   2.478 -1.2753  1.5827 -0.1557
 3853SOL     OW23017   0.579   0.871   8.151  0.2320 -0.5420 -0.1175
 3853SOL    HW123018   0.601   0.785   8.189 -0.8446 -0.5046  0.6175
 3853SOL    HW223019   0.555   0.922   8.229 -0.5735  0.9246 -1.3450
 3854SOL     OW23020   3.734   3.957   6.812  0.1807  0.2117 -0.0159
 3854SOL    HW123021   3.767   3.884   6.863 -0.3226  0.2485  0.3631
 3854SOL    HW223022   3.784   4.031   6.848 -1.3825  0.5867  1.3813
 3855SOL     OW23023   4.013   0.388   8.125  0.0585 -0.1450 -0.1979
 3855SOL    HW123024   3.949   0.434   8.180  1.6274 -1.2522  2.5745
 3855SOL    HW223025   4.092   0.418   8.171  0.6633 -1.4397 -0.3707
 3856SOL     OW23026   0.014   4.681   3.926  0.0503 -0.1488  0.3135
 3856SOL    HW123027   0.055   4.636   3.853 -3.8009 -0.7216 -1.5261
 3856SOL    HW223028   0.088   0.005   3.964 -0.7858  0.2286  1.5056
 3857SOL     OW23029   2.172   4.041   6.603  0.1161 -0.1498 -0.0150
 3857SOL    HW123030   2.184   4.011   6.513  0.6395 -1.4775  0.5067
 3857SOL    HW223031   2.255   4.089   6.611  1.4277 -2.0727 -2.0449
 3858SOL     OW23032   2.779   3.801   6.490  0.0404 -1.0613 -0.1304
 3858SOL    HW123033   2.767   3.840   6.576 -0.5758 -2.1483  0.2833
 3858SOL    HW223034   2.706   3.849   6.450 -0.7749 -1.2542  1.1325
 3859SOL     OW23035   3.510   2.224   6.178  0.4429 -0.2244  1.0489
 3859SOL    HW123036   3.560   2.199   6.100  0.9332  1.6486  0.7597
 3859SOL    HW223037   3.523   2.318   6.178  2.4913 -0.5059  1.8158
 3860SOL     OW23038   3.906   1.595   6.399 -0.3800  0.8860  0.2225
 3860SOL    HW123039   3.840   1.527   6.381  0.3864  0.0994  0.3747
 3860SOL    HW223040   3.984   1.551   6.431 -1.7060 -0.7282  1.2823
 3861SOL     OW23041   0.351   0.403  15.747 -0.0224  0.0403 -0.0538
 3861SOL    HW123042   0.268   0.441  15.776  0.7029  3.1779 -2.1133
 3861SOL    HW223043   0.400   0.475  15.708 -0.8764 -0.4041 -1.9480
 3862SOL     OW23044   3.164   1.307   0.857  0.4157  0.6276  0.0330
 3862SOL    HW123045   3.216   1.386   0.840  0.5481  0.3191 -0.9566
 3862SOL    HW223046   3.074   1.339   0.860 -0.1355 -0.9038 -0.2255
 3863SOL     OW23047   1.580   0.199   2.500  0.3407  0.1848 -0.0574
 3863SOL    HW123048   1.498   0.186   2.452 -0.0335  0.8162  0.4008
 3863SOL    HW223049   1.628   0.245   2.431 -1.0155  0.6542 -0.6916
 3864SOL     OW23050   1.904   4.009   5.108  0.1047  0.7029 -0.1151
 3864SOL    HW123051   1.976   3.946   5.120 -0.6399 -0.2833 -0.8238
 3864SOL    HW223052   1.847   3.966   5.171  1.3903 -1.6813 -0.5524
 3865SOL     OW23053   0.272   3.677  12.335 -0.0601 -0.0151 -0.1233
 3865SOL    HW123054   0.236   3.766  12.341  0.4843  0.2583 -0.8836
 3865SOL    HW223055   0.311   3.678  12.248 -0.9559  0.0304 -0.5184
 3866SOL     OW23056   4.590   3.414   5.795  0.2629 -0.5181  0.0596
 3866SOL    HW123057   4.530   3.483   5.769  3.2504  1.4810 -1.5027
 3866SOL    HW223058   4.667   3.456   5.756 -2.1976  1.9826 -2.1415
 3867SOL     OW23059   2.907   4.389   0.197 -0.2736  0.1471  0.3307
 3867SOL    HW123060   2.924   4.437   0.278  1.6318  0.7895 -0.4587
 3867SOL    HW223061   2.996   4.389   0.163 -0.6992  2.3672 -0.8163
 3868SOL     OW23062   0.314   4.316   5.396  0.1110 -0.2776  0.2711
 3868SOL    HW123063   0.292   4.320   5.303 -0.0064  2.1066  0.4154
 3868SOL    HW223064   0.285   4.401   5.428  0.1471 -0.0711 -0.2426
 3869SOL     OW23065   0.475   2.460   3.059  0.2141 -0.0506 -0.1956
 3869SOL    HW123066   0.416   2.385   3.066  0.7110 -0.4533 -0.3574
 3869SOL    HW223067   0.414   2.523   3.021  0.6690  1.2840  1.3009
 3870SOL     OW23068   2.192   3.847   7.441  0.0920 -0.2146  0.5044
 3870SOL    HW123069   2.228   3.774   7.389  0.0952  1.0258 -1.2564
 3870SOL    HW223070   2.250   3.852   7.517  1.3781 -2.8443 -0.3018
 3871SOL     OW23071   0.823   2.950   2.364 -0.1303 -0.3376 -0.1917
 3871SOL    HW123072   0.849   3.003   2.439 -2.3632 -0.5015  0.6998
 3871SOL    HW223073   0.902   2.912   2.325 -0.1541 -1.8590  1.2310
 3872SOL     OW23074   2.779   2.266   6.673  0.1973  0.3555  0.0594
 3872SOL    HW123075   2.872   2.256   6.692  0.3314  0.0837 -0.7295
 3872SOL    HW223076   2.750   2.177   6.655 -0.7432  0.6414  0.1436
 3873SOL     OW23077   2.634   1.369   2.431 -0.2977 -0.0006  0.0094
 3873SOL    HW123078   2.578   1.346   2.357  0.6861  0.9819 -1.0444
 3873SOL    HW223079   2.574   1.339   2.500  0.7100 -0.8454  0.5218
 3874SOL     OW23080   1.149   1.262   4.186  0.4201  0.5846  0.2711
 3874SOL    HW123081   1.163   1.287   4.095 -0.7888  0.2873  0.0187
 3874SOL    HW223082   1.234   1.227   4.212  0.5424  0.1861 -0.6795
 3875SOL     OW23083   3.003   4.210  13.390 -0.1385  0.3645 -0.3906
 3875SOL    HW123084   2.949   4.284  13.420  0.4793  1.0488 -0.9646
 3875SOL    HW223085   3.025   4.237  13.301 -0.0369 -2.2513 -1.1372
 3876SOL     OW23086   3.778   3.110   4.655 -0.3030  0.4347  0.8928
 3876SOL    HW123087   3.732   3.050   4.713  0.1974 -1.5761 -0.7788
 3876SOL    HW223088   3.866   3.073   4.661 -0.4453 -0.2408 -1.1900
 3877SOL     OW23089   3.886   1.661  12.770  0.7994 -0.2708  0.0364
 3877SOL    HW123090   3.803   1.661  12.721 -0.1838  2.5466  1.7082
 3877SOL    HW223091   3.861   1.604  12.842 -0.6145 -2.6084 -2.2905
 3878SOL     OW23092   3.268   2.717   8.496  0.2712  0.3132  0.2258
 3878SOL    HW123093   3.287   2.746   8.407  0.7203  1.4289  0.6898
 3878SOL    HW223094   3.173   2.709   8.501  0.3011  0.5414  1.0709
 3879SOL     OW23095   0.962   3.286   7.307  0.4211 -0.3232 -0.4076
 3879SOL    HW123096   0.884   3.303   7.255 -0.7529 -0.8202  1.1981
 3879SOL    HW223097   0.962   3.364   7.362 -2.0460 -0.0291 -0.8477
 3880SOL     OW23098   0.894   0.436   8.559  0.1750 -0.0452  0.4460
 3880SOL    HW123099   0.811   0.394   8.581  0.5746  0.1697  2.3566
 3880SOL    HW223100   0.942   0.410   8.638 -0.1010 -1.8093  0.0410
 3881SOL     OW23101   2.606   1.262  11.536  0.4721 -0.1591  0.1855
 3881SOL    HW123102   2.687   1.213  11.554  2.1608  2.3281 -0.6632
 3881SOL    HW223103   2.591   1.249  11.443  1.0567 -1.2861  0.2484
 3882SOL     OW23104   0.967   2.041  13.097  0.3241 -0.1369 -0.0499
 3882SOL    HW123105   1.015   2.119  13.071 -1.7613  1.4780  0.8623
 3882SOL    HW223106   1.001   2.037  13.187 -1.9128  0.6687  0.8495
 3883SOL     OW23107   4.644   0.357   1.060  0.3322  0.5635  0.6241
 3883SOL    HW123108   4.584   0.299   1.108 -0.3562 -0.4440 -1.4587
 3883SOL    HW223109   0.006   0.332   1.098 -0.1417 -2.4488 -0.3045
 3884SOL     OW23110   4.696   1.606   1.518  0.2595  0.3137 -0.6733
 3884SOL    HW123111   4.710   1.511   1.514  0.7440  0.3611  0.0488
 3884SOL    HW223112   4.696   1.631   1.610 -1.4816 -0.2650 -0.5071
 3885SOL     OW23113   4.518   1.163  17.437 -0.0302 -0.0507  0.8263
 3885SOL    HW123114   4.604   1.204  17.446  0.1608 -0.1083 -0.7827
 3885SOL    HW223115   4.454   1.231  17.456  0.3220  1.0148 -1.8375
 3886SOL     OW23116   4.276   3.015   6.471 -0.0699 -0.0245  0.1008
 3886SOL    HW123117   4.218   3.046   6.401 -0.7806  2.1001  1.6224
 3886SOL    HW223118   4.346   3.079   6.467  0.8909 -1.0461  0.5926
 3887SOL     OW23119   0.283   4.452   4.236  0.2243 -0.5070 -0.4001
 3887SOL    HW123120   0.286   4.500   4.153 -0.7128 -1.0873 -0.7590
 3887SOL    HW223121   0.278   4.363   4.203  1.3624 -1.0135  0.7892
 3888SOL     OW23122   3.906   3.485   6.912 -0.3069  0.1384 -0.0989
 3888SOL    HW123123   3.870   3.446   6.832  0.9007 -0.7298 -0.2214
 3888SOL    HW223124   3.944   3.404   6.945  1.6872  1.6309  1.2507
 3889SOL     OW23125   1.815   1.854  12.249  0.2895  0.4955 -0.8779
 3889SOL    HW123126   1.859   1.914  12.189  2.2500  0.0767  0.1179
 3889SOL    HW223127   1.753   1.811  12.191 -2.0306  2.0049  0.4740
 3890SOL     OW23128   4.309   4.630   3.031 -0.1668 -0.5763  0.0819
 3890SOL    HW123129   4.338   4.546   2.997 -1.4570 -0.3956 -1.4660
 3890SOL    HW223130   4.348   4.639   3.118 -0.3451  0.6318  0.0416
 3891SOL     OW23131   1.040   2.527   5.914  0.1062 -0.4124  0.2724
 3891SOL    HW123132   0.973   2.580   5.958 -0.0498 -1.9747  1.9150
 3891SOL    HW223133   1.009   2.438   5.927 -0.1774 -0.1766  1.2267
 3892SOL     OW23134   0.328   3.137   6.273  0.1120  0.4425 -0.3352
 3892SOL    HW123135   0.386   3.172   6.341  1.0394  1.1468 -1.4756
 3892SOL    HW223136   0.376   3.055   6.256  0.3682  0.6220 -0.4782
 3893SOL     OW23137   3.923   2.314   1.917 -0.2790  0.0017  0.0694
 3893SOL    HW123138   3.894   2.294   2.006 -0.6117 -2.3200 -0.5744
 3893SOL    HW223139   3.865   2.385   1.890  2.4231  1.0590 -2.9050
 3894SOL     OW23140   1.684   3.709   1.880 -0.3208  0.1700 -0.0733
 3894SOL    HW123141   1.665   3.690   1.972  2.7782  1.5059  0.8533
 3894SOL    HW223142   1.626   3.783   1.864  0.9748  0.9892 -0.9916
 3895SOL     OW23143   4.605   1.855   7.551  0.0009  0.6329  0.1273
 3895SOL    HW123144   4.640   1.797   7.483 -0.1914  0.9306 -0.2270
 3895SOL    HW223145   4.595   1.934   7.498 -2.8585 -0.1973 -0.5566
 3896SOL     OW23146   0.997   0.344   5.834  0.0232  0.3367 -0.0575
 3896SOL    HW123147   1.057   0.291   5.888 -0.8977  1.4570  2.0729
 3896SOL    HW223148   1.040   0.427   5.855  3.1139 -1.0357 -0.8922
 3897SOL     OW23149   1.380   1.480  10.908 -0.2115  0.1446  0.1292
 3897SOL    HW123150   1.476   1.470  10.910 -0.3202 -0.9897 -0.4187
 3897SOL    HW223151   1.353   1.388  10.907 -0.5849  0.2476  1.4405
 3898SOL     OW23152   3.347   0.523   6.017  0.4561  0.0350  0.0822
 3898SOL    HW123153   3.296   0.547   5.939  0.9841 -1.2266 -0.6651
 3898SOL    HW223154   3.346   0.427   6.009  1.8271  0.1123 -0.9870
 3899SOL     OW23155   4.331   1.743  16.351 -0.1242 -0.4334 -0.1871
 3899SOL    HW123156   4.259   1.681  16.349  1.2684 -2.0501 -0.3218
 3899SOL    HW223157   4.279   1.820  16.327 -0.2482 -0.2671  0.6137
 3900SOL     OW23158   0.933   0.489   4.507 -1.1078 -0.2157  0.0719
 3900SOL    HW123159   0.908   0.421   4.444 -2.8769 -0.1609  0.7237
 3900SOL    HW223160   0.854   0.541   4.519 -0.0163  1.2982  0.6357
 3901SOL     OW23161   4.074   2.343   7.517  0.4315 -0.6788 -0.5685
 3901SOL    HW123162   4.142   2.411   7.522  1.0258 -1.4291  1.5958
 3901SOL    HW223163   4.037   2.355   7.604  0.8823 -1.2117 -0.3026
 3902SOL     OW23164   2.989   1.043   0.433 -0.2511 -0.0382  0.1931
 3902SOL    HW123165   2.947   1.128   0.441  1.4572  0.7385  0.8067
 3902SOL    HW223166   3.047   1.046   0.356 -0.7472 -0.0460 -0.1811
 3903SOL     OW23167   0.071   3.732   1.833 -0.6553 -0.6449 -0.1364
 3903SOL    HW123168   0.137   3.790   1.794 -1.0496  0.5720  1.0248
 3903SOL    HW223169   0.017   3.717   1.755 -1.1035 -0.6918  0.1827
 3904SOL     OW23170   4.241   2.483   0.278 -0.4136  0.0028  0.1715
 3904SOL    HW123171   4.309   2.548   0.259 -0.2670  0.1229  1.1348
 3904SOL    HW223172   4.203   2.513   0.360  1.9718  0.8527  0.9783
 3905SOL     OW23173   1.613   4.460  13.297  0.5214  0.1529  0.6333
 3905SOL    HW123174   1.615   4.484  13.390 -1.7123  1.3054  0.3794
 3905SOL    HW223175   1.704   4.462  13.269  1.0125 -0.9027  2.1841
 3906SOL     OW23176   1.150   0.461  10.551 -0.1483 -0.3380  0.1305
 3906SOL    HW123177   1.206   0.385  10.570  0.5419 -0.4812 -2.5019
 3906SOL    HW223178   1.150   0.511  10.633 -0.0262 -1.3615  0.7558
 3907SOL     OW23179   2.483   1.988   3.112 -0.1071  0.3371 -0.2036
 3907SOL    HW123180   2.432   1.921   3.158 -1.9158  0.6662 -1.7374
 3907SOL    HW223181   2.559   1.987   3.171 -0.0720  0.2392 -0.2524
 3908SOL     OW23182   4.335   3.287  17.671  0.2962 -0.0517 -0.1731
 3908SOL    HW123183   4.424   3.258  17.691 -0.2519  1.2926  4.2709
 3908SOL    HW223184   4.339   3.336  17.589  1.3526  0.2913  0.0884
 3909SOL     OW23185   3.664   3.910  15.322  0.3488 -0.0578 -0.2004
 3909SOL    HW123186   3.708   3.893  15.405  1.9100 -0.5048 -1.1055
 3909SOL    HW223187   3.715   3.984  15.290  2.7864 -1.7486 -0.2644
 3910SOL     OW23188   4.681   4.205  17.248 -0.0571  0.7418  0.2433
 3910SOL    HW123189   4.632   4.237  17.172  1.6815  0.8338 -0.8621
 3910SOL    HW223190   0.037   4.173  17.204 -0.8524 -0.7601 -0.0633
 3911SOL     OW23191   2.205   4.121   9.326  0.6934 -0.1273  0.1815
 3911SOL    HW123192   2.228   4.054   9.391 -0.5028 -1.0634 -0.3299
 3911SOL    HW223193   2.109   4.111   9.322  0.5554  1.4973 -0.1585
 3912SOL     OW23194   0.732   1.043   6.529  0.1535  0.2384  0.3476
 3912SOL    HW123195   0.743   1.136   6.544 -1.3199  0.0808  2.3363
 3912SOL    HW223196   0.707   1.013   6.616 -2.6970 -1.4174 -1.0469
 3913SOL     OW23197   2.519   4.712   7.963  0.3696 -0.4540 -0.3713
 3913SOL    HW123198   2.536   0.020   7.874 -2.0844 -0.2085 -0.7528
 3913SOL    HW223199   2.609   4.708   7.996 -0.1780 -0.4212  1.1118
 3914SOL     OW23200   2.927   0.677   6.035  0.0147  0.2673 -0.6457
 3914SOL    HW123201   2.845   0.705   5.993 -0.0998  1.5032  0.3952
 3914SOL    HW223202   2.918   0.587   6.003 -1.3277  0.6384 -1.3416
 3915SOL     OW23203   0.759   2.035   1.803 -0.3324 -0.2702  0.3132
 3915SOL    HW123204   0.687   2.005   1.747  0.3999  0.6506 -1.1205
 3915SOL    HW223205   0.718   2.118   1.829 -0.6346 -0.0896 -0.7574
 3916SOL     OW23206   0.612   4.613   3.312  0.3899  0.3012  0.1569
 3916SOL    HW123207   0.697   4.643   3.344  1.2051 -0.2379 -1.5458
 3916SOL    HW223208   0.630   4.611   3.218 -2.5625  1.5721 -0.4555
 3917SOL     OW23209   1.344   3.272   4.382  0.0458  0.2596 -0.2650
 3917SOL    HW123210   1.405   3.321   4.328  2.1103  0.4102  2.1906
 3917SOL    HW223211   1.323   3.338   4.449 -0.1216 -0.2270  0.1638
 3918SOL     OW23212   1.498   1.156   5.181 -0.5799  0.4935  0.0408
 3918SOL    HW123213   1.504   1.216   5.106  0.7965  0.0789 -0.1837
 3918SOL    HW223214   1.439   1.204   5.239 -1.4621 -0.5941  0.0460
 3919SOL     OW23215   1.960   1.458  10.071  0.4170 -0.0327  0.2011
 3919SOL    HW123216   2.040   1.455  10.124 -0.6715  2.0721  1.9731
 3919SOL    HW223217   1.996   1.520  10.007  0.2875 -0.4123 -0.2328
 3920SOL     OW23218   0.220   3.153   5.540  0.4539 -0.2821 -0.0822
 3920SOL    HW123219   0.151   3.088   5.525 -0.7677  0.2652  3.0944
 3920SOL    HW223220   0.269   3.106   5.607 -0.3331  0.8990  1.3186
 3921SOL     OW23221   4.389   1.829   7.991 -0.5745 -0.1248 -0.4256
 3921SOL    HW123222   4.293   1.827   7.999 -0.6654  1.9320 -0.9034
 3921SOL    HW223223   4.402   1.831   7.896 -0.6296  2.2733 -0.3822
 3922SOL     OW23224   3.406   4.330   2.077 -0.6885  0.1888 -0.0859
 3922SOL    HW123225   3.421   4.273   2.153  0.9040  0.3803 -0.2724
 3922SOL    HW223226   3.346   4.395   2.114 -0.7302  0.3447 -0.4303
 3923SOL     OW23227   0.142   2.007  10.937  0.0547  0.5865  0.0793
 3923SOL    HW123228   0.193   1.974  11.011 -0.0836  2.2645  0.9195
 3923SOL    HW223229   0.188   2.087  10.911  1.5217  0.5903  2.6953
 3924SOL     OW23230   2.637   0.504  14.130 -0.0715  0.0144  0.9126
 3924SOL    HW123231   2.542   0.510  14.121  0.3487  1.6863 -2.3530
 3924SOL    HW223232   2.657   0.535  14.042  0.1123 -1.2434  0.5079
 3925SOL     OW23233   1.331   3.590  12.938 -0.4763  0.7356  0.0290
 3925SOL    HW123234   1.251   3.545  12.962  0.6999 -1.6754 -0.6515
 3925SOL    HW223235   1.300   3.655  12.875 -2.4548  0.0505  0.3180
 3926SOL     OW23236   2.952   3.052   7.455 -0.3014 -0.1572 -0.0075
 3926SOL    HW123237   2.964   3.023   7.545 -0.9377 -1.7069 -0.4122
 3926SOL    HW223238   3.034   3.032   7.411 -1.1233 -1.2103 -1.0925
 3927SOL     OW23239   0.627   4.103   8.489  0.0031 -0.4966  0.4835
 3927SOL    HW123240   0.645   4.025   8.437 -0.0780 -0.9285  1.1172
 3927SOL    HW223241   0.643   4.177   8.429  1.3828 -1.9200 -0.8904
 3928SOL     OW23242   1.127   1.728   5.749  0.7637 -0.6289  0.3164
 3928SOL    HW123243   1.051   1.741   5.691 -0.3054 -1.5616  1.5120
 3928SOL    HW223244   1.139   1.817   5.780 -2.1374 -0.9268  2.2573
 3929SOL     OW23245   0.071   4.059   5.297 -0.4112 -0.8964  0.1462
 3929SOL    HW123246   4.719   4.115   5.277 -0.6106 -0.4672  2.0203
 3929SOL    HW223247   0.023   3.977   5.291  1.9999 -2.6190  4.1941
 3930SOL     OW23248   3.487   1.662   8.163  0.0562  0.2077  0.1865
 3930SOL    HW123249   3.456   1.598   8.098 -0.0289 -0.5632  0.9831
 3930SOL    HW223250   3.529   1.727   8.107 -0.6704  0.9498  0.4922
 3931SOL     OW23251   0.361   2.053   6.698  0.0904  0.4138  0.3751
 3931SOL    HW123252   0.349   2.141   6.733 -2.9449  0.5641 -1.0770
 3931SOL    HW223253   0.281   2.015   6.662  0.0176  0.2827  0.6719
 3932SOL     OW23254   3.182   3.878  15.638  0.4251 -0.2599 -0.2114
 3932SOL    HW123255   3.108   3.932  15.610  0.1365  0.1879  1.4240
 3932SOL    HW223256   3.212   3.839  15.556  1.5554  1.5029 -0.6312
 3933SOL     OW23257   1.509   3.362   2.098  0.1449 -0.1438 -0.0382
 3933SOL    HW123258   1.601   3.359   2.070 -0.2656  0.9060 -1.4746
 3933SOL    HW223259   1.473   3.298   2.036  1.7595 -3.1981  2.1727
 3934SOL     OW23260   1.221   1.155   8.565  0.3839  0.3999 -0.6787
 3934SOL    HW123261   1.240   1.155   8.659 -1.5743  2.6799 -0.2990
 3934SOL    HW223262   1.291   1.214   8.537 -0.7956  1.8089 -0.5927
 3935SOL     OW23263   2.658   3.209   7.821 -0.1959 -0.2066 -0.1227
 3935SOL    HW123264   2.717   3.263   7.768 -1.2578  1.7711  0.7148
 3935SOL    HW223265   2.612   3.163   7.751 -0.9334  1.4421 -0.7264
 3936SOL     OW23266   2.659   2.934   3.502 -0.1011 -0.4757 -0.4920
 3936SOL    HW123267   2.564   2.948   3.499  0.0178  0.0798 -1.7531
 3936SOL    HW223268   2.651   2.862   3.439 -0.6737 -0.9752  0.1560
 3937SOL     OW23269   0.228   3.495   1.886  0.0912  0.5537  0.6507
 3937SOL    HW123270   0.181   3.578   1.878  0.0900  0.6098  1.2417
 3937SOL    HW223271   0.154   3.438   1.909  0.2957  0.4868  1.1508
 3938SOL     OW23272   2.010   0.788  15.871  0.5930  0.3907  0.0808
 3938SOL    HW123273   2.064   0.831  15.936 -0.6881  1.7317  0.2553
 3938SOL    HW223274   2.046   0.828  15.792 -1.2837 -0.9702 -1.4744
 3939SOL     OW23275   2.985   1.599  11.234 -0.0061  0.1866  0.0669
 3939SOL    HW123276   2.976   1.548  11.314 -1.1464 -1.0511 -0.8420
 3939SOL    HW223277   3.073   1.634  11.247 -0.1925  1.2220 -1.4745
 3940SOL     OW23278   1.210   3.572  10.482  0.3420 -0.6360 -0.2212
 3940SOL    HW123279   1.168   3.524  10.410 -0.3107 -0.6572  0.1718
 3940SOL    HW223280   1.173   3.531  10.560 -0.8605 -2.9145 -1.9501
 3941SOL     OW23281   4.415   1.478  12.227  0.1711 -0.6628  0.3955
 3941SOL    HW123282   4.361   1.513  12.297  0.6232 -0.3546  0.5869
 3941SOL    HW223283   4.371   1.511  12.149  1.1260 -0.3170 -0.0037
 3942SOL     OW23284   4.419   3.425   7.393 -0.4171  0.4703 -0.1641
 3942SOL    HW123285   4.475   3.347   7.388  0.9775  1.4087  0.8390
 3942SOL    HW223286   4.335   3.396   7.359 -0.8602  0.9901  0.4870
 3943SOL     OW23287   0.910   2.645   7.526 -0.0480 -0.3874 -0.7271
 3943SOL    HW123288   0.887   2.552   7.522 -1.3319 -0.1026 -0.1692
 3943SOL    HW223289   0.961   2.658   7.446  0.5726 -2.2434 -0.6365
 3944SOL     OW23290   4.064   4.411   8.964 -0.2069 -0.0147 -0.6981
 3944SOL    HW123291   4.037   4.329   9.006 -2.1323 -0.0252 -1.9446
 3944SOL    HW223292   4.007   4.474   9.007  0.1480 -0.8481  0.9984
 3945SOL     OW23293   4.656   3.563   4.968  0.3020 -0.1736 -0.0725
 3945SOL    HW123294   4.604   3.578   4.889 -0.5378 -1.3335  0.2596
 3945SOL    HW223295   4.618   3.633   5.021 -1.7277 -0.0582 -1.6931
 3946SOL     OW23296   3.100   4.555   6.672 -0.2495 -0.3921  0.0547
 3946SOL    HW123297   3.079   4.648   6.682 -1.0906 -0.4185 -1.4098
 3946SOL    HW223298   3.161   4.536   6.743 -2.0089 -0.5935  1.5181
 3947SOL     OW23299   4.275   1.085   3.461 -0.3641  0.6454  1.0844
 3947SOL    HW123300   4.297   1.096   3.554  1.1633  0.5281  0.7460
 3947SOL    HW223301   4.274   1.177   3.432 -0.2573  0.1202 -0.5678
 3948SOL     OW23302   0.467   2.624   3.825 -0.0476 -0.1744  0.0022
 3948SOL    HW123303   0.552   2.588   3.850 -1.2243 -0.6176  3.3794
 3948SOL    HW223304   0.430   2.561   3.763  1.2336 -0.5062 -0.4256
 3949SOL     OW23305   3.109   0.306   2.726 -0.2923  0.1915  0.9024
 3949SOL    HW123306   3.181   0.311   2.789  0.6635 -0.2356 -0.1599
 3949SOL    HW223307   3.138   0.361   2.653 -0.1096 -2.0051 -0.6783
 3950SOL     OW23308   0.848   1.810   7.065 -0.1486 -0.2968 -0.1676
 3950SOL    HW123309   0.902   1.731   7.060  0.5799  0.2371 -0.7188
 3950SOL    HW223310   0.826   1.828   6.974  0.9364 -0.1314 -0.3948
 3951SOL     OW23311   0.115   4.571   5.977 -0.3954  0.1967 -0.3004
 3951SOL    HW123312   0.203   4.578   5.940 -0.9396  0.5909 -1.5403
 3951SOL    HW223313   0.072   4.622   5.908 -4.3473 -0.9925  1.2882
 3952SOL     OW23314   3.614   2.339   2.946  0.0607  0.1496  0.5264
 3952SOL    HW123315   3.684   2.397   2.974  0.5042 -0.0505 -0.1521
 3952SOL    HW223316   3.630   2.337   2.851  1.8906  3.0677  0.7775
 3953SOL     OW23317   1.909   3.656   1.172  0.7165  0.1082  0.2575
 3953SOL    HW123318   1.862   3.595   1.229 -1.2828  0.1068 -1.3925
 3953SOL    HW223319   1.852   3.731   1.191 -3.3812 -2.6329 -1.1747
 3954SOL     OW23320   3.144   2.037   2.287  0.1864 -0.3254 -0.4929
 3954SOL    HW123321   3.055   2.004   2.278  0.1213 -0.3987  0.4590
 3954SOL    HW223322   3.158   2.089   2.207  3.0000 -0.7740 -0.3141
 3955SOL     OW23323   0.972   3.785   5.060 -0.3423 -0.5255  0.3061
 3955SOL    HW123324   1.035   3.787   5.131 -0.0928  0.1911  0.0685
 3955SOL    HW223325   0.956   3.691   5.064 -3.0303 -0.0588  0.2845
 3956SOL     OW23326   0.983   3.456   5.870 -0.0157  0.3012  0.2755
 3956SOL    HW123327   1.048   3.400   5.828 -2.1527 -1.9151 -0.0727
 3956SOL    HW223328   0.918   3.399   5.912 -0.0813 -1.3051 -2.0005
 3957SOL     OW23329   2.194   2.645   9.477 -0.3036  0.2323 -0.1866
 3957SOL    HW123330   2.163   2.634   9.566 -0.2360  0.8143 -0.0917
 3957SOL    HW223331   2.114   2.601   9.448  0.6344 -1.6147  0.0217
 3958SOL     OW23332   3.688   2.372   2.670 -0.6018 -0.3841  0.2630
 3958SOL    HW123333   3.739   2.453   2.660  0.0086 -0.5015  2.6348
 3958SOL    HW223334   3.646   2.374   2.583 -0.9868  0.9907  0.4703
 3959SOL     OW23335   4.316   0.104   4.029 -0.2080 -0.3678 -1.0273
 3959SOL    HW123336   4.354   0.191   4.036 -3.5450  0.8975  1.0251
 3959SOL    HW223337   4.387   0.062   3.980 -0.3203 -3.3433  1.3489
 3960SOL     OW23338   2.682   1.770   8.271  0.6754  0.2239 -0.2421
 3960SOL    HW123339   2.763   1.735   8.307  1.2635  2.3326  0.5116
 3960SOL    HW223340   2.705   1.816   8.190  1.8336 -0.3348 -0.2334
 3961SOL     OW23341   2.299   0.583   3.414  0.5281 -0.3744 -0.2843
 3961SOL    HW123342   2.375   0.599   3.359  0.9908 -0.6269  0.2886
 3961SOL    HW223343   2.268   0.495   3.391 -1.0667 -0.6253  2.7644
 3962SOL     OW23344   0.862   4.331   7.839  0.2749 -0.1468 -0.1949
 3962SOL    HW123345   0.825   4.415   7.809  1.3071  0.1248 -0.6967
 3962SOL    HW223346   0.849   4.275   7.763 -0.0553  0.4845 -0.6095
 3963SOL     OW23347   0.561   0.743   4.217  0.6570  0.3297  0.3080
 3963SOL    HW123348   0.511   0.761   4.137  0.3202  1.1359  0.7085
 3963SOL    HW223349   0.587   0.651   4.205 -2.2353 -0.4881  0.1621
 3964SOL     OW23350   1.928   0.160   0.893 -0.1867  0.3255  0.3772
 3964SOL    HW123351   1.907   0.116   0.975 -1.4248 -1.7560 -1.0663
 3964SOL    HW223352   1.858   0.224   0.881 -0.0532  0.5032  0.5424
 3965SOL     OW23353   1.675   4.072  15.447 -0.5027 -0.2660 -0.3842
 3965SOL    HW123354   1.729   4.116  15.513 -0.1722 -0.7750 -0.3086
 3965SOL    HW223355   1.617   4.143  15.423 -0.5359  0.1654  0.9361
 3966SOL     OW23356   2.209   2.559   5.623 -0.0042 -0.2909 -0.2405
 3966SOL    HW123357   2.261   2.551   5.543  1.3705 -1.9846  0.8154
 3966SOL    HW223358   2.251   2.499   5.685  1.0280  2.6701  1.9054
 3967SOL     OW23359   3.369   3.925   7.960  0.3411  0.9906 -0.0700
 3967SOL    HW123360   3.457   3.932   7.923 -1.2086  0.6762 -3.8173
 3967SOL    HW223361   3.373   3.996   8.023 -1.8672  0.3130  0.8255
 3968SOL     OW23362   1.882   4.410   7.623  0.3128  0.3056  0.2802
 3968SOL    HW123363   1.958   4.445   7.668 -1.1131  2.3597  1.0890
 3968SOL    HW223364   1.869   4.454   7.539  1.5803  0.3488  0.1055
 3969SOL     OW23365   3.430   1.709   0.698  0.0458 -0.6279 -0.0549
 3969SOL    HW123366   3.495   1.779   0.695 -0.0797 -0.4890  0.4689
 3969SOL    HW223367   3.359   1.766   0.727  0.8444  0.5924 -0.4565
 3970SOL     OW23368   4.511   4.255   7.640  0.2523  0.1471  0.2957
 3970SOL    HW123369   4.568   4.332   7.635 -1.5304  1.5457  1.7511
 3970SOL    HW223370   4.569   4.186   7.608  1.2813  0.3587  1.7169
 3971SOL     OW23371   3.106   3.048   9.902  0.0452 -0.3057 -0.1907
 3971SOL    HW123372   3.080   3.043   9.994 -2.4874 -0.9110 -0.9515
 3971SOL    HW223373   3.135   2.959   9.885  1.8858 -0.1118  1.8413
 3972SOL     OW23374   0.930   4.666  10.010 -0.8665  0.2470 -0.4243
 3972SOL    HW123375   0.868   4.665  10.083  0.9882 -1.5450  1.1437
 3972SOL    HW223376   0.990   4.594  10.031  0.6577  1.0065 -2.2108
 3973SOL     OW23377   0.391   1.917   7.765 -0.9009 -0.5693 -0.7777
 3973SOL    HW123378   0.388   1.830   7.806 -0.3598  0.0606  0.6083
 3973SOL    HW223379   0.388   1.988   7.830 -0.7351 -0.2306 -1.1447
 3974SOL     OW23380   3.834   3.927   5.668  0.3215 -0.6528  0.0964
 3974SOL    HW123381   3.831   3.974   5.751 -0.1963  0.2957 -0.4511
 3974SOL    HW223382   3.750   3.883   5.675 -0.0962  0.0225 -0.6735
 3975SOL     OW23383   1.809   1.595   1.436  0.6614 -0.6687 -0.2809
 3975SOL    HW123384   1.757   1.553   1.368  1.1082  0.0881 -1.0794
 3975SOL    HW223385   1.807   1.687   1.409 -2.1083 -0.5985  0.1264
 3976SOL     OW23386   0.495   0.821   9.253 -0.4438  0.0757 -0.2421
 3976SOL    HW123387   0.573   0.825   9.198  0.8889  0.5511  1.6864
 3976SOL    HW223388   0.423   0.832   9.191 -1.6011 -2.0940  0.6960
 3977SOL     OW23389   0.108   1.252   3.501 -0.7694  0.2781 -0.6570
 3977SOL    HW123390   0.186   1.199   3.513 -0.5035 -0.1207 -3.9998
 3977SOL    HW223391   0.126   1.335   3.545 -2.3397  0.0381  0.4039
 3978SOL     OW23392   3.685   1.768   8.521  0.0366 -0.0336 -0.1724
 3978SOL    HW123393   3.650   1.848   8.560  0.8385 -0.2149  0.9294
 3978SOL    HW223394   3.612   1.708   8.515 -0.6885  0.8498 -0.2288
 3979SOL     OW23395   3.711   1.129   4.460  0.3276  0.1757 -0.1027
 3979SOL    HW123396   3.801   1.141   4.431  0.1814 -0.2058 -0.7244
 3979SOL    HW223397   3.720   1.042   4.498 -1.0162  0.0027 -0.1617
 3980SOL     OW23398   1.341   2.725   7.378  1.0634 -0.2905 -0.0684
 3980SOL    HW123399   1.344   2.821   7.383 -1.1566 -0.2578  0.5322
 3980SOL    HW223400   1.397   2.701   7.305 -0.0739  0.8195 -1.2900
 3981SOL     OW23401   2.427   3.376   0.315 -0.3977  0.0058 -0.0414
 3981SOL    HW123402   2.399   3.449   0.259 -1.3087  0.9220  1.6219
 3981SOL    HW223403   2.508   3.418   0.346 -0.0738 -1.3440  0.9438
 3982SOL     OW23404   2.311   2.879  13.862 -0.1424  0.0507  0.3008
 3982SOL    HW123405   2.272   2.873  13.949 -0.1412  1.0422  0.3707
 3982SOL    HW223406   2.254   2.824  13.809  0.2102 -0.5644  0.5522
 3983SOL     OW23407   3.452   3.577   8.942 -0.3936 -0.2918  0.1032
 3983SOL    HW123408   3.404   3.600   8.862 -0.9292  0.0683  0.5286
 3983SOL    HW223409   3.493   3.493   8.921  0.2626  0.0901 -0.1632
 3984SOL     OW23410   0.072   3.143   9.050 -0.1870  0.0071  0.8547
 3984SOL    HW123411   0.167   3.128   9.049 -0.3406 -0.9134 -0.9465
 3984SOL    HW223412   0.075   3.237   9.064  1.3620  0.1039 -0.0616
 3985SOL     OW23413   1.819   1.733  16.006 -0.4358 -0.3755 -0.0610
 3985SOL    HW123414   1.764   1.802  15.970  0.6715  0.7369  0.3777
 3985SOL    HW223415   1.761   1.667  16.043  1.1898 -1.5436  0.4396
 3986SOL     OW23416   3.775   4.274   5.882  0.8281 -0.1535  0.0119
 3986SOL    HW123417   3.865   4.252   5.859  1.1446 -0.9035  1.9693
 3986SOL    HW223418   3.732   4.189   5.888 -0.3951  0.4301 -0.5063
 3987SOL     OW23419   4.146   1.753  13.575 -0.3214  0.4946  0.2052
 3987SOL    HW123420   4.176   1.824  13.632 -0.3256  1.5493 -1.0949
 3987SOL    HW223421   4.110   1.695  13.642  2.2636 -0.3930  0.8453
 3988SOL     OW23422   0.033   1.004  17.279  0.0377 -0.7300 -0.2509
 3988SOL    HW123423   4.661   1.018  17.274  0.6231  2.4749 -2.2753
 3988SOL    HW223424   0.055   1.061  17.352  0.3696  0.1439 -1.0350
 3989SOL     OW23425   4.354   1.716  12.637 -0.2626 -0.4586  0.4104
 3989SOL    HW123426   4.350   1.736  12.543  2.5316 -2.4329 -0.1141
 3989SOL    HW223427   4.403   1.791  12.670  0.7268 -1.7168  1.7692
 3990SOL     OW23428   2.211   1.150   4.904  0.5377  0.1585 -0.3500
 3990SOL    HW123429   2.301   1.122   4.921  1.2777  2.5855 -0.3156
 3990SOL    HW223430   2.213   1.147   4.808  1.5308  0.9492 -0.3601
 3991SOL     OW23431   0.550   2.409   7.202 -0.2463 -0.3560 -0.0938
 3991SOL    HW123432   0.603   2.373   7.273 -2.0521  0.7522  1.8013
 3991SOL    HW223433   0.480   2.344   7.197  0.4097 -1.2243  2.0199
 3992SOL     OW23434   1.272   0.024   4.101 -0.2105  0.0996 -0.1330
 3992SOL    HW123435   1.294   4.705   4.018 -3.0206 -0.6115 -0.5322
 3992SOL    HW223436   1.277   4.675   4.164  1.5917  1.7604  1.6149
 3993SOL     OW23437   4.127   2.775   4.663 -0.1531 -0.6502 -0.0053
 3993SOL    HW123438   4.205   2.731   4.629  1.5186  2.1656  0.1855
 3993SOL    HW223439   4.068   2.772   4.588 -0.3572  0.9891  0.0914
 3994SOL     OW23440   0.009   3.795   0.795  0.1989 -1.1204 -0.5918
 3994SOL    HW123441   4.680   3.716   0.776  0.2123 -1.6333  1.5467
 3994SOL    HW223442   0.051   3.759   0.873  0.4668 -1.1182 -0.7367
 3995SOL     OW23443   4.437   3.523   6.712  0.2313 -0.4413 -0.5804
 3995SOL    HW123444   4.415   3.575   6.634 -1.4690  0.3281  0.4045
 3995SOL    HW223445   4.526   3.542   6.743  0.2131 -1.2155 -0.0631
 3996SOL     OW23446   2.896   3.969   5.411  0.3774  0.2698  0.0469
 3996SOL    HW123447   2.860   4.056   5.391  0.8044  0.5567  0.5249
 3996SOL    HW223448   2.817   3.917   5.402  0.8057 -0.0204 -2.1897
 3997SOL     OW23449   0.538   1.216   7.201  0.0022 -0.0955  0.5562
 3997SOL    HW123450   0.592   1.177   7.270  2.6272  2.2731 -0.1864
 3997SOL    HW223451   0.576   1.303   7.194 -2.9984  0.9075 -3.6006
 3998SOL     OW23452   2.753   0.164  17.469 -0.0835  0.0772 -0.1679
 3998SOL    HW123453   2.841   0.173  17.505  0.0345  1.6124 -0.8405
 3998SOL    HW223454   2.764   0.079  17.427  0.9329  0.0617  0.1360
 3999SOL     OW23455   1.012   3.098   3.539  0.0059  0.0006 -0.3157
 3999SOL    HW123456   1.030   3.025   3.481 -1.1703 -0.4146 -0.1440
 3999SOL    HW223457   0.949   3.059   3.600  1.3901 -0.9703  0.5026
 4000SOL     OW23458   3.925   2.715   5.538 -0.3519 -1.0163  0.5050
 4000SOL    HW123459   3.915   2.804   5.571  0.8198 -0.2377 -1.2260
 4000SOL    HW223460   3.996   2.687   5.596  0.8963 -2.4030 -1.6794
 4001SOL     OW23461   4.528   0.281   2.177  0.2851  0.0407  0.1127
 4001SOL    HW123462   4.623   0.283   2.183  0.2087 -0.1776  1.4005
 4001SOL    HW223463   4.510   0.345   2.108 -1.1910 -1.5470 -0.9664
 4002SOL     OW23464   0.778   2.442  13.962  0.0098 -0.3728 -0.2004
 4002SOL    HW123465   0.813   2.464  13.876 -1.3775  0.2177 -0.6165
 4002SOL    HW223466   0.744   2.354  13.947 -0.1217 -0.2770 -0.4570
 4003SOL     OW23467   1.844   0.460  17.553 -0.2521  0.1800 -0.0031
 4003SOL    HW123468   1.797   0.480  17.472 -1.5962 -0.3769  0.6478
 4003SOL    HW223469   1.860   0.366  17.548 -1.1291 -0.1306  3.0851
 4004SOL     OW23470   2.597   4.245   2.771 -0.1191  0.0578  0.4074
 4004SOL    HW123471   2.618   4.322   2.718 -0.3418 -0.2309 -0.1088
 4004SOL    HW223472   2.681   4.213   2.805 -0.1956 -1.0204 -0.4134
 4005SOL     OW23473   1.452   3.925   1.305  0.6109  0.3449  0.0757
 4005SOL    HW123474   1.400   3.980   1.364 -2.0445 -1.9476 -0.0880
 4005SOL    HW223475   1.472   3.991   1.239 -0.0016 -0.6251 -1.0969
 4006SOL     OW23476   2.808   1.712   1.006  0.4873 -0.1563 -0.7167
 4006SOL    HW123477   2.811   1.802   0.973  1.4744 -0.3905 -1.2475
 4006SOL    HW223478   2.714   1.706   0.985 -0.0818  1.1849  1.4264
 4007SOL     OW23479   0.521   1.934   9.110  0.5077  0.1112  0.0212
 4007SOL    HW123480   0.490   2.018   9.076  2.4044  1.5003  1.7301
 4007SOL    HW223481   0.434   1.896   9.120 -0.6737  3.0322  0.7954
 4008SOL     OW23482   2.654   3.836   3.024  0.1708 -0.5288  0.9590
 4008SOL    HW123483   2.687   3.926   3.032 -1.9561  0.6241 -3.3465
 4008SOL    HW223484   2.735   3.785   3.030 -0.6677 -2.3008 -2.5612
 4009SOL     OW23485   2.806   1.351  13.685  0.1839  0.3870  0.1534
 4009SOL    HW123486   2.788   1.437  13.722 -4.3843 -0.8628  0.7633
 4009SOL    HW223487   2.806   1.367  13.591 -0.5755 -1.6554 -0.1892
 4010SOL     OW23488   2.394   0.411   3.611  0.1167 -0.4960  0.4986
 4010SOL    HW123489   2.354   0.477   3.555  0.6831 -1.1048 -0.6075
 4010SOL    HW223490   2.375   0.325   3.573  1.9702  0.3847 -2.3918
 4011SOL     OW23491   0.762   1.856  15.710  0.3363  0.3257 -0.5455
 4011SOL    HW123492   0.739   1.946  15.733 -0.2752  0.3995 -1.4484
 4011SOL    HW223493   0.720   1.851  15.624 -1.3063  0.6892  0.2392
 4012SOL     OW23494   0.395   2.500   3.596 -0.0348  0.2314  0.2147
 4012SOL    HW123495   0.399   2.517   3.502 -0.7489 -2.1157 -0.2468
 4012SOL    HW223496   0.397   2.404   3.597 -0.2203  0.1980 -2.0882
 4013SOL     OW23497   2.849   2.601   3.845  0.4092  0.0038 -0.0678
 4013SOL    HW123498   2.856   2.604   3.749 -0.7266 -1.5207 -0.1915
 4013SOL    HW223499   2.895   2.679   3.874  0.4521 -0.6137  1.5649
 4014SOL     OW23500   0.237   0.618   6.792  0.5496  0.3068 -0.3320
 4014SOL    HW123501   0.235   0.643   6.700  0.9645  3.1241  0.4139
 4014SOL    HW223502   0.144   0.606   6.810  1.1246  0.3976  2.6492
 4015SOL     OW23503   2.059   1.590  16.003  0.2215 -0.5378  0.4872
 4015SOL    HW123504   2.099   1.663  15.956  2.1106 -0.6374  1.9290
 4015SOL    HW223505   1.975   1.633  16.017  1.5450  2.0183  0.6728
 4016SOL     OW23506   1.011   1.981   8.660 -0.4449  0.1864  0.2182
 4016SOL    HW123507   0.970   2.067   8.654 -0.9967 -0.3049 -2.7561
 4016SOL    HW223508   1.012   1.962   8.566 -2.7742 -1.4082  0.5391
 4017SOL     OW23509   3.448   0.725   2.161  0.2102 -0.1036 -0.0896
 4017SOL    HW123510   3.365   0.683   2.136  0.1805 -1.1782  1.7946
 4017SOL    HW223511   3.482   0.714   2.072 -2.2950 -1.7269 -0.8385
 4018SOL     OW23512   0.604   1.850   2.956  0.4535 -0.1838 -0.5981
 4018SOL    HW123513   0.671   1.880   2.894  0.9177 -1.1229 -0.5630
 4018SOL    HW223514   0.647   1.781   3.006 -1.7291 -0.9547  0.2090
 4019SOL     OW23515   2.096   3.040   0.795  0.3206  0.4558  0.4253
 4019SOL    HW123516   2.107   2.989   0.715 -0.6145  1.5435 -0.3943
 4019SOL    HW223517   2.012   3.083   0.784 -0.0338 -0.7759 -1.7583
 4020SOL     OW23518   0.824   2.665   1.690 -0.5257  0.2267  0.4242
 4020SOL    HW123519   0.886   2.738   1.689 -0.1843 -0.0632  0.2035
 4020SOL    HW223520   0.852   2.619   1.769  0.1802 -0.5952 -0.2956
 4021SOL     OW23521   1.112   3.022  12.680 -0.0120 -0.0835  0.3148
 4021SOL    HW123522   1.114   3.118  12.690 -0.8394  0.0388 -0.6646
 4021SOL    HW223523   1.018   3.003  12.680  0.0745 -0.5327 -1.0848
 4022SOL     OW23524   4.063   2.059   6.537 -0.5398 -0.3200 -0.2894
 4022SOL    HW123525   4.005   2.027   6.467  0.7037 -1.3557 -0.8551
 4022SOL    HW223526   4.120   1.984   6.550  0.7396  0.4677 -1.2298
 4023SOL     OW23527   3.879   0.212   6.007  0.0884  0.1508  0.2219
 4023SOL    HW123528   3.943   0.162   5.956 -0.3014  2.1440 -2.1725
 4023SOL    HW223529   3.816   0.246   5.944 -1.2416  0.0414  1.4830
 4024SOL     OW23530   3.045   0.109  11.907 -0.0796 -0.1128  0.2890
 4024SOL    HW123531   3.106   0.154  11.849  1.1710 -0.3054  1.4211
 4024SOL    HW223532   2.984   0.069  11.845  3.0623  0.1907 -2.9642
 4025SOL     OW23533   3.805   3.395   8.631  0.1914  0.2490 -0.8136
 4025SOL    HW123534   3.847   3.351   8.557  1.1110  1.0883 -0.7927
 4025SOL    HW223535   3.880   3.394   8.691 -1.2617 -1.6186  0.9825
 4026SOL     OW23536   0.838   3.672   0.899  0.2244 -0.1138  0.5004
 4026SOL    HW123537   0.865   3.763   0.892  2.0875 -0.5530  1.9688
 4026SOL    HW223538   0.744   3.689   0.895 -0.0195 -0.7779  3.5071
 4027SOL     OW23539   3.383   0.812  14.565 -0.3112  0.0156  0.1903
 4027SOL    HW123540   3.365   0.744  14.500 -0.6245  0.0760  0.2166
 4027SOL    HW223541   3.386   0.765  14.649  0.4947  0.4675  0.4181
 4028SOL     OW23542   2.870   3.471   0.622  1.0909  0.6045  0.1323
 4028SOL    HW123543   2.869   3.505   0.711  1.6041  2.9037 -0.7465
 4028SOL    HW223544   2.862   3.377   0.638 -1.9735  0.9653  0.6446
 4029SOL     OW23545   2.018   2.066   0.348  0.9319 -0.5603  0.4498
 4029SOL    HW123546   2.022   2.142   0.290  1.4145 -0.9742 -0.0585
 4029SOL    HW223547   1.987   2.112   0.427  0.0487 -0.9160  0.3106
 4030SOL     OW23548   0.412   4.319   5.862  0.2282  0.5222  0.2276
 4030SOL    HW123549   0.477   4.355   5.923 -0.9753 -1.3050  2.5417
 4030SOL    HW223550   0.415   4.233   5.903  2.9021 -0.8132 -2.7459
 4031SOL     OW23551   0.155   3.825   5.168  0.3735  0.8394  0.1584
 4031SOL    HW123552   0.209   3.882   5.222  0.5346  2.5717 -1.8556
 4031SOL    HW223553   0.186   3.739   5.197 -2.2333 -0.0656  0.3027
 4032SOL     OW23554   0.454   1.996  15.910  0.5772  0.0739  0.1455
 4032SOL    HW123555   0.380   2.014  15.852  1.1631 -2.9707 -1.5536
 4032SOL    HW223556   0.413   1.951  15.984  2.6167  1.2587  2.0082
 4033SOL     OW23557   4.310   2.350  14.585 -0.4628 -0.3844 -0.5042
 4033SOL    HW123558   4.323   2.423  14.645 -0.3438  0.0271 -1.0352
 4033SOL    HW223559   4.344   2.391  14.505 -0.3175 -1.9444 -1.2515
 4034SOL     OW23560   2.958   4.408   1.034  0.0355 -0.5287  0.6016
 4034SOL    HW123561   2.952   4.334   0.974 -0.2356 -0.2728  0.3142
 4034SOL    HW223562   2.869   4.408   1.067 -0.7718 -4.2636 -1.5909
 4035SOL     OW23563   3.821   4.246   5.255  0.4165  0.1428  0.5359
 4035SOL    HW123564   3.764   4.171   5.271  1.3818 -0.8142 -0.5205
 4035SOL    HW223565   3.884   4.233   5.326 -0.8309  0.2094  1.6516
 4036SOL     OW23566   1.653   1.743   4.917  0.3483  0.1379  0.1380
 4036SOL    HW123567   1.698   1.682   4.976 -2.9896 -0.8174  1.6975
 4036SOL    HW223568   1.711   1.818   4.915 -0.8770  0.9927 -2.7884
 4037SOL     OW23569   2.885   3.254  13.716  0.1522 -0.0961  0.0372
 4037SOL    HW123570   2.943   3.192  13.759  0.4397  1.3791  1.7691
 4037SOL    HW223571   2.806   3.203  13.735  0.2318 -0.0789  0.4123
 4038SOL     OW23572   1.918   4.603  11.685  0.3744  0.7529  0.3810
 4038SOL    HW123573   1.991   4.541  11.680 -0.9138 -0.6739 -0.7345
 4038SOL    HW223574   1.891   4.594  11.594 -0.2985  0.3801  0.6153
 4039SOL     OW23575   2.666   4.563   8.427  0.7580  0.5654 -0.0293
 4039SOL    HW123576   2.653   4.469   8.429 -1.0245  0.8061  0.0654
 4039SOL    HW223577   2.742   4.570   8.484 -0.7124 -0.2588  2.0273
 4040SOL     OW23578   1.046   3.061  11.034  0.7348  0.2980 -0.2432
 4040SOL    HW123579   1.137   3.086  11.017  0.2515  2.5242  0.5244
 4040SOL    HW223580   1.000   3.144  11.024  0.7009  0.6525  2.7004
 4041SOL     OW23581   2.154   0.007   8.574  0.1040 -0.3424 -0.0908
 4041SOL    HW123582   2.105   0.088   8.575 -1.9888 -1.6056 -0.1319
 4041SOL    HW223583   2.214   0.013   8.649 -1.3317 -0.9897  1.0999
 4042SOL     OW23584   4.404   0.198  15.406  0.6684 -0.0599  0.1263
 4042SOL    HW123585   4.384   0.160  15.320 -2.6438 -0.7742  1.1968
 4042SOL    HW223586   4.401   0.112  15.449  1.2520 -0.7103 -1.1160
 4043SOL     OW23587   3.291   2.665  11.798  0.2541 -0.2045  0.4349
 4043SOL    HW123588   3.230   2.605  11.756 -0.0865 -0.5047  1.3579
 4043SOL    HW223589   3.359   2.682  11.734  1.1948  0.4630  1.6002
 4044SOL     OW23590   4.582   0.816   3.707 -0.0648 -0.2133  0.0045
 4044SOL    HW123591   4.540   0.736   3.676 -0.1900 -1.6443  3.9263
 4044SOL    HW223592   4.607   0.785   3.794  1.1127 -0.5429 -0.4578
 4045SOL     OW23593   1.716   1.580  11.792  0.2930  0.3555 -0.3505
 4045SOL    HW123594   1.717   1.656  11.733  0.7021  1.4347  1.0520
 4045SOL    HW223595   1.808   1.552  11.786 -0.4651 -2.2545  0.1948
 4046SOL     OW23596   3.603   4.074   2.597 -0.2526 -0.1217  0.3556
 4046SOL    HW123597   3.681   4.123   2.623 -1.5092  1.9464  0.2581
 4046SOL    HW223598   3.562   4.141   2.542  3.2943  1.6256 -0.1894
 4047SOL     OW23599   3.553   0.733   6.970  0.0714  0.8355 -0.9398
 4047SOL    HW123600   3.534   0.690   7.053 -0.3522  2.8229  0.0053
 4047SOL    HW223601   3.470   0.776   6.948  0.0840  1.2034 -0.2730
 4048SOL     OW23602   0.674   2.094  15.791  0.5382  0.2659  0.2352
 4048SOL    HW123603   0.703   2.171  15.839 -1.4192  1.1419  0.0408
 4048SOL    HW223604   0.596   2.067  15.839 -0.9687  0.8793 -1.8462
 4049SOL     OW23605   2.174   3.882  11.223 -0.1859 -0.2609 -0.3431
 4049SOL    HW123606   2.202   3.948  11.286 -1.6184 -1.7672  1.8774
 4049SOL    HW223607   2.081   3.900  11.205  0.1463  0.1617 -1.6063
 4050SOL     OW23608   0.141   3.338  17.550  0.0308  0.6097  0.5551
 4050SOL    HW123609   0.137   3.310  17.642  0.4732 -1.8402 -0.1769
 4050SOL    HW223610   0.180   3.425  17.556  0.4116  0.4709  0.0206
 4051SOL     OW23611   2.527   2.272   9.737 -0.1284 -0.3010 -0.1622
 4051SOL    HW123612   2.490   2.349   9.780 -2.4661 -2.2463  1.3131
 4051SOL    HW223613   2.490   2.207   9.797 -1.3840  0.0856 -0.5267
 4052SOL     OW23614   2.229   4.207  16.989  0.4322  0.0511  0.7182
 4052SOL    HW123615   2.178   4.132  17.021 -0.5581 -0.2543 -1.5694
 4052SOL    HW223616   2.233   4.186  16.896  2.3446 -2.0963  1.2910
 4053SOL     OW23617   0.442   1.261   8.568  0.0091 -0.0684  0.4433
 4053SOL    HW123618   0.474   1.238   8.480 -0.8901  2.0229 -0.4413
 4053SOL    HW223619   0.353   1.226   8.561  0.7279 -1.9939  1.2124
 4054SOL     OW23620   0.451   2.828   6.879  0.2245  0.0609 -0.5490
 4054SOL    HW123621   0.530   2.806   6.928 -0.1556 -0.9432 -0.3699
 4054SOL    HW223622   0.419   2.895   6.938  0.9245 -1.8851  2.0249
 4055SOL     OW23623   1.631   1.076  11.964 -0.1726 -0.0887  0.4075
 4055SOL    HW123624   1.654   1.066  12.056 -0.6353  1.2411  0.6592
 4055SOL    HW223625   1.697   1.134  11.927 -0.0027 -0.7091 -0.2636
 4056SOL     OW23626   2.799   4.054   3.614  0.4288 -0.0311  0.3337
 4056SOL    HW123627   2.794   3.959   3.620  1.8007 -0.1329 -0.2143
 4056SOL    HW223628   2.856   4.061   3.537 -1.0176 -0.7259 -0.7844
 4057SOL     OW23629   0.047   1.738  11.117  0.1890 -0.4265 -0.4872
 4057SOL    HW123630   0.002   1.821  11.136  0.9512 -0.4269  1.3241
 4057SOL    HW223631   0.013   1.702  11.036 -0.7342  1.0060 -0.7521
 4058SOL     OW23632   1.192   1.047   7.355 -0.0651  0.1131 -0.0061
 4058SOL    HW123633   1.150   1.106   7.292 -0.4254  1.5972  1.6313
 4058SOL    HW223634   1.155   0.963   7.327 -1.4835  0.1165  1.8114
 4059SOL     OW23635   2.521   4.557   5.330  0.2737 -0.5239 -0.2214
 4059SOL    HW123636   2.570   4.560   5.247  0.6369  2.5288  0.0998
 4059SOL    HW223637   2.487   4.646   5.337 -1.8635 -1.1649 -2.5228
 4060SOL     OW23638   1.835   2.910   5.223  0.3185 -0.5013  0.0415
 4060SOL    HW123639   1.905   2.910   5.289  1.0857  1.8609 -0.7819
 4060SOL    HW223640   1.896   2.895   5.150  1.8656 -1.0508  1.4396
 4061SOL     OW23641   0.362   0.555   7.541  0.1420 -0.1202 -0.3438
 4061SOL    HW123642   0.321   0.571   7.456  2.4860  1.3968 -1.2087
 4061SOL    HW223643   0.293   0.580   7.603 -0.6139 -1.3348 -0.7062
 4062SOL     OW23644   1.251   1.530  15.088 -0.0074 -0.4984  0.0369
 4062SOL    HW123645   1.312   1.603  15.092 -1.3354  0.6639 -0.7824
 4062SOL    HW223646   1.307   1.473  15.035  2.6870  0.7659  1.5610
 4063SOL     OW23647   0.389   2.874   8.770  0.0148 -0.0043 -0.5850
 4063SOL    HW123648   0.434   2.856   8.688 -0.7278 -1.0309 -0.7691
 4063SOL    HW223649   0.310   2.917   8.737 -0.3741  0.5452  1.0630
 4064SOL     OW23650   0.641   1.473   9.234  0.0937  0.1340 -0.0240
 4064SOL    HW123651   0.546   1.487   9.230  0.0427 -0.5255 -1.0560
 4064SOL    HW223652   0.663   1.518   9.316 -0.8711 -0.4871  0.5812
 4065SOL     OW23653   0.821   3.063   6.384  0.2670  0.2067 -0.1509
 4065SOL    HW123654   0.877   2.991   6.354 -1.6681 -0.8326 -1.2854
 4065SOL    HW223655   0.809   3.109   6.302  0.4873 -0.3816 -0.5148
 4066SOL     OW23656   2.966   3.825  11.410  0.2587  0.0368  0.3640
 4066SOL    HW123657   2.991   3.806  11.501 -2.0954 -2.0266  0.5898
 4066SOL    HW223658   3.050   3.819  11.366 -0.4683 -2.9407 -0.6208
 4067SOL     OW23659   1.579   3.902  13.148 -0.4637 -0.7186 -0.1764
 4067SOL    HW123660   1.590   3.917  13.054 -0.8985 -2.4494 -0.5045
 4067SOL    HW223661   1.608   3.983  13.191  0.3391 -1.7655  1.2348
 4068SOL     OW23662   0.986   2.524   2.147 -0.2613 -0.3897 -0.5507
 4068SOL    HW123663   0.937   2.570   2.215  1.9458  1.0267  0.0677
 4068SOL    HW223664   1.071   2.542   2.186 -0.7861  2.6442 -0.8359
 4069SOL     OW23665   0.715   2.201   4.835 -0.0441 -0.9068 -0.2049
 4069SOL    HW123666   0.785   2.183   4.897  1.0470  3.4292 -0.2075
 4069SOL    HW223667   0.684   2.280   4.878  1.9047 -0.7190  0.8255
 4070SOL     OW23668   1.519   1.801  17.103 -0.2099  0.1074 -0.5367
 4070SOL    HW123669   1.585   1.808  17.034  1.0216 -2.4992  0.3851
 4070SOL    HW223670   1.487   1.891  17.098 -0.6299 -0.0455 -0.5774
 4071SOL     OW23671   3.876   4.531  16.387  0.4567 -0.2654  0.3983
 4071SOL    HW123672   3.785   4.506  16.374 -0.3796  1.7361  2.3826
 4071SOL    HW223673   3.909   4.464  16.447 -0.1793  0.6286  1.7573
 4072SOL     OW23674   2.876   4.510  15.569 -0.1167 -0.0669 -0.4991
 4072SOL    HW123675   2.899   4.509  15.476  2.0329  0.7349  0.0151
 4072SOL    HW223676   2.813   4.439  15.573 -0.1634  0.0117  0.1414
 4073SOL     OW23677   0.982   2.199  14.891 -0.2063  0.0183  0.3409
 4073SOL    HW123678   1.076   2.218  14.898  0.0545 -1.3225  0.4685
 4073SOL    HW223679   0.946   2.287  14.879 -0.5667 -0.4494 -2.0050
 4074SOL     OW23680   0.624   1.153   0.223  0.2063  0.0754 -0.0540
 4074SOL    HW123681   0.676   1.228   0.253  0.6561 -0.0482 -0.5282
 4074SOL    HW223682   0.681   1.078   0.239 -1.0946 -0.9995 -0.5066
 4075SOL     OW23683   4.491   3.629   4.774 -0.5237  0.1514  0.1538
 4075SOL    HW123684   4.563   3.688   4.753  0.3243 -0.2598  1.8589
 4075SOL    HW223685   4.483   3.588   4.689 -0.2301  1.0699 -0.3186
 4076SOL     OW23686   4.658   0.925  11.754  0.4795  0.1912  0.6844
 4076SOL    HW123687   4.647   1.000  11.812  1.6257  0.2242  0.8518
 4076SOL    HW223688   4.715   0.866  11.804  1.2759 -0.9156 -1.5151
 4077SOL     OW23689   0.401   2.739   9.482 -0.1535  0.1520  0.1641
 4077SOL    HW123690   0.463   2.790   9.535  0.3864  0.9007 -1.1741
 4077SOL    HW223691   0.450   2.658   9.470  1.1923  1.0662 -0.6458
 4078SOL     OW23692   3.271   1.918   7.322  0.0901  0.9457  0.0278
 4078SOL    HW123693   3.312   2.001   7.346 -0.8662  1.6147 -0.6250
 4078SOL    HW223694   3.346   1.868   7.290 -1.0872 -0.1944 -0.9639
 4079SOL     OW23695   1.735   0.255  10.597  0.2132  0.1045 -0.1711
 4079SOL    HW123696   1.659   0.286  10.547 -1.5348 -1.9924  1.1627
 4079SOL    HW223697   1.756   0.168  10.564  2.5840  0.2371  0.9984
 4080SOL     OW23698   0.225   2.659  10.430 -0.0686  0.2767  0.6024
 4080SOL    HW123699   0.211   2.669  10.336 -0.0048 -2.3626  0.3217
 4080SOL    HW223700   0.139   2.622  10.449  0.6059 -0.6471  1.8614
 4081SOL     OW23701   2.845   3.984   5.995 -0.3728 -0.3393 -0.2050
 4081SOL    HW123702   2.825   4.006   5.904  0.0702 -2.1722 -0.7329
 4081SOL    HW223703   2.764   3.946   6.026  0.1325 -0.7639  0.5897
 4082SOL     OW23704   3.859   1.404   2.983  0.6114 -0.6781  0.3619
 4082SOL    HW123705   3.944   1.397   3.027  1.0606  0.8241 -0.2601
 4082SOL    HW223706   3.880   1.440   2.897  0.5288 -2.9523 -0.6107
 4083SOL     OW23707   2.031   0.503   7.391  0.4370 -0.4831  0.8673
 4083SOL    HW123708   1.968   0.466   7.329  1.1882 -1.1080  0.4751
 4083SOL    HW223709   2.032   0.435   7.458  1.7771  0.1748  1.5168
 4084SOL     OW23710   1.111   3.799   8.720 -0.2402  0.1226 -0.0840
 4084SOL    HW123711   1.108   3.709   8.751 -0.8026  1.0268  2.5511
 4084SOL    HW223712   1.022   3.821   8.691  0.0426 -0.3135 -1.2614
 4085SOL     OW23713   1.354   3.537   7.936  0.3642 -0.0680  0.3773
 4085SOL    HW123714   1.351   3.574   7.848 -0.1513  0.7316  0.7273
 4085SOL    HW223715   1.435   3.577   7.967  0.5223  1.1972 -1.6825
 4086SOL     OW23716   2.519   0.446   5.450  0.0131 -0.2163  0.0632
 4086SOL    HW123717   2.472   0.492   5.520 -0.3045  2.4031 -1.8434
 4086SOL    HW223718   2.609   0.439   5.480  0.1833  1.1939 -0.0950
 4087SOL     OW23719   4.531   3.465   3.069  0.1407  0.3002  0.0358
 4087SOL    HW123720   4.513   3.544   3.120 -2.3638  0.1365 -0.6100
 4087SOL    HW223721   4.593   3.502   3.007  2.5323 -1.3992  1.3805
 4088SOL     OW23722   0.625   2.619   5.723  0.1275 -0.1831 -0.1802
 4088SOL    HW123723   0.635   2.533   5.683  1.8799 -0.3392  0.5952
 4088SOL    HW223724   0.529   2.615   5.721  0.0996  0.2209  0.5250
 4089SOL     OW23725   2.327   3.231   1.115  0.1214  0.0227 -0.2939
 4089SOL    HW123726   2.354   3.209   1.026 -0.4984  1.6172 -0.8753
 4089SOL    HW223727   2.250   3.173   1.120  0.6900 -0.6180  1.1807
 4090SOL     OW23728   0.740   4.522   6.712  0.2960  0.4233  0.1370
 4090SOL    HW123729   0.710   4.572   6.636  2.2021  0.1452 -0.7889
 4090SOL    HW223730   0.770   4.584   6.778  1.2691 -0.4399  0.5091
 4091SOL     OW23731   3.624   2.015   4.616  0.6786  0.3481 -0.5496
 4091SOL    HW123732   3.719   2.018   4.623  0.5367 -1.3550  2.1876
 4091SOL    HW223733   3.600   2.030   4.708 -0.5707 -2.6704 -0.3641
 4092SOL     OW23734   3.720   1.763   3.399  0.1056 -0.0992  0.2426
 4092SOL    HW123735   3.814   1.754   3.415  0.6823  0.7920 -2.6498
 4092SOL    HW223736   3.732   1.795   3.310 -0.7654 -0.0709  0.1405
 4093SOL     OW23737   4.716   1.733   4.973  0.2735  0.0690  0.4164
 4093SOL    HW123738   4.695   1.790   5.047  0.4433 -0.2121  0.6855
 4093SOL    HW223739   4.627   1.716   4.942 -0.3083  0.4917  1.8493
 4094SOL     OW23740   2.697   2.680  15.232  0.7428  0.2857  0.2685
 4094SOL    HW123741   2.744   2.697  15.313  2.5643  0.6649 -0.8728
 4094SOL    HW223742   2.606   2.675  15.264  0.1605 -1.0986 -1.5566
 4095SOL     OW23743   3.934   0.007   4.444  0.4325 -0.0766  0.1682
 4095SOL    HW123744   4.024   0.005   4.410 -0.0887  2.6660 -1.4026
 4095SOL    HW223745   3.892   4.702   4.363 -1.3406  2.1258  0.3399
 4096SOL     OW23746   4.311   0.745   0.064  0.0854  0.4604 -0.2594
 4096SOL    HW123747   4.333   0.652   0.069  0.0427  0.3953 -1.3023
 4096SOL    HW223748   4.385   0.781   0.014  0.1357 -1.9013 -1.8636
 4097SOL     OW23749   2.535   3.667   5.180 -0.0056  0.0165 -0.3426
 4097SOL    HW123750   2.608   3.677   5.119  0.2137  0.0835 -0.0659
 4097SOL    HW223751   2.524   3.574   5.199  0.8822  0.0978  0.5679
 4098SOL     OW23752   2.859   3.378  14.076 -0.2850  0.2133  0.0979
 4098SOL    HW123753   2.879   3.425  13.995 -2.8062  2.6578  0.9261
 4098SOL    HW223754   2.763   3.379  14.074 -0.3337 -0.9795  2.6123
 4099SOL     OW23755   0.285   3.972   6.464  0.4897 -0.4205  0.0179
 4099SOL    HW123756   0.279   4.041   6.398  0.2891 -0.6246 -0.1793
 4099SOL    HW223757   0.330   3.909   6.408 -1.2703 -1.9894  0.3806
 4100SOL     OW23758   2.805   0.723  14.244 -0.2665  0.5076  0.2795
 4100SOL    HW123759   2.738   0.682  14.190  0.4845  0.1460 -0.3767
 4100SOL    HW223760   2.854   0.770  14.177  0.1575  0.0261  0.2489
 4101SOL     OW23761   4.174   0.575  14.580 -0.3676  0.2904  0.0446
 4101SOL    HW123762   4.204   0.499  14.530 -1.1055  1.7704 -2.6946
 4101SOL    HW223763   4.097   0.592  14.525 -0.4448  0.5559  0.2341
 4102SOL     OW23764   1.603   1.810   2.357 -0.2116  0.0501  0.0047
 4102SOL    HW123765   1.664   1.797   2.430 -0.5240 -1.0243  0.0711
 4102SOL    HW223766   1.571   1.721   2.346 -1.3344  0.5298 -0.5147
 4103SOL     OW23767   0.546   1.332   3.526 -0.2924 -0.0791 -0.1184
 4103SOL    HW123768   0.577   1.420   3.504 -0.1079  0.5943  2.7513
 4103SOL    HW223769   0.623   1.280   3.549  1.7395  1.9454 -2.3689
 4104SOL     OW23770   2.035   0.664   6.894  0.5336  0.6402  0.2413
 4104SOL    HW123771   2.129   0.673   6.877  0.9256 -1.4562  1.3336
 4104SOL    HW223772   2.024   0.570   6.905  0.2910  0.9193  2.3469
 4105SOL     OW23773   3.793   2.916   5.690  0.0196  0.0302 -0.6751
 4105SOL    HW123774   3.832   2.882   5.770  1.7257 -0.7756 -1.8373
 4105SOL    HW223775   3.849   2.990   5.669  1.1382 -0.1881  1.6062
 4106SOL     OW23776   4.481   4.240  16.878 -0.5314 -0.5478  0.8404
 4106SOL    HW123777   4.402   4.234  16.933 -1.0253  1.1410  0.3086
 4106SOL    HW223778   4.541   4.290  16.933 -2.1408  0.3761  1.7852
 4107SOL     OW23779   3.355   0.244   6.009  0.2104  0.9122 -0.4570
 4107SOL    HW123780   3.398   0.203   6.084 -0.4039  0.1420 -0.5197
 4107SOL    HW223781   3.295   0.174   5.984 -0.3701 -0.1362  3.9222
 4108SOL     OW23782   0.209   0.188   2.311 -0.1338 -0.0908 -0.4555
 4108SOL    HW123783   0.302   0.200   2.292 -0.5029  3.1530 -0.2763
 4108SOL    HW223784   0.191   0.263   2.368  4.3315  1.3982 -0.9722
 4109SOL     OW23785   0.673   0.101  10.238  0.0689 -0.3620  0.2527
 4109SOL    HW123786   0.610   0.171  10.220 -0.5138 -1.0539 -0.3335
 4109SOL    HW223787   0.733   0.148  10.297 -2.8360  1.9063  1.3963
 4110SOL     OW23788   1.713   4.603  12.416 -0.1058 -0.6250 -0.3828
 4110SOL    HW123789   1.789   4.581  12.469 -0.1519  1.5176  0.5766
 4110SOL    HW223790   1.656   4.622  12.491  0.0191  0.4400 -0.5560
 4111SOL     OW23791   3.822   0.087   1.705  0.2698  0.0550 -0.3087
 4111SOL    HW123792   3.744   0.134   1.678  1.2210  1.2381 -1.0100
 4111SOL    HW223793   3.794   4.719   1.696 -0.5601 -0.0090  2.9932
 4112SOL     OW23794   3.282   0.033   1.261  0.3003 -0.2222 -0.5828
 4112SOL    HW123795   3.279   0.035   1.356 -1.2695 -0.3967 -0.6393
 4112SOL    HW223796   3.306   4.664   1.248  0.2133 -0.3051 -0.1536
 4113SOL     OW23797   3.833   3.267   3.703  0.6681  0.2152 -0.3908
 4113SOL    HW123798   3.880   3.213   3.640 -3.9222 -1.8443 -2.0482
 4113SOL    HW223799   3.788   3.198   3.751  0.4440  1.4227  1.1414
 4114SOL     OW23800   2.305   3.400   4.479 -0.1758 -0.1021 -0.2548
 4114SOL    HW123801   2.217   3.376   4.451  0.4484 -0.7749 -1.6440
 4114SOL    HW223802   2.361   3.359   4.413  0.4680 -0.1273  0.3191
 4115SOL     OW23803   0.675   3.675   6.256 -0.2351 -0.4322  0.1819
 4115SOL    HW123804   0.703   3.714   6.173  0.4983 -1.0075  0.1643
 4115SOL    HW223805   0.712   3.587   6.246 -0.1666 -0.3811 -0.0138
 4116SOL     OW23806   4.352   1.672   1.672  0.0200  0.3179  0.2565
 4116SOL    HW123807   4.380   1.581   1.661 -0.3849  0.1389  0.6589
 4116SOL    HW223808   4.418   1.708   1.613 -0.0987 -0.7684 -0.5559
 4117SOL     OW23809   1.073   2.867   3.396 -0.0289 -0.1061 -0.5235
 4117SOL    HW123810   1.035   2.788   3.436  0.6298 -0.5754 -0.8301
 4117SOL    HW223811   1.047   2.868   3.304 -1.1212 -1.4176 -0.2239
 4118SOL     OW23812   1.003   2.890   5.371 -0.1096 -0.1764 -0.0659
 4118SOL    HW123813   1.082   2.927   5.409 -0.2682 -0.0741  0.1670
 4118SOL    HW223814   0.934   2.943   5.412  2.3015  2.6063  0.3238
 4119SOL     OW23815   0.376   4.006   0.474 -0.0067  0.1358  0.0058
 4119SOL    HW123816   0.282   3.998   0.491 -0.2041 -1.2424 -1.7275
 4119SOL    HW223817   0.390   4.101   0.478  0.5013  0.1388 -1.9565
 4120SOL     OW23818   4.033   4.618   3.012 -0.0765  0.1503 -0.0928
 4120SOL    HW123819   4.120   4.640   3.044 -0.0898 -0.9271  0.7027
 4120SOL    HW223820   4.045   4.546   2.949  2.3485  0.4658  0.0053
 4121SOL     OW23821   1.874   4.508   4.616 -0.0106 -0.3731 -0.2278
 4121SOL    HW123822   1.792   4.473   4.650  0.0435 -0.3998 -0.1223
 4121SOL    HW223823   1.936   4.482   4.685  0.5727  0.7264 -0.3339
 4122SOL     OW23824   4.436   2.657   1.129  0.1493  1.0826 -0.4703
 4122SOL    HW123825   4.341   2.665   1.137  0.2210  0.7288  0.7096
 4122SOL    HW223826   4.454   2.564   1.119  0.0960  0.8175  2.0374
 4123SOL     OW23827   1.709   2.049   2.010 -0.1420 -0.1827  0.2917
 4123SOL    HW123828   1.638   1.993   1.978 -0.3816 -0.4151  1.2081
 4123SOL    HW223829   1.788   2.005   1.979 -0.2899  0.1950 -0.6227
 4124SOL     OW23830   2.668   2.733   5.765 -0.0488  0.3460  0.2672
 4124SOL    HW123831   2.687   2.639   5.762  0.3231  0.3800  1.3361
 4124SOL    HW223832   2.662   2.752   5.859  0.2268  0.7163  0.2108
 4125SOL     OW23833   3.194   2.150   6.983  0.3565  0.0486  0.1742
 4125SOL    HW123834   3.111   2.113   7.012 -0.0703  1.4117  0.6943
 4125SOL    HW223835   3.241   2.069   6.960  0.7597  0.4966 -0.5880
 4126SOL     OW23836   3.958   1.756   2.769  0.0086  0.1932 -0.3075
 4126SOL    HW123837   3.971   1.816   2.695  2.9642  0.7780  0.6938
 4126SOL    HW223838   3.916   1.697   2.705 -0.5297  0.0992  0.1357
 4127SOL     OW23839   2.627   0.238   8.211  0.0072 -0.0204 -0.7247
 4127SOL    HW123840   2.591   0.204   8.293  3.1650 -0.9346  0.2961
 4127SOL    HW223841   2.672   0.159   8.181  0.5776  1.2186 -3.0776
 4128SOL     OW23842   3.575   0.052   7.819  0.1907  0.6237 -0.0900
 4128SOL    HW123843   3.551   0.065   7.727 -1.7302  0.3903  0.3988
 4128SOL    HW223844   3.664   0.087   7.816 -0.2009  1.6142 -0.2036
 4129SOL     OW23845   3.468   0.201   5.166 -0.2190  0.0491 -0.4995
 4129SOL    HW123846   3.494   0.285   5.128 -4.2537  0.8804 -1.4272
 4129SOL    HW223847   3.418   0.227   5.244  2.7524  1.5501  0.9162
 4130SOL     OW23848   0.728   4.699   1.161 -0.1312  0.0039 -0.3056
 4130SOL    HW123849   0.645   4.654   1.144 -0.4822 -0.5989  3.0137
 4130SOL    HW223850   0.785   4.626   1.182 -1.3958 -0.6865  0.7658
 4131SOL     OW23851   1.915   1.091   3.359  0.5284 -0.6077  0.8243
 4131SOL    HW123852   1.839   1.040   3.387 -0.9856  0.5783 -1.1202
 4131SOL    HW223853   1.911   1.088   3.264 -0.8880  0.2943  0.8647
 4132SOL     OW23854   1.814   1.482   5.144 -0.6014  0.1793 -0.1658
 4132SOL    HW123855   1.781   1.422   5.076  0.3028  0.6087 -0.9864
 4132SOL    HW223856   1.734   1.531   5.165 -1.4376 -1.5070  0.5822
 4133SOL     OW23857   3.137   3.703  16.780  0.3658  0.6021  0.8603
 4133SOL    HW123858   3.216   3.704  16.725 -0.2667 -0.1391 -0.0604
 4133SOL    HW223859   3.095   3.786  16.755 -1.0558 -0.4001 -0.0733
 4134SOL     OW23860   1.277   2.279  15.684 -0.1226 -0.0046  0.3229
 4134SOL    HW123861   1.250   2.192  15.655  1.1338 -0.0482 -0.7322
 4134SOL    HW223862   1.308   2.260  15.772 -2.9518 -3.0193  0.6617
 4135SOL     OW23863   3.878   4.043   0.417  0.5944 -0.3401  0.1387
 4135SOL    HW123864   3.915   4.129   0.437 -1.4036  0.8779 -1.4281
 4135SOL    HW223865   3.848   4.012   0.503 -1.6207 -0.2787 -0.6004
 4136SOL     OW23866   1.166   3.417   3.531  0.3662 -0.5626  0.1411
 4136SOL    HW123867   1.139   3.438   3.441 -0.8789 -0.7467  0.4683
 4136SOL    HW223868   1.081   3.403   3.573 -0.0527 -1.0802 -0.8942
 4137SOL     OW23869   3.467   2.012   5.330  0.2439  0.5509  0.5900
 4137SOL    HW123870   3.383   2.057   5.319 -0.2455 -0.3113  0.7048
 4137SOL    HW223871   3.517   2.087   5.360 -0.3666  1.2553 -0.1595
 4138SOL     OW23872   1.915   2.729   9.906 -0.5641  0.6749 -0.6430
 4138SOL    HW123873   1.907   2.823   9.916  0.3279  0.6383  0.4777
 4138SOL    HW223874   1.939   2.702   9.995  1.0707  0.8166 -1.0322
 4139SOL     OW23875   3.307   1.144   1.420  0.7320 -0.0416  0.2788
 4139SOL    HW123876   3.290   1.198   1.342 -2.4353 -3.0040 -1.0861
 4139SOL    HW223877   3.298   1.208   1.491  2.1419  0.1010  0.3171
 4140SOL     OW23878   1.807   2.038  11.780  0.2509  0.1182 -0.7145
 4140SOL    HW123879   1.806   2.107  11.846  0.4540 -2.1657  1.6976
 4140SOL    HW223880   1.887   1.988  11.797 -0.2105 -0.1855  0.5618
 4141SOL     OW23881   1.814   3.013   6.411 -0.4315  0.1560  0.3744
 4141SOL    HW123882   1.719   3.015   6.405 -0.3626 -0.3877 -0.8292
 4141SOL    HW223883   1.825   2.993   6.318 -0.7994  1.0799  0.1341
 4142SOL     OW23884   4.072   3.848  12.781 -0.5530  0.6428  0.1214
 4142SOL    HW123885   4.066   3.790  12.705 -0.9126  2.0796 -0.9543
 4142SOL    HW223886   4.143   3.905  12.752 -0.4381 -0.5909 -2.0605
 4143SOL     OW23887   3.512   0.870  17.118  0.0501  0.3016 -0.2969
 4143SOL    HW123888   3.438   0.858  17.179 -0.3758  0.4620 -0.7852
 4143SOL    HW223889   3.481   0.854  17.029 -2.3993  0.5097  0.4932
 4144SOL     OW23890   2.666   1.979   5.680  0.3821 -0.0796 -0.0726
 4144SOL    HW123891   2.613   1.942   5.751 -0.0358  1.2460  0.3206
 4144SOL    HW223892   2.697   1.909   5.623  0.5357  0.7866 -1.0518
 4145SOL     OW23893   3.737   4.554  14.633  0.0061  0.0542  0.0124
 4145SOL    HW123894   3.670   4.538  14.700  0.2794  1.0558  0.5303
 4145SOL    HW223895   3.740   4.648  14.619  0.0216  0.3992  2.2016
 4146SOL     OW23896   0.646   2.362   7.944 -0.1423 -0.6509  0.3124
 4146SOL    HW123897   0.612   2.407   7.867 -0.7097 -1.7749 -0.0912
 4146SOL    HW223898   0.686   2.438   7.987 -2.2824  0.9836 -0.6443
 4147SOL     OW23899   1.257   3.805   5.742  0.1107 -0.1068 -0.1329
 4147SOL    HW123900   1.204   3.738   5.700 -1.5147  0.8843  0.3345
 4147SOL    HW223901   1.334   3.800   5.684 -0.6909 -1.4412 -1.0655
 4148SOL     OW23902   3.144   3.238   4.279  0.1030  0.1590 -0.3201
 4148SOL    HW123903   3.182   3.213   4.194 -0.7893 -1.1433 -0.3296
 4148SOL    HW223904   3.208   3.290   4.328 -0.3797  0.1280  0.3357
 4149SOL     OW23905   4.225   2.818  16.909  0.0161  0.2861  0.4752
 4149SOL    HW123906   4.183   2.905  16.913  1.9033  1.1185  2.0245
 4149SOL    HW223907   4.227   2.813  16.814 -0.3062 -0.5556  0.5113
 4150SOL     OW23908   4.367   2.979   3.415  0.3061  0.0084  0.6223
 4150SOL    HW123909   4.302   3.007   3.350  1.5047 -0.1886 -0.6675
 4150SOL    HW223910   4.450   2.976   3.366  0.9496  0.2496  1.7097
 4151SOL     OW23911   0.806   1.127  11.703  0.0662  0.0442 -0.2770
 4151SOL    HW123912   0.793   1.032  11.709 -2.4037  0.4742  0.9357
 4151SOL    HW223913   0.791   1.161  11.791  1.1243  0.5816 -0.2972
 4152SOL     OW23914   0.497   4.595  12.763 -0.2574  0.2717  0.0618
 4152SOL    HW123915   0.535   4.548  12.688  0.3069 -0.9898  1.1343
 4152SOL    HW223916   0.435   4.657  12.725 -1.2904 -0.2156  0.9578
 4153SOL     OW23917   3.475   1.602   8.543 -0.5979  0.2848 -0.0905
 4153SOL    HW123918   3.417   1.534   8.510  0.9008 -0.4157 -1.2442
 4153SOL    HW223919   3.552   1.554   8.573 -0.6443  1.0992  1.3620
 4154SOL     OW23920   1.230   1.407   7.770  0.0666  0.5000 -0.6228
 4154SOL    HW123921   1.324   1.411   7.786 -0.0506  0.8501 -0.0011
 4154SOL    HW223922   1.229   1.319   7.732 -0.1123 -0.2546  1.0989
 4155SOL     OW23923   0.695   4.700   4.454  0.1269  0.2144  0.7608
 4155SOL    HW123924   0.688   0.026   4.536  0.0384 -0.7074  1.3027
 4155SOL    HW223925   0.627   4.632   4.463 -1.2040  1.5482  0.8729
 4156SOL     OW23926   1.264   1.924   3.575  0.3992  0.2831 -0.5705
 4156SOL    HW123927   1.280   1.883   3.490  0.9414 -0.8475  0.0841
 4156SOL    HW223928   1.288   1.858   3.639 -0.4636  0.8354  0.3263
 4157SOL     OW23929   2.141   1.941  14.488 -0.7199 -0.0894  0.8386
 4157SOL    HW123930   2.086   1.905  14.418  1.0775  0.3849 -0.8149
 4157SOL    HW223931   2.101   2.025  14.508  0.0016 -0.0383  2.0401
 4158SOL     OW23932   0.114   2.373  15.246 -0.7808  0.5175  0.1986
 4158SOL    HW123933   0.049   2.402  15.182  0.8864  0.2480 -1.6311
 4158SOL    HW223934   0.061   2.371  15.325 -0.4494 -0.8267  0.3942
 4159SOL     OW23935   0.145   3.349  14.309 -0.6159 -0.3733 -0.1988
 4159SOL    HW123936   0.125   3.255  14.312  1.7340 -0.9896 -2.8503
 4159SOL    HW223937   0.097   3.376  14.387  1.3289 -1.2530  1.2886
 4160SOL     OW23938   2.895   4.295   6.840 -0.0098  0.3480  0.0938
 4160SOL    HW123939   2.951   4.246   6.780  0.3141  0.8657 -0.0213
 4160SOL    HW223940   2.810   4.296   6.795  0.7890  0.2570 -1.3892
 4161SOL     OW23941   1.300   0.547   4.156  0.5165  0.0125 -0.0750
 4161SOL    HW123942   1.350   0.547   4.075  1.8641  1.0264  0.7654
 4161SOL    HW223943   1.301   0.453   4.176  1.7956 -0.1258 -0.8021
 4162SOL     OW23944   1.500   0.700   3.215  0.3085  0.0615 -0.3712
 4162SOL    HW123945   1.417   0.702   3.167 -0.7167 -0.5294  1.3867
 4162SOL    HW223946   1.480   0.744   3.297  0.0123  0.4752 -0.6611
 4163SOL     OW23947   0.508   4.429   3.636 -0.0876  0.3634  0.0277
 4163SOL    HW123948   0.581   4.410   3.577  0.8703 -0.0919  1.3539
 4163SOL    HW223949   0.522   4.353   3.692 -0.4809 -0.8440 -1.4988
 4164SOL     OW23950   3.134   0.487  17.570  0.4065 -0.1600  0.2011
 4164SOL    HW123951   3.043   0.480  17.600 -0.2971  0.1233 -1.8384
 4164SOL    HW223952   3.180   0.457  17.648  0.5978 -1.7934 -0.5277
 4165SOL     OW23953   2.476   2.925   2.344 -0.0077 -0.2240 -0.2965
 4165SOL    HW123954   2.391   2.936   2.301 -0.5389  1.9598  1.3220
 4165SOL    HW223955   2.470   3.004   2.397  0.8744 -0.5352  0.2684
 4166SOL     OW23956   3.849   3.563   6.371 -0.0938 -0.1837  0.4505
 4166SOL    HW123957   3.758   3.536   6.359 -0.5269  1.4325  0.1831
 4166SOL    HW223958   3.892   3.504   6.309 -0.6226  0.5237 -0.5933
 4167SOL     OW23959   4.417   0.274   5.523 -0.0468 -0.1016 -0.2222
 4167SOL    HW123960   4.327   0.253   5.548  0.6015 -0.7591  1.5788
 4167SOL    HW223961   4.449   0.185   5.506  0.4629 -0.3508  2.0017
 4168SOL     OW23962   3.834   1.793   6.599  0.5839  0.3709 -0.2788
 4168SOL    HW123963   3.852   1.735   6.525 -1.5975 -0.2636 -0.3256
 4168SOL    HW223964   3.909   1.766   6.652  0.2439 -0.0154  0.0047
 4169SOL     OW23965   0.251   3.944   5.479 -0.1644  0.0665 -0.3578
 4169SOL    HW123966   0.274   4.009   5.546  1.5636 -0.5434 -0.3679
 4169SOL    HW223967   0.204   3.998   5.415  0.6195  0.0887 -0.9148
 4170SOL     OW23968   1.838   4.571   3.955 -0.2398  0.0555  0.0259
 4170SOL    HW123969   1.818   4.481   3.930 -0.8807  0.5948 -1.4256
 4170SOL    HW223970   1.751   4.600   3.981 -0.9730  2.1291 -4.7579
 4171SOL     OW23971   1.459   2.684   0.312 -0.4520  0.3592 -0.1122
 4171SOL    HW123972   1.412   2.760   0.346 -1.2830 -1.4263  2.7223
 4171SOL    HW223973   1.469   2.701   0.218 -0.1867  0.7019 -0.0221
 4172SOL     OW23974   2.538   4.341  13.412 -0.0460  0.1248 -0.7145
 4172SOL    HW123975   2.468   4.287  13.449  0.8757 -1.2915 -1.0050
 4172SOL    HW223976   2.544   4.309  13.322 -0.1965 -2.9816  0.3612
 4173SOL     OW23977   1.528   4.188  16.605 -0.4813  0.3719 -0.3935
 4173SOL    HW123978   1.493   4.277  16.601  0.7234  0.8234 -0.9563
 4173SOL    HW223979   1.473   4.141  16.667  0.2622 -1.5536 -1.1602
 4174SOL     OW23980   3.510   3.882   2.023  0.1693  0.2331  0.1970
 4174SOL    HW123981   3.475   3.797   1.999  1.0474 -0.0172 -0.1975
 4174SOL    HW223982   3.429   3.908   2.066 -0.2711 -0.2948 -0.3257
 4175SOL     OW23983   3.168   1.579  12.159 -0.2315 -0.1146 -0.3844
 4175SOL    HW123984   3.199   1.645  12.097 -0.5400 -1.8903 -2.4627
 4175SOL    HW223985   3.075   1.570  12.137 -0.6796  0.6837  1.1954
 4176SOL     OW23986   1.020   1.746   3.436  0.0337 -0.7276  0.3415
 4176SOL    HW123987   1.108   1.709   3.423  1.2440  1.0500  3.3742
 4176SOL    HW223988   1.024   1.832   3.395 -0.9575 -1.0866 -0.4881
 4177SOL     OW23989   3.763   2.847   4.205  0.8403  0.6783  0.6774
 4177SOL    HW123990   3.749   2.926   4.257  0.8906  1.6655 -0.7893
 4177SOL    HW223991   3.702   2.872   4.136  0.2241  0.4526  1.1402
 4178SOL     OW23992   0.443   2.670   2.099 -0.1550 -0.7404  0.8380
 4178SOL    HW123993   0.406   2.750   2.137  0.1004  0.8725 -2.3175
 4178SOL    HW223994   0.476   2.705   2.017 -1.3869  0.0777  0.6924
 4179SOL     OW23995   0.981   1.274  11.532 -0.0211 -0.2500  0.1539
 4179SOL    HW123996   1.066   1.287  11.575  0.0192 -1.9549  0.5975
 4179SOL    HW223997   0.940   1.226  11.605  0.7884  0.3235  0.9917
 4180SOL     OW23998   0.132   0.228   3.259  0.1982 -0.4042 -0.5146
 4180SOL    HW123999   0.140   0.315   3.220 -0.2099  0.0576  0.4271
 4180SOL    HW224000   0.066   0.205   3.194  0.8819 -3.5910 -0.0570
 4181SOL     OW24001   0.049   3.108  14.334  0.2514  0.1528 -0.2250
 4181SOL    HW124002   0.102   3.060  14.398  0.4468 -2.2858 -2.2238
 4181SOL    HW224003   4.685   3.096  14.375  0.7626  1.8340  1.3704
 4182SOL     OW24004   4.347   0.465   4.626  0.4467  0.1885 -0.0492
 4182SOL    HW124005   4.295   0.450   4.704  2.1173  1.8170  1.3902
 4182SOL    HW224006   4.418   0.412   4.661  0.4981 -1.3045 -2.3869
 4183SOL     OW24007   1.636   1.306   4.938  0.0050 -0.6665  0.0555
 4183SOL    HW124008   1.674   1.386   4.902 -0.0758 -0.8071 -0.3395
 4183SOL    HW224009   1.551   1.298   4.896  0.0336  2.9860 -0.7020
 4184SOL     OW24010   1.014   0.569   2.101 -0.2612  0.8159  0.5766
 4184SOL    HW124011   1.096   0.588   2.055 -0.0426  0.1715  0.7074
 4184SOL    HW224012   1.029   0.618   2.182 -1.3191  0.0079  1.2641
 4185SOL     OW24013   0.615   2.651  16.952  0.1328  0.2262  0.1349
 4185SOL    HW124014   0.591   2.724  17.010 -0.7943  1.4243 -1.7824
 4185SOL    HW224015   0.546   2.633  16.889 -1.0382 -0.8566  1.7272
 4186SOL     OW24016   4.345   1.925   6.768  0.4678  0.0724  0.8092
 4186SOL    HW124017   4.291   1.898   6.843 -1.7990 -1.4670 -1.3891
 4186SOL    HW224018   4.378   1.845   6.728  1.9833 -0.3194  2.8121
 4187SOL     OW24019   1.062   2.790   5.105 -0.0912  0.0222  0.4528
 4187SOL    HW124020   1.054   2.797   5.200  2.4461  1.3140  0.5625
 4187SOL    HW224021   1.131   2.724   5.108 -1.1032 -1.0670 -0.0697
 4188SOL     OW24022   1.972   1.485   1.074  0.0444  0.0399 -0.6179
 4188SOL    HW124023   1.883   1.502   1.105  0.2567  0.6533 -0.3447
 4188SOL    HW224024   1.974   1.517   0.984  0.7875 -2.3147 -1.4291
 4189SOL     OW24025   1.979   0.116  12.078 -0.1411  0.8062  0.7191
 4189SOL    HW124026   2.028   0.146  12.001  0.2680 -2.1921 -0.1828
 4189SOL    HW224027   1.901   0.079  12.037  0.2272 -1.4004  2.0275
 4190SOL     OW24028   2.284   1.443  11.486 -0.0655  0.2159 -0.2199
 4190SOL    HW124029   2.377   1.464  11.478 -0.2854  1.2162 -0.1175
 4190SOL    HW224030   2.257   1.465  11.397 -0.9780 -0.2792 -0.0678
 4191SOL     OW24031   3.839   0.120   2.624 -0.0087  0.4548  0.0320
 4191SOL    HW124032   3.758   0.168   2.606 -1.4328 -1.1535  2.1841
 4191SOL    HW224033   3.830   0.057   2.553  1.1445 -2.1355  2.1878
 4192SOL     OW24034   4.325   1.541   3.557  0.3426  0.3513  0.3662
 4192SOL    HW124035   4.380   1.616   3.579 -0.2453  1.0117 -0.4420
 4192SOL    HW224036   4.237   1.576   3.546  0.5613  1.0329  0.7744
 4193SOL     OW24037   1.088   2.282   7.419 -0.3543  0.1190 -0.1947
 4193SOL    HW124038   1.108   2.268   7.326  0.8966  2.2183 -0.2341
 4193SOL    HW224039   1.168   2.331   7.439 -0.7491  1.0055 -0.7987
 4194SOL     OW24040   2.519   2.275   3.341  0.8360 -0.1140 -0.1545
 4194SOL    HW124041   2.506   2.180   3.344  2.0875 -0.0973  5.1710
 4194SOL    HW224042   2.457   2.312   3.404  1.2898  1.2886 -0.5304
 4195SOL     OW24043   3.285   2.869   7.190 -0.1976  0.1671  0.6648
 4195SOL    HW124044   3.312   2.790   7.144  2.0033  0.6725  1.0794
 4195SOL    HW224045   3.229   2.837   7.260 -1.8032 -1.3177 -1.3360
 4196SOL     OW24046   0.311   2.064  16.489  1.0968  0.8606 -0.0493
 4196SOL    HW124047   0.293   2.001  16.559 -2.2461  0.3584 -1.3526
 4196SOL    HW224048   0.402   2.047  16.464  0.4198 -0.6240 -1.4940
 4197SOL     OW24049   0.946   2.094   0.909 -0.5396  0.5287  0.2000
 4197SOL    HW124050   0.879   2.025   0.916  0.5840 -0.7551 -1.7491
 4197SOL    HW224051   0.914   2.137   0.830  0.1085  0.8640  0.1279
 4198SOL     OW24052   3.208   1.924   3.432 -0.3464  0.5221  0.6465
 4198SOL    HW124053   3.126   1.878   3.418  1.1281 -1.8774 -0.0520
 4198SOL    HW224054   3.183   2.016   3.428  1.8673  1.2479  3.4302
 4199SOL     OW24055   3.496   2.105  10.184 -0.5710  0.4473 -0.1817
 4199SOL    HW124056   3.470   2.122  10.093 -0.0426 -2.2120 -0.8324
 4199SOL    HW224057   3.420   2.137  10.233 -0.1960 -0.9046  1.2807
 4200SOL     OW24058   2.873   1.411  17.539 -0.3037  0.3054  0.0226
 4200SOL    HW124059   2.796   1.411  17.482 -0.9565  1.8683  0.8800
 4200SOL    HW224060   2.856   1.492  17.588 -0.4455  1.1808 -1.4598
 4201SOL     OW24061   1.925   2.413   3.122 -0.5576  0.2894 -0.3150
 4201SOL    HW124062   1.925   2.369   3.207 -2.3661  0.4823 -0.2027
 4201SOL    HW224063   2.010   2.457   3.111 -0.5346  0.8554  2.1841
 4202SOL     OW24064   1.687   2.702  10.179 -0.2015  0.2385  0.0919
 4202SOL    HW124065   1.764   2.750  10.148 -0.9899  1.7400  0.4914
 4202SOL    HW224066   1.640   2.768  10.228  0.0172 -0.0374  0.6817
 4203SOL     OW24067   3.651   3.549  15.944  0.1010  0.5911 -0.1816
 4203SOL    HW124068   3.684   3.466  15.910 -1.0463 -0.5261  1.4465
 4203SOL    HW224069   3.732   3.595  15.968  1.3181 -0.8680 -1.5106
 4204SOL     OW24070   0.718   1.691   4.207  0.5019 -0.3283 -0.5083
 4204SOL    HW124071   0.685   1.781   4.213 -1.1628 -0.7850 -3.0413
 4204SOL    HW224072   0.672   1.667   4.127  0.2600 -0.6732 -0.2675
 4205SOL     OW24073   3.605   1.543   3.576 -0.0822 -0.0269 -0.1535
 4205SOL    HW124074   3.589   1.620   3.521  0.6528  0.3785  0.1929
 4205SOL    HW224075   3.699   1.535   3.560 -0.6644 -1.5848 -2.6073
 4206SOL     OW24076   0.865   2.741  16.824  0.1528 -0.1365 -0.2420
 4206SOL    HW124077   0.775   2.711  16.835  1.0929 -2.1952  1.8779
 4206SOL    HW224078   0.895   2.688  16.750  0.7755  1.0260 -0.8200
 4207SOL     OW24079   2.023   1.231  13.066  0.3688  0.8021  0.0139
 4207SOL    HW124080   2.111   1.219  13.100 -0.2505 -1.4779  0.7742
 4207SOL    HW224081   1.986   1.307  13.111 -0.2320  0.0825  0.7322
 4208SOL     OW24082   4.559   3.194   3.129  0.3994 -0.2670  0.5115
 4208SOL    HW124083   4.544   3.282   3.093 -1.3639 -1.1068 -0.8435
 4208SOL    HW224084   4.480   3.144   3.108  0.4196  0.4237 -1.2124
 4209SOL     OW24085   3.043   4.030   0.662  0.5861 -0.2953 -0.1059
 4209SOL    HW124086   3.009   4.085   0.592  1.1804 -0.7180 -0.7181
 4209SOL    HW224087   3.100   3.964   0.623  0.3485 -0.1219 -0.7506
 4210SOL     OW24088   1.623   0.205  17.167 -0.0213  0.1052  0.3958
 4210SOL    HW124089   1.705   0.218  17.120 -0.5348 -1.2549 -0.8814
 4210SOL    HW224090   1.625   0.110  17.178 -0.1929  0.3774  2.8199
 4211SOL     OW24091   2.882   3.926   9.066 -0.2429  0.6505 -0.1687
 4211SOL    HW124092   2.935   4.005   9.055  0.7845 -0.3653 -2.4061
 4211SOL    HW224093   2.856   3.946   9.156  1.8238  3.3105 -0.1318
 4212SOL     OW24094   0.105   4.669   4.612 -0.3593 -0.0523  0.2374
 4212SOL    HW124095   0.131   4.584   4.578  2.8356  1.4984 -1.1888
 4212SOL    HW224096   0.071   4.647   4.699  1.6804  0.1593  1.0894
 4213SOL     OW24097   0.665   0.651  14.615 -0.1604 -0.1501 -0.4031
 4213SOL    HW124098   0.752   0.679  14.643  0.0246 -0.1612 -0.9643
 4213SOL    HW224099   0.635   0.580  14.671 -0.0356 -0.6715 -1.0049
 4214SOL     OW24100   1.940   0.822   5.080  0.3531  0.1293  0.2478
 4214SOL    HW124101   1.873   0.766   5.040 -0.7083  1.1653  0.5747
 4214SOL    HW224102   1.984   0.771   5.148 -0.3780 -1.8998 -0.7841
 4215SOL     OW24103   2.684   1.688  14.851 -0.5343 -0.0734 -0.0672
 4215SOL    HW124104   2.641   1.746  14.789  1.9613 -1.9850 -3.6149
 4215SOL    HW224105   2.751   1.660  14.788  0.2648  0.2577  0.6325
 4216SOL     OW24106   3.089   2.373   2.257 -0.2858 -0.1301 -0.3847
 4216SOL    HW124107   3.057   2.460   2.234 -1.5266 -0.5555 -0.2760
 4216SOL    HW224108   3.018   2.342   2.313 -0.5592 -0.0990 -0.7147
 4217SOL     OW24109   3.326   2.131   4.855 -0.0031 -0.6502 -0.7490
 4217SOL    HW124110   3.311   2.139   4.761  0.3135  0.4437 -0.7050
 4217SOL    HW224111   3.421   2.134   4.862 -0.0372 -0.0338 -0.5913
 4218SOL     OW24112   1.564   2.714   3.548  0.2969  0.0324  0.6705
 4218SOL    HW124113   1.523   2.639   3.506  1.1049 -1.7551  3.0888
 4218SOL    HW224114   1.491   2.755   3.595  1.7138  1.1969  1.8829
 4219SOL     OW24115   3.503   3.047   7.201 -0.1544  0.0006  0.4458
 4219SOL    HW124116   3.423   2.996   7.185  0.0326  0.7152 -2.6803
 4219SOL    HW224117   3.567   3.032   7.132 -1.1931  0.9651 -0.7220
 4220SOL     OW24118   1.204   1.245   4.492  0.0803 -0.0220  0.3471
 4220SOL    HW124119   1.244   1.170   4.449 -0.2750 -0.7406  1.2748
 4220SOL    HW224120   1.267   1.316   4.483 -1.2095  1.4098  2.5537
 4221SOL     OW24121   4.529   4.645  13.590  0.4093  0.2023 -0.2511
 4221SOL    HW124122   4.624   4.638  13.598  0.5314 -0.2134 -2.2523
 4221SOL    HW224123   4.527   0.018  13.590 -0.7126  0.1873  0.1663
 4222SOL     OW24124   2.768   1.754  14.231 -0.0669 -0.4721 -0.4002
 4222SOL    HW124125   2.854   1.726  14.201  0.2047  0.5005 -0.5223
 4222SOL    HW224126   2.770   1.710  14.316  1.0675  0.1653 -0.1033
 4223SOL     OW24127   2.417   2.454   9.490 -0.2350  0.5585 -0.1865
 4223SOL    HW124128   2.440   2.368   9.455  1.2094  0.8277  0.1050
 4223SOL    HW224129   2.326   2.467   9.461  0.0234  0.5003 -1.0319
 4224SOL     OW24130   4.494   4.343   8.692  0.0064 -0.1819  0.5406
 4224SOL    HW124131   4.504   4.338   8.597 -0.0910  0.2777  0.5106
 4224SOL    HW224132   4.534   4.428   8.711  1.2090 -0.7385  0.5343
 4225SOL     OW24133   1.880   3.175   4.308 -0.2373  0.1001 -0.4540
 4225SOL    HW124134   1.798   3.190   4.355  0.7884 -0.2633  1.4729
 4225SOL    HW224135   1.858   3.104   4.247 -1.3498  0.5024 -0.5165
 4226SOL     OW24136   2.079   0.070   2.206 -0.4247 -0.3408 -0.2228
 4226SOL    HW124137   2.132   0.002   2.246 -1.8286  1.0110  3.9127
 4226SOL    HW224138   2.115   0.142   2.258 -0.2648  0.9919 -2.1558
 4227SOL     OW24139   1.040   1.363   6.366  0.1151  0.3199  0.8094
 4227SOL    HW124140   0.988   1.287   6.337  0.3309  0.4521  0.0948
 4227SOL    HW224141   1.125   1.335   6.333 -0.5365  2.0102 -2.2343
 4228SOL     OW24142   2.832   3.696   0.091 -0.0201  0.1216 -0.1682
 4228SOL    HW124143   2.887   3.683   0.014 -0.4622 -0.4967 -0.3817
 4228SOL    HW224144   2.797   3.783   0.075  1.6481  0.4586 -1.9510
 4229SOL     OW24145   1.830   3.802   6.924  0.3261  0.4377 -0.5221
 4229SOL    HW124146   1.884   3.760   6.857  2.3114  0.6987  0.8993
 4229SOL    HW224147   1.882   3.776   7.000 -1.6614  1.5543  1.2068
 4230SOL     OW24148   3.125   2.231   3.836  0.0206 -0.2675 -0.2732
 4230SOL    HW124149   3.129   2.151   3.785  1.4836  0.6085 -1.5242
 4230SOL    HW224150   3.195   2.220   3.901 -1.0638  1.9931  1.3159
 4231SOL     OW24151   1.479   0.174   5.631  0.0357  0.1760 -0.8965
 4231SOL    HW124152   1.421   0.247   5.652  1.2298  0.4039  1.5394
 4231SOL    HW224153   1.424   0.095   5.626  2.1204 -1.2844 -0.9122
 4232SOL     OW24154   2.096   3.754   6.749 -0.1497  0.2489 -0.0900
 4232SOL    HW124155   2.105   3.675   6.695  0.1811  0.7308 -0.7312
 4232SOL    HW224156   2.118   3.827   6.692 -2.7864 -0.6232 -2.2556
 4233SOL     OW24157   1.930   1.717   8.626 -0.2482  0.1354 -0.6640
 4233SOL    HW124158   1.923   1.648   8.559  1.4569 -0.0521 -0.6390
 4233SOL    HW224159   1.839   1.703   8.653 -0.3564 -0.3890 -1.2927
 4234SOL     OW24160   4.363   4.668   2.122  0.2351 -0.0773  0.0191
 4234SOL    HW124161   4.446   4.715   2.131 -0.0205  0.1482  1.2159
 4234SOL    HW224162   4.380   4.584   2.164 -1.0269  0.1328  0.9515
 4235SOL     OW24163   2.140   2.073  11.571  0.1171 -0.6766 -0.2795
 4235SOL    HW124164   2.163   2.016  11.644 -0.6145 -0.6339 -0.0168
 4235SOL    HW224165   2.067   2.126  11.603 -0.2193 -0.7588 -0.9189
 4236SOL     OW24166   2.154   3.421   3.365 -0.1781  0.1968  0.0682
 4236SOL    HW124167   2.075   3.430   3.418 -0.0448 -1.3772  0.5550
 4236SOL    HW224168   2.125   3.365   3.292 -1.7480 -0.9862  1.6099
 4237SOL     OW24169   1.261   2.673   5.838  0.1834 -0.1800 -0.0506
 4237SOL    HW124170   1.340   2.619   5.835  0.6891  0.6518 -1.3419
 4237SOL    HW224171   1.185   2.615   5.850  1.4775 -0.9271  4.8245
 4238SOL     OW24172   0.371   0.167   7.191 -0.0873 -0.3984 -0.2602
 4238SOL    HW124173   0.343   0.191   7.102 -1.3939 -2.9203 -0.5059
 4238SOL    HW224174   0.419   0.085   7.184 -0.8455 -0.9658  1.2822
 4239SOL     OW24175   1.172   1.759   9.605  0.3686 -0.2660  0.8325
 4239SOL    HW124176   1.169   1.849   9.636  1.2238 -0.1043  0.4534
 4239SOL    HW224177   1.218   1.708   9.672  4.7116 -1.5160 -3.0263
 4240SOL     OW24178   0.079   2.603   6.512 -0.1529 -0.0376  0.4021
 4240SOL    HW124179   0.046   2.693   6.516  0.2922  0.1731 -0.6814
 4240SOL    HW224180   0.064   2.576   6.422  1.0464 -0.7991  0.4305
 4241SOL     OW24181   3.012   1.442  16.964 -0.2042 -0.1391 -0.3332
 4241SOL    HW124182   3.106   1.437  16.975 -0.2456 -0.0208  0.0823
 4241SOL    HW224183   3.004   1.521  16.910  0.0595  1.6755  2.2928
 4242SOL     OW24184   0.093   3.042   7.089 -0.0765 -0.1590 -0.1480
 4242SOL    HW124185   0.139   3.111   7.137  0.5162  1.4187 -2.9956
 4242SOL    HW224186   0.032   3.026   7.161  0.3676 -1.0011  0.0445
 4243SOL     OW24187   4.573   0.321   0.800  0.3703 -0.0058 -0.1363
 4243SOL    HW124188   4.554   0.227   0.795 -0.5189  0.2106 -1.0804
 4243SOL    HW224189   4.612   0.337   0.886 -1.9312  0.9595  0.7322
 4244SOL     OW24190   4.120   3.752  10.966  0.1320  0.0051  1.4165
 4244SOL    HW124191   4.073   3.668  10.959  1.4791 -0.5719 -0.7784
 4244SOL    HW224192   4.077   3.787  11.044 -1.4869  1.4219 -0.1155
 4245SOL     OW24193   2.108   2.292   9.738  1.0094 -0.2280 -0.1990
 4245SOL    HW124194   2.179   2.278   9.676 -0.4060 -2.7717 -1.2426
 4245SOL    HW224195   2.149   2.272   9.822  0.1772  1.8369  0.7052
 4246SOL     OW24196   2.097   3.025  11.914  0.5334 -0.1764 -0.2480
 4246SOL    HW124197   2.116   2.933  11.930  1.0998  0.0903  0.6045
 4246SOL    HW224198   2.181   3.071  11.915  0.1728  0.4872 -0.8479
 4247SOL     OW24199   1.773   1.862  10.567  0.2053  0.4574  0.0114
 4247SOL    HW124200   1.753   1.790  10.627  1.6380 -0.4264 -0.5513
 4247SOL    HW224201   1.780   1.805  10.490  1.0976  0.1774  0.3037
 4248SOL     OW24202   0.824   1.722   1.930 -0.2603  0.0523  0.1690
 4248SOL    HW124203   0.809   1.811   1.961  0.3239  0.2327 -0.0645
 4248SOL    HW224204   0.919   1.713   1.923 -0.3170 -0.0743 -0.4632
 4249SOL     OW24205   4.258   0.873   4.537 -0.0266  0.3073  0.9596
 4249SOL    HW124206   4.348   0.906   4.536  0.9384 -2.3168  0.7139
 4249SOL    HW224207   4.233   0.908   4.623 -1.1309 -0.1821  0.8310
 4250SOL     OW24208   0.756   2.528   8.433 -0.1692  0.2215 -0.6532
 4250SOL    HW124209   0.819   2.591   8.467 -0.8995  1.1844 -1.0728
 4250SOL    HW224210   0.805   2.458   8.389 -1.8164 -0.1534 -1.8976
 4251SOL     OW24211   3.587   1.449   7.770  0.0982 -0.1391  0.5977
 4251SOL    HW124212   3.617   1.519   7.711  1.2048 -2.1187 -1.1872
 4251SOL    HW224213   3.551   1.389   7.705 -0.6401 -1.9050  2.6713
 4252SOL     OW24214   0.532   3.504   5.057  0.2299  0.2978 -0.2262
 4252SOL    HW124215   0.518   3.411   5.044 -1.4133  0.1434  2.5564
 4252SOL    HW224216   0.626   3.511   5.068 -0.0002 -2.0208  2.9906
 4253SOL     OW24217   3.789   3.268  14.393 -0.1562  0.3620 -0.5917
 4253SOL    HW124218   3.713   3.209  14.394  1.0017 -1.0786  4.1534
 4253SOL    HW224219   3.820   3.257  14.483 -0.1343  0.1923 -0.6194
 4254SOL     OW24220   3.442   3.728  10.784 -0.0185  0.1679 -0.2522
 4254SOL    HW124221   3.387   3.802  10.808  0.5990  0.4934  0.1743
 4254SOL    HW224222   3.507   3.731  10.855 -0.2577 -0.5391  0.0033
 4255SOL     OW24223   4.323   2.546  15.614  0.1292  0.5702  0.0467
 4255SOL    HW124224   4.380   2.544  15.537 -0.4744 -0.8167 -0.3633
 4255SOL    HW224225   4.386   2.558  15.685  0.2555  2.4151 -0.3983
 4256SOL     OW24226   3.614   3.835   8.483  0.5254  0.2556  0.0445
 4256SOL    HW124227   3.570   3.824   8.399 -1.5884 -2.1168  1.4569
 4256SOL    HW224228   3.632   3.743   8.503  0.6640  0.1280 -0.6553
 4257SOL     OW24229   0.495   0.084   7.536 -0.4664 -0.0039 -0.3199
 4257SOL    HW124230   0.585   0.075   7.569 -0.7358 -0.9747  0.1558
 4257SOL    HW224231   0.450   0.115   7.615  0.4597  1.2883 -0.3088
 4258SOL     OW24232   0.920   4.679  13.062  0.2789 -0.1331 -0.3088
 4258SOL    HW124233   0.889   4.634  12.984  2.6203 -1.7410 -0.2850
 4258SOL    HW224234   1.012   4.653  13.068  0.4823  0.5533 -0.4452
 4259SOL     OW24235   4.122   2.760   9.408  0.2755  0.1921 -0.8178
 4259SOL    HW124236   4.205   2.758   9.359  1.1515  0.0874  0.6777
 4259SOL    HW224237   4.138   2.682   9.461 -1.1664  3.1805  4.0377
 4260SOL     OW24238   2.091   0.924   0.511  0.2260  0.2843 -0.5058
 4260SOL    HW124239   2.054   0.864   0.447  0.1840  0.4599 -0.6460
 4260SOL    HW224240   2.028   0.953   0.577 -0.9731  1.5161 -2.2009
 4261SOL     OW24241   3.541   4.321  17.498  0.2614 -0.1369  0.2201
 4261SOL    HW124242   3.592   4.240  17.503 -0.9484 -0.9295 -0.2431
 4261SOL    HW224243   3.607   4.377  17.457 -0.6414  1.9657  1.6077
 4262SOL     OW24244   1.127   3.395   1.957 -0.4663  0.3198  0.6830
 4262SOL    HW124245   1.133   3.443   2.040  0.0277 -1.8372  1.9018
 4262SOL    HW224246   1.211   3.413   1.917 -1.9324  2.1176 -1.6178
 4263SOL     OW24247   0.585   3.042   2.005  0.2450 -0.1508 -0.1901
 4263SOL    HW124248   0.657   3.104   2.016  0.4808 -0.4720  0.1072
 4263SOL    HW224249   0.593   3.014   1.914 -1.8547 -1.4844  0.0237
 4264SOL     OW24250   1.520   2.391   4.342  0.6145 -0.1912 -0.0731
 4264SOL    HW124251   1.468   2.369   4.264 -0.3717 -0.5687  0.6940
 4264SOL    HW224252   1.601   2.413   4.295 -0.5458 -0.3075 -2.1654
 4265SOL     OW24253   3.904   0.561   9.284 -0.2525 -0.2974 -0.0966
 4265SOL    HW124254   3.861   0.521   9.360 -1.9385 -0.5013 -1.1454
 4265SOL    HW224255   3.903   0.496   9.213 -0.3612 -0.6610  0.2370
 4266SOL     OW24256   1.385   2.074   9.775  0.0432 -0.2124  0.0085
 4266SOL    HW124257   1.372   2.140   9.844  0.7344 -1.2728  1.1562
 4266SOL    HW224258   1.300   2.079   9.732 -0.5901 -2.7108  0.9872
 4267SOL     OW24259   2.132   3.500   1.516 -0.3308 -0.0043  0.1025
 4267SOL    HW124260   2.171   3.483   1.431 -1.6514 -2.3449 -0.0290
 4267SOL    HW224261   2.187   3.439   1.565  1.0342  2.3106  1.4523
 4268SOL     OW24262   2.946   1.210   3.983  0.6678 -0.2593  0.2639
 4268SOL    HW124263   2.985   1.169   4.060 -0.4353  0.8267  1.4098
 4268SOL    HW224264   2.855   1.183   3.989  0.4241  0.6921  1.0066
 4269SOL     OW24265   2.514   1.558  16.156  0.3230  0.0986 -0.8932
 4269SOL    HW124266   2.597   1.529  16.192 -0.0088  1.6747  1.1534
 4269SOL    HW224267   2.490   1.503  16.082 -1.1860  0.6182 -0.8056
 4270SOL     OW24268   2.960   3.529  12.166  0.2314 -0.0795 -0.1835
 4270SOL    HW124269   2.954   3.480  12.248 -0.9728 -0.3038 -0.4188
 4270SOL    HW224270   3.055   3.516  12.155  0.2331 -0.4342  0.2443
 4271SOL     OW24271   0.951   2.273   3.453  0.1086  0.6004 -0.6414
 4271SOL    HW124272   0.951   2.193   3.506  1.4603  2.1172  1.6531
 4271SOL    HW224273   1.037   2.264   3.413  0.7098 -1.2271  1.0828
 4272SOL     OW24274   2.457   0.462   1.918  0.5295 -0.5403  0.3546
 4272SOL    HW124275   2.414   0.377   1.915 -2.4037  1.0100 -1.5336
 4272SOL    HW224276   2.418   0.501   1.840 -0.2803 -0.7773  0.6445
 4273SOL     OW24277   1.353   2.569  15.783  0.6249 -0.5013  0.2602
 4273SOL    HW124278   1.317   2.483  15.763  1.4985 -0.3113 -2.1680
 4273SOL    HW224279   1.287   2.623  15.738  2.7730  0.6730 -1.4469
 4274SOL     OW24280   2.388   2.650   3.815 -0.0264 -0.3019 -0.1504
 4274SOL    HW124281   2.298   2.639   3.844  0.1347  0.4481  0.6156
 4274SOL    HW224282   2.392   2.569   3.763  1.7456 -0.2078 -0.1908
 4275SOL     OW24283   2.192   4.713   0.514 -0.4004  0.6507  0.2036
 4275SOL    HW124284   2.219   0.008   0.605 -2.2381  1.2529  0.6289
 4275SOL    HW224285   2.103   0.025   0.517 -0.2775  0.9904  0.0027
 4276SOL     OW24286   1.793   2.943   8.389  0.0504 -0.7608  0.5336
 4276SOL    HW124287   1.828   2.971   8.473 -0.6635  0.3898  0.4519
 4276SOL    HW224288   1.707   2.985   8.392 -0.3715 -1.4706 -1.6806
 4277SOL     OW24289   1.102   3.298   5.350  0.2263 -0.5849  0.2122
 4277SOL    HW124290   1.137   3.386   5.337 -0.9651 -0.1125  0.1906
 4277SOL    HW224291   1.182   3.247   5.342 -0.3412 -1.2506 -1.1751
 4278SOL     OW24292   1.597   1.179  10.739 -0.7736 -0.0938  0.8693
 4278SOL    HW124293   1.651   1.188  10.818  2.6067  1.5185 -1.6194
 4278SOL    HW224294   1.649   1.108  10.702  0.4008  2.3466 -2.1716
 4279SOL     OW24295   2.552   3.627   2.064  0.4214 -0.5634  0.0454
 4279SOL    HW124296   2.512   3.555   2.016  0.6584  0.3848 -1.5753
 4279SOL    HW224297   2.540   3.699   2.001  2.7201  0.1620  0.4462
 4280SOL     OW24298   0.907   1.129  16.959 -0.2707 -0.3073  0.2247
 4280SOL    HW124299   0.886   1.136  17.052 -0.8860  0.5038  0.0219
 4280SOL    HW224300   0.992   1.173  16.957 -0.4172  0.0569  2.9423
 4281SOL     OW24301   3.989   3.943  11.152 -0.4014  0.1104 -0.4251
 4281SOL    HW124302   3.901   3.974  11.175 -0.0720 -0.2987  1.3402
 4281SOL    HW224303   4.029   3.927  11.237 -1.5015  0.8862  0.2451
 4282SOL     OW24304   3.117   3.338   9.708  0.0952 -0.3011 -0.3155
 4282SOL    HW124305   3.193   3.338   9.649 -0.7363 -2.8546 -1.4116
 4282SOL    HW224306   3.123   3.417   9.761 -1.0260 -1.2534  1.2149
 4283SOL     OW24307   3.818   0.141   7.875  0.6574 -0.3082 -0.0493
 4283SOL    HW124308   3.864   0.115   7.954  1.1054 -2.2062 -0.9273
 4283SOL    HW224309   3.869   0.222   7.867 -2.0091  1.3068 -0.5923
 4284SOL     OW24310   1.389   2.172   1.239 -0.0028  0.1583 -0.3861
 4284SOL    HW124311   1.305   2.131   1.220  0.3191 -0.7790  0.2160
 4284SOL    HW224312   1.376   2.260   1.204 -0.2842 -0.1085 -0.9539
 4285SOL     OW24313   2.499   2.777   6.280  0.3000  0.0893 -0.2244
 4285SOL    HW124314   2.420   2.745   6.324  1.5350 -2.0449  0.4814
 4285SOL    HW224315   2.561   2.788   6.352 -0.9722  0.5123  0.8110
 4286SOL     OW24316   1.050   4.334  13.499  0.0203 -0.4042 -0.1457
 4286SOL    HW124317   1.098   4.354  13.579 -1.0686  1.5057  0.0388
 4286SOL    HW224318   1.082   4.406  13.444  1.4476 -0.5541  0.4965
 4287SOL     OW24319   3.000   3.210   8.307  0.6021 -0.3502 -0.2035
 4287SOL    HW124320   2.956   3.232   8.225 -0.0106 -2.8747 -0.5340
 4287SOL    HW224321   2.919   3.205   8.358  2.1575 -0.4865  2.2510
 4288SOL     OW24322   0.570   0.809  11.983  0.0449 -0.0786 -0.1644
 4288SOL    HW124323   0.503   0.850  12.038  2.0871  1.6099  1.0944
 4288SOL    HW224324   0.540   0.827  11.894  1.8101 -0.7304 -0.8916
 4289SOL     OW24325   2.835   3.802   4.344  0.4617  0.7760 -0.0514
 4289SOL    HW124326   2.890   3.753   4.283 -0.9402 -0.5975 -0.2291
 4289SOL    HW224327   2.905   3.844   4.394  0.1885  1.4104 -0.2019
 4290SOL     OW24328   2.196   4.193  14.624  0.4479  0.0406  0.6184
 4290SOL    HW124329   2.252   4.253  14.673 -0.4837  1.2298  0.2069
 4290SOL    HW224330   2.249   4.147  14.558 -1.2418 -1.7513  0.5015
 4291SOL     OW24331   1.061   3.340   9.024  0.4713  0.4543 -0.4181
 4291SOL    HW124332   1.096   3.259   9.061 -0.9553  0.9439  1.9904
 4291SOL    HW224333   1.012   3.386   9.092 -1.7074  0.0536 -1.7318
 4292SOL     OW24334   1.560   3.250  16.178  0.1048  0.1520 -0.5199
 4292SOL    HW124335   1.649   3.226  16.152  0.7032 -0.4039  2.0579
 4292SOL    HW224336   1.514   3.170  16.155 -0.2814 -0.2860  1.7980
 4293SOL     OW24337   3.472   1.841  17.078  0.1098  0.2517 -0.3584
 4293SOL    HW124338   3.430   1.900  17.141  1.1256 -0.2236  0.7757
 4293SOL    HW224339   3.549   1.828  17.133  1.8277  0.3868 -2.7196
 4294SOL     OW24340   3.253   3.683   7.936  0.7629 -0.4810  0.0740
 4294SOL    HW124341   3.300   3.766   7.936  1.8020 -1.0784  1.8757
 4294SOL    HW224342   3.323   3.618   7.937 -0.4078 -1.7866 -1.5770
 4295SOL     OW24343   1.533   2.793   7.785 -0.1639 -0.2531  0.4458
 4295SOL    HW124344   1.577   2.764   7.865  0.7329 -1.7258 -0.5907
 4295SOL    HW224345   1.508   2.712   7.740  1.3570 -0.5234  0.0859
 4296SOL     OW24346   2.897   0.353  11.609  0.0945  0.0149  0.5091
 4296SOL    HW124347   2.943   0.430  11.577 -2.8919  1.2651 -0.7786
 4296SOL    HW224348   2.812   0.396  11.617 -0.1759  0.2062 -3.0016
 4297SOL     OW24349   2.456   1.445   5.498 -0.5430 -0.1852 -0.5150
 4297SOL    HW124350   2.382   1.392   5.468  0.4262 -2.4168  1.0231
 4297SOL    HW224351   2.447   1.433   5.593 -0.6838 -2.4294 -0.8032
 4298SOL     OW24352   1.661   1.895   7.949  0.1274  0.6735  0.2797
 4298SOL    HW124353   1.619   1.930   8.028  2.0318 -0.5186  1.8284
 4298SOL    HW224354   1.585   1.842   7.926 -0.0052  0.8132  0.3938
 4299SOL     OW24355   1.218   0.662   3.133  0.4960 -0.3153 -0.0924
 4299SOL    HW124356   1.200   0.597   3.201  0.0186  0.0991  0.1734
 4299SOL    HW224357   1.213   0.609   3.054  3.2525 -0.3822 -0.2400
 4300SOL     OW24358   2.732   4.357   3.695 -0.2785 -0.2203 -0.1114
 4300SOL    HW124359   2.636   4.351   3.691 -0.3435  1.3277 -0.9148
 4300SOL    HW224360   2.745   4.409   3.616  0.4187 -0.5276 -0.1951
 4301SOL     OW24361   0.770   2.357  13.050  0.2306 -0.2995  0.0590
 4301SOL    HW124362   0.709   2.406  13.106  0.7346 -0.1169  0.4552
 4301SOL    HW224363   0.766   2.264  13.075 -0.1856 -0.3807 -0.3128
 4302SOL     OW24364   0.473   0.358   5.862 -0.2471  0.2109  0.4217
 4302SOL    HW124365   0.437   0.334   5.777  1.3218 -1.9750  0.3818
 4302SOL    HW224366   0.565   0.334   5.852  0.2875  2.1528  0.6268
 4303SOL     OW24367   1.985   0.537   8.614 -0.1620  0.2606  0.4404
 4303SOL    HW124368   2.060   0.528   8.555  1.0256  2.5429  1.5903
 4303SOL    HW224369   1.916   0.572   8.557  0.5636  1.9674  0.5854
 4304SOL     OW24370   0.167   2.282  11.724  0.7591 -0.3952  0.0803
 4304SOL    HW124371   0.203   2.366  11.696  2.1546 -0.3771  1.8722
 4304SOL    HW224372   0.213   2.285  11.808 -1.9368 -1.3064  1.5944
 4305SOL     OW24373   2.159   1.664   2.749  0.1811 -0.4082 -0.2329
 4305SOL    HW124374   2.182   1.713   2.828 -1.3330 -0.8372  0.4650
 4305SOL    HW224375   2.188   1.722   2.679 -0.1916 -1.9366 -1.6576
 4306SOL     OW24376   2.987   1.929   8.431 -0.1078  0.0299 -0.0068
 4306SOL    HW124377   3.032   1.920   8.347 -0.9977 -2.9738 -0.1572
 4306SOL    HW224378   2.911   1.876   8.406  0.3932  0.5414 -2.6725
 4307SOL     OW24379   4.075   2.799   7.009 -0.2710  0.2070  0.2474
 4307SOL    HW124380   3.983   2.793   7.037 -0.8644 -1.0246 -1.9724
 4307SOL    HW224381   4.075   2.886   6.969  0.7670 -0.8915 -2.1114
 4308SOL     OW24382   2.534   0.609  16.491 -0.0005  0.2160  0.1999
 4308SOL    HW124383   2.621   0.573  16.476  0.6998  1.7974  0.5071
 4308SOL    HW224384   2.520   0.682  16.431 -0.8661 -0.1922 -0.0959
 4309SOL     OW24385   1.247   3.095   9.100  0.5773  0.1797  0.4627
 4309SOL    HW124386   1.316   3.132   9.155  0.1390 -0.2420  1.2965
 4309SOL    HW224387   1.308   3.047   9.046 -0.8636 -0.2786 -0.7562
 4310SOL     OW24388   2.618   2.664   8.994  0.0495 -0.2518 -0.0524
 4310SOL    HW124389   2.659   2.591   9.039  0.9252  0.0548 -0.3645
 4310SOL    HW224390   2.573   2.704   9.069 -0.1772 -2.1190  0.7972
 4311SOL     OW24391   0.496   1.339   3.858  0.1154  0.1741 -0.8081
 4311SOL    HW124392   0.487   1.332   3.953  0.1144  1.6681 -0.6986
 4311SOL    HW224393   0.570   1.399   3.853 -0.3935  0.5958 -3.0389
 4312SOL     OW24394   2.667   0.959  12.025 -0.1714 -0.0442 -0.0411
 4312SOL    HW124395   2.731   0.890  12.041 -0.0707 -0.1738 -1.0107
 4312SOL    HW224396   2.627   0.923  11.946 -0.6485  0.0054  0.1804
 4313SOL     OW24397   2.751   0.397   7.933 -0.1387  0.1429  0.8335
 4313SOL    HW124398   2.694   0.446   7.992 -0.6739  0.3454  0.1412
 4313SOL    HW224399   2.835   0.391   7.980 -1.1249  1.9434  2.7864
 4314SOL     OW24400   2.104   4.164   5.749  1.0572 -0.5092  0.0020
 4314SOL    HW124401   2.054   4.234   5.707  0.6295 -1.5493 -1.2246
 4314SOL    HW224402   2.184   4.164   5.697  0.3413  0.3636 -1.0930
 4315SOL     OW24403   1.347   2.385   7.516 -0.0794 -0.5372 -0.6275
 4315SOL    HW124404   1.389   2.457   7.469 -1.2834  0.8254  0.3598
 4315SOL    HW224405   1.326   2.443   7.589  3.5354  1.2603 -1.0088
 4316SOL     OW24406   3.769   2.786   2.811 -0.3922 -0.0719 -0.0540
 4316SOL    HW124407   3.729   2.869   2.784  1.4854  0.2240 -1.9660
 4316SOL    HW224408   3.846   2.806   2.864  0.4102  0.6268 -1.4632
 4317SOL     OW24409   2.413   4.185  14.484  0.0930  0.0458  0.6176
 4317SOL    HW124410   2.419   4.162  14.391 -1.8532 -2.7415  1.2021
 4317SOL    HW224411   2.502   4.170  14.516  0.4386  0.8699  0.0495
 4318SOL     OW24412   0.060   2.706   7.496  0.5540  0.0397 -0.3365
 4318SOL    HW124413   0.073   2.639   7.564 -0.4055  0.4616  0.2646
 4318SOL    HW224414   0.143   2.693   7.450  0.4326 -1.4035 -0.1415
 4319SOL     OW24415   2.243   0.301   6.180 -0.1636  0.9524  0.5482
 4319SOL    HW124416   2.278   0.214   6.161  0.3717  1.3793 -0.4244
 4319SOL    HW224417   2.302   0.345   6.120 -0.4031 -0.0632 -0.4455
 4320SOL     OW24418   0.961   3.727  10.533 -0.0058 -0.0441  0.0617
 4320SOL    HW124419   1.026   3.679  10.483 -0.3633 -1.1829  0.7000
 4320SOL    HW224420   0.985   3.682  10.614  0.2341 -1.7433 -0.9623
 4321SOL     OW24421   1.485   1.033  13.862 -0.8485  0.1565 -0.1826
 4321SOL    HW124422   1.528   0.948  13.857 -0.5288  0.2323  1.2016
 4321SOL    HW224423   1.426   1.017  13.935 -0.7657 -0.3417 -0.2271
 4322SOL     OW24424   0.531   1.258  11.945  0.5752  0.2766  0.6454
 4322SOL    HW124425   0.456   1.308  11.978 -1.3812 -1.5262 -1.0917
 4322SOL    HW224426   0.570   1.324  11.888 -0.7812  0.5424  0.0361
 4323SOL     OW24427   3.395   2.303   0.752 -0.1173 -0.3896 -0.0826
 4323SOL    HW124428   3.407   2.392   0.786 -2.2044 -0.4892  0.9112
 4323SOL    HW224429   3.339   2.321   0.676 -0.2558 -1.6463 -0.2672
 4324SOL     OW24430   0.394   0.381   3.970 -0.0214  0.6353 -0.4305
 4324SOL    HW124431   0.444   0.354   3.893  0.2409 -1.7181  0.5733
 4324SOL    HW224432   0.463   0.423   4.022 -0.1729 -0.1922  0.4395
 4325SOL     OW24433   3.478   1.950   0.981  0.7556  0.1170 -1.0946
 4325SOL    HW124434   3.438   1.871   1.017 -0.0276 -0.4521 -3.2357
 4325SOL    HW224435   3.507   1.999   1.059  0.4066 -1.7305  0.1845
 4326SOL     OW24436   2.636   0.576   5.722 -0.1458  0.0488 -0.2919
 4326SOL    HW124437   2.651   0.481   5.729  0.3748  0.4715  4.3893
 4326SOL    HW224438   2.714   0.597   5.671  1.2913 -0.5709  1.5962
 4327SOL     OW24439   0.766   2.302  15.979 -0.1588  0.5245  0.0600
 4327SOL    HW124440   0.861   2.301  15.983 -0.1829 -2.0418  0.3871
 4327SOL    HW224441   0.759   2.383  15.930  1.1304 -0.0869 -1.1181
 4328SOL     OW24442   1.820   4.364   2.470  0.2709  0.3751 -0.3213
 4328SOL    HW124443   1.732   4.401   2.481  0.4543  0.4714  0.8656
 4328SOL    HW224444   1.850   4.450   2.440  1.3021 -0.4615 -1.6572
 4329SOL     OW24445   0.993   2.736   6.961 -0.0325  0.2012  0.4963
 4329SOL    HW124446   1.070   2.781   6.994  0.3904 -0.4172  0.3530
 4329SOL    HW224447   1.037   2.691   6.888 -0.9654 -0.2662  0.2094
 4330SOL     OW24448   1.982   2.572   2.571  0.4049  0.1220  0.2783
 4330SOL    HW124449   2.049   2.528   2.519  1.8388  4.3602 -1.4466
 4330SOL    HW224450   2.003   2.664   2.555  0.6348  0.2536  1.3155
 4331SOL     OW24451   1.102   4.585   7.696  0.0064 -0.5789 -0.0436
 4331SOL    HW124452   1.109   4.504   7.745 -0.8271  1.4896  3.5364
 4331SOL    HW224453   1.189   4.598   7.659  0.0348  0.5812  0.3983
 4332SOL     OW24454   0.992   3.449   4.213  0.0383 -0.8689  0.0601
 4332SOL    HW124455   1.082   3.417   4.203  0.1690 -0.5335  0.1661
 4332SOL    HW224456   0.992   3.510   4.139  1.3829 -0.2246  0.6034
 4333SOL     OW24457   0.390   4.299  11.535 -1.0504  0.5442 -0.1516
 4333SOL    HW124458   0.442   4.339  11.465  1.1022  2.4823  2.6131
 4333SOL    HW224459   0.307   4.343  11.518 -1.2268 -0.0421 -0.8586
 4334SOL     OW24460   3.083   4.587  11.673  0.3257  0.2106 -0.2159
 4334SOL    HW124461   3.172   4.590  11.637  0.5951 -0.0428  0.4252
 4334SOL    HW224462   3.037   4.646  11.614 -1.9259  0.0608  1.4044
 4335SOL     OW24463   4.576   4.684  14.941  0.1625 -0.0962 -0.1881
 4335SOL    HW124464   4.486   4.714  14.928 -0.0871  0.4115  2.6815
 4335SOL    HW224465   4.560   4.642  15.025 -2.4657 -0.3751 -0.8279
 4336SOL     OW24466   4.210   4.308   0.823  0.3950  0.0999  0.2125
 4336SOL    HW124467   4.257   4.380   0.782  0.0359 -1.1925 -2.4199
 4336SOL    HW224468   4.157   4.275   0.751  1.1598  0.4889 -0.5264
 4337SOL     OW24469   1.748   2.756   7.321 -0.6930  0.4249  0.2084
 4337SOL    HW124470   1.838   2.725   7.332 -1.3325 -0.6385  2.3719
 4337SOL    HW224471   1.739   2.843   7.360 -1.8265 -1.0439  3.1850
 4338SOL     OW24472   3.935   4.250   3.669 -0.2053 -0.1639 -0.0786
 4338SOL    HW124473   3.966   4.175   3.619  0.3335 -1.0246  1.5578
 4338SOL    HW224474   3.840   4.239   3.670  0.0362 -2.3135 -1.2021
 4339SOL     OW24475   3.385   3.944   4.008  0.2855 -0.2416 -0.7553
 4339SOL    HW124476   3.315   3.950   4.074  1.7822 -1.2587  0.9243
 4339SOL    HW224477   3.374   4.033   3.976 -0.0378  0.6086  1.7102
 4340SOL     OW24478   3.709   3.165   7.783  0.1522  0.3781  0.2584
 4340SOL    HW124479   3.678   3.191   7.870 -3.7026 -1.0274 -0.6788
 4340SOL    HW224480   3.691   3.243   7.731  1.8491  0.7162  0.1853
 4341SOL     OW24481   2.982   4.444   3.504 -0.1860 -0.0833 -0.4184
 4341SOL    HW124482   2.975   4.456   3.599 -2.2530 -0.7287 -0.4833
 4341SOL    HW224483   2.898   4.483   3.480 -0.2854  0.5967  1.0225
 4342SOL     OW24484   4.135   2.618  15.819 -0.3434  0.6996  0.2246
 4342SOL    HW124485   4.193   2.563  15.765 -1.0581  0.7053 -0.5571
 4342SOL    HW224486   4.089   2.664  15.748  0.8827 -0.9142 -1.6236
 4343SOL     OW24487   2.948   3.731  12.408  0.3766 -0.4330 -0.8416
 4343SOL    HW124488   2.891   3.662  12.373  0.7633 -0.2177 -1.9095
 4343SOL    HW224489   2.951   3.704  12.499 -2.1105  1.4049 -0.2161
 4344SOL     OW24490   3.348   0.548   3.444 -0.1157 -0.2639  0.4087
 4344SOL    HW124491   3.353   0.482   3.514  0.6089  1.8261  2.3338
 4344SOL    HW224492   3.304   0.621   3.487 -0.0248 -0.1836  0.3664
 4345SOL     OW24493   1.793   1.561   0.891 -0.1381 -0.1437  0.5559
 4345SOL    HW124494   1.752   1.639   0.927  1.6259  0.1034  2.0187
 4345SOL    HW224495   1.810   1.600   0.805 -3.1151 -0.1259 -0.0126
 4346SOL     OW24496   1.604   1.331   1.933 -0.3030 -0.5887 -0.0751
 4346SOL    HW124497   1.558   1.262   1.982 -0.1153 -1.0955 -0.6187
 4346SOL    HW224498   1.541   1.403   1.929 -0.3879 -0.7412 -1.6376
 4347SOL     OW24499   3.981   0.519   5.388  0.0986  0.3758  0.1692
 4347SOL    HW124500   4.043   0.456   5.349 -0.6471 -1.1775  1.4705
 4347SOL    HW224501   4.035   0.569   5.450  0.5026 -0.9113  0.8614
 4348SOL     OW24502   0.983   4.225  15.152 -0.5822 -0.5139  0.0993
 4348SOL    HW124503   1.014   4.193  15.067  0.3401  0.6757 -0.0288
 4348SOL    HW224504   1.065   4.267  15.182 -0.6356 -0.3186 -0.0275
 4349SOL     OW24505   3.169   2.858   4.143  0.6671 -0.1204 -0.2190
 4349SOL    HW124506   3.134   2.850   4.232 -0.4012 -0.0598 -0.6442
 4349SOL    HW224507   3.258   2.893   4.155  0.7416 -0.6068  0.7041
 4350SOL     OW24508   2.688   3.175   5.118 -0.3541 -0.1201  0.3139
 4350SOL    HW124509   2.765   3.217   5.079 -0.0886  0.1790  1.1675
 4350SOL    HW224510   2.722   3.111   5.180 -0.1109 -0.8863 -0.6169
 4351SOL     OW24511   4.304   1.899   2.188  0.0267  0.0712  0.4408
 4351SOL    HW124512   4.281   1.941   2.105 -0.0319 -1.2678 -0.2132
 4351SOL    HW224513   4.362   1.826   2.168 -1.3047 -1.9159  3.9972
 4352SOL     OW24514   3.693   3.404   7.690 -0.6097  0.3872 -0.1423
 4352SOL    HW124515   3.709   3.493   7.658  2.3970  0.3992  1.3370
 4352SOL    HW224516   3.606   3.406   7.730 -0.9705 -0.6887 -0.8728
 4353SOL     OW24517   0.216   0.571   5.909 -0.0543  0.5399 -0.3843
 4353SOL    HW124518   0.192   0.662   5.930 -0.3896  0.4462 -0.3611
 4353SOL    HW224519   0.311   0.564   5.913 -0.0210  0.0806 -2.1411
 4354SOL     OW24520   0.778   2.870  17.565 -0.6162  0.0636 -0.7716
 4354SOL    HW124521   0.716   2.942  17.577  0.5908  0.7789  1.1312
 4354SOL    HW224522   0.725   2.797  17.598 -0.7296 -0.2739 -1.7102
 4355SOL     OW24523   2.692   1.808   4.080  0.1434  0.5745  0.4373
 4355SOL    HW124524   2.765   1.797   4.142  1.0983 -0.7357 -0.9142
 4355SOL    HW224525   2.736   1.846   4.004  0.0733 -0.4489 -0.1137
 4356SOL     OW24526   0.232   3.543   1.388 -0.1522  0.2374 -0.3539
 4356SOL    HW124527   0.164   3.500   1.440 -0.1872 -0.1107 -0.6842
 4356SOL    HW224528   0.187   3.622   1.359  2.5420  1.9788  0.2607
 4357SOL     OW24529   1.295   0.819   9.836 -0.1787 -0.2779  0.2899
 4357SOL    HW124530   1.256   0.744   9.792 -1.0610  1.3037 -1.6210
 4357SOL    HW224531   1.379   0.778   9.854 -0.6777  0.3576  4.0888
 4358SOL     OW24532   3.541   0.106  14.854  0.0710  0.0968 -0.0856
 4358SOL    HW124533   3.503   0.182  14.896  2.0199  1.8632 -1.4974
 4358SOL    HW224534   3.630   0.141  14.859  0.0983  0.2587 -1.5936
 4359SOL     OW24535   0.900   1.318   4.360 -0.0907  0.4290  0.7834
 4359SOL    HW124536   0.865   1.406   4.371 -0.4975  0.3655 -0.0007
 4359SOL    HW224537   0.988   1.328   4.323  0.1011  1.3979  1.5113
 4360SOL     OW24538   4.490   3.245   8.698  0.2952 -0.1921 -0.2676
 4360SOL    HW124539   4.448   3.301   8.764  0.5922 -1.9112  1.3425
 4360SOL    HW224540   4.571   3.227   8.744 -0.6155 -0.7574  1.1131
 4361SOL     OW24541   2.983   1.470  11.477 -0.1575  0.1948 -0.4580
 4361SOL    HW124542   3.049   1.489  11.543  0.2942 -0.0152 -0.8471
 4361SOL    HW224543   2.962   1.381  11.506 -1.4340  0.7210  0.2011
 4362SOL     OW24544   1.877   0.774  14.380 -0.3690  0.0785 -0.2013
 4362SOL    HW124545   1.877   0.744  14.471 -1.7077  1.1365  0.1510
 4362SOL    HW224546   1.821   0.851  14.390 -1.8242 -0.9580 -0.3822
 4363SOL     OW24547   0.607   4.060  17.139  0.5432  0.3959 -0.7393
 4363SOL    HW124548   0.549   3.995  17.100  0.8092 -1.9095  2.6697
 4363SOL    HW224549   0.579   4.132  17.083 -0.4763 -1.4272 -2.5636
 4364SOL     OW24550   0.293   3.408   2.683  0.8177  0.8876  0.4338
 4364SOL    HW124551   0.323   3.477   2.742  1.9110  0.6376  0.1566
 4364SOL    HW224552   0.370   3.394   2.628 -0.5833 -0.1402 -1.2677
 4365SOL     OW24553   3.062   3.869   2.643 -0.2894 -0.0035  0.4547
 4365SOL    HW124554   2.998   3.937   2.667  0.0899  0.7460 -0.6460
 4365SOL    HW224555   3.007   3.793   2.662  0.9168 -0.7037  1.1672
 4366SOL     OW24556   1.783   3.870  10.688  0.0361  0.2975 -0.1400
 4366SOL    HW124557   1.809   3.778  10.692  3.7932  1.3747 -0.2707
 4366SOL    HW224558   1.733   3.869  10.769  0.9231 -2.1369  0.3622
 4367SOL     OW24559   3.827   0.194   8.828 -0.3952  0.3531 -0.5514
 4367SOL    HW124560   3.812   0.106   8.862  2.4508 -0.1565 -0.6157
 4367SOL    HW224561   3.910   0.174   8.785  0.0025 -0.3009  0.5432
 4368SOL     OW24562   2.728   0.778   6.408 -0.6668  0.4019 -0.0675
 4368SOL    HW124563   2.649   0.805   6.455 -0.9403  1.1283 -0.9529
 4368SOL    HW224564   2.789   0.851   6.417  1.9919 -1.6584 -1.3996
 4369SOL     OW24565   0.250   2.938   5.915  0.4206 -0.1484  0.3001
 4369SOL    HW124566   0.323   2.975   5.963  2.9308 -2.0252 -2.0587
 4369SOL    HW224567   0.258   2.844   5.932  0.5332 -0.1207  0.3995
 4370SOL     OW24568   1.409   1.445   5.145 -0.1412 -0.2553  0.0107
 4370SOL    HW124569   1.351   1.508   5.101 -1.7042 -0.0591  2.3620
 4370SOL    HW224570   1.484   1.503   5.163  2.4368 -4.2047  1.8542
 4371SOL     OW24571   4.395   2.586  12.796  0.3493  0.2121  0.6168
 4371SOL    HW124572   4.359   2.581  12.885 -1.4519  0.7551 -0.0833
 4371SOL    HW224573   4.356   2.512  12.749 -0.8802 -0.5300  2.7812
 4372SOL     OW24574   0.673   3.184   5.291  0.0011 -0.0201 -0.2810
 4372SOL    HW124575   0.650   3.186   5.198  1.3872  2.0082 -0.5903
 4372SOL    HW224576   0.587   3.217   5.316  0.2250  0.5721 -0.2735
 4373SOL     OW24577   4.105   3.562   7.638  0.1150  0.2684  0.1717
 4373SOL    HW124578   4.033   3.623   7.652  0.3262  0.3804  0.7713
 4373SOL    HW224579   4.057   3.488   7.601 -0.9318  0.6971  0.7063
 4374SOL     OW24580   4.243   3.764   7.958  0.0738  0.3726 -0.3493
 4374SOL    HW124581   4.183   3.713   8.012  0.2795  2.0865  1.4822
 4374SOL    HW224582   4.198   3.771   7.874  0.3170  1.8478 -0.3522
 4375SOL     OW24583   4.653   0.145   8.801 -0.0736 -0.2353  0.6806
 4375SOL    HW124584   4.702   0.072   8.839  0.2646 -0.7582 -0.7760
 4375SOL    HW224585   4.564   0.123   8.830 -0.0676 -2.3199 -0.8202
 4376SOL     OW24586   4.100   3.949  11.403 -0.0774  0.6922 -0.0534
 4376SOL    HW124587   4.065   3.910  11.484 -0.3995  1.7086  0.2963
 4376SOL    HW224588   4.154   3.871  11.388 -1.6670 -0.6575  1.1759
 4377SOL     OW24589   3.168   0.205   1.730  0.4221  0.1147 -0.4731
 4377SOL    HW124590   3.156   0.137   1.664  1.3706  1.2781 -1.8429
 4377SOL    HW224591   3.155   0.277   1.669 -1.3458  1.4412  1.4960
 4378SOL     OW24592   3.898   4.619   8.430 -0.8383 -0.0524  0.5254
 4378SOL    HW124593   3.981   4.667   8.428 -0.8587 -0.0057  0.7107
 4378SOL    HW224594   3.908   4.546   8.370  1.0257  0.3647  0.3378
 4379SOL     OW24595   1.139   2.549  11.160 -0.5252 -0.5861 -0.3207
 4379SOL    HW124596   1.119   2.640  11.137 -0.6504 -0.5167  0.0626
 4379SOL    HW224597   1.191   2.551  11.240  0.8498 -3.4673 -1.1351
 4380SOL     OW24598   1.143   4.323   7.836 -0.4578 -0.3749  0.4615
 4380SOL    HW124599   1.180   4.256   7.779 -0.4835  0.0791 -0.0915
 4380SOL    HW224600   1.049   4.320   7.816 -0.4782 -1.3065  0.6973
 4381SOL     OW24601   3.133   0.882   7.609  0.5363 -0.3090  0.0495
 4381SOL    HW124602   3.039   0.875   7.590  0.4019  0.7797  0.3181
 4381SOL    HW224603   3.153   0.789   7.616 -0.3172 -0.3985  1.2731
 4382SOL     OW24604   3.475   3.387   2.481 -0.1746 -0.1185  0.2397
 4382SOL    HW124605   3.555   3.420   2.520 -0.4463  0.6525  0.1497
 4382SOL    HW224606   3.428   3.366   2.562  0.0995 -0.8300  0.2102
 4383SOL     OW24607   2.481   0.870   1.730  0.5221 -0.4037 -0.1229
 4383SOL    HW124608   2.421   0.888   1.658  0.1569 -2.2462 -0.2821
 4383SOL    HW224609   2.502   0.956   1.765 -1.0394  0.1826 -0.6353
 4384SOL     OW24610   1.689   1.400   7.600 -0.3250  0.2801  0.3032
 4384SOL    HW124611   1.765   1.441   7.641  0.6833 -1.2545 -0.0193
 4384SOL    HW224612   1.714   1.311   7.575 -0.5597  0.9298 -2.2870
 4385SOL     OW24613   1.049   0.922   7.043  0.1487 -0.6251 -0.0764
 4385SOL    HW124614   1.044   1.015   7.064  2.3544 -1.1979  2.8732
 4385SOL    HW224615   0.957   0.898   7.059  0.6185 -2.2116  0.2380
 4386SOL     OW24616   3.866   4.175   0.960 -0.1335  0.4312  0.6734
 4386SOL    HW124617   3.864   4.271   0.954  0.3033  0.3189 -1.2654
 4386SOL    HW224618   3.801   4.163   0.891  1.1397  0.1421 -0.4787
 4387SOL     OW24619   1.952   4.484  13.508 -0.1163  0.7496 -0.2688
 4387SOL    HW124620   2.045   4.468  13.490  0.8736  2.1449  3.7048
 4387SOL    HW224621   1.925   4.392  13.508  0.6261  0.5340 -1.6440
 4388SOL     OW24622   0.026   0.907   4.792  0.5711  0.2655  0.3970
 4388SOL    HW124623   4.696   0.972   4.839 -0.5021 -0.7674  0.6297
 4388SOL    HW224624   0.085   0.875   4.861  1.1395  0.1346 -0.1494
 4389SOL     OW24625   4.571   0.015  17.522 -0.4443 -0.3937 -0.8060
 4389SOL    HW124626   4.601   4.673  17.587 -0.3636  1.0919  0.6355
 4389SOL    HW224627   4.604   4.696  17.442 -0.6064 -0.5791 -0.7769
 4390SOL     OW24628   3.447   0.904   4.289 -0.1289  0.2266  0.1254
 4390SOL    HW124629   3.420   0.812   4.292 -0.8876  0.4226 -0.8411
 4390SOL    HW224630   3.533   0.900   4.247  0.0532 -1.6228  0.6564
 4391SOL     OW24631   1.552   1.943   3.796 -0.3195 -0.5459  0.5011
 4391SOL    HW124632   1.512   1.857   3.784  2.9897 -1.8784 -1.1071
 4391SOL    HW224633   1.547   1.950   3.891  0.2765 -1.3494  0.5917
 4392SOL     OW24634   2.237   0.886  12.581  0.2972 -0.9224  0.2437
 4392SOL    HW124635   2.230   0.969  12.534 -3.3251 -0.0089  2.3309
 4392SOL    HW224636   2.180   0.901  12.656 -1.0612 -3.3091 -0.3000
 4393SOL     OW24637   0.851   2.648   3.119 -0.6357  0.0814 -0.2175
 4393SOL    HW124638   0.819   2.557   3.113  5.2425 -1.9351 -1.1204
 4393SOL    HW224639   0.769   2.691   3.095 -1.7045 -1.6805  0.2270
 4394SOL     OW24640   2.140   4.502  16.338 -0.5316  0.3624  0.0971
 4394SOL    HW124641   2.095   4.425  16.373 -0.4048  0.6296  0.8612
 4394SOL    HW224642   2.077   4.529  16.272 -0.5082 -1.3598 -0.6257
 4395SOL     OW24643   2.489   2.024  16.107 -0.1042 -0.1503 -0.1841
 4395SOL    HW124644   2.486   2.022  16.203  1.4997 -0.1762 -0.1301
 4395SOL    HW224645   2.546   2.098  16.085  1.5563 -1.3121  0.1515
 4396SOL     OW24646   0.086   4.203   8.308 -0.1818  0.6738  0.5706
 4396SOL    HW124647   0.062   4.186   8.217 -0.5937 -0.1480  0.8310
 4396SOL    HW224648   0.131   4.287   8.299  0.9957  0.1366  1.4840
 4397SOL     OW24649   2.300   2.464   1.804  0.2145  0.5480 -0.0673
 4397SOL    HW124650   2.385   2.507   1.811 -0.2314  0.9268  3.2205
 4397SOL    HW224651   2.259   2.501   1.882 -0.5399 -1.0738  0.3158
 4398SOL     OW24652   1.201   3.313  16.478  0.2629  0.2182  0.5784
 4398SOL    HW124653   1.249   3.232  16.465  1.6350  1.5944 -2.7289
 4398SOL    HW224654   1.116   3.281  16.508  0.9710  0.0864  2.4574
 4399SOL     OW24655   0.800   3.607   5.808 -0.0923 -0.4749  0.1678
 4399SOL    HW124656   0.861   3.539   5.836  1.0769  0.2639 -0.5948
 4399SOL    HW224657   0.824   3.616   5.716 -1.2550  2.8078  0.1910
 4400SOL     OW24658   1.207   2.408   1.134  0.6238  0.0187 -0.0444
 4400SOL    HW124659   1.284   2.460   1.113  1.0017 -0.0937  1.0392
 4400SOL    HW224660   1.171   2.466   1.201 -0.8256  0.6997 -1.4568
 4401SOL     OW24661   0.982   3.623   3.045  0.0312  1.2510 -0.2417
 4401SOL    HW124662   0.889   3.623   3.025  0.1753  2.6215 -0.9264
 4401SOL    HW224663   1.006   3.539   3.004 -0.0163  0.5817  1.0879
 4402SOL     OW24664   3.921   2.084   3.599  0.5534 -0.6447  0.1020
 4402SOL    HW124665   3.844   2.071   3.543  0.1415  0.9549  0.2899
 4402SOL    HW224666   3.998   2.079   3.543  0.1238 -1.3660 -0.4238
 4403SOL     OW24667   1.826   1.629   7.276 -0.0231  0.5641  0.1135
 4403SOL    HW124668   1.831   1.685   7.353  1.6878  1.2126 -0.4691
 4403SOL    HW224669   1.890   1.563   7.304 -0.6660 -0.2873 -0.4131
 4404SOL     OW24670   3.500   3.908  13.822 -0.0563  0.3780 -0.7392
 4404SOL    HW124671   3.464   3.971  13.759  0.4107  0.0200 -1.3684
 4404SOL    HW224672   3.429   3.849  13.849  0.1898 -0.1251 -1.1885
 4405SOL     OW24673   0.297   2.504   5.497 -0.5760  0.3707 -0.0409
 4405SOL    HW124674   0.342   2.429   5.456 -1.4157  0.4105 -1.0274
 4405SOL    HW224675   0.211   2.498   5.455 -0.8174  1.3631  0.3358
 4406SOL     OW24676   4.720   4.022  16.851 -0.2654 -0.1773 -0.5092
 4406SOL    HW124677   0.008   4.105  16.805 -0.6262  0.1307 -0.0365
 4406SOL    HW224678   0.035   3.966  16.783 -2.0934  0.7098 -2.2772
 4407SOL     OW24679   4.557   1.547  15.377 -0.1828  0.0994 -0.7893
 4407SOL    HW124680   4.603   1.486  15.435  0.7616 -0.9011 -2.5889
 4407SOL    HW224681   4.590   1.632  15.407 -0.8296 -0.6989  2.2051
 4408SOL     OW24682   2.258   4.649   7.437 -0.4382 -0.2489 -0.1558
 4408SOL    HW124683   2.203   4.633   7.360 -3.1661  1.2441  1.4680
 4408SOL    HW224684   2.293   4.561   7.451  0.0044  0.2566  1.8746
 4409SOL     OW24685   1.281   2.673   1.068 -0.1752 -0.1588 -0.7256
 4409SOL    HW124686   1.247   2.703   1.152 -1.8921 -0.3374 -1.3384
 4409SOL    HW224687   1.200   2.640   1.028 -2.0614  2.6197  0.7555
 4410SOL     OW24688   1.493   1.688   2.848  0.3202  0.3826  0.6558
 4410SOL    HW124689   1.455   1.600   2.843  0.9624  0.2024 -1.2270
 4410SOL    HW224690   1.409   1.732   2.835 -1.1491 -2.5260  0.2728
 4411SOL     OW24691   4.137   1.253  11.643 -0.0904 -0.2931  0.2386
 4411SOL    HW124692   4.158   1.177  11.697  0.3754 -0.5170 -0.2588
 4411SOL    HW224693   4.056   1.221  11.602 -0.5383  1.4169 -0.1983
 4412SOL     OW24694   3.344   1.952  12.997  0.0199 -0.0290  0.0807
 4412SOL    HW124695   3.426   1.945  13.046  0.9757  0.3248 -1.4624
 4412SOL    HW224696   3.382   1.943  12.909  0.9904  1.4563  0.3561
 4413SOL     OW24697   3.294   1.412  12.344 -0.1689 -0.0463 -0.4745
 4413SOL    HW124698   3.274   1.321  12.325 -0.6663  0.3351 -1.8102
 4413SOL    HW224699   3.259   1.460  12.268 -0.2801  1.2336  0.3849
 4414SOL     OW24700   0.599   2.498  12.584  0.0515  0.6246 -0.4084
 4414SOL    HW124701   0.559   2.419  12.622  1.2384  0.4196  0.4115
 4414SOL    HW224702   0.693   2.478  12.585 -0.0630 -0.0210 -2.4414
 4415SOL     OW24703   4.685   3.869   3.493 -0.7245 -0.3310 -0.1035
 4415SOL    HW124704   0.058   3.876   3.497 -0.9293  1.8623  0.9736
 4415SOL    HW224705   4.676   3.774   3.500  1.4569 -0.2946  3.0460
 4416SOL     OW24706   1.932   0.172   8.901 -0.1934  0.3926 -0.0001
 4416SOL    HW124707   1.901   0.256   8.866  1.2981  0.8850 -0.1426
 4416SOL    HW224708   1.875   0.115   8.849 -0.0235  1.8062 -1.7357
 4417SOL     OW24709   4.690   1.333   4.819 -0.3687 -0.3144 -0.0390
 4417SOL    HW124710   4.708   1.330   4.725  0.9204  1.0643  0.1687
 4417SOL    HW224711   0.053   1.320   4.859 -0.0247  2.7475  0.2153
 4418SOL     OW24712   3.256   3.050   9.264 -0.2024 -0.2603 -0.1253
 4418SOL    HW124713   3.278   3.104   9.188  1.2854 -0.9403 -0.1841
 4418SOL    HW224714   3.253   2.958   9.238  1.5060 -0.6392  0.9968
 4419SOL     OW24715   4.550   0.515   8.825  0.5314 -0.4907  0.1074
 4419SOL    HW124716   4.479   0.519   8.761  0.7516  1.5962  0.0157
 4419SOL    HW224717   4.612   0.454   8.782  0.7628  0.2522 -0.6104
 4420SOL     OW24718   4.317   1.064  12.132 -0.1702 -0.0877 -0.1519
 4420SOL    HW124719   4.379   1.123  12.175  0.6243 -0.9511 -0.1246
 4420SOL    HW224720   4.373   0.988  12.119  0.9380  0.7766 -0.3922
 4421SOL     OW24721   4.591   1.348   3.744 -0.4836 -0.2680 -0.0885
 4421SOL    HW124722   4.675   1.351   3.790 -1.9389 -0.7097  2.5650
 4421SOL    HW224723   4.603   1.262   3.705  2.4729  0.0038  0.2174
 4422SOL     OW24724   1.051   2.860   7.635  0.2624  0.3621 -0.4561
 4422SOL    HW124725   1.004   2.779   7.615 -0.4855  1.1270 -1.8334
 4422SOL    HW224726   1.060   2.895   7.546  0.7098  1.8599  0.1814
 4423SOL     OW24727   2.978   3.978   3.349 -0.0983  0.2305 -0.1688
 4423SOL    HW124728   3.052   3.949   3.402  0.2682  2.1117  0.3383
 4423SOL    HW224729   3.015   3.982   3.261 -0.3338 -0.7654 -0.3095
 4424SOL     OW24730   2.219   4.502   6.494 -0.0411 -0.0172  0.5265
 4424SOL    HW124731   2.152   4.455   6.444  1.6805 -1.8548 -0.0577
 4424SOL    HW224732   2.186   4.496   6.583 -0.0021 -0.5654  0.5050
 4425SOL     OW24733   3.245   1.924  15.958  0.0577 -0.3665  0.5510
 4425SOL    HW124734   3.187   1.941  15.883 -0.1906 -2.6249  0.2063
 4425SOL    HW224735   3.191   1.943  16.034 -0.5962 -3.6844  0.9338
 4426SOL     OW24736   2.603   3.127  15.183 -0.6404 -0.1066 -0.0152
 4426SOL    HW124737   2.579   3.046  15.138 -0.0786 -1.2314  1.7156
 4426SOL    HW224738   2.609   3.184  15.106 -2.0728  0.1765  0.0683
 4427SOL     OW24739   3.206   4.233   4.250 -0.1078  0.1899 -0.4528
 4427SOL    HW124740   3.147   4.208   4.321  0.7253  0.1934  0.2386
 4427SOL    HW224741   3.282   4.248   4.305  0.8271 -0.8651 -1.4484
 4428SOL     OW24742   3.643   3.413  12.470  0.4982 -0.5764 -0.7859
 4428SOL    HW124743   3.624   3.397  12.378 -0.2352  0.1301 -0.7560
 4428SOL    HW224744   3.735   3.438  12.457  0.7199 -0.9124  0.1335
 4429SOL     OW24745   4.530   3.599   0.531 -0.0968  0.4768  0.0767
 4429SOL    HW124746   4.504   3.691   0.537  0.0303  0.4021  1.6382
 4429SOL    HW224747   4.533   3.580   0.624  0.7899  2.0373  0.3679
 4430SOL     OW24748   3.498   0.065   2.708  0.2351  0.4897  0.5442
 4430SOL    HW124749   3.409   0.080   2.741 -0.1365  0.4029 -0.4284
 4430SOL    HW224750   3.506   0.139   2.648  1.6831  0.4288  0.6464
 4431SOL     OW24751   4.623   2.204   5.657  0.3691 -0.2637 -0.1357
 4431SOL    HW124752   4.669   2.149   5.721  0.2634  0.2116  0.3478
 4431SOL    HW224753   4.556   2.237   5.717 -1.1297 -1.2120 -1.2891
 4432SOL     OW24754   3.679   2.396  15.606  0.6894  0.9365 -0.5852
 4432SOL    HW124755   3.630   2.338  15.664  0.5665  1.4942 -0.1314
 4432SOL    HW224756   3.763   2.382  15.648 -1.1889 -1.1309  2.4103
 4433SOL     OW24757   1.886   1.542   0.613 -0.5299 -0.2418  0.0933
 4433SOL    HW124758   1.959   1.486   0.587 -0.6251  0.0633 -0.8296
 4433SOL    HW224759   1.862   1.580   0.529 -1.6159 -1.1060  0.0167
 4434SOL     OW24760   3.746   4.330   6.146 -0.8073  0.2907 -0.5161
 4434SOL    HW124761   3.816   4.290   6.198  0.1399  3.5167  0.7098
 4434SOL    HW224762   3.768   4.306   6.057  1.1345 -1.9124  0.5668
 4435SOL     OW24763   3.672   0.432  17.428  0.0336  0.1456 -0.0649
 4435SOL    HW124764   3.748   0.385  17.461 -0.7345  0.2561  1.8884
 4435SOL    HW224765   3.688   0.523  17.454  0.5279 -0.7238  2.6214
 4436SOL     OW24766   4.624   2.515   7.324  0.2331 -0.3983 -0.2369
 4436SOL    HW124767   4.693   2.450   7.338  1.5052  0.8522 -0.7843
 4436SOL    HW224768   4.667   2.595   7.352  2.1711 -1.3844 -0.4016
 4437SOL     OW24769   0.027   3.572   1.187 -0.0644 -0.5373 -0.5665
 4437SOL    HW124770   4.665   3.614   1.203  0.2756  0.1774 -0.6541
 4437SOL    HW224771   0.018   3.481   1.218 -0.5743 -1.0729 -2.2721
 4438SOL     OW24772   0.216   1.063   6.788  0.2341  0.1972  0.1521
 4438SOL    HW124773   0.292   1.055   6.846  1.8386 -0.3149 -2.0176
 4438SOL    HW224774   0.210   1.158   6.777 -1.5711  0.1837  1.1069
 4439SOL     OW24775   2.525   0.258   7.355 -0.3626  0.2663 -0.0390
 4439SOL    HW124776   2.432   0.238   7.366 -0.3527 -1.1275 -2.3053
 4439SOL    HW224777   2.517   0.306   7.273  1.5702 -1.8570 -1.4805
 4440SOL     OW24778   1.839   0.728   6.682  0.5136 -0.0432  0.5680
 4440SOL    HW124779   1.883   0.726   6.597  0.0671  1.2517  0.3060
 4440SOL    HW224780   1.905   0.706   6.748  1.1279  0.3488  0.0908
 4441SOL     OW24781   4.408   1.551   2.175 -0.2940  0.0108  0.2577
 4441SOL    HW124782   4.325   1.506   2.189 -0.0525 -0.2746  0.7531
 4441SOL    HW224783   4.389   1.593   2.091  1.6633  2.3691  0.9907
 4442SOL     OW24784   2.307   2.951  13.476  0.1565 -0.0352  0.2143
 4442SOL    HW124785   2.331   2.866  13.514  1.8389  0.9467  1.3396
 4442SOL    HW224786   2.245   2.973  13.545 -0.5850  1.0789 -0.8329
 4443SOL     OW24787   2.135   3.426  10.557  0.2703  0.2042 -0.3881
 4443SOL    HW124788   2.089   3.439  10.474 -0.8262 -0.7025  0.0813
 4443SOL    HW224789   2.075   3.369  10.605 -0.3624  1.7468  0.6679
 4444SOL     OW24790   3.925   2.782  10.461 -0.0983  0.1332 -0.1316
 4444SOL    HW124791   3.994   2.847  10.447  1.4273 -1.4395  0.1228
 4444SOL    HW224792   3.851   2.843  10.468  0.6988  1.1728 -0.7343
 4445SOL     OW24793   0.497   2.434   2.337 -0.0485  0.4421 -0.2854
 4445SOL    HW124794   0.566   2.482   2.289 -2.0107  1.4657 -2.0806
 4445SOL    HW224795   0.517   2.451   2.429 -0.4171 -0.1224 -0.1096
 4446SOL     OW24796   1.288   4.263   3.384  0.3465 -0.3136 -0.0048
 4446SOL    HW124797   1.364   4.254   3.441  0.4536 -0.2029 -0.1308
 4446SOL    HW224798   1.327   4.289   3.301 -0.2280  0.5505 -0.0089
 4447SOL     OW24799   2.150   4.270  12.943 -0.2711  0.0893 -0.3175
 4447SOL    HW124800   2.135   4.218  13.022 -2.4227  0.6267 -0.3563
 4447SOL    HW224801   2.139   4.358  12.979 -0.3158  0.9620 -2.4464
 4448SOL     OW24802   0.565   3.714   6.755 -0.0434  0.4297  0.3638
 4448SOL    HW124803   0.605   3.649   6.813  1.0308  0.7494 -0.0208
 4448SOL    HW224804   0.613   3.694   6.675  1.3086  0.3521  1.1998
 4449SOL     OW24805   0.431   1.713   2.388  0.0543  0.1963 -0.5512
 4449SOL    HW124806   0.398   1.802   2.376 -2.5341 -0.6907 -0.1451
 4449SOL    HW224807   0.492   1.714   2.462  0.0580 -2.2475 -0.5203
 4450SOL     OW24808   0.056   1.518  13.927 -0.3062  0.0402 -0.6501
 4450SOL    HW124809   0.068   1.571  13.848 -2.2255 -1.1961 -1.7956
 4450SOL    HW224810   0.119   1.554  13.989 -1.0059  3.0204 -1.6807
 4451SOL     OW24811   0.146   2.587  10.853 -0.3126  0.4372 -0.3715
 4451SOL    HW124812   0.120   2.673  10.885  0.1389  0.0465  1.0580
 4451SOL    HW224813   0.211   2.612  10.788  0.9976 -2.7405 -0.3136
 4452SOL     OW24814   0.052   3.748  15.676 -0.1403 -0.2515 -0.5213
 4452SOL    HW124815   0.090   3.712  15.756 -1.2378 -1.4109 -0.5308
 4452SOL    HW224816   0.126   3.791  15.633 -1.3813  3.4309  1.0741
 4453SOL     OW24817   4.092   0.297   2.388  0.3205  0.2021  0.3244
 4453SOL    HW124818   4.068   0.308   2.297  1.1830 -0.8782 -0.0374
 4453SOL    HW224819   4.183   0.267   2.388  1.0349  2.4083 -0.6175
 4454SOL     OW24820   0.623   2.806   9.183  0.0578  0.3505  1.0822
 4454SOL    HW124821   0.681   2.863   9.134  0.5401 -0.8752  0.2282
 4454SOL    HW224822   0.658   2.813   9.272  1.2313 -0.2729  0.6789
 4455SOL     OW24823   3.702   0.847   4.536  0.5029  0.1087  0.1294
 4455SOL    HW124824   3.742   0.837   4.450 -2.7719 -0.2031 -1.3692
 4455SOL    HW224825   3.609   0.857   4.516  0.4150 -2.9087 -1.1172
 4456SOL     OW24826   2.845   4.246   3.213  0.1632 -0.2749 -0.1891
 4456SOL    HW124827   2.764   4.255   3.262 -0.1977  1.6016 -1.1412
 4456SOL    HW224828   2.871   4.159   3.243 -0.3248  0.0165  1.0507
 4457SOL     OW24829   2.404   4.298  15.660  0.0752  0.1855 -0.1582
 4457SOL    HW124830   2.463   4.349  15.716 -0.4889  0.2783  0.3427
 4457SOL    HW224831   2.345   4.256  15.722  0.0697  0.7089  0.2010
 4458SOL     OW24832   1.371   4.439   4.931 -0.1827 -0.9067  1.1983
 4458SOL    HW124833   1.414   4.438   5.017 -0.7723 -1.2091  1.4906
 4458SOL    HW224834   1.376   4.529   4.901  1.0024 -0.4944  2.6044
 4459SOL     OW24835   3.081   4.508  15.339 -0.1998 -0.4125  0.0406
 4459SOL    HW124836   3.144   4.437  15.350 -0.0268 -0.3905 -0.8317
 4459SOL    HW224837   3.071   4.521  15.245 -0.2531 -2.1275 -0.1902
 4460SOL     OW24838   4.016   4.283   5.453 -0.1375  0.2104  0.3979
 4460SOL    HW124839   4.026   4.226   5.529 -1.7875 -0.3477  0.1865
 4460SOL    HW224840   3.981   4.365   5.488 -0.5039  0.7126 -1.1376
 4461SOL     OW24841   3.250   1.654   4.157  0.2169  0.1136 -0.2360
 4461SOL    HW124842   3.283   1.569   4.129 -2.1504 -0.8008 -0.2877
 4461SOL    HW224843   3.333   1.695   4.181 -1.4741  2.4802  1.6234
 4462SOL     OW24844   2.408   1.545  14.520  0.2303 -0.3127 -0.3746
 4462SOL    HW124845   2.418   1.559  14.426 -0.0984  1.4775 -0.1413
 4462SOL    HW224846   2.314   1.536  14.534  0.2575  0.4464  0.2744
 4463SOL     OW24847   0.205   1.883   3.935  0.0299  0.1337 -0.5037
 4463SOL    HW124848   0.260   1.911   3.862 -0.6343  1.5427 -0.4727
 4463SOL    HW224849   0.230   1.791   3.931  1.8572  0.6493 -0.8835
 4464SOL     OW24850   1.212   3.765  12.745  0.3585 -0.2312 -0.2038
 4464SOL    HW124851   1.154   3.765  12.669 -0.3093  1.1183  0.3000
 4464SOL    HW224852   1.222   3.860  12.751 -0.2341 -0.0863 -1.4452
 4465SOL     OW24853   0.623   0.571   5.314 -0.0439  0.1166  0.0139
 4465SOL    HW124854   0.667   0.657   5.315  0.4543 -0.1055 -2.2475
 4465SOL    HW224855   0.552   0.588   5.375  1.1644 -0.7232  1.6640
 4466SOL     OW24856   2.867   4.234   2.928 -0.3893 -0.0040  0.4803
 4466SOL    HW124857   2.875   4.217   3.021  0.0470 -0.7492  0.3020
 4466SOL    HW224858   2.825   4.320   2.933  2.2826  1.3123  0.2993
 4467SOL     OW24859   0.845   3.646   7.597  0.2726  0.0337 -0.0190
 4467SOL    HW124860   0.831   3.555   7.622 -1.3561 -0.3863 -2.4823
 4467SOL    HW224861   0.872   3.680   7.683  1.0873 -0.2181 -0.1782
 4468SOL     OW24862   0.440   4.103   6.007 -0.5325  0.1759  0.2557
 4468SOL    HW124863   0.443   4.145   6.093 -1.0581 -1.0888  0.8836
 4468SOL    HW224864   0.440   4.013   6.037 -2.4371  0.7202  1.8232
 4469SOL     OW24865   1.441   3.007   2.186  0.1108 -0.0948 -0.1783
 4469SOL    HW124866   1.397   2.931   2.149  1.7973 -2.3812  2.5322
 4469SOL    HW224867   1.527   3.015   2.144  1.6115 -0.0349  2.8336
 4470SOL     OW24868   2.908   3.201  11.422  0.5347 -0.0980 -0.6147
 4470SOL    HW124869   2.908   3.194  11.327 -0.1423 -0.5158 -0.5822
 4470SOL    HW224870   2.990   3.152  11.437 -0.3101 -2.0662 -2.4219
 4471SOL     OW24871   0.227   1.061  12.060  0.4752  0.2726  0.1753
 4471SOL    HW124872   0.269   0.983  12.095 -1.4612  1.1433  4.4941
 4471SOL    HW224873   0.292   1.094  11.997 -1.2801  1.1273 -1.1960
 4472SOL     OW24874   2.998   2.485   0.558 -0.1376 -0.0334  0.0507
 4472SOL    HW124875   2.974   2.448   0.473  0.5030  0.4667 -0.3506
 4472SOL    HW224876   2.970   2.417   0.618  1.3553 -0.4245  0.2930
 4473SOL     OW24877   4.160   2.035   3.439  0.3399  0.2798  0.2804
 4473SOL    HW124878   4.204   2.019   3.356 -1.0245 -1.7046 -0.0597
 4473SOL    HW224879   4.192   2.123   3.457 -1.1643  0.6884  0.9348
 4474SOL     OW24880   3.944   3.396   7.261  0.0349 -0.5203  0.3850
 4474SOL    HW124881   3.978   3.468   7.208 -2.2068  0.0338 -0.3008
 4474SOL    HW224882   3.864   3.436   7.293 -0.9328 -0.8211 -1.6591
 4475SOL     OW24883   1.674   0.732   9.084  0.3865 -0.1359 -0.2261
 4475SOL    HW124884   1.754   0.777   9.111  0.8288 -0.1719 -1.4986
 4475SOL    HW224885   1.612   0.793   9.125 -0.1536 -1.4201  0.8733
 4476SOL     OW24886   1.358   1.393   0.238  0.2752  0.0531  0.3187
 4476SOL    HW124887   1.326   1.304   0.227 -2.3765  0.8647  1.5515
 4476SOL    HW224888   1.280   1.424   0.284 -0.4343  1.4093 -1.7788
 4477SOL     OW24889   0.347   0.545   4.316  0.4613  0.5367  0.0466
 4477SOL    HW124890   0.380   0.607   4.381  1.0160  0.8476 -0.5308
 4477SOL    HW224891   0.325   0.608   4.247  0.3038  2.0908  1.5069
 4478SOL     OW24892   1.160   1.738   5.393  0.0446 -0.6321  0.1302
 4478SOL    HW124893   1.075   1.770   5.423  0.1697 -1.0740  0.9544
 4478SOL    HW224894   1.194   1.825   5.373 -0.9756 -0.7125 -2.0168
 4479SOL     OW24895   2.528   4.344  12.633  0.2113 -0.1116 -0.4685
 4479SOL    HW124896   2.484   4.317  12.714 -1.1692 -0.5191 -1.3549
 4479SOL    HW224897   2.583   4.268  12.611 -1.3573 -1.5754  0.6355
 4480SOL     OW24898   2.207   2.689   4.322 -0.3751  0.5369  0.2085
 4480SOL    HW124899   2.272   2.627   4.353 -2.9782 -2.0362  0.4971
 4480SOL    HW224900   2.160   2.639   4.255 -0.2522 -0.6849  1.0356
 4481SOL     OW24901   1.908   1.546   9.664  0.3323 -0.3192 -0.5247
 4481SOL    HW124902   1.885   1.476   9.602  0.2124  1.0770 -2.0427
 4481SOL    HW224903   1.839   1.612   9.664 -2.2222 -2.9766 -4.2223
 4482SOL     OW24904   1.323   2.043   7.894  0.2266 -0.2738 -0.0849
 4482SOL    HW124905   1.270   1.984   7.946 -0.7981  1.3112  0.6408
 4482SOL    HW224906   1.319   1.987   7.816  1.9768 -0.1732 -0.2491
 4483SOL     OW24907   0.990   2.029   3.879  0.1987 -0.4809  0.3047
 4483SOL    HW124908   0.965   2.051   3.969  1.4450  1.5451  0.1628
 4483SOL    HW224909   1.010   1.936   3.890 -1.1384 -0.9704 -1.4750
 4484SOL     OW24910   1.352   2.141   4.765  0.1101 -0.6474  0.5090
 4484SOL    HW124911   1.387   2.062   4.805  0.2139 -0.5842  0.5423
 4484SOL    HW224912   1.424   2.176   4.712  0.6007 -0.6314  1.1848
 4485SOL     OW24913   0.994   4.309  13.784 -0.4217 -0.3815 -0.4099
 4485SOL    HW124914   0.952   4.389  13.816 -2.4530 -0.8400 -1.8730
 4485SOL    HW224915   1.084   4.335  13.763 -0.3184 -1.1534 -0.9394
 4486SOL     OW24916   3.243   0.341  13.925  0.2579  0.3292 -0.0220
 4486SOL    HW124917   3.160   0.314  13.964  0.1928  1.8919  0.9428
 4486SOL    HW224918   3.299   0.340  14.003 -2.3554  2.5396  1.8760
 4487SOL     OW24919   1.473   1.885   6.272 -0.2736 -0.1144  0.4000
 4487SOL    HW124920   1.540   1.908   6.207  0.0228 -2.2316 -0.0504
 4487SOL    HW224921   1.402   1.926   6.222  0.3138  3.0181  2.1632
 4488SOL     OW24922   4.109   1.568  16.402  0.4240  0.0421  0.7400
 4488SOL    HW124923   4.098   1.505  16.331 -0.4561 -0.3896  1.2649
 4488SOL    HW224924   4.106   1.514  16.482 -2.4779 -0.3333  0.3679
 4489SOL     OW24925   0.363   0.444   3.426  0.3033  0.1290 -0.0748
 4489SOL    HW124926   0.407   0.454   3.342  0.3230 -0.4637 -0.1403
 4489SOL    HW224927   0.279   0.480   3.397  0.3691  0.6646  0.4092
 4490SOL     OW24928   0.851   1.331  11.257  0.1251 -0.3583 -0.5377
 4490SOL    HW124929   0.919   1.302  11.195  0.2278 -0.0464 -0.5717
 4490SOL    HW224930   0.906   1.329  11.335 -0.7837  0.3202  0.1187
 4491SOL     OW24931   0.491   1.329  10.346  0.1490 -0.1355  0.5633
 4491SOL    HW124932   0.518   1.351  10.436  0.8231 -3.8386  1.2741
 4491SOL    HW224933   0.577   1.315  10.308  1.1191 -0.0315  2.6858
 4492SOL     OW24934   0.425   3.781   3.815  0.5696  0.0688  0.2768
 4492SOL    HW124935   0.347   3.826   3.782  0.7623  0.3004  0.1309
 4492SOL    HW224936   0.436   3.709   3.753  0.9715  0.3719 -0.0053
 4493SOL     OW24937   3.569   3.739   6.990 -0.0622  0.0848  0.4243
 4493SOL    HW124938   3.556   3.821   6.944 -0.2855 -0.1136  0.1387
 4493SOL    HW224939   3.665   3.730   6.989  0.0181  1.0265  0.3175
 4494SOL     OW24940   2.127   3.401  14.861  0.1438 -0.1580 -0.1139
 4494SOL    HW124941   2.082   3.421  14.942 -0.7433 -0.7981 -0.4440
 4494SOL    HW224942   2.124   3.485  14.814 -1.5461  1.0006  2.0709
 4495SOL     OW24943   0.130   0.176   4.789  0.1837  0.0888 -0.2776
 4495SOL    HW124944   0.086   0.123   4.722  0.5750  0.3657 -0.7573
 4495SOL    HW224945   0.177   0.109   4.837 -1.4855  0.0255  1.2504
 4496SOL     OW24946   1.885   4.514  13.257 -0.2816  0.6644  0.4998
 4496SOL    HW124947   1.906   4.514  13.351 -1.0647 -1.2381  0.6644
 4496SOL    HW224948   1.958   4.564  13.223 -1.6127  0.3717 -2.7417
 4497SOL     OW24949   2.018   3.785   8.859  0.3784  0.1613  0.3325
 4497SOL    HW124950   1.949   3.719   8.862 -0.4084  0.9270 -0.7886
 4497SOL    HW224951   2.043   3.776   8.767  1.3575 -0.7277  0.6856
 4498SOL     OW24952   2.894   2.721   0.634 -0.4374 -0.0686  1.0232
 4498SOL    HW124953   2.946   2.642   0.616  1.5981  1.5838 -0.3945
 4498SOL    HW224954   2.942   2.784   0.581 -1.1151  0.8203  1.4799
 4499SOL     OW24955   4.229   2.178   7.965 -0.0665 -0.2147 -0.1152
 4499SOL    HW124956   4.173   2.100   7.959  0.7770 -0.9057  1.0400
 4499SOL    HW224957   4.283   2.153   7.890  0.5586  0.1364  0.2238
 4500SOL     OW24958   1.584   0.778   3.868 -0.6212 -0.1072 -0.0978
 4500SOL    HW124959   1.676   0.752   3.874 -0.7877 -0.9444 -1.1893
 4500SOL    HW224960   1.581   0.848   3.933 -1.5108 -0.2068 -0.0314
 4501SOL     OW24961   2.346   3.293   6.437 -0.1651  0.1253 -0.7356
 4501SOL    HW124962   2.403   3.282   6.513 -0.2931 -3.0848 -1.0982
 4501SOL    HW224963   2.307   3.205   6.435  0.0584  0.0123 -0.0824
 4502SOL     OW24964   3.472   3.534   5.921 -0.3961  0.1853 -0.1857
 4502SOL    HW124965   3.387   3.548   5.961 -0.2193 -0.2761  0.3525
 4502SOL    HW224966   3.494   3.627   5.911 -1.3672  0.5054  0.6509
 4503SOL     OW24967   2.853   0.196   2.637  0.4617 -0.0746 -0.0057
 4503SOL    HW124968   2.809   0.267   2.590  1.0277  0.1883 -0.1345
 4503SOL    HW224969   2.933   0.240   2.664 -0.3331  0.7173  1.0531
 4504SOL     OW24970   4.199   0.003  11.697  0.6154 -0.1737  0.1828
 4504SOL    HW124971   4.209   4.636  11.663  1.7096  0.7313 -1.8377
 4504SOL    HW224972   4.261   0.002  11.770  0.9297  0.2486 -0.0788
 4505SOL     OW24973   3.859   3.592   4.258 -0.3376 -0.3006  0.1731
 4505SOL    HW124974   3.904   3.554   4.183 -0.7796  0.3936 -0.4461
 4505SOL    HW224975   3.860   3.687   4.245 -0.8300 -0.5698 -1.8812
 4506SOL     OW24976   3.327   4.615   3.053  0.6357 -0.2896 -0.4355
 4506SOL    HW124977   3.368   4.662   3.125  0.3772  1.0330 -1.1570
 4506SOL    HW224978   3.261   4.568   3.105 -2.7072  2.7428 -1.9556
 4507SOL     OW24979   0.643   3.323   4.768  0.2800 -0.0596 -0.0230
 4507SOL    HW124980   0.708   3.394   4.766  1.4459 -1.1392 -0.5874
 4507SOL    HW224981   0.678   3.253   4.712 -1.0150 -1.5846  1.0719
 4508SOL     OW24982   4.550   1.114   5.122 -0.0142 -0.6124  0.3490
 4508SOL    HW124983   4.483   1.130   5.189 -0.8745 -1.4543 -0.3050
 4508SOL    HW224984   4.624   1.132   5.181 -1.9985  2.0977  1.9885
 4509SOL     OW24985   1.662   0.599   6.057 -0.3434  0.2241 -0.7635
 4509SOL    HW124986   1.711   0.596   6.139 -0.9545  1.6809 -0.3440
 4509SOL    HW224987   1.682   0.511   6.025  2.5242  1.0197 -1.1250
 4510SOL     OW24988   3.708   2.633   8.350  0.1393  0.1033  0.1563
 4510SOL    HW124989   3.765   2.657   8.277 -0.7182  0.5740 -0.3501
 4510SOL    HW224990   3.748   2.559   8.397 -1.4432 -0.6281  0.3328
 4511SOL     OW24991   1.527   1.344   0.940  0.1387 -0.0989 -0.1651
 4511SOL    HW124992   1.454   1.294   0.977 -0.8278 -0.4268 -2.5394
 4511SOL    HW224993   1.502   1.434   0.963  2.8253  0.3474  1.0020
 4512SOL     OW24994   4.416   1.877  13.816  0.1365 -0.0188  0.4797
 4512SOL    HW124995   4.509   1.851  13.818  0.7804  2.3795  2.3048
 4512SOL    HW224996   4.413   1.939  13.890 -1.3114 -1.1108  1.3297
 4513SOL     OW24997   1.908   0.175  17.587  0.4343 -0.1201  0.0362
 4513SOL    HW124998   1.967   0.183  17.662  1.1618  1.0071 -0.6628
 4513SOL    HW224999   1.924   0.082  17.569 -1.1918 -0.6108  1.1358
 4514SOL     OW25000   0.492   4.133  11.728  0.2545  0.3555  0.3378
 4514SOL    HW125001   0.467   4.051  11.686  1.3427 -0.6810  1.7208
 4514SOL    HW225002   0.479   4.195  11.656  0.1056 -0.6188 -0.4739
 4515SOL     OW25003   0.724   3.906   8.186 -0.5447 -0.3436  0.0043
 4515SOL    HW125004   0.816   3.881   8.184 -0.2748  0.6899 -0.1329
 4515SOL    HW225005   0.692   3.886   8.098 -2.5423  2.2423  0.1382
 4516SOL     OW25006   4.252   2.737   2.087  0.1656  0.6151  0.1996
 4516SOL    HW125007   4.337   2.778   2.102  0.9551 -0.6847 -0.7159
 4516SOL    HW225008   4.238   2.759   1.995  0.9409  0.4402  0.0429
 4517SOL     OW25009   1.705   3.398   8.881  0.1463 -0.0182  0.0667
 4517SOL    HW125010   1.610   3.383   8.879  0.1429  0.1337 -1.1339
 4517SOL    HW225011   1.732   3.391   8.973 -0.3282  0.4579  0.2432
 4518SOL     OW25012   0.604   0.869   3.297  0.1074  0.0292 -0.3893
 4518SOL    HW125013   0.532   0.899   3.241 -0.1322 -0.7843 -0.5182
 4518SOL    HW225014   0.554   0.872   3.378  0.8503  0.9525  0.0241
 4519SOL     OW25015   2.485   0.948  14.142  0.1685 -0.0730  0.2631
 4519SOL    HW125016   2.523   0.958  14.055  0.5802 -1.5915  0.2710
 4519SOL    HW225017   2.549   0.994  14.196  1.7527 -0.1011 -1.5963
 4520SOL     OW25018   0.723   4.719   2.444 -0.4422 -0.7652  0.2704
 4520SOL    HW125019   0.688   4.630   2.442 -0.5903 -0.7207  1.0019
 4520SOL    HW225020   0.706   0.006   2.350  0.2759  1.4938  0.3812
 4521SOL     OW25021   3.217   1.904   0.740 -0.2496 -0.4648  0.0657
 4521SOL    HW125022   3.129   1.872   0.758 -0.3259 -0.1706  0.2111
 4521SOL    HW225023   3.226   1.967   0.811 -0.1116 -0.3340 -0.0675
 4522SOL     OW25024   2.900   3.362  14.824 -0.0159  0.4111  0.3975
 4522SOL    HW125025   2.945   3.438  14.787  1.4964 -2.1551 -3.0461
 4522SOL    HW225026   2.969   3.330  14.882  1.8300  2.8396 -0.4498
 4523SOL     OW25027   4.043   3.026   4.685 -0.2115  0.1193 -0.2565
 4523SOL    HW125028   4.078   2.937   4.673  1.5843  0.7642  0.1279
 4523SOL    HW225029   4.088   3.048   4.767  1.4209 -1.3450 -0.7534
 4524SOL     OW25030   4.680   3.048  12.470 -0.3297  0.5625  0.4163
 4524SOL    HW125031   4.608   3.015  12.524 -0.7985  0.1886 -0.4280
 4524SOL    HW225032   4.690   3.135  12.507 -1.2525 -0.7713  3.7710
 4525SOL     OW25033   4.672   0.269   5.305  0.2162 -0.2958  0.0733
 4525SOL    HW125034   4.615   0.334   5.346 -0.7179 -0.5257 -0.8618
 4525SOL    HW225035   4.713   0.320   5.235  0.7269 -2.0112 -0.8696
 4526SOL     OW25036   1.438   1.558   4.800  1.0253  1.0553 -0.0925
 4526SOL    HW125037   1.455   1.465   4.817  1.5767  1.3473  0.9559
 4526SOL    HW225038   1.521   1.602   4.815  0.2924  2.1739  0.6228
 4527SOL     OW25039   3.148   2.619   3.987  0.3039  0.3991  0.3374
 4527SOL    HW125040   3.215   2.618   3.919  0.8121 -1.3113  0.8533
 4527SOL    HW225041   3.096   2.692   3.952 -0.5173 -0.5629 -0.4739
 4528SOL     OW25042   0.348   1.084   0.215  0.3459 -0.0818  0.1103
 4528SOL    HW125043   0.442   1.102   0.209  0.1069  1.2095  0.3153
 4528SOL    HW225044   0.336   1.092   0.309 -0.3330  0.7720 -0.0465
 4529SOL     OW25045   2.500   2.528  13.053 -0.1467 -0.2486 -0.5132
 4529SOL    HW125046   2.517   2.481  13.135  0.2618  2.4420  0.9678
 4529SOL    HW225047   2.525   2.617  13.079 -2.6369  0.9114 -2.0495
 4530SOL     OW25048   2.053   3.104   2.646 -0.1780 -0.5088  0.3337
 4530SOL    HW125049   1.975   3.121   2.592  0.3948  0.2576 -0.2506
 4530SOL    HW225050   2.125   3.148   2.601 -1.8589  0.5457 -1.3221
 4531SOL     OW25051   1.751   4.321   7.915  0.4849 -0.6633 -0.0785
 4531SOL    HW125052   1.657   4.305   7.910 -0.5120  4.3951  2.6387
 4531SOL    HW225053   1.784   4.328   7.825 -0.9225 -0.5727 -0.5826
 4532SOL     OW25054   2.493   0.164  10.173  0.0382 -0.0255  0.1984
 4532SOL    HW125055   2.538   0.150  10.090 -1.6743 -0.6141 -0.6128
 4532SOL    HW225056   2.570   0.155  10.230 -0.6379  0.2130  1.1426
 4533SOL     OW25057   3.243   1.209  16.908 -0.2127 -0.0729  0.6014
 4533SOL    HW125058   3.338   1.214  16.898  0.0714 -3.9290  1.4370
 4533SOL    HW225059   3.238   1.287  16.964  0.4175  0.9708 -0.8152
 4534SOL     OW25060   2.283   4.282   1.708 -0.4226 -0.0066 -0.5852
 4534SOL    HW125061   2.366   4.271   1.662 -1.3681 -1.1024 -2.0208
 4534SOL    HW225062   2.299   4.250   1.797  1.1018  1.6570 -0.2640
 4535SOL     OW25063   0.269   1.378   3.700 -0.3945 -0.1717  0.5098
 4535SOL    HW125064   0.307   1.460   3.667 -0.1857 -0.5821 -0.2937
 4535SOL    HW225065   0.349   1.349   3.745  0.4000  1.2678  0.0360
 4536SOL     OW25066   3.758   2.545   1.970 -0.7947 -0.7009  0.6814
 4536SOL    HW125067   3.715   2.486   2.031  0.8984 -3.5689 -0.8912
 4536SOL    HW225068   3.789   2.619   2.023  1.9233 -1.7577  0.5948
 4537SOL     OW25069   2.653   0.678   9.799  1.1772  0.2609 -0.0719
 4537SOL    HW125070   2.564   0.662   9.767  1.4587 -1.4616 -0.0219
 4537SOL    HW225071   2.660   0.620   9.875 -0.7537  2.0453  1.4455
 4538SOL     OW25072   0.195   2.991  13.160  0.4053 -0.2521 -0.6058
 4538SOL    HW125073   0.198   3.086  13.153  0.2781 -0.2218 -0.2473
 4538SOL    HW225074   0.228   2.979  13.071  3.3328 -0.0556  0.4420
 4539SOL     OW25075   4.496   4.282   3.381 -0.0503  0.3550  0.2649
 4539SOL    HW125076   4.480   4.368   3.343  0.8731 -0.2114 -1.3880
 4539SOL    HW225077   4.413   4.260   3.424  0.0439 -1.4826 -0.5095
 4540SOL     OW25078   4.682   3.633  14.031 -0.2555 -0.1936 -0.6216
 4540SOL    HW125079   4.713   3.566  13.970  0.5452  1.4290 -1.9970
 4540SOL    HW225080   0.035   3.634  14.090 -0.7953 -0.5985  0.0822
 4541SOL     OW25081   4.510   4.533   5.757 -0.1214  0.2054  0.2880
 4541SOL    HW125082   4.533   4.444   5.730  0.1583  0.4675 -0.3409
 4541SOL    HW225083   4.594   4.580   5.760 -0.7142  1.2857  0.1486
 4542SOL     OW25084   3.927   2.255  13.230  0.0722  0.2381  0.1498
 4542SOL    HW125085   3.864   2.320  13.259 -0.3985 -0.5543  0.9074
 4542SOL    HW225086   3.970   2.251  13.315 -0.0475  1.2660  0.2539
 4543SOL     OW25087   2.737   4.312   7.373 -0.3402 -0.3494 -0.0953
 4543SOL    HW125088   2.771   4.354   7.452 -1.3514 -0.6449  0.4884
 4543SOL    HW225089   2.665   4.370   7.350 -0.1044  0.2124  0.5945
 4544SOL     OW25090   2.417   1.699   8.300 -0.4620 -0.0933 -0.0566
 4544SOL    HW125091   2.511   1.717   8.295 -0.4535  0.1888  1.3371
 4544SOL    HW225092   2.409   1.604   8.296  3.1753 -0.3684 -1.1011
 4545SOL     OW25093   0.480   1.783   3.205  0.1117 -0.5323 -0.4707
 4545SOL    HW125094   0.463   1.817   3.117 -1.8199  1.3459  0.6247
 4545SOL    HW225095   0.563   1.828   3.226 -1.1083  0.8287  1.3859
 4546SOL     OW25096   4.082   3.872   9.228  0.3752 -0.1176  0.1723
 4546SOL    HW125097   4.035   3.844   9.149 -0.1195 -1.1102  0.8171
 4546SOL    HW225098   4.049   3.960   9.245 -0.6322 -0.5285  0.3244
 4547SOL     OW25099   2.743   3.070   6.136 -0.0252  0.3582  0.2521
 4547SOL    HW125100   2.664   3.122   6.125  0.5394  0.8744 -1.3443
 4547SOL    HW225101   2.805   3.132   6.100  0.6545 -1.2145 -1.2688
 4548SOL     OW25102   3.232   2.614   1.865  0.5184  0.3886  0.7793
 4548SOL    HW125103   3.180   2.664   1.801  1.3079  0.6686  0.3552
 4548SOL    HW225104   3.313   2.595   1.818  0.7819  0.3254  1.2686
 4549SOL     OW25105   3.015   0.766  17.235  0.3209  0.2113 -0.2782
 4549SOL    HW125106   2.963   0.690  17.261  0.6747  0.1340  0.1865
 4549SOL    HW225107   2.954   0.837  17.257 -1.7037 -1.0588 -1.7827
 4550SOL     OW25108   1.967   4.484   0.940  0.0760  0.7047  0.6170
 4550SOL    HW125109   1.919   4.416   0.989 -3.1277  1.0777 -1.9700
 4550SOL    HW225110   1.981   4.559   0.998 -0.2214 -0.6899  2.4948
 4551SOL     OW25111   1.740   4.164   7.590 -0.0237  0.1720 -0.5467
 4551SOL    HW125112   1.725   4.196   7.502 -0.9137  1.2866  0.0146
 4551SOL    HW225113   1.815   4.221   7.609 -0.7854  1.1393 -0.4911
 4552SOL     OW25114   0.092   1.512   4.534 -0.4019 -0.5452 -0.7362
 4552SOL    HW125115   0.083   1.461   4.454  3.0812  0.5852 -1.8500
 4552SOL    HW225116   0.140   1.461   4.599 -0.2782  2.7579  1.7485
 4553SOL     OW25117   3.261   4.307   5.032 -0.2244  0.3598 -0.1410
 4553SOL    HW125118   3.292   4.393   5.062  0.5161  0.9019 -2.4448
 4553SOL    HW225119   3.339   4.252   5.037 -1.1173 -0.9672 -1.0089
 4554SOL     OW25120   4.520   3.195   1.389  0.4206 -0.0245  0.0080
 4554SOL    HW125121   4.599   3.193   1.334  0.2988 -0.3879 -0.1546
 4554SOL    HW225122   4.459   3.141   1.339 -0.5805  1.5274 -0.4607
 4555SOL     OW25123   4.115   0.711   9.187  0.2393 -0.2657  0.5524
 4555SOL    HW125124   4.080   0.789   9.229 -0.0833  0.0661 -0.3308
 4555SOL    HW225125   4.052   0.646   9.219 -2.3893  1.9951 -0.0024
 4556SOL     OW25126   0.803   3.601   3.516 -0.0513  0.1047  0.2408
 4556SOL    HW125127   0.737   3.637   3.456  2.1225  1.7962 -1.1765
 4556SOL    HW225128   0.875   3.653   3.479  1.5702 -1.5627  1.0516
 4557SOL     OW25129   0.749   4.064   6.298  0.2601  0.1470 -0.3942
 4557SOL    HW125130   0.843   4.054   6.287  0.6222  2.1759  0.9166
 4557SOL    HW225131   0.720   3.973   6.288 -0.9657  0.5110 -0.1708
 4558SOL     OW25132   4.159   4.571   4.927  0.0467  0.5187  0.4207
 4558SOL    HW125133   4.207   4.501   4.882 -1.1658 -0.5011  0.6961
 4558SOL    HW225134   4.141   4.635   4.858  0.5549  0.1114 -0.0941
 4559SOL     OW25135   4.265   1.519   3.164 -0.2875 -0.1542 -0.5612
 4559SOL    HW125136   4.226   1.603   3.187  1.1075  0.4379 -0.3714
 4559SOL    HW225137   4.235   1.499   3.075  1.1734 -0.1548 -1.0511
 4560SOL     OW25138   0.960   1.035   9.089 -0.4404  0.1835 -0.3927
 4560SOL    HW125139   0.876   1.079   9.094  0.0810  1.2679 -1.0506
 4560SOL    HW225140   0.975   1.046   8.995 -1.8997  0.2829 -0.6133
 4561SOL     OW25141   1.168   2.524   9.132  0.0167  0.1438 -0.2081
 4561SOL    HW125142   1.096   2.579   9.164  0.3249  0.9910 -0.9589
 4561SOL    HW225143   1.165   2.533   9.036 -1.5859  1.0392 -0.0853
 4562SOL     OW25144   0.708   0.321   2.118  0.0266  0.0225  0.2373
 4562SOL    HW125145   0.726   0.376   2.042  1.3916 -0.3074  0.3235
 4562SOL    HW225146   0.612   0.322   2.114 -0.1068  4.4338  5.6232
 4563SOL     OW25147   2.483   2.840   7.596 -0.4189  0.0225  0.0586
 4563SOL    HW125148   2.464   2.817   7.687 -2.0288 -0.9405 -0.5089
 4563SOL    HW225149   2.505   2.752   7.566 -1.8873 -0.5441  0.6029
 4564SOL     OW25150   4.260   2.654   3.216  0.2508  0.2127 -0.2122
 4564SOL    HW125151   4.239   2.747   3.207  0.3840  0.3501  0.8998
 4564SOL    HW225152   4.184   2.613   3.175  0.0205  0.0196  0.4107
 4565SOL     OW25153   3.776   0.560   4.664  0.3067  0.3306 -0.1547
 4565SOL    HW125154   3.872   0.558   4.664  0.3280  1.5796  0.2792
 4565SOL    HW225155   3.756   0.471   4.693  0.4597  0.4379  0.2756
 4566SOL     OW25156   3.057   2.362   1.837  0.0035  0.3039 -0.2925
 4566SOL    HW125157   3.038   2.334   1.927  1.3358  0.0987 -0.0873
 4566SOL    HW225158   3.019   2.286   1.793  3.5449  0.1171 -2.9894
 4567SOL     OW25159   1.282   1.450   1.639  0.4722 -0.1751  0.0237
 4567SOL    HW125160   1.339   1.379   1.608  3.6761  0.6749  3.8985
 4567SOL    HW225161   1.199   1.405   1.651  0.5749 -0.6706 -1.0791
 4568SOL     OW25162   0.431   3.644  12.109  0.4742  0.1926 -0.1035
 4568SOL    HW125163   0.523   3.669  12.121  0.9393 -0.4857 -2.3591
 4568SOL    HW225164   0.421   3.610  12.020  0.5939 -0.2975  0.0658
 4569SOL     OW25165   4.682   2.326   3.597 -0.3986  0.2225  0.3499
 4569SOL    HW125166   0.008   2.244   3.585  0.5736  0.5643  1.8895
 4569SOL    HW225167   4.686   2.328   3.693 -0.8019 -2.1964  0.4041
 4570SOL     OW25168   4.636   3.682   9.041  0.2286  0.1357  0.1063
 4570SOL    HW125169   4.543   3.686   9.019 -0.0511 -1.7062  0.9248
 4570SOL    HW225170   4.679   3.701   8.957  2.6403 -2.0259  0.8247
 4571SOL     OW25171   1.808   3.398   4.800  0.5943 -0.7312  0.1919
 4571SOL    HW125172   1.777   3.335   4.864  0.5188 -1.7421 -0.8436
 4571SOL    HW225173   1.735   3.422   4.742  0.1473 -1.7430  0.3523
 4572SOL     OW25174   4.572   0.911  12.124 -0.0611  0.5782 -0.3053
 4572SOL    HW125175   4.630   0.859  12.069 -0.0446  0.9620 -0.6536
 4572SOL    HW225176   4.631   0.940  12.195  0.6757  1.1835 -1.1652
 4573SOL     OW25177   2.459   4.360   9.142  0.0087 -0.3487 -0.4006
 4573SOL    HW125178   2.499   4.296   9.201 -0.0001 -1.5864 -1.7365
 4573SOL    HW225179   2.389   4.390   9.199 -0.5271  0.8400 -1.6745
 4574SOL     OW25180   2.304   0.094  17.596 -0.1009 -0.5665  0.2759
 4574SOL    HW125181   2.329   0.013  17.640 -2.0725 -0.7835  0.9781
 4574SOL    HW225182   2.369   0.120  17.530  0.3620  0.3641  1.0966
 4575SOL     OW25183   4.519   1.261  16.892  0.4178 -0.3575  0.0314
 4575SOL    HW125184   4.520   1.356  16.879 -0.4157 -0.2692  0.6299
 4575SOL    HW225185   4.477   1.252  16.977  2.0860 -0.3769  0.8589
 4576SOL     OW25186   4.454   3.281  16.352  0.1629 -0.1841  0.1457
 4576SOL    HW125187   4.408   3.243  16.427 -0.4160 -0.7258 -0.4860
 4576SOL    HW225188   4.480   3.207  16.297 -1.3187  0.3567 -1.2901
 4577SOL     OW25189   2.896   4.716  15.348 -0.5558 -0.5390  0.7383
 4577SOL    HW125190   2.951   4.638  15.362  0.3676  0.3106  1.8424
 4577SOL    HW225191   2.945   0.046  15.411 -1.2705  1.7241 -0.6252
 4578SOL     OW25192   4.508   0.335   3.595 -0.1055 -0.1308 -0.0651
 4578SOL    HW125193   4.575   0.304   3.656  0.8966  0.1041 -1.0473
 4578SOL    HW225194   4.433   0.275   3.594  0.7912 -1.2436 -0.6559
 4579SOL     OW25195   1.031   3.211  14.031 -1.2628 -0.2779 -0.3160
 4579SOL    HW125196   0.956   3.216  14.091 -1.1386 -0.4033 -0.1504
 4579SOL    HW225197   1.106   3.197  14.089 -1.8458 -0.7934  0.3279
 4580SOL     OW25198   0.268   0.398   2.985 -0.8488 -0.2753  0.3751
 4580SOL    HW125199   0.229   0.484   3.002 -0.7175 -0.3461  1.0532
 4580SOL    HW225200   0.279   0.397   2.890  1.0812 -0.7344  0.6099
 4581SOL     OW25201   3.740   1.453   7.987  0.3973 -0.4440 -0.0634
 4581SOL    HW125202   3.791   1.385   7.942  0.5572  0.2090 -0.8640
 4581SOL    HW225203   3.664   1.468   7.930 -0.1389 -1.2240  0.4530
 4582SOL     OW25204   4.507   3.070  16.188 -0.2120 -0.0001  0.1246
 4582SOL    HW125205   4.592   3.067  16.143  0.5195 -1.4450  1.6014
 4582SOL    HW225206   4.447   3.050  16.116 -0.1543 -1.9260  0.6193
 4583SOL     OW25207   0.698   1.678   8.354  0.9141 -0.8222 -0.4522
 4583SOL    HW125208   0.707   1.760   8.306  0.1908 -0.0425  0.7357
 4583SOL    HW225209   0.790   1.664   8.375  0.6334  0.0988  1.4295
 4584SOL     OW25210   2.293   4.178  13.204 -0.4972 -0.0450  0.1799
 4584SOL    HW125211   2.365   4.239  13.189 -1.3929  1.1197  0.5707
 4584SOL    HW225212   2.300   4.170  13.299  2.8714 -2.6804 -0.2758
 4585SOL     OW25213   4.697   0.697  13.211  0.3990 -0.1915  0.6750
 4585SOL    HW125214   4.694   0.672  13.304  0.9069 -0.4616  0.6221
 4585SOL    HW225215   4.687   0.791  13.229  3.0649  0.0967  0.6820
 4586SOL     OW25216   4.368   0.838   8.205 -0.4730  0.1149 -0.4019
 4586SOL    HW125217   4.333   0.856   8.292 -1.8115 -2.6075 -0.3899
 4586SOL    HW225218   4.388   0.745   8.210  0.1033  0.2616  0.0072
 4587SOL     OW25219   1.158   2.263   9.008 -0.3208  0.1177 -0.7489
 4587SOL    HW125220   1.218   2.278   8.935 -0.0813  1.3483 -0.3025
 4587SOL    HW225221   1.170   2.344   9.057  0.6836  1.2626 -2.9299
 4588SOL     OW25222   2.045   0.916   2.728 -0.0261  0.1241 -0.6363
 4588SOL    HW125223   2.006   1.003   2.726 -0.5970 -0.1510 -1.1181
 4588SOL    HW225224   2.094   0.929   2.810  1.3425  1.4324 -1.6484
 4589SOL     OW25225   4.562   0.268   1.857  0.2422  0.6827  0.1550
 4589SOL    HW125226   4.549   0.250   1.764 -1.0639 -1.3618  0.7510
 4589SOL    HW225227   4.636   0.209   1.872  1.8052  2.0828 -1.9802
 4590SOL     OW25228   2.693   2.325   0.625  0.0799 -0.6140 -0.4670
 4590SOL    HW125229   2.780   2.303   0.659 -0.1551  0.7940  1.0433
 4590SOL    HW225230   2.702   2.302   0.532 -3.1219  2.1062 -1.4402
 4591SOL     OW25231   3.331   0.755   7.832 -0.8205  0.0240  0.4145
 4591SOL    HW125232   3.320   0.704   7.912 -1.8053 -0.5808 -0.1067
 4591SOL    HW225233   3.269   0.703   7.781 -0.9216  1.4191 -0.9094
 4592SOL     OW25234   0.551   1.392  17.179  0.3369 -0.4284 -0.4978
 4592SOL    HW125235   0.535   1.477  17.222 -1.1574 -0.6054 -0.7050
 4592SOL    HW225236   0.548   1.330  17.252 -2.3839 -1.0477 -1.1454
 4593SOL     OW25237   1.174   3.574   9.431  0.1543  0.5875  0.3093
 4593SOL    HW125238   1.229   3.590   9.507 -1.2098  3.8254  0.6341
 4593SOL    HW225239   1.240   3.561   9.362 -1.2337 -0.4980 -0.8154
 4594SOL     OW25240   3.681   4.026   5.368  0.0152 -0.6143 -0.0044
 4594SOL    HW125241   3.712   3.971   5.440 -1.9099 -1.5829  0.0704
 4594SOL    HW225242   3.593   4.050   5.397 -0.4791  0.3595 -2.2303
 4595SOL     OW25243   2.635   3.729   4.844 -0.8329 -0.3938  0.3116
 4595SOL    HW125244   2.710   3.763   4.894  0.1765 -0.3192 -1.2494
 4595SOL    HW225245   2.634   3.795   4.775 -0.4341 -1.3234 -0.5751
 4596SOL     OW25246   1.802   3.469   8.231  0.1676 -0.2772 -0.7449
 4596SOL    HW125247   1.880   3.414   8.238 -0.9934 -1.7728  0.2807
 4596SOL    HW225248   1.797   3.489   8.138  0.6739 -2.4607 -1.2399
 4597SOL     OW25249   2.332   1.903   8.151 -0.8382  0.0281 -0.0894
 4597SOL    HW125250   2.360   1.833   8.210 -1.5606  0.1215  0.3602
 4597SOL    HW225251   2.351   1.872   8.062  1.2594 -0.1949  0.4482
 4598SOL     OW25252   0.736   0.409  13.832  0.4123 -0.2045 -0.1012
 4598SOL    HW125253   0.829   0.389  13.845  0.9311  2.2167 -0.1902
 4598SOL    HW225254   0.733   0.386  13.739 -1.0954  1.5327 -0.4803
 4599SOL     OW25255   4.487   1.217  12.241 -0.3863 -0.5591 -0.5028
 4599SOL    HW125256   4.497   1.312  12.249 -1.5353 -0.4718 -0.2004
 4599SOL    HW225257   4.581   1.203  12.250 -0.5031 -0.5879  0.7452
 4600SOL     OW25258   0.812   2.293   5.781  0.1295 -0.0455  0.3587
 4600SOL    HW125259   0.730   2.268   5.823 -0.5612 -1.1085 -1.6372
 4600SOL    HW225260   0.822   2.226   5.713  0.8410  1.6769 -1.2410
 4601SOL     OW25261   1.594   0.726   2.104  0.5790  0.0599 -0.0255
 4601SOL    HW125262   1.609   0.677   2.023 -0.8363  1.7639 -1.3250
 4601SOL    HW225263   1.578   0.658   2.169 -0.3804  0.1233 -0.1951
 4602SOL     OW25264   4.470   1.152  15.402  0.6361 -0.0121 -0.4125
 4602SOL    HW125265   4.388   1.167  15.355  0.9089  0.5702 -0.7047
 4602SOL    HW225266   4.487   1.058  15.402 -3.6523 -0.8069  0.8874
 4603SOL     OW25267   0.487   3.033   4.857  0.0242 -0.1613 -0.2137
 4603SOL    HW125268   0.570   3.047   4.811 -0.7757  1.3262 -1.1821
 4603SOL    HW225269   0.443   3.115   4.838  0.0555  0.2917  1.7088
 4604SOL     OW25270   2.072   1.255  11.216 -0.1501 -0.4113 -0.3264
 4604SOL    HW125271   2.018   1.306  11.155 -1.3261 -0.3708  0.7553
 4604SOL    HW225272   2.145   1.317  11.221  1.4252 -2.4653  1.8886
 4605SOL     OW25273   3.302   3.212   3.995 -0.2373 -0.4070  0.3992
 4605SOL    HW125274   3.373   3.226   3.933  0.0929 -1.9469  0.4152
 4605SOL    HW225275   3.242   3.283   3.973 -0.4822 -0.6173  0.3759
 4606SOL     OW25276   0.119   1.106  15.945 -0.1154 -0.0412  0.3549
 4606SOL    HW125277   0.124   1.031  15.886 -1.0408 -1.7259  2.4546
 4606SOL    HW225278   0.124   1.068  16.032 -0.0878  1.0387  0.8330
 4607SOL     OW25279   1.075   4.502   8.165 -0.6016 -0.1434 -0.1771
 4607SOL    HW125280   1.075   4.597   8.178 -0.2617 -0.4160  1.8593
 4607SOL    HW225281   1.055   4.472   8.254 -2.6852 -1.2824 -1.0319
 4608SOL     OW25282   0.262   3.789   2.549  0.0139  0.7651 -0.1216
 4608SOL    HW125283   0.316   3.804   2.626 -0.3407 -0.8477  0.4328
 4608SOL    HW225284   0.306   3.839   2.480  0.8215  0.7626  0.3982
 4609SOL     OW25285   0.031   4.584   8.092 -0.0334 -0.0764  0.4157
 4609SOL    HW125286   0.117   4.608   8.057  1.0222 -0.3307  2.8807
 4609SOL    HW225287   4.684   4.642   8.058  1.3452  1.5793  0.4310
 4610SOL     OW25288   2.425   3.251   8.020  0.4018  0.1599  0.7177
 4610SOL    HW125289   2.469   3.296   7.949  0.2871  1.0154  1.1849
 4610SOL    HW225290   2.399   3.181   7.961 -0.4722  0.4583  0.7319
 4611SOL     OW25291   0.659   1.790   7.845 -0.1669  0.2535 -0.1139
 4611SOL    HW125292   0.611   1.825   7.919 -0.9471 -2.0288  0.4571
 4611SOL    HW225293   0.604   1.717   7.815  1.2091 -0.8366 -0.0085
 4612SOL     OW25294   0.304   1.904  11.184  0.2599  0.1759  0.0435
 4612SOL    HW125295   0.235   1.838  11.176 -0.1470  0.2579  2.7758
 4612SOL    HW225296   0.373   1.843  11.210  0.3548 -0.9211 -2.8341
 4613SOL     OW25297   0.014   0.043  10.775  0.2733 -0.6531  0.0060
 4613SOL    HW125298   0.060   0.113  10.728 -0.3214  1.4706  2.5728
 4613SOL    HW225299   4.652   0.050  10.731  1.5806  1.5281 -2.1628
 4614SOL     OW25300   2.702   0.062   2.011  0.1519  0.0568 -0.8996
 4614SOL    HW125301   2.621   0.030   1.971 -0.1269  1.5039 -1.5107
 4614SOL    HW225302   2.726   0.136   1.955  4.2852 -0.0440  0.7276
 4615SOL     OW25303   3.189   0.451  11.198  0.0525 -1.0098 -0.3114
 4615SOL    HW125304   3.115   0.484  11.249  1.1773 -0.1421  0.7637
 4615SOL    HW225305   3.230   0.387  11.257  1.5987  0.9810  0.7677
 4616SOL     OW25306   3.877   1.430   5.855  0.2267  0.5912 -0.4421
 4616SOL    HW125307   3.825   1.357   5.887 -0.4509  1.8790  1.3538
 4616SOL    HW225308   3.961   1.398   5.822 -0.2408 -1.7429  0.6557
 4617SOL     OW25309   1.108   3.216   5.826 -0.1404  0.4624 -0.2023
 4617SOL    HW125310   1.084   3.208   5.734 -0.4115  0.5918 -0.1427
 4617SOL    HW225311   1.130   3.123   5.835 -2.3548 -0.0368  0.1861
 4618SOL     OW25312   3.258   3.774   4.362  0.0611 -0.1769 -0.1465
 4618SOL    HW125313   3.274   3.699   4.305 -0.8323  0.7109 -1.5414
 4618SOL    HW225314   3.349   3.798   4.384 -0.7984  0.3495  2.9108
 4619SOL     OW25315   2.401   1.062   7.940 -0.7743  0.0690 -0.6873
 4619SOL    HW125316   2.390   1.114   8.020  1.6066  0.8393 -0.8625
 4619SOL    HW225317   2.409   0.974   7.979  1.5770 -1.3658 -4.4019
 4620SOL     OW25318   1.081   1.491   6.869  0.0578 -0.0288  0.2534
 4620SOL    HW125319   1.160   1.465   6.822 -0.8676 -1.5452 -0.4532
 4620SOL    HW225320   1.103   1.488   6.962 -2.4334  0.6202  0.8729
 4621SOL     OW25321   2.659   3.502  12.119  0.2568 -0.5460 -0.1262
 4621SOL    HW125322   2.670   3.532  12.209  0.8173 -0.7805 -0.1215
 4621SOL    HW225323   2.671   3.583  12.070 -0.0822 -0.3231  0.1583
 4622SOL     OW25324   0.092   2.838   6.878 -0.2391 -0.0113 -0.4271
 4622SOL    HW125325   0.112   2.900   6.947  0.0645  0.4690 -0.9506
 4622SOL    HW225326   0.135   2.883   6.805  0.5763 -0.5059 -0.2432
 4623SOL     OW25327   0.145   4.718  11.512 -0.1945 -0.2649  0.1368
 4623SOL    HW125328   0.162   0.079  11.557 -1.2986 -0.7285  1.4324
 4623SOL    HW225329   0.100   0.033  11.437  0.5818 -1.4157 -0.8922
 4624SOL     OW25330   4.327   1.646   2.685  0.1393  0.3777  0.5301
 4624SOL    HW125331   4.399   1.704   2.662 -0.9615  1.6331  0.2193
 4624SOL    HW225332   4.268   1.638   2.610 -0.0510 -1.8893  0.9324
 4625SOL     OW25333   2.161   0.634   4.171  0.0360 -0.5013 -0.7431
 4625SOL    HW125334   2.247   0.675   4.177 -0.9382  1.4021  0.2335
 4625SOL    HW225335   2.192   0.544   4.157  1.4187 -0.0497 -0.5603
 4626SOL     OW25336   2.431   3.783   0.083 -0.2291  0.4382  0.1901
 4626SOL    HW125337   2.474   3.844   0.023  0.8423  0.7126  1.2313
 4626SOL    HW225338   2.511   3.738   0.108  0.6885  2.5133  1.0159
 4627SOL     OW25339   2.494   1.930  15.636  0.1493 -0.9953 -0.3003
 4627SOL    HW125340   2.416   1.919  15.581  0.0826 -1.2251 -0.1648
 4627SOL    HW225341   2.568   1.940  15.577  0.6720  2.1777  0.9249
 4628SOL     OW25342   2.213   4.696   0.239  0.0567  0.3340 -0.0190
 4628SOL    HW125343   2.163   4.704   0.321  0.7182  0.7795  0.3425
 4628SOL    HW225344   2.299   4.670   0.274  1.0423  1.1837 -1.8233
 4629SOL     OW25345   3.583   1.370  12.348 -0.2410 -0.8772 -0.1361
 4629SOL    HW125346   3.610   1.334  12.263 -1.4177  0.9329 -1.2752
 4629SOL    HW225347   3.487   1.370  12.346 -0.2170  2.2422 -0.9404
 4630SOL     OW25348   3.540   2.303   6.768  0.2157  0.5896 -0.0659
 4630SOL    HW125349   3.533   2.210   6.747  0.4496  0.3866  0.7389
 4630SOL    HW225350   3.614   2.329   6.712 -1.9071  0.3376 -2.9366
 4631SOL     OW25351   0.650   4.180   3.677  0.2516 -0.3794  0.5487
 4631SOL    HW125352   0.613   4.130   3.750 -0.7630 -2.6335 -1.5027
 4631SOL    HW225353   0.742   4.176   3.703  0.2373 -1.3705  0.4546
 4632SOL     OW25354   4.166   3.309   8.297  0.2759 -0.3712 -0.4330
 4632SOL    HW125355   4.166   3.224   8.254  1.0108  0.0644 -1.2880
 4632SOL    HW225356   4.235   3.351   8.245 -1.3566  1.8548 -0.8373
 4633SOL     OW25357   1.648   1.842   1.620  0.1324  0.2122  0.3087
 4633SOL    HW125358   1.604   1.818   1.538 -2.6553 -0.7466  2.1070
 4633SOL    HW225359   1.651   1.756   1.661 -0.7324 -0.6104 -1.3386
 4634SOL     OW25360   3.399   1.826   9.503 -0.2620 -0.5201  0.2946
 4634SOL    HW125361   3.453   1.861   9.574  0.7957  0.4154 -0.9631
 4634SOL    HW225362   3.417   1.897   9.441 -0.2538 -1.1478 -0.4246
 4635SOL     OW25363   1.986   2.436  17.627 -0.3385  0.1576 -0.0089
 4635SOL    HW125364   2.052   2.390  17.575  1.3583  1.4357  1.0050
 4635SOL    HW225365   1.927   2.453  17.553  2.1172  2.3763 -1.4655
 4636SOL     OW25366   0.032   2.770  16.677 -0.0365  0.0854 -0.1656
 4636SOL    HW125367   0.081   2.822  16.741  1.3105 -0.9278 -0.3646
 4636SOL    HW225368   0.084   2.690  16.686  1.0271  0.7795 -0.1067
 4637SOL     OW25369   3.219   0.925   9.182 -0.2027 -0.1360 -0.2144
 4637SOL    HW125370   3.204   0.833   9.159  0.2295 -0.2841  0.0858
 4637SOL    HW225371   3.130   0.958   9.167  0.6484  1.7129 -1.2160
 4638SOL     OW25372   1.784   3.477  12.021 -0.1215 -0.3769 -0.0038
 4638SOL    HW125373   1.804   3.428  11.941 -1.7428  0.2961 -0.8198
 4638SOL    HW225374   1.692   3.502  12.010 -0.2808 -0.6781  0.6230
 4639SOL     OW25375   0.832   3.523   5.083 -0.3302 -0.0366  0.1496
 4639SOL    HW125376   0.866   3.467   5.013 -0.4394  1.2923 -0.9522
 4639SOL    HW225377   0.860   3.473   5.160  0.5035  0.7183  0.3302
 4640SOL     OW25378   1.338   0.805   4.774 -0.1981  0.0816 -0.0741
 4640SOL    HW125379   1.330   0.730   4.833 -1.6745 -1.8432 -2.7078
 4640SOL    HW225380   1.290   0.774   4.697  2.6868  1.0778 -2.2731
 4641SOL     OW25381   2.547   3.832   0.952 -0.0009 -0.1724 -0.4948
 4641SOL    HW125382   2.480   3.884   0.907  0.8304  0.7969 -0.6200
 4641SOL    HW225383   2.580   3.897   1.014 -1.4296 -0.4899  0.5945
 4642SOL     OW25384   1.913   1.389   4.274 -0.4461 -0.0728  0.3148
 4642SOL    HW125385   1.904   1.387   4.369 -0.7629  2.1449  0.3459
 4642SOL    HW225386   1.878   1.302   4.257 -1.0502 -0.4430  3.3664
 4643SOL     OW25387   2.157   2.823   1.877  0.1949 -0.1979  0.3557
 4643SOL    HW125388   2.234   2.842   1.931  1.5329  1.8921 -2.3128
 4643SOL    HW225389   2.202   2.794   1.798  0.0732  1.4000 -0.2800
 4644SOL     OW25390   3.726   2.902   7.738  0.0211  0.4412 -0.1818
 4644SOL    HW125391   3.729   2.995   7.761 -1.0790  0.5127 -0.3427
 4644SOL    HW225392   3.649   2.900   7.681 -0.4131 -1.1959  0.4676
 4645SOL     OW25393   3.230   1.036   4.323  0.0553 -0.0928 -0.5206
 4645SOL    HW125394   3.310   0.995   4.291 -1.3996 -1.8705 -1.8795
 4645SOL    HW225395   3.266   1.114   4.366 -1.0911 -0.8628  1.8046
 4646SOL     OW25396   4.428   1.405  12.850  0.2223 -0.0094  0.1456
 4646SOL    HW125397   4.387   1.376  12.768 -0.6752  0.1411  0.5328
 4646SOL    HW225398   4.361   1.380  12.914 -0.8350  1.7953 -0.2392
 4647SOL     OW25399   3.761   3.351   0.498  0.5858  0.3538 -0.6181
 4647SOL    HW125400   3.726   3.350   0.587  0.6284 -1.4267 -0.6067
 4647SOL    HW225401   3.812   3.270   0.488 -0.8529 -0.4118 -1.7762
 4648SOL     OW25402   1.782   2.969   8.906 -0.1737  0.0845  0.2736
 4648SOL    HW125403   1.850   3.036   8.914  0.2500 -0.3433  0.2239
 4648SOL    HW225404   1.729   2.994   8.983 -1.3961 -1.3412 -0.1098
 4649SOL     OW25405   2.942   3.865   0.972 -0.1014  0.2664 -0.0130
 4649SOL    HW125406   2.960   3.850   0.879  0.4009 -2.1209  0.4559
 4649SOL    HW225407   3.035   3.864   0.995 -0.3530  0.6416  1.0155
 4650SOL     OW25408   3.710   0.821   3.055  0.4586 -0.3597 -0.2093
 4650SOL    HW125409   3.641   0.850   3.113 -0.1735 -0.9275 -0.6759
 4650SOL    HW225410   3.725   0.730   3.081  0.1237 -0.0775  0.9492
 4651SOL     OW25411   2.300   0.131   5.066 -0.3600 -0.1875  0.4353
 4651SOL    HW125412   2.215   0.168   5.044  0.7366  2.9113  1.3740
 4651SOL    HW225413   2.344   0.163   4.987  0.3515 -0.1989  0.8284
 4652SOL     OW25414   1.933   4.509  12.266  0.3156  0.2667 -0.3965
 4652SOL    HW125415   1.839   4.497  12.257  0.2025 -0.2511  1.5805
 4652SOL    HW225416   1.951   4.499  12.359 -2.5247  2.6380  0.3812
 4653SOL     OW25417   4.064   1.286   3.166 -0.8148  0.0956  0.3779
 4653SOL    HW125418   4.015   1.230   3.105  0.6027  1.0907 -1.6573
 4653SOL    HW225419   4.151   1.257   3.140 -1.7376 -0.8425 -1.7155
 4654SOL     OW25420   2.539   4.060   2.364  0.4397  0.3108  0.1597
 4654SOL    HW125421   2.626   4.033   2.393 -0.1419 -0.6337  1.0594
 4654SOL    HW225422   2.516   4.133   2.422  1.4274  1.6876 -1.2005
 4655SOL     OW25423   2.310   2.379  17.033 -0.6840  0.0374  0.0205
 4655SOL    HW125424   2.293   2.327  16.954  1.2604  0.5794 -0.7709
 4655SOL    HW225425   2.221   2.409  17.050 -1.2296  0.0276 -2.7494
 4656SOL     OW25426   0.659   2.246   8.981 -0.1315 -0.0439 -1.0347
 4656SOL    HW125427   0.639   2.339   8.969  0.8609  0.1914 -0.8722
 4656SOL    HW225428   0.573   2.205   8.969  1.0193 -2.0582 -2.3990
 4657SOL     OW25429   2.922   3.642   0.350 -0.2281  0.1522 -0.0222
 4657SOL    HW125430   2.896   3.627   0.259  0.3074  2.4875 -0.5690
 4657SOL    HW225431   3.017   3.641   0.338 -0.3904 -0.4278 -1.2365
 4658SOL     OW25432   1.621   2.194   5.040  0.5244 -0.1662 -0.3249
 4658SOL    HW125433   1.561   2.251   4.992 -0.9069 -0.1148  1.4773
 4658SOL    HW225434   1.678   2.170   4.967  0.4092  0.1062 -0.5035
 4659SOL     OW25435   0.282   0.634   8.214 -0.3597 -0.1649 -0.4461
 4659SOL    HW125436   0.361   0.587   8.186 -1.9143 -1.9759 -1.7489
 4659SOL    HW225437   0.312   0.678   8.294  0.3322 -0.4161 -0.5659
 4660SOL     OW25438   1.500   0.960   7.783  0.4185  0.3111  0.2571
 4660SOL    HW125439   1.545   0.875   7.773  1.2994  0.4654  2.8949
 4660SOL    HW225440   1.541   1.005   7.857 -0.2084  0.8111  0.2949
 4661SOL     OW25441   0.873   0.678   7.826 -0.4566 -0.5295  0.7484
 4661SOL    HW125442   0.891   0.698   7.918  3.6036  2.6935 -0.7517
 4661SOL    HW225443   0.959   0.653   7.792 -0.1954  0.5646  0.5900
 4662SOL     OW25444   4.445   2.794   2.549  0.2378  0.0205  0.5563
 4662SOL    HW125445   4.505   2.739   2.499 -0.3052  0.4993 -0.6150
 4662SOL    HW225446   4.404   2.847   2.481 -1.7092 -1.9700  0.1791
 4663SOL     OW25447   2.724   1.614   4.777  0.8165  0.4836  0.5581
 4663SOL    HW125448   2.749   1.608   4.869  0.0028  0.2263  0.7571
 4663SOL    HW225449   2.629   1.620   4.787  0.3843  3.2629 -4.7208
 4664SOL     OW25450   2.756   2.310  11.374 -0.2543  0.0543 -0.1190
 4664SOL    HW125451   2.789   2.228  11.338 -0.3605 -0.5433  1.1471
 4664SOL    HW225452   2.704   2.354  11.307  0.0808  1.6102  0.6182
 4665SOL     OW25453   1.221   2.530   8.848 -0.2860  0.3519 -0.4066
 4665SOL    HW125454   1.204   2.472   8.774 -1.0315 -2.3544  1.8831
 4665SOL    HW225455   1.313   2.553   8.839 -0.5686  1.3005 -0.8831
 4666SOL     OW25456   3.780   2.091   7.474 -0.3707 -0.3482  0.3647
 4666SOL    HW125457   3.740   2.169   7.512  1.3787 -0.3107  2.0876
 4666SOL    HW225458   3.758   2.018   7.532  1.0347 -1.8714 -1.0071
 4667SOL     OW25459   2.523   4.090   3.123  0.0720  0.0146  0.1727
 4667SOL    HW125460   2.470   4.031   3.177 -0.5061 -0.6827 -1.1468
 4667SOL    HW225461   2.523   4.169   3.176  0.5457 -0.0318  0.2450
 4668SOL     OW25462   2.108   2.496   1.225 -0.1170 -0.7026  0.0619
 4668SOL    HW125463   2.071   2.495   1.314  1.1184  0.1869  0.5904
 4668SOL    HW225464   2.070   2.576   1.189  0.6862 -0.1410  0.4682
 4669SOL     OW25465   4.401   0.009   2.769  0.2440  0.0604 -0.3455
 4669SOL    HW125466   4.349   4.706   2.693 -1.1460  0.3733  0.5013
 4669SOL    HW225467   4.349   4.702   2.844  3.1466  1.6618  2.2779
 4670SOL     OW25468   3.767   1.308   7.430 -0.5002 -0.2417 -0.3739
 4670SOL    HW125469   3.806   1.251   7.363  1.6399  0.7226  0.0469
 4670SOL    HW225470   3.709   1.248   7.477 -0.7749  0.0496 -0.3454
 4671SOL     OW25471   4.210   3.090   8.652 -0.0306 -0.0136 -0.6299
 4671SOL    HW125472   4.154   3.157   8.612 -0.2146  1.6522  2.4660
 4671SOL    HW225473   4.294   3.136   8.660 -0.2820  0.4068 -0.4009
 4672SOL     OW25474   2.523   1.786  14.661  0.4509 -0.0264  0.0905
 4672SOL    HW125475   2.495   1.846  14.592  0.8980 -0.1885 -0.2303
 4672SOL    HW225476   2.461   1.714  14.657  0.5750 -0.1910  1.0567
 4673SOL     OW25477   4.357   0.112   0.348  0.1028  0.3144  0.1674
 4673SOL    HW125478   4.272   0.069   0.350  0.2086  0.0284 -1.4592
 4673SOL    HW225479   4.414   0.038   0.369  0.3633 -0.1614 -2.1957
 4674SOL     OW25480   0.280   2.338   2.227 -0.2517  0.3732  0.2294
 4674SOL    HW125481   0.314   2.288   2.153 -1.1071  0.5185 -0.2567
 4674SOL    HW225482   0.364   2.370   2.261 -1.1077 -1.3504  4.0041
 4675SOL     OW25483   4.282   4.507  17.393 -0.2698  0.0963  0.0661
 4675SOL    HW125484   4.187   4.509  17.399 -0.1520  2.4688  1.1656
 4675SOL    HW225485   4.293   4.487  17.300 -3.9648  1.9413 -0.7815
 4676SOL     OW25486   0.921   1.272   5.371  0.0934  0.1107  0.2153
 4676SOL    HW125487   0.996   1.290   5.315  0.7060 -1.3963  0.5542
 4676SOL    HW225488   0.861   1.303   5.303  0.6628  0.9158  0.0797
 4677SOL     OW25489   0.736   2.896   6.082 -0.3094  0.1055  0.2786
 4677SOL    HW125490   0.750   2.804   6.059 -0.1310  0.3035 -0.4104
 4677SOL    HW225491   0.801   2.942   6.028  0.8924 -2.6219 -0.6024
 4678SOL     OW25492   1.931   0.540  10.246  0.1192 -0.1030 -0.2375
 4678SOL    HW125493   1.917   0.631  10.220  1.7344  0.2849  0.2545
 4678SOL    HW225494   1.841   0.512  10.232 -0.1916  0.3975  0.7505
 4679SOL     OW25495   1.275   4.308  17.661 -0.6905  0.3778 -0.2263
 4679SOL    HW125496   1.334   4.308   0.044 -2.0645  0.9370  0.8418
 4679SOL    HW225497   1.197   4.270   0.008 -1.0284  2.7845  1.4071
 4680SOL     OW25498   3.700   4.612  15.344 -0.2881 -0.2628 -0.0405
 4680SOL    HW125499   3.759   4.560  15.398  1.1394 -0.1875 -1.5426
 4680SOL    HW225500   3.753   4.646  15.272  1.4866 -0.6439  1.0809
 4681SOL     OW25501   0.108   3.523   3.005  0.0186 -0.3003  0.0724
 4681SOL    HW125502   0.200   3.528   2.979  0.3433 -0.8475  1.1121
 4681SOL    HW225503   0.078   3.526   2.914  1.0294 -0.9956 -0.2959
 4682SOL     OW25504   0.190   3.328   5.821  0.1743  0.5693  0.4932
 4682SOL    HW125505   0.264   3.311   5.879 -0.8031 -1.0512  1.2777
 4682SOL    HW225506   0.229   3.291   5.742 -1.6839  0.3399 -0.3295
 4683SOL     OW25507   3.697   0.099   7.119 -0.0252  0.7170 -0.1167
 4683SOL    HW125508   3.750   0.102   7.199  0.9478 -0.5546 -0.7288
 4683SOL    HW225509   3.760   0.133   7.056  1.6544 -1.1290  0.5802
 4684SOL     OW25510   1.707   1.109   6.801 -0.0037  0.0908  0.4119
 4684SOL    HW125511   1.707   1.118   6.705 -1.0551 -0.1473  0.3960
 4684SOL    HW225512   1.645   1.037   6.812  0.6385 -0.4124  0.7520
 4685SOL     OW25513   3.355   3.841  15.855  0.2896  0.0412 -0.1824
 4685SOL    HW125514   3.318   3.844  15.767  0.9835  1.1933 -0.4378
 4685SOL    HW225515   3.277   3.853  15.909  1.3619 -0.4102  1.4776
 4686SOL     OW25516   0.288   0.509  14.073 -0.1289 -0.3996  0.0558
 4686SOL    HW125517   0.206   0.501  14.122  0.3890  3.4889  1.5845
 4686SOL    HW225518   0.307   0.602  14.086 -2.6376  0.2750 -1.2346
 4687SOL     OW25519   0.139   3.059   0.712  0.2206 -0.2358 -0.2180
 4687SOL    HW125520   0.104   3.092   0.629 -0.5093 -1.5932 -0.4638
 4687SOL    HW225521   0.122   3.131   0.772  1.9314 -0.1803  0.1973
 4688SOL     OW25522   2.645   3.802   5.399 -0.0539 -0.0302 -0.0514
 4688SOL    HW125523   2.714   3.735   5.399 -0.2813 -0.2598  0.7441
 4688SOL    HW225524   2.581   3.757   5.345 -0.3447 -0.6656  0.8375
 4689SOL     OW25525   0.620   1.961  12.454  0.6797  0.1146  0.1510
 4689SOL    HW125526   0.558   2.034  12.452 -1.8477 -1.9955  2.0183
 4689SOL    HW225527   0.635   1.974  12.548  0.5517 -1.2213  0.3597
 4690SOL     OW25528   1.449   4.228   4.674 -0.6609  0.6753 -0.7197
 4690SOL    HW125529   1.533   4.254   4.713 -1.2140  1.8959 -0.3158
 4690SOL    HW225530   1.430   4.302   4.617  2.6055  1.4797 -0.7952
 4691SOL     OW25531   3.040   3.438  11.817  0.3736 -0.9086 -0.3343
 4691SOL    HW125532   3.032   3.453  11.723 -0.2290 -0.8612 -0.2763
 4691SOL    HW225533   3.022   3.527  11.849 -0.1599 -0.9996 -0.3758
 4692SOL     OW25534   3.415   2.997   2.756 -0.6713  0.4820  0.1225
 4692SOL    HW125535   3.348   3.058   2.787 -0.7572  0.0513  0.7952
 4692SOL    HW225536   3.366   2.941   2.695 -2.0010  1.5155  0.2409
 4693SOL     OW25537   3.206   3.160   2.817  0.3570  0.7011 -0.5867
 4693SOL    HW125538   3.115   3.143   2.790 -0.5955  1.7797  1.9358
 4693SOL    HW225539   3.198   3.231   2.881 -0.4151 -1.2754  1.5100
 4694SOL     OW25540   2.962   3.772  13.049  0.2003  0.4644 -0.6591
 4694SOL    HW125541   3.008   3.843  13.093 -0.1891 -1.0693  2.2155
 4694SOL    HW225542   3.016   3.770  12.970  1.5185 -1.7532  0.2982
 4695SOL     OW25543   0.820   2.629   7.825  0.1310  0.3695  0.2069
 4695SOL    HW125544   0.802   2.652   7.733  1.2183  0.3425 -0.0151
 4695SOL    HW225545   0.874   2.551   7.814  0.3036  0.4306  0.6537
 4696SOL     OW25546   2.676   0.186   4.590  0.2507 -0.1791 -0.0208
 4696SOL    HW125547   2.750   0.246   4.581 -0.2172  0.8107  2.7510
 4696SOL    HW225548   2.598   0.241   4.604 -2.2337 -4.0285  1.2518
 4697SOL     OW25549   1.701   2.465   8.627  0.5936 -0.1021 -0.3198
 4697SOL    HW125550   1.658   2.451   8.543  1.1403 -0.8975 -0.4668
 4697SOL    HW225551   1.786   2.492   8.592  0.6730 -0.2300 -0.2258
 4698SOL     OW25552   0.881   0.689   8.105 -0.2996  0.2193  0.2860
 4698SOL    HW125553   0.936   0.705   8.182  1.5726 -2.1427 -0.5544
 4698SOL    HW225554   0.822   0.620   8.136 -2.2195  0.7502 -2.2576
 4699SOL     OW25555   3.666   4.526   1.900 -0.0950 -0.4774  0.0416
 4699SOL    HW125556   3.605   4.589   1.862  1.3094  2.0021  1.8745
 4699SOL    HW225557   3.730   4.511   1.830 -0.3377  0.2681 -0.3446
 4700SOL     OW25558   0.356   4.106   2.876 -0.0898 -0.5504 -0.1262
 4700SOL    HW125559   0.290   4.170   2.847  0.8090  0.3410 -0.2026
 4700SOL    HW225560   0.393   4.138   2.958  0.3164 -2.0957  0.2840
 4701SOL     OW25561   0.234   2.133   8.232  0.0302  0.5614  0.0628
 4701SOL    HW125562   0.324   2.127   8.263 -0.1321 -1.0732  0.1849
 4701SOL    HW225563   0.195   2.050   8.258  2.7366 -0.0247  2.1982
 4702SOL     OW25564   4.437   1.666   4.877  0.5548  0.0991  0.7306
 4702SOL    HW125565   4.397   1.583   4.852 -1.7579  1.3130  0.4155
 4702SOL    HW225566   4.457   1.704   4.791 -1.4891 -0.2502  0.1047
 4703SOL     OW25567   2.783   4.129   7.929 -0.2175 -0.4010  0.3293
 4703SOL    HW125568   2.712   4.154   7.989  0.5831 -0.1787  1.1821
 4703SOL    HW225569   2.751   4.049   7.889 -1.7717  0.0682  0.6254
 4704SOL     OW25570   0.010   1.732  13.763 -0.0020  0.4366  0.3710
 4704SOL    HW125571   0.067   1.776  13.699 -0.1851 -1.8027 -1.3300
 4704SOL    HW225572   4.650   1.718  13.717 -0.6958  1.9762  1.1249
 4705SOL     OW25573   2.204   1.225  10.565 -0.0193 -0.1948 -0.2481
 4705SOL    HW125574   2.123   1.178  10.547  0.5054 -0.8205 -0.9942
 4705SOL    HW225575   2.239   1.225  10.476 -1.5152 -0.0576 -0.8346
 4706SOL     OW25576   4.237   0.847  10.700 -0.0025 -0.0328  0.1989
 4706SOL    HW125577   4.305   0.913  10.709  0.1601 -0.2445  0.5549
 4706SOL    HW225578   4.258   0.805  10.617  0.8052  3.0207 -1.1228
 4707SOL     OW25579   2.224   1.375  16.023  0.4457 -0.3199 -0.4521
 4707SOL    HW125580   2.152   1.437  16.030  1.8471  1.2177  0.5986
 4707SOL    HW225581   2.292   1.429  15.982  2.1734 -1.2110  1.2230
 4708SOL     OW25582   4.095   1.655   2.198 -0.3931 -0.4213 -0.1694
 4708SOL    HW125583   4.109   1.615   2.113 -1.6657  0.2154 -0.6800
 4708SOL    HW225584   4.167   1.716   2.186  1.0608 -2.4778 -1.8765
 4709SOL     OW25585   1.078   2.763   4.824 -0.1364 -0.5020  0.5106
 4709SOL    HW125586   1.096   2.853   4.798  1.5819 -0.9346  0.1955
 4709SOL    HW225587   1.073   2.764   4.920  0.7857  0.6764  0.5444
 4710SOL     OW25588   4.129   1.751  10.996 -0.0001 -0.2824  0.4587
 4710SOL    HW125589   4.103   1.841  10.978  1.5839 -0.1280 -1.0724
 4710SOL    HW225590   4.133   1.744  11.091  0.3975  2.2904  0.6217
 4711SOL     OW25591   3.852   3.042  15.674  0.4435 -0.7018  0.4828
 4711SOL    HW125592   3.758   3.044  15.691  0.3822  0.3804  0.0421
 4711SOL    HW225593   3.858   3.089  15.591  0.7228 -1.3823  0.1142
 4712SOL     OW25594   1.980   3.190   7.324  0.1740  0.4703  0.1006
 4712SOL    HW125595   1.970   3.278   7.290 -0.3235  0.5499  0.4461
 4712SOL    HW225596   1.934   3.149   7.250  2.3972  0.1588 -1.0837
 4713SOL     OW25597   3.026   3.801   8.769  0.2003  0.2656 -0.1116
 4713SOL    HW125598   3.049   3.874   8.711  0.6998 -0.8850 -1.3539
 4713SOL    HW225599   3.110   3.774   8.806  0.3794  1.0818  0.0734
 4714SOL     OW25600   2.730   4.132   5.755 -0.0109  0.5623  0.6027
 4714SOL    HW125601   2.737   4.206   5.695  0.5858  1.1042  1.3466
 4714SOL    HW225602   2.657   4.087   5.713  0.3066 -0.5032  1.1844
 4715SOL     OW25603   4.519   2.953  12.662  0.9134 -0.1752  0.0533
 4715SOL    HW125604   4.448   2.902  12.699 -0.2861  0.6104 -1.1407
 4715SOL    HW225605   4.539   3.017  12.730  0.5247 -2.1488  2.0107
 4716SOL     OW25606   3.257   3.488   9.113  0.1949  0.5419 -0.4225
 4716SOL    HW125607   3.214   3.438   9.044 -1.4720  1.6939 -0.2122
 4716SOL    HW225608   3.326   3.530   9.061 -1.7357  2.3867 -1.4978
 4717SOL     OW25609   2.443   0.735  15.006  0.1569 -0.1815 -0.6312
 4717SOL    HW125610   2.448   0.791  15.084 -0.1342  0.8424 -1.3513
 4717SOL    HW225611   2.516   0.770  14.956  1.3457  1.6107  2.3408
 4718SOL     OW25612   4.689   2.052  15.521  0.0470 -0.2211 -0.5150
 4718SOL    HW125613   4.604   2.095  15.528  0.5035  0.5733  0.1453
 4718SOL    HW225614   0.029   2.125  15.528  0.7375 -0.7360 -1.3488
 4719SOL     OW25615   1.723   0.753   7.859  0.0129  0.2316  0.6735
 4719SOL    HW125616   1.675   0.671   7.873  0.4071 -0.2828 -1.0229
 4719SOL    HW225617   1.799   0.719   7.811 -0.6710  1.0434 -0.9814
 4720SOL     OW25618   1.425   3.902   6.496 -0.7311  0.0742  0.2631
 4720SOL    HW125619   1.421   3.832   6.561  0.8673  4.1291  4.6971
 4720SOL    HW225620   1.437   3.855   6.413 -0.3864 -0.4743  0.6247
 4721SOL     OW25621   3.762   3.022  16.915 -0.1919  0.1982 -0.1541
 4721SOL    HW125622   3.671   2.996  16.926 -0.0627  0.0479  0.5382
 4721SOL    HW225623   3.745   3.102  16.865 -0.2435  0.2811 -0.0041
 4722SOL     OW25624   2.928   2.161   8.611  0.4871 -0.0349  1.0604
 4722SOL    HW125625   2.970   2.221   8.550  1.4074 -1.4981  0.2434
 4722SOL    HW225626   2.938   2.074   8.573  4.2486  0.2869  1.3129
 4723SOL     OW25627   0.066   3.210   2.278  0.1654 -0.1964 -0.1862
 4723SOL    HW125628   0.023   3.128   2.254 -0.0830  0.1167 -0.7982
 4723SOL    HW225629   0.071   3.199   2.373  0.5658 -0.6380 -0.2643
 4724SOL     OW25630   3.795   0.754   5.639  0.3965 -0.0147  0.5163
 4724SOL    HW125631   3.747   0.739   5.557  1.1279  0.0153  0.0800
 4724SOL    HW225632   3.732   0.725   5.704 -1.5314  1.4576 -0.6744
 4725SOL     OW25633   3.009   3.512   5.068  0.1409  0.0313 -0.8373
 4725SOL    HW125634   2.965   3.593   5.041 -0.6632  0.8817  2.9418
 4725SOL    HW225635   3.090   3.536   5.112 -0.8845 -0.1676  1.1940
 4726SOL     OW25636   0.049   2.740   8.934 -0.0482  0.2635 -0.2667
 4726SOL    HW125637   0.127   2.732   8.989  2.3110  1.4290 -3.4294
 4726SOL    HW225638   4.705   2.731   9.002 -1.2675 -3.4184 -1.8844
 4727SOL     OW25639   4.275   2.354   3.020 -0.2722  0.2085  0.3439
 4727SOL    HW125640   4.350   2.317   3.068 -2.2117 -1.2554  2.2322
 4727SOL    HW225641   4.205   2.314   3.070 -2.5127  3.0321 -0.5490
 4728SOL     OW25642   1.883   3.020  13.482  0.3061 -0.6024 -0.0246
 4728SOL    HW125643   1.905   3.053  13.395 -1.4518  1.2826  0.2575
 4728SOL    HW225644   1.788   3.021  13.468  0.1761 -0.0645  0.8945
 4729SOL     OW25645   2.095   0.327   5.809 -0.0334 -0.4117  0.3885
 4729SOL    HW125646   2.150   0.282   5.745  0.3354 -0.4814  0.7540
 4729SOL    HW225647   2.035   0.262   5.846 -0.3760  0.9715  2.2897
 4730SOL     OW25648   2.056   4.047   4.180  0.0206 -0.8222  0.3307
 4730SOL    HW125649   2.143   4.071   4.211 -0.9782  1.8276  1.1337
 4730SOL    HW225650   2.012   4.050   4.265  0.3673 -1.4657  0.5299
 4731SOL     OW25651   0.443   0.620   4.932  0.7060 -0.1166 -0.6182
 4731SOL    HW125652   0.449   0.535   4.975 -1.8726  0.5255  1.0502
 4731SOL    HW225653   0.523   0.634   4.882  1.1399 -0.3826 -0.0018
 4732SOL     OW25654   4.443   1.407  13.935 -0.6530 -0.0012  0.3990
 4732SOL    HW125655   4.511   1.445  13.879 -0.2331 -1.3247  0.0051
 4732SOL    HW225656   4.380   1.479  13.933 -2.1487 -1.3393 -0.4632
 4733SOL     OW25657   0.561   2.909   5.477  0.3953  0.2299 -0.2612
 4733SOL    HW125658   0.552   2.827   5.428 -0.4542  0.2527 -0.1455
 4733SOL    HW225659   0.538   2.969   5.407 -0.0063 -2.5128 -2.4806
 4734SOL     OW25660   4.628   1.636  10.865  0.0374 -0.2628 -0.4967
 4734SOL    HW125661   4.541   1.676  10.867 -0.2584 -0.9127 -0.4875
 4734SOL    HW225662   4.656   1.660  10.777  3.8813  0.3480  0.9001
 4735SOL     OW25663   2.105   1.825   9.626 -0.1765 -0.4566 -0.4077
 4735SOL    HW125664   2.082   1.889   9.693  1.9544 -1.2360  1.1103
 4735SOL    HW225665   2.200   1.840   9.621 -0.5509  2.2006  0.6161
 4736SOL     OW25666   2.878   3.010  14.818  0.1087 -0.4336  0.1015
 4736SOL    HW125667   2.944   3.078  14.831  0.6009 -1.5072  3.0971
 4736SOL    HW225668   2.896   2.988  14.727  1.2388  0.3572  0.1276
 4737SOL     OW25669   0.094   4.024   6.016 -0.5193  0.5018 -0.1342
 4737SOL    HW125670   0.047   4.062   6.091  0.1141  0.1299  0.4507
 4737SOL    HW225671   0.175   4.004   6.063  0.7570  1.1873 -2.0502
 4738SOL     OW25672   3.288   3.397   8.564  0.9458  0.1319  0.2752
 4738SOL    HW125673   3.355   3.331   8.579  0.4272 -0.3853  0.3156
 4738SOL    HW225674   3.263   3.388   8.473 -0.6513 -0.0304  0.7296
 4739SOL     OW25675   1.602   3.688   9.068  0.0109  1.1822 -0.3131
 4739SOL    HW125676   1.596   3.712   9.161 -1.0997 -0.8449  0.1249
 4739SOL    HW225677   1.568   3.599   9.074  3.3562 -0.0021  1.3456
 4740SOL     OW25678   3.296   2.208   9.179  0.3166  0.3996  0.8294
 4740SOL    HW125679   3.327   2.156   9.104  3.5236  0.1182  2.3975
 4740SOL    HW225680   3.207   2.174   9.192 -0.6006  2.5951  0.2008
 4741SOL     OW25681   1.404   1.751   1.388 -0.1001 -0.1048 -0.5794
 4741SOL    HW125682   1.375   1.783   1.474 -0.0962 -0.8151 -0.3172
 4741SOL    HW225683   1.321   1.758   1.341 -0.3609  2.5095  0.2332
 4742SOL     OW25684   0.413   3.713   5.465 -0.0495  0.6750  0.2674
 4742SOL    HW125685   0.372   3.695   5.380 -0.2413 -0.1703  0.5340
 4742SOL    HW225686   0.383   3.802   5.481 -1.1602  0.6899 -1.8683
 4743SOL     OW25687   1.993   1.712   8.224  0.2360 -0.0803 -0.4828
 4743SOL    HW125688   2.038   1.634   8.257 -0.7394  0.4416  2.1197
 4743SOL    HW225689   2.063   1.772   8.197  0.0220  0.3989  0.0372
 4744SOL     OW25690   2.492   0.185   4.001 -0.4695 -0.4414  0.0786
 4744SOL    HW125691   2.411   0.186   3.951 -0.2393 -3.2880 -0.3788
 4744SOL    HW225692   2.558   0.223   3.944 -1.8466 -0.2910 -1.4178
 4745SOL     OW25693   0.155   3.478   0.794 -0.0820 -0.3131 -0.5166
 4745SOL    HW125694   0.155   3.539   0.867  1.4274 -1.6393  0.5934
 4745SOL    HW225695   0.086   3.415   0.818 -0.3020  0.1264  0.0125
 4746SOL     OW25696   2.209   3.775   0.742 -0.0874  0.2406  0.1604
 4746SOL    HW125697   2.231   3.851   0.796 -1.0542  0.8187 -0.2502
 4746SOL    HW225698   2.204   3.816   0.656  2.6749  0.7703  0.2543
 4747SOL     OW25699   2.205   3.491   6.675 -0.2299 -0.6302  0.5137
 4747SOL    HW125700   2.261   3.413   6.672 -0.2739 -0.6390 -0.0490
 4747SOL    HW225701   2.266   3.564   6.660  0.1106 -0.9310  0.4258
 4748SOL     OW25702   3.456   3.488   7.834  0.3175  0.2522 -0.3718
 4748SOL    HW125703   3.492   3.533   7.910  1.9461 -1.4126 -0.1764
 4748SOL    HW225704   3.463   3.395   7.853  0.3047 -0.0547 -1.8674
 4749SOL     OW25705   3.782   1.406   5.546 -0.2362  0.9101  0.5313
 4749SOL    HW125706   3.736   1.369   5.622  0.8886 -1.2212  0.1784
 4749SOL    HW225707   3.708   1.444   5.498  0.8307 -0.3191 -2.1458
 4750SOL     OW25708   2.993   3.198   9.310  0.4887  0.3682  0.1166
 4750SOL    HW125709   2.958   3.253   9.240 -0.9919 -0.1368  0.4426
 4750SOL    HW225710   2.983   3.106   9.283  0.3128  0.6116 -0.6377
 4751SOL     OW25711   4.205   1.536   6.922 -0.0157  0.0000  0.1953
 4751SOL    HW125712   4.221   1.512   6.831  0.9549 -1.4349  0.7610
 4751SOL    HW225713   4.286   1.506   6.962  1.0332  1.2776 -0.9697
 4752SOL     OW25714   2.360   4.511   6.826  0.0080 -0.6150 -0.4823
 4752SOL    HW125715   2.302   4.459   6.883  1.7622  0.6961  2.5048
 4752SOL    HW225716   2.396   4.581   6.880  0.6191  0.1525 -1.8807
 4753SOL     OW25717   1.851   3.867  15.399 -0.0182  0.0412 -0.1211
 4753SOL    HW125718   1.828   3.858  15.492  0.0116  0.5103 -0.0655
 4753SOL    HW225719   1.807   3.950  15.378  1.1509  0.9339  0.9141
 4754SOL     OW25720   0.287   2.350   4.971 -0.0714  0.4417  0.1044
 4754SOL    HW125721   0.240   2.432   4.988 -0.3116  0.2700  0.2744
 4754SOL    HW225722   0.311   2.339   5.063 -0.2220  1.0038  0.2134
 4755SOL     OW25723   0.799   0.445   5.162  0.7310  0.3206 -0.5117
 4755SOL    HW125724   0.733   0.477   5.224  0.1236 -2.6342  0.4118
 4755SOL    HW225725   0.878   0.463   5.212  0.7951  1.6589 -1.0953
 4756SOL     OW25726   2.728   4.280  15.666  0.2655 -0.0382 -0.3873
 4756SOL    HW125727   2.665   4.215  15.638  0.5690  0.2237 -1.6679
 4756SOL    HW225728   2.675   4.348  15.708  0.0827 -0.1340 -0.4671
 4757SOL     OW25729   2.165   1.506   9.473 -0.6633 -0.0621 -0.3004
 4757SOL    HW125730   2.252   1.473   9.451 -1.0975 -0.2229 -1.7814
 4757SOL    HW225731   2.156   1.539   9.563  3.5728  0.6171 -0.1103
 4758SOL     OW25732   1.994   0.674   5.297  0.4078  0.3618  0.3738
 4758SOL    HW125733   1.998   0.585   5.333 -2.4091  0.6689  1.4573
 4758SOL    HW225734   1.907   0.704   5.324  1.0541  0.9201  1.8424
 4759SOL     OW25735   1.918   2.796   8.739 -0.2216 -0.3142 -0.6837
 4759SOL    HW125736   1.837   2.837   8.768 -0.1287  1.0534 -2.3685
 4759SOL    HW225737   1.981   2.859   8.773 -0.9295  0.5211 -0.9419
 4760SOL     OW25738   4.587   1.688   9.743  0.0894  0.0978 -0.1126
 4760SOL    HW125739   4.630   1.730   9.668  0.2060 -0.1380 -0.1781
 4760SOL    HW225740   4.502   1.731   9.743 -0.3289 -0.7199 -0.9335
 4761SOL     OW25741   2.781   4.282   6.379  0.2180  0.3177 -0.3826
 4761SOL    HW125742   2.824   4.201   6.406 -0.1576 -0.1387 -1.1448
 4761SOL    HW225743   2.831   4.350   6.424 -0.4599  0.7803 -0.3126
 4762SOL     OW25744   2.537   2.009   0.666  0.4495 -0.0477  0.7590
 4762SOL    HW125745   2.489   2.036   0.588  0.6411 -0.0996  0.6222
 4762SOL    HW225746   2.526   2.095   0.708 -2.0410 -0.3160  0.6267
 4763SOL     OW25747   1.587   1.123   3.090  0.1826 -0.2533  0.6057
 4763SOL    HW125748   1.518   1.178   3.127 -0.8451 -0.5130 -0.9420
 4763SOL    HW225749   1.541   1.114   3.006  0.3128  0.9078  0.4177
 4764SOL     OW25750   2.619   0.283   6.811 -0.4526 -0.0490 -0.7573
 4764SOL    HW125751   2.586   0.199   6.845 -0.0359 -0.1071 -0.4902
 4764SOL    HW225752   2.703   0.262   6.771  0.9319  0.4290  1.8822
 4765SOL     OW25753   0.782   1.395   5.913 -0.0032 -0.2536 -0.4011
 4765SOL    HW125754   0.862   1.445   5.899  0.9803 -1.8502 -0.4635
 4765SOL    HW225755   0.790   1.311   5.868 -1.5691 -1.3034  1.2985
 4766SOL     OW25756   1.130   4.698   4.802 -0.4170 -0.2860 -0.2952
 4766SOL    HW125757   1.103   4.683   4.711  0.2560  1.1482 -0.7283
 4766SOL    HW225758   1.046   4.705   4.848  1.2294  1.6761  2.4299
 4767SOL     OW25759   2.283   2.166   2.502 -0.0729 -0.1735 -0.8980
 4767SOL    HW125760   2.356   2.122   2.459 -0.7823 -1.0331 -1.2334
 4767SOL    HW225761   2.235   2.088   2.532  0.1370 -0.1445 -0.4811
 4768SOL     OW25762   3.272   4.443   5.544  0.0465 -0.5261 -0.3562
 4768SOL    HW125763   3.287   4.349   5.528  1.1853 -0.3613 -0.2638
 4768SOL    HW225764   3.360   4.479   5.529  0.1072 -1.3626 -2.0174
 4769SOL     OW25765   2.474   2.243   0.796  0.2259 -0.0820  0.4307
 4769SOL    HW125766   2.426   2.318   0.831  0.6343 -0.0535  0.9369
 4769SOL    HW225767   2.544   2.293   0.754 -0.2479  1.7448  1.7956
 4770SOL     OW25768   1.647   4.183   3.567 -0.2896  0.1367  0.1280
 4770SOL    HW125769   1.635   4.277   3.553 -0.6218 -0.0171 -0.6402
 4770SOL    HW225770   1.682   4.193   3.655 -0.9482  3.2288  0.0608
 4771SOL     OW25771   2.191   2.057   2.034 -0.3437 -0.3355  0.1373
 4771SOL    HW125772   2.138   2.009   1.971 -0.5414 -0.9640  0.7805
 4771SOL    HW225773   2.255   2.110   1.986 -0.5642 -1.6397 -1.5564
 4772SOL     OW25774   0.827   3.335  15.441 -0.4340  0.4788  0.4242
 4772SOL    HW125775   0.816   3.429  15.457  1.7034  0.5996  1.2026
 4772SOL    HW225776   0.742   3.310  15.406 -1.1404 -0.7235  2.9749
 4773SOL     OW25777   3.587   2.905   3.155 -0.0284  0.1874  0.0092
 4773SOL    HW125778   3.526   2.880   3.085 -1.7988  1.5401  1.0662
 4773SOL    HW225779   3.663   2.932   3.103  1.1204 -3.0565  0.0057
 4774SOL     OW25780   3.500   3.023   7.613  0.8007  0.3997  0.4193
 4774SOL    HW125781   3.464   2.965   7.546 -0.0626  0.3866  0.8918
 4774SOL    HW225782   3.437   3.028   7.685  0.3981  0.9614  0.0283
 4775SOL     OW25783   3.923   2.282  13.539  0.5109 -0.6041 -0.3014
 4775SOL    HW125784   3.845   2.318  13.582 -1.2295 -2.4887 -1.8824
 4775SOL    HW225785   3.992   2.340  13.571 -0.4445 -0.3194  1.2867
 4776SOL     OW25786   1.890   3.125   2.167 -0.2230 -0.3970  0.2275
 4776SOL    HW125787   1.864   3.089   2.251  1.4561 -1.2854  0.3631
 4776SOL    HW225788   1.843   3.069   2.106 -1.9028  0.3381  0.8421
 4777SOL     OW25789   4.071   3.418   7.980  0.3848 -0.5336 -0.5774
 4777SOL    HW125790   4.123   3.476   8.034 -1.8793  2.0317 -1.1315
 4777SOL    HW225791   4.111   3.428   7.893 -0.6000 -1.2303 -1.1125
 4778SOL     OW25792   4.065   3.573   9.380 -0.2633 -0.5393 -0.3597
 4778SOL    HW125793   4.152   3.613   9.383 -0.3259 -0.4860  0.7294
 4778SOL    HW225794   4.043   3.574   9.286  2.1952  0.5585 -0.9344
 4779SOL     OW25795   2.998   1.235   7.494  0.0778  0.3681 -0.0442
 4779SOL    HW125796   3.041   1.280   7.421 -0.3480  0.2772 -0.3557
 4779SOL    HW225797   2.988   1.145   7.463  2.7017 -0.3768  1.2646
 4780SOL     OW25798   0.122   3.209   1.987 -0.3682 -0.1143  0.2082
 4780SOL    HW125799   0.049   3.270   1.972  0.5043  0.9744  0.3353
 4780SOL    HW225800   0.122   3.207   2.082  0.8981  0.7480  0.2282
 4781SOL     OW25801   4.426   0.607   3.622  0.1227 -0.4819  0.1172
 4781SOL    HW125802   4.334   0.628   3.638  0.0572  0.1382 -1.1306
 4781SOL    HW225803   4.423   0.511   3.633  3.9092 -0.7625 -1.5230
 4782SOL     OW25804   3.995   2.324   7.757 -0.2727 -0.0609 -0.5596
 4782SOL    HW125805   3.909   2.344   7.793 -0.3528  0.4793 -1.0471
 4782SOL    HW225806   4.059   2.344   7.826 -1.2588 -1.0391  0.6293
 4783SOL     OW25807   0.529   3.424   2.555 -0.0880  0.6635  0.1496
 4783SOL    HW125808   0.488   3.367   2.490  0.0321  1.5618 -0.6998
 4783SOL    HW225809   0.522   3.506   2.506  2.2826  0.3477 -0.7141
 4784SOL     OW25810   2.820   3.160   3.317  0.2409  0.1790  0.4454
 4784SOL    HW125811   2.786   3.127   3.233 -1.0477  0.8325  0.7059
 4784SOL    HW225812   2.800   3.090   3.380 -1.0476  0.0399 -0.1045
 4785SOL     OW25813   2.605   0.830   4.957  0.1308  0.2021 -0.3165
 4785SOL    HW125814   2.566   0.743   4.951 -0.2063  0.3243  0.1673
 4785SOL    HW225815   2.605   0.827   5.052 -1.9314  0.8195 -0.2941
 4786SOL     OW25816   4.302   3.184   5.991 -0.3293  0.0685  0.5069
 4786SOL    HW125817   4.350   3.165   5.910 -0.8158 -1.4866  0.5891
 4786SOL    HW225818   4.352   3.256   6.031  0.3979 -0.1280 -0.0390
 4787SOL     OW25819   1.177   1.370  13.043 -0.4562  0.1445 -0.6738
 4787SOL    HW125820   1.255   1.394  13.094 -0.5806 -0.2871 -0.2837
 4787SOL    HW225821   1.192   1.439  12.978  2.0810 -2.6636 -3.0488
 4788SOL     OW25822   1.336   2.709  12.831  0.4588  0.0355 -0.3215
 4788SOL    HW125823   1.248   2.674  12.821 -0.2637  1.3431  1.5593
 4788SOL    HW225824   1.388   2.643  12.786 -0.0422 -0.7289  0.2266
 4789SOL     OW25825   1.201   3.843   7.517 -0.4512  0.4872  0.3466
 4789SOL    HW125826   1.114   3.846   7.476 -0.2758  0.4914 -0.0227
 4789SOL    HW225827   1.243   3.791   7.449 -0.9224  1.1083 -0.4195
 4790SOL     OW25828   3.733   3.291   8.356 -0.2047  0.4359 -0.0757
 4790SOL    HW125829   3.647   3.320   8.386 -1.8572 -3.2698 -1.3262
 4790SOL    HW225830   3.748   3.223   8.422  1.3084  0.5370 -0.2993
 4791SOL     OW25831   2.792   2.892   4.141 -0.0634  0.1651 -0.3083
 4791SOL    HW125832   2.834   2.962   4.190 -2.0631 -0.0542  1.6822
 4791SOL    HW225833   2.768   2.934   4.058 -1.1124  1.3608  0.6120
 4792SOL     OW25834   4.494   3.773   2.115  1.0541 -0.0819  0.0187
 4792SOL    HW125835   4.579   3.732   2.131  1.6713  1.4385  0.5984
 4792SOL    HW225836   4.476   3.742   2.026 -1.8311 -0.9285  0.9324
 4793SOL     OW25837   3.190   0.368   6.961  0.1340  0.0158 -0.1655
 4793SOL    HW125838   3.114   0.415   6.995 -0.6810  0.1292 -2.1634
 4793SOL    HW225839   3.176   0.359   6.867  0.1016 -3.8912  0.1928
 4794SOL     OW25840   1.264   0.848  13.958 -0.4134  0.2195  0.5250
 4794SOL    HW125841   1.209   0.887  13.891 -2.4495 -1.8224  0.9789
 4794SOL    HW225842   1.258   0.918  14.023 -1.0930  0.8893 -0.2708
 4795SOL     OW25843   2.103   0.007  15.732  0.2328 -0.1146 -0.0007
 4795SOL    HW125844   2.032   0.071  15.737  2.0277  1.8102  0.8849
 4795SOL    HW225845   2.176   0.054  15.692 -1.1233  1.5775 -0.4917
 4796SOL     OW25846   0.932   4.033   6.814 -0.1558  0.1264 -0.3354
 4796SOL    HW125847   1.006   3.973   6.820  1.4730  1.8928 -2.4206
 4796SOL    HW225848   0.855   3.986   6.843 -1.3971  1.0897 -2.0545
 4797SOL     OW25849   4.653   2.998   8.851  0.4166 -0.5440 -0.1907
 4797SOL    HW125850   4.647   2.903   8.850 -1.3956 -0.4270  0.7931
 4797SOL    HW225851   4.718   3.027   8.916 -1.8675  2.8025  0.5779
 4798SOL     OW25852   1.021   0.091  14.071 -0.8998 -0.2254 -0.3441
 4798SOL    HW125853   0.940   0.073  14.119 -1.5937  0.5259 -1.2253
 4798SOL    HW225854   1.080   0.027  14.109 -1.0740 -1.1781 -1.6889
 4799SOL     OW25855   3.024   2.702   2.121  0.5973 -0.0401  0.7023
 4799SOL    HW125856   3.105   2.725   2.077 -1.6438  2.4323 -2.0790
 4799SOL    HW225857   2.979   2.659   2.048 -1.6706  1.5623  1.1544
 4800SOL     OW25858   1.131   2.639   7.918 -0.4263  0.3373  0.6635
 4800SOL    HW125859   1.222   2.623   7.895 -0.2948  1.4118  0.4719
 4800SOL    HW225860   1.083   2.603   7.844 -0.7372  1.1849  0.4525
 4801SOL     OW25861   4.446   1.186   7.245 -0.5870  0.4396  0.0014
 4801SOL    HW125862   4.401   1.184   7.161 -1.1705 -1.0445  0.3478
 4801SOL    HW225863   4.393   1.124   7.295 -0.9942  0.2932 -0.6093
 4802SOL     OW25864   1.398   3.735   6.823 -0.4614  0.2414 -0.6807
 4802SOL    HW125865   1.367   3.669   6.885  1.5538  0.5517  0.6743
 4802SOL    HW225866   1.315   3.782   6.821 -0.2273  0.6773 -0.1177
 4803SOL     OW25867   0.726   4.499   0.801  0.6367 -0.2579 -0.0128
 4803SOL    HW125868   0.822   4.498   0.799  0.5447 -2.1536 -3.0718
 4803SOL    HW225869   0.712   4.475   0.893  0.2821 -0.9668 -0.2489
 4804SOL     OW25870   4.013   0.074   3.949 -0.1634 -0.2105  0.0915
 4804SOL    HW125871   4.000   0.101   4.040 -1.2067 -0.5899  0.0575
 4804SOL    HW225872   4.058   0.149   3.909 -2.2187  0.7303 -0.4660
 4805SOL     OW25873   4.152   3.811   3.510  0.2751 -0.2907  0.1233
 4805SOL    HW125874   4.233   3.854   3.483  0.2291 -0.2871 -0.0109
 4805SOL    HW225875   4.140   3.736   3.451  1.1640  2.0104 -2.9516
 4806SOL     OW25876   2.049   1.682   9.283 -0.1166 -0.0270 -0.2291
 4806SOL    HW125877   2.001   1.737   9.345  3.1398  0.1174  2.1852
 4806SOL    HW225878   2.059   1.604   9.338 -0.9497  0.5993  0.8235
 4807SOL     OW25879   4.696   3.581  10.772  0.3460  0.3828  0.2584
 4807SOL    HW125880   0.062   3.557  10.746 -0.7335 -0.8204 -2.3347
 4807SOL    HW225881   4.693   3.676  10.778 -0.5164  0.4352 -0.8674
 4808SOL     OW25882   1.482   0.057   8.406  0.0579  0.2075 -0.6133
 4808SOL    HW125883   1.398   0.098   8.384  0.0961  0.0001 -1.1550
 4808SOL    HW225884   1.447   4.700   8.447 -0.0494  1.1469  1.1332
 4809SOL     OW25885   0.836   0.698   8.737 -0.1723 -0.6466  0.2736
 4809SOL    HW125886   0.899   0.628   8.718  0.9996  1.0433 -1.9261
 4809SOL    HW225887   0.865   0.778   8.694 -2.2143  0.1853  0.4545
 4810SOL     OW25888   1.020   1.362   1.767 -0.2077  0.2476  0.2762
 4810SOL    HW125889   1.043   1.307   1.692 -2.8075  3.1337 -2.6602
 4810SOL    HW225890   0.962   1.301   1.813 -4.7302  1.4676 -3.7169
 4811SOL     OW25891   1.698   4.532   4.922 -0.1295  0.0378  0.3590
 4811SOL    HW125892   1.759   4.515   4.993  0.9135 -0.6724 -0.6959
 4811SOL    HW225893   1.702   4.628   4.926  0.2214  0.0119  0.5914
 4812SOL     OW25894   0.704   0.240   2.553 -0.1108  0.2166  0.0201
 4812SOL    HW125895   0.700   0.161   2.499  1.4716  0.1962 -0.0877
 4812SOL    HW225896   0.800   0.242   2.556 -0.1657  1.8520  0.5995
 4813SOL     OW25897   2.559   0.544   0.364 -0.2771  0.6179  0.0626
 4813SOL    HW125898   2.611   0.599   0.305  0.8940  0.2262  0.7477
 4813SOL    HW225899   2.482   0.519   0.312  0.3083 -1.0688  0.0156
 4814SOL     OW25900   0.968   2.380   4.076 -0.2941 -0.1210 -0.2955
 4814SOL    HW125901   0.883   2.337   4.083  0.1096 -1.0270 -1.0362
 4814SOL    HW225902   0.940   2.470   4.095 -1.1363 -0.4060 -0.1632
 4815SOL     OW25903   3.119   4.259   1.284  0.4894  0.5348  0.1535
 4815SOL    HW125904   3.082   4.333   1.235  1.6677  0.7342 -0.4494
 4815SOL    HW225905   3.212   4.279   1.274  0.6093  0.7693  1.7669
 4816SOL     OW25906   4.167   0.164   5.624  0.0387  0.6631  0.2283
 4816SOL    HW125907   4.072   0.174   5.615 -0.0412  0.4895  0.8228
 4816SOL    HW225908   4.158   0.074   5.656 -0.0563  0.4725 -0.3296
 4817SOL     OW25909   0.516   4.369   6.445 -0.0830  0.2050  0.3575
 4817SOL    HW125910   0.526   4.353   6.539  0.4954 -1.6772 -0.0119
 4817SOL    HW225911   0.545   4.459   6.430 -1.3365  0.6407  0.6057
 4818SOL     OW25912   0.096   0.671  16.321  0.3170 -0.1925 -0.0330
 4818SOL    HW125913   0.116   0.600  16.260 -0.5010 -0.3950 -0.0739
 4818SOL    HW225914   0.015   0.634  16.357 -0.4065  0.9237 -0.5331
 4819SOL     OW25915   1.367   0.763   1.835  0.3218 -0.3865  0.1869
 4819SOL    HW125916   1.381   0.685   1.888  0.3996 -1.5818 -1.6012
 4819SOL    HW225917   1.278   0.747   1.803  0.8086  0.9709 -1.8860
 4820SOL     OW25918   2.418   1.383   8.364 -0.4991 -0.3585  0.6099
 4820SOL    HW125919   2.513   1.383   8.351 -0.6569  1.2770 -0.5752
 4820SOL    HW225920   2.421   1.336   8.447 -0.2660 -1.3872  0.0176
 4821SOL     OW25921   0.029   0.312  10.653  0.1887  0.1090  0.2220
 4821SOL    HW125922   0.038   0.354  10.568 -0.9772 -1.5689 -0.7167
 4821SOL    HW225923   4.661   0.284  10.657  0.1107  0.4516  1.0831
 4822SOL     OW25924   2.537   4.546  17.642 -0.4584 -0.4499 -0.2298
 4822SOL    HW125925   2.444   4.531  17.657 -0.4735 -1.1920 -1.0777
 4822SOL    HW225926   2.560   4.458  17.611  2.5191  0.7010 -1.3403
 4823SOL     OW25927   1.590   1.179   4.539 -0.0448 -0.1110 -0.1560
 4823SOL    HW125928   1.673   1.161   4.583  1.1121  1.9722 -1.4917
 4823SOL    HW225929   1.590   1.115   4.468 -0.4799  0.8082 -0.9764
 4824SOL     OW25930   4.293   3.790  17.520  0.3119  0.5275 -0.2439
 4824SOL    HW125931   4.306   3.845  17.597 -0.3519  0.7362 -0.2847
 4824SOL    HW225932   4.340   3.713  17.552 -3.2525 -1.1344  0.9739
 4825SOL     OW25933   2.041   3.509   7.541 -0.2069  0.3838  0.2317
 4825SOL    HW125934   2.109   3.523   7.475  1.6276 -0.6019  1.9347
 4825SOL    HW225935   2.078   3.552   7.618  3.0735  0.0820 -1.1819
 4826SOL     OW25936   3.175   0.280  12.409  0.3771 -1.0799 -0.3701
 4826SOL    HW125937   3.087   0.248  12.389  1.0276 -1.8219 -2.0588
 4826SOL    HW225938   3.166   0.331  12.489 -3.3680  0.2672 -1.6654
 4827SOL     OW25939   1.158   0.982  12.958 -0.1624  0.4045  0.5966
 4827SOL    HW125940   1.071   0.979  12.918  0.7105 -2.7067 -1.0223
 4827SOL    HW225941   1.181   0.889  12.955  0.5590  0.5159  2.4103
 4828SOL     OW25942   3.555   2.488   6.125 -0.3767  0.0246  0.1310
 4828SOL    HW125943   3.501   2.503   6.048  1.1351  1.1504 -0.7055
 4828SOL    HW225944   3.507   2.542   6.187  0.2210  1.2668 -0.4923
 4829SOL     OW25945   2.189   1.559  10.494  0.2703  0.0611  0.0266
 4829SOL    HW125946   2.155   1.648  10.488 -0.6487 -0.2181  1.1637
 4829SOL    HW225947   2.195   1.538  10.400 -0.2346 -2.4627  0.5472
 4830SOL     OW25948   3.787   1.767   0.566 -0.1973 -0.7513  0.2066
 4830SOL    HW125949   3.823   1.839   0.514  0.3845 -0.8309  0.4860
 4830SOL    HW225950   3.713   1.804   0.614 -1.0915 -1.3074 -0.7520
 4831SOL     OW25951   0.151   3.611   8.055  0.2957 -0.4870  0.8294
 4831SOL    HW125952   0.224   3.564   8.014  1.4793  1.0211  1.1624
 4831SOL    HW225953   0.120   3.559   8.128 -1.8963 -0.0913  0.1611
 4832SOL     OW25954   2.705   1.006   8.599  0.0705  0.0925  0.2661
 4832SOL    HW125955   2.762   1.051   8.536 -1.0818 -0.1587 -0.9412
 4832SOL    HW225956   2.779   0.984   8.657  1.6199  2.4939 -0.7978
 4833SOL     OW25957   4.053   4.560  15.140  0.0099 -0.9192  0.7865
 4833SOL    HW125958   4.112   4.557  15.215  1.3286 -0.3075 -0.2288
 4833SOL    HW225959   4.083   4.480  15.096 -1.3850  0.1382 -2.0980
 4834SOL     OW25960   3.328   4.401   4.746 -0.0860  0.4304 -0.5720
 4834SOL    HW125961   3.414   4.432   4.773 -0.4476  1.5691 -0.7205
 4834SOL    HW225962   3.279   4.410   4.827 -0.0913 -0.8978 -0.4278
 4835SOL     OW25963   3.816   3.140   6.497  0.0657 -0.4115 -0.5559
 4835SOL    HW125964   3.861   3.077   6.441 -2.7233 -1.6234 -1.4761
 4835SOL    HW225965   3.775   3.077   6.555  0.4452  0.8284  1.0684
 4836SOL     OW25966   2.888   0.573   5.197 -0.3833 -0.3665  0.6014
 4836SOL    HW125967   2.823   0.617   5.251  0.0340 -0.7241  1.3937
 4836SOL    HW225968   2.899   0.626   5.118  0.1099  0.7943  1.4421
 4837SOL     OW25969   0.007   0.958   8.425 -0.4862  0.7070  0.4788
 4837SOL    HW125970   4.686   0.938   8.342  0.6806  1.2889 -0.2660
 4837SOL    HW225971   0.006   0.870   8.462 -0.5616  0.9024  0.9485
 4838SOL     OW25972   2.732   3.392   6.480 -0.2270  0.7226  0.0941
 4838SOL    HW125973   2.746   3.425   6.569  3.5524  1.7089 -0.8993
 4838SOL    HW225974   2.745   3.297   6.483  1.7854  0.9499 -1.7611
 4839SOL     OW25975   3.119   2.067   2.005  0.1950 -0.2743 -0.0885
 4839SOL    HW125976   3.075   1.985   1.983 -2.5971  0.4221  2.9436
 4839SOL    HW225977   3.153   2.086   1.918 -0.9075 -0.0291 -0.4663
 4840SOL     OW25978   3.725   0.391   5.356 -0.0637  0.4953 -0.4711
 4840SOL    HW125979   3.794   0.450   5.388  0.6707 -1.5459  1.6816
 4840SOL    HW225980   3.643   0.439   5.368 -0.6303 -0.5759 -0.0841
 4841SOL     OW25981   2.186   1.126  12.423  0.1131  0.0195  0.1243
 4841SOL    HW125982   2.176   1.196  12.487  0.6739 -0.2125  0.4572
 4841SOL    HW225983   2.252   1.151  12.359 -0.3312  0.4711 -0.1592
 4842SOL     OW25984   1.821   3.204   8.743 -0.2009  0.1065  0.0150
 4842SOL    HW125985   1.767   3.266   8.794 -0.0010 -0.3288  0.7564
 4842SOL    HW225986   1.771   3.123   8.743  0.3509 -0.2213 -1.5994
 4843SOL     OW25987   3.163   4.043   2.335  0.2305  0.7108 -0.7426
 4843SOL    HW125988   3.235   4.000   2.382  0.5485 -1.2619 -3.0229
 4843SOL    HW225989   3.153   4.121   2.389  1.1007  0.8253 -0.7520
 4844SOL     OW25990   1.508   1.374  10.316 -0.1936 -0.2780  0.2488
 4844SOL    HW125991   1.571   1.410  10.252 -0.2301  0.1378  0.4482
 4844SOL    HW225992   1.464   1.309  10.260 -1.5757  0.7440  0.1516
 4845SOL     OW25993   0.904   3.759   4.352 -0.4199 -0.1186 -0.0155
 4845SOL    HW125994   0.921   3.783   4.261 -0.8893  0.4279  0.0434
 4845SOL    HW225995   0.992   3.731   4.376 -0.0661  0.1096 -1.0608
 4846SOL     OW25996   2.435   3.645   8.042  0.1221 -0.0857  0.1823
 4846SOL    HW125997   2.495   3.681   8.107  2.2923 -1.1237 -1.2598
 4846SOL    HW225998   2.472   3.563   8.010  0.4310  0.0238  0.2535
 4847SOL     OW25999   3.934   4.054   7.876  0.7883 -0.2154  0.2580
 4847SOL    HW126000   3.976   4.071   7.960 -1.5948  2.1641  0.9901
 4847SOL    HW226001   3.932   4.143   7.840  1.2357 -0.6455 -0.8113
 4848SOL     OW26002   3.637   4.016   1.792 -0.0705  0.0854  0.6201
 4848SOL    HW126003   3.609   3.952   1.857 -1.1871  0.1337  0.1926
 4848SOL    HW226004   3.650   4.088   1.854  0.9465  0.3156  0.1394
 4849SOL     OW26005   1.224   0.816   4.209  0.0878  0.1100 -0.7347
 4849SOL    HW126006   1.280   0.745   4.177  0.4157 -0.8576  2.0279
 4849SOL    HW226007   1.159   0.767   4.260 -0.4494  0.2857 -1.2547
 4850SOL     OW26008   4.369   2.369   5.737  0.0664 -0.3734  0.0196
 4850SOL    HW126009   4.336   2.360   5.647 -4.3365 -0.9596  1.7020
 4850SOL    HW226010   4.361   2.278   5.766  0.8886 -0.4503  0.0141
 4851SOL     OW26011   3.702   3.109   5.047 -0.1645  0.4118 -0.3660
 4851SOL    HW126012   3.741   3.192   5.076 -0.8418  0.4297  0.4791
 4851SOL    HW226013   3.646   3.147   4.980 -0.5137 -0.5054 -0.5963
 4852SOL     OW26014   1.172   2.369   6.270 -0.1227 -0.3116  0.2901
 4852SOL    HW126015   1.167   2.449   6.322  0.6903  0.8984 -1.5149
 4852SOL    HW226016   1.229   2.399   6.199 -0.9924  1.9578  0.5449
 4853SOL     OW26017   2.766   0.714   8.648  0.1233  0.1163  0.7225
 4853SOL    HW126018   2.825   0.777   8.690 -0.7510  1.4500 -0.0155
 4853SOL    HW226019   2.682   0.732   8.691  0.2708  2.8451 -0.0790
 4854SOL     OW26020   4.147   3.469   5.613  0.0458  0.0736 -0.2333
 4854SOL    HW126021   4.058   3.442   5.635  0.7200 -1.2128  0.9225
 4854SOL    HW226022   4.186   3.382   5.621 -0.8637 -0.1728  1.5863
 4855SOL     OW26023   4.276   0.911   6.161 -0.3365 -0.2270 -0.2653
 4855SOL    HW126024   4.285   0.888   6.254  0.8091 -0.5792 -0.4608
 4855SOL    HW226025   4.290   1.005   6.173 -0.3095 -0.5083  1.9474
 4856SOL     OW26026   2.442   2.415   6.471  0.4794 -0.1116  0.9710
 4856SOL    HW126027   2.391   2.496   6.464  1.0616 -0.0223 -2.1684
 4856SOL    HW226028   2.465   2.422   6.564  0.7246 -1.4377  1.0088
 4857SOL     OW26029   4.115   1.140   2.674  0.6356  0.3506  0.1634
 4857SOL    HW126030   4.195   1.099   2.708  1.0584  2.0410  1.2087
 4857SOL    HW226031   4.063   1.061   2.658  1.3023  0.1203 -0.9130
 4858SOL     OW26032   0.405   2.731   6.627  0.2257 -0.8993  0.0405
 4858SOL    HW126033   0.327   2.780   6.601  2.0527  2.1002  0.2049
 4858SOL    HW226034   0.436   2.768   6.710 -1.8262 -0.1785  0.4983
 4859SOL     OW26035   0.099   2.735   2.959 -0.4561 -0.2666  0.9261
 4859SOL    HW126036   0.035   2.778   2.903  1.0989  0.6548 -0.1752
 4859SOL    HW226037   0.085   2.642   2.943  0.7665 -0.2217 -0.4792
 4860SOL     OW26038   0.702   0.815   9.061  0.0900  0.2013  0.9254
 4860SOL    HW126039   0.663   0.748   9.004 -1.2616  1.0220  0.8754
 4860SOL    HW226040   0.795   0.796   9.068  0.1307  0.1773  0.2626
 4861SOL     OW26041   1.492   1.539   7.149  0.8359 -0.0764  0.6889
 4861SOL    HW126042   1.511   1.490   7.229 -1.1721  0.5606  1.5346
 4861SOL    HW226043   1.565   1.507   7.096  1.0653 -1.3857  1.7799
 4862SOL     OW26044   4.677   1.435   2.448 -0.4430  0.1301 -0.3242
 4862SOL    HW126045   0.003   1.517   2.437  0.6543 -0.4361  0.3374
 4862SOL    HW226046   0.006   1.383   2.509 -0.6051  1.1874  0.7079
 4863SOL     OW26047   3.038   3.476   2.346  0.8117  0.2695 -0.2350
 4863SOL    HW126048   3.058   3.560   2.386 -0.6795  2.0048 -3.1823
 4863SOL    HW226049   3.070   3.425   2.421  0.6868  2.1207  1.0844
 4864SOL     OW26050   2.151   4.182   5.041 -0.1422  0.1013  0.0508
 4864SOL    HW126051   2.149   4.154   5.133 -1.1118 -0.2256 -0.0763
 4864SOL    HW226052   2.062   4.216   5.029 -0.4930 -1.1475 -0.8028
 4865SOL     OW26053   4.404   0.509   9.052  0.1173  0.1577  0.0611
 4865SOL    HW126054   4.412   0.604   9.056  0.0847  0.1378  0.5711
 4865SOL    HW226055   4.438   0.503   8.963 -0.5610  1.3765 -0.2782
 4866SOL     OW26056   2.353   0.786   2.571  0.3564  0.1902  0.4452
 4866SOL    HW126057   2.259   0.795   2.555  0.1400 -0.1374  1.5948
 4866SOL    HW226058   2.389   0.805   2.484 -0.2407 -4.1576 -0.7896
 4867SOL     OW26059   1.552   0.895   6.824 -0.0246  0.4975  0.0374
 4867SOL    HW126060   1.458   0.880   6.837  0.4381 -2.0018  0.5013
 4867SOL    HW226061   1.589   0.807   6.818  1.4075  1.1314 -0.4374
 4868SOL     OW26062   2.255   2.809   3.140 -0.1606  0.3487  0.2254
 4868SOL    HW126063   2.162   2.829   3.146 -0.3152 -0.4025  0.3144
 4868SOL    HW226064   2.281   2.857   3.062 -0.6125  0.1615 -0.0393
 4869SOL     OW26065   2.094   1.927  15.152 -0.3281 -0.3296 -0.1641
 4869SOL    HW126066   2.067   2.010  15.192  1.4565  0.6736 -1.0567
 4869SOL    HW226067   2.154   1.957  15.084 -1.2562  0.2798 -0.7134
 4870SOL     OW26068   3.657   1.153  13.686 -0.1414 -0.2269 -0.1154
 4870SOL    HW126069   3.615   1.237  13.669 -2.3627 -1.3450 -0.2197
 4870SOL    HW226070   3.583   1.093  13.672  1.9671 -2.5683 -1.1969
 4871SOL     OW26071   2.654   2.967   1.441 -0.0973 -0.4181 -0.1825
 4871SOL    HW126072   2.647   2.977   1.536 -1.7173  0.3153 -0.3758
 4871SOL    HW226073   2.737   2.923   1.422  0.5270  0.8865 -0.5487
 4872SOL     OW26074   0.673   4.393   2.775  0.0068 -0.3184  0.1259
 4872SOL    HW126075   0.664   4.320   2.714 -1.2227 -0.0717  0.0251
 4872SOL    HW226076   0.594   4.445   2.763 -1.6631 -2.1828  2.9654
 4873SOL     OW26077   0.439   4.636   6.880  0.4256 -0.1844  0.5623
 4873SOL    HW126078   0.383   4.710   6.903 -2.5097 -1.5038 -2.4211
 4873SOL    HW226079   0.484   4.671   6.803 -2.3239  0.0794 -0.9042
 4874SOL     OW26080   1.875   0.454   4.513  0.2062  0.1328 -0.3185
 4874SOL    HW126081   1.913   0.517   4.574  0.0345  0.5473 -0.6393
 4874SOL    HW226082   1.825   0.410   4.583  0.3683  2.2694  1.1284
 4875SOL     OW26083   0.957   4.283   5.469  0.5899 -0.0280  0.3223
 4875SOL    HW126084   0.874   4.323   5.494 -1.0854 -2.1136 -1.9751
 4875SOL    HW226085   0.978   4.249   5.556  1.5161 -1.0476 -0.3035
 4876SOL     OW26086   3.741   4.017   6.470 -0.1277 -0.4976  0.4391
 4876SOL    HW126087   3.802   4.083   6.437  0.8838 -2.1188 -0.9043
 4876SOL    HW226088   3.795   3.991   6.544  1.2185  1.6761  0.2183
 4877SOL     OW26089   1.203   3.505   6.238  0.4688  0.2703 -0.2871
 4877SOL    HW126090   1.194   3.410   6.239 -0.9491  0.4119  0.6622
 4877SOL    HW226091   1.216   3.515   6.144  2.1793 -1.5120 -0.2393
 4878SOL     OW26092   1.110   2.209   0.552  0.1519 -0.1903  0.6805
 4878SOL    HW126093   1.157   2.198   0.469  0.3108  0.6180  0.6642
 4878SOL    HW226094   1.028   2.250   0.524  0.2507 -0.8311 -0.5571
 4879SOL     OW26095   0.875   0.898   2.988 -0.2515  0.2803 -0.2708
 4879SOL    HW126096   0.829   0.828   3.034 -0.5089  0.1879 -0.6631
 4879SOL    HW226097   0.898   0.849   2.909 -1.0112 -0.0628 -0.2790
 4880SOL     OW26098   3.684   2.810   6.137 -0.0188 -0.3428 -0.2243
 4880SOL    HW126099   3.662   2.799   6.230  1.7620 -2.1404 -0.0128
 4880SOL    HW226100   3.601   2.846   6.107 -0.9924 -2.6472 -0.2887
 4881SOL     OW26101   0.958   0.397   0.741 -0.1168  0.0336  0.2430
 4881SOL    HW126102   0.874   0.375   0.781  0.0427  0.9728  1.1044
 4881SOL    HW226103   0.941   0.372   0.650 -0.6613 -0.7699  0.5671
 4882SOL     OW26104   0.427   2.043   2.367  0.5669  0.0746 -0.5591
 4882SOL    HW126105   0.508   2.091   2.381  0.7336 -0.4758  0.3762
 4882SOL    HW226106   0.392   2.074   2.283  1.3971 -0.6708 -1.1934
 4883SOL     OW26107   2.834   3.598  15.359 -0.3852 -0.3105  0.4210
 4883SOL    HW126108   2.902   3.588  15.292  0.3278  0.5459  1.0108
 4883SOL    HW226109   2.779   3.523  15.335 -0.3357 -0.3396  0.3973
 4884SOL     OW26110   1.842   3.440   7.209  0.4495  0.2226 -0.5352
 4884SOL    HW126111   1.750   3.442   7.237  0.5247 -0.5055 -0.2429
 4884SOL    HW226112   1.844   3.366   7.148  0.6067 -1.5075  1.5773
 4885SOL     OW26113   1.525   2.180   4.509 -0.1298 -0.4264  0.3062
 4885SOL    HW126114   1.619   2.180   4.530 -0.0125  0.7762 -0.2367
 4885SOL    HW226115   1.535   2.256   4.453  0.6732 -1.7066 -1.2910
 4886SOL     OW26116   1.004   1.366  14.242  0.0963 -0.1384  0.4880
 4886SOL    HW126117   1.083   1.313  14.246  1.0219  1.3042  1.1951
 4886SOL    HW226118   1.039   1.443  14.287  0.5094  1.5138 -2.6837
 4887SOL     OW26119   1.274   0.087  13.009  0.1815 -0.1282  0.0031
 4887SOL    HW126120   1.254   0.123  13.095 -0.5470 -0.4224 -0.0456
 4887SOL    HW226121   1.312   0.001  13.027 -0.9630 -0.6807 -0.1981
 4888SOL     OW26122   3.342   2.116  16.588  0.3127 -0.6362 -0.1609
 4888SOL    HW126123   3.271   2.163  16.631  0.9505 -1.1011  1.4195
 4888SOL    HW226124   3.378   2.196  16.549 -0.3144 -1.0525 -1.5888
 4889SOL     OW26125   0.259   0.157   3.909  0.6907 -0.3281  0.7124
 4889SOL    HW126126   0.268   0.175   3.816  2.4445 -1.5435  0.6580
 4889SOL    HW226127   0.279   0.245   3.940 -0.2423  0.9619 -2.4358
 4890SOL     OW26128   3.514   4.197   9.438  0.6394  0.1335 -0.4331
 4890SOL    HW126129   3.504   4.285   9.476 -1.5729 -0.4445  0.3070
 4890SOL    HW226130   3.537   4.147   9.516  0.6634  0.7511 -0.0358
 4891SOL     OW26131   2.483   1.100   5.332  0.2798 -0.9468 -0.2063
 4891SOL    HW126132   2.397   1.134   5.356 -0.1016 -1.9574 -0.1194
 4891SOL    HW226133   2.509   1.055   5.413  0.7759 -0.8771 -0.3305
 4892SOL     OW26134   1.307   1.257   6.242 -0.4240 -0.2834  0.0104
 4892SOL    HW126135   1.402   1.254   6.252 -0.2779 -4.1945 -2.4487
 4892SOL    HW226136   1.297   1.162   6.246 -0.5714 -0.4021 -2.8823
 4893SOL     OW26137   0.409   2.942  17.357 -0.6600 -0.0866 -0.0220
 4893SOL    HW126138   0.460   3.019  17.331  0.2488 -0.2979  1.1137
 4893SOL    HW226139   0.375   2.962  17.445  0.0246 -1.0960  0.4636
 4894SOL     OW26140   4.582   0.961  13.226 -0.3583 -0.0332 -0.7295
 4894SOL    HW126141   4.501   0.948  13.177 -0.8030  0.1428 -0.0359
 4894SOL    HW226142   4.554   1.019  13.297  1.8611  3.3069 -2.5532
 4895SOL     OW26143   3.521   1.814  12.057 -1.3516 -0.5088  0.3729
 4895SOL    HW126144   3.483   1.898  12.079 -0.0564  0.6535 -1.8308
 4895SOL    HW226145   3.494   1.804  11.966  2.0870  1.0825 -0.8211
 4896SOL     OW26146   2.699   1.589   2.607 -0.7674  0.2385  0.0012
 4896SOL    HW126147   2.662   1.509   2.570  1.3607 -0.1721 -1.2290
 4896SOL    HW226148   2.778   1.548   2.643 -0.0069  0.2324 -1.6851
 4897SOL     OW26149   1.940   0.391  12.153  0.0029  0.3075  0.3368
 4897SOL    HW126150   1.876   0.344  12.206  0.4238 -0.3736  0.2502
 4897SOL    HW226151   1.994   0.318  12.122  0.4354  1.5670 -1.8826
 4898SOL     OW26152   2.323   2.344  17.444 -0.3615  0.3886 -0.0931
 4898SOL    HW126153   2.408   2.385  17.456 -0.2613 -0.4455  2.0469
 4898SOL    HW226154   2.348   2.310  17.358  1.3527  0.0657  0.5332
 4899SOL     OW26155   1.393   1.658  15.388 -0.2763  0.6087 -0.1162
 4899SOL    HW126156   1.307   1.678  15.425 -1.0304  1.4182 -2.3038
 4899SOL    HW226157   1.394   1.685  15.297 -1.0134 -1.6918 -0.8040
 4900SOL     OW26158   2.403   3.397   7.666  0.0564  0.1177  0.1773
 4900SOL    HW126159   2.334   3.340   7.632  1.1408 -0.1056 -1.6183
 4900SOL    HW226160   2.345   3.467   7.699 -0.6583 -1.2409  1.7975
 4901SOL     OW26161   3.023   0.251  11.343 -0.5331 -0.1176  0.1398
 4901SOL    HW126162   3.106   0.277  11.382  0.3554 -1.3415 -0.9254
 4901SOL    HW226163   2.969   0.324  11.374  0.8625  0.3530  1.4515
 4902SOL     OW26164   2.056   0.224   4.310  0.3848 -0.4607  0.2604
 4902SOL    HW126165   2.063   0.163   4.383 -1.0473  0.8324  1.4958
 4902SOL    HW226166   1.987   0.174   4.267  1.8613 -0.5476 -1.9951
 4903SOL     OW26167   0.782   3.140  16.847  0.1296  0.1334 -0.0366
 4903SOL    HW126168   0.725   3.072  16.809 -2.2912  2.2765 -0.2217
 4903SOL    HW226169   0.854   3.087  16.882 -1.1235 -0.7226  1.2458
 4904SOL     OW26170   4.193   3.356   6.972 -0.0750  0.3062  0.0073
 4904SOL    HW126171   4.240   3.297   6.912  2.6138  0.8813  1.5784
 4904SOL    HW226172   4.257   3.422   6.995  0.2287  0.2035 -0.5274
 4905SOL     OW26173   2.889   3.078  15.163  0.0556  0.6198  0.7517
 4905SOL    HW126174   2.797   3.070  15.140 -0.2821  0.9753  1.9770
 4905SOL    HW226175   2.925   2.991  15.150  0.1505  0.7111  0.4086
 4906SOL     OW26176   2.998   0.388   8.067 -0.3870 -0.2662  0.4896
 4906SOL    HW126177   3.007   0.463   8.127  2.7227 -0.6845  0.5170
 4906SOL    HW226178   3.084   0.352   8.088 -0.0993  0.4275  0.5188
 4907SOL     OW26179   4.561   1.637   5.915 -0.0439  0.4608 -0.3338
 4907SOL    HW126180   4.550   1.666   5.824  0.7707 -1.6089 -1.0906
 4907SOL    HW226181   4.617   1.704   5.954 -0.1735  1.2019 -1.4230
 4908SOL     OW26182   1.219   1.410  15.387  0.2556  0.6499 -0.2756
 4908SOL    HW126183   1.236   1.503  15.374  0.6167  0.6382  0.1362
 4908SOL    HW226184   1.237   1.376  15.299 -1.3834  0.5893 -0.5976
 4909SOL     OW26185   4.624   3.985   2.648  0.5036 -0.0231 -0.0010
 4909SOL    HW126186   4.630   3.916   2.713  2.1015 -1.4399 -1.6492
 4909SOL    HW226187   4.671   3.955   2.570 -0.8918  1.9214 -1.6223
 4910SOL     OW26188   0.127   0.383   0.456 -0.1413  0.1980  0.9552
 4910SOL    HW126189   0.075   0.460   0.478  0.6803  0.9917  0.0851
 4910SOL    HW226190   0.065   0.311   0.442  0.3532 -0.3155  1.3640
 4911SOL     OW26191   1.476   3.062   7.860  0.1384  0.0450  0.1106
 4911SOL    HW126192   1.492   2.970   7.879 -1.5622 -0.5131 -1.1540
 4911SOL    HW226193   1.548   3.079   7.799  0.4872  3.1966  1.3965
 4912SOL     OW26194   3.951   1.801   3.039 -0.2271  0.3583 -1.0959
 4912SOL    HW126195   3.927   1.783   2.948 -0.4888  1.5158 -1.2447
 4912SOL    HW226196   3.867   1.781   3.080  0.5718 -1.0459 -0.1537
 4913SOL     OW26197   3.698   4.463   2.511  0.1037  0.2289 -0.3299
 4913SOL    HW126198   3.696   4.555   2.536  1.3657  0.0470  0.4542
 4913SOL    HW226199   3.638   4.456   2.437  1.0050  0.5586 -1.0903
 4914SOL     OW26200   2.693   2.446   6.311 -0.0741 -0.5725  0.0609
 4914SOL    HW126201   2.635   2.461   6.386 -0.6454 -0.0739 -0.4845
 4914SOL    HW226202   2.780   2.464   6.346 -0.4910 -0.4674  1.0405
 4915SOL     OW26203   2.953   2.373  11.536 -0.4729  0.7887 -0.3458
 4915SOL    HW126204   2.919   2.458  11.564  0.7461  1.3447 -0.5657
 4915SOL    HW226205   2.882   2.348  11.478 -0.8290  0.2298  0.3378
 4916SOL     OW26206   4.604   1.179   4.476  0.1620 -0.8423  0.1341
 4916SOL    HW126207   4.557   1.261   4.494  0.6536  0.1616 -3.1170
 4916SOL    HW226208   4.615   1.184   4.381  0.2308 -0.9807  0.1360
 4917SOL     OW26209   0.029   3.520  12.438 -0.0895 -0.2068  0.8128
 4917SOL    HW126210   4.666   3.556  12.414  0.2187 -1.5378 -2.3971
 4917SOL    HW226211   0.088   3.560  12.374  0.7138  0.4095  1.9395
 4918SOL     OW26212   2.486   0.346   4.361 -0.2623 -0.0497 -0.2185
 4918SOL    HW126213   2.547   0.414   4.387  0.8439 -1.1721  0.1186
 4918SOL    HW226214   2.413   0.363   4.420  1.1660 -1.4474  1.9349
 4919SOL     OW26215   1.647   3.551   3.534 -0.5612  0.7951 -0.3281
 4919SOL    HW126216   1.616   3.612   3.467 -1.2789 -0.4740 -1.1321
 4919SOL    HW226217   1.565   3.550   3.583 -1.4081  0.7502 -1.7544
 4920SOL     OW26218   0.503   2.170   3.441 -0.1530 -0.3482 -0.4400
 4920SOL    HW126219   0.488   2.196   3.531  0.2292 -0.1708 -0.4251
 4920SOL    HW226220   0.580   2.227   3.429 -0.3163 -0.6486 -3.0401
 4921SOL     OW26221   4.643   3.272  13.396  0.0094  0.1559 -0.3896
 4921SOL    HW126222   4.570   3.248  13.453  0.3179 -1.8520 -0.8391
 4921SOL    HW226223   4.604   3.279  13.309 -0.6122 -0.3424 -0.1494
 4922SOL     OW26224   3.447   0.401   6.850 -0.7038  0.5836 -0.5668
 4922SOL    HW126225   3.401   0.387   6.933  1.4184 -2.9747  0.0523
 4922SOL    HW226226   3.423   0.489   6.823  0.2257  0.4516 -1.8517
 4923SOL     OW26227   0.340   2.091   2.123  0.3598 -0.4238  0.2424
 4923SOL    HW126228   0.362   2.148   2.049  0.7557 -0.0738  0.6264
 4923SOL    HW226229   0.311   2.011   2.080 -0.8830  0.4735 -0.6042
 4924SOL     OW26230   0.102   2.138   9.340 -0.2674  0.0275  0.7117
 4924SOL    HW126231   0.179   2.094   9.304  0.4144  0.9509  1.0309
 4924SOL    HW226232   0.028   2.095   9.296  0.7177  0.3217 -1.2699
 4925SOL     OW26233   1.386   2.687   8.259 -0.1241 -0.2791  0.5233
 4925SOL    HW126234   1.450   2.647   8.201  1.3129  2.7260  0.0281
 4925SOL    HW226235   1.377   2.776   8.224 -2.3554  0.3804  2.8294
 4926SOL     OW26236   4.643   2.003   9.121  0.2656  0.3959  0.5136
 4926SOL    HW126237   4.633   1.992   9.027  0.2198  0.5151  0.5041
 4926SOL    HW226238   4.650   1.912   9.149  0.9878  0.6781  1.2728
 4927SOL     OW26239   3.775   2.779  17.078 -0.0182 -0.1196 -0.3727
 4927SOL    HW126240   3.869   2.762  17.085  0.3560  1.7889 -0.8662
 4927SOL    HW226241   3.779   2.869  17.047  2.7502  0.1440  0.6700
 4928SOL     OW26242   2.218   3.407   8.822  0.0239  0.5888  0.4919
 4928SOL    HW126243   2.246   3.498   8.835 -0.7967  1.1697 -1.8351
 4928SOL    HW226244   2.136   3.425   8.775 -0.9112 -1.7346  1.2465
 4929SOL     OW26245   1.227   0.179   3.697 -0.0590  0.3678 -0.7377
 4929SOL    HW126246   1.181   0.249   3.744 -0.1321  0.2691 -0.6620
 4929SOL    HW226247   1.199   0.192   3.607  0.8538  2.2843 -0.7409
 4930SOL     OW26248   4.055   0.119   8.636  0.2343  0.7576 -0.3590
 4930SOL    HW126249   4.062   0.153   8.547 -1.6721  0.0824 -0.7630
 4930SOL    HW226250   4.083   0.030   8.617 -2.3412  0.3519 -2.2115
 4931SOL     OW26251   0.675   2.181  13.554  0.0706  0.4177 -0.0043
 4931SOL    HW126252   0.709   2.259  13.510 -2.7440  1.6796  0.0285
 4931SOL    HW226253   0.735   2.109  13.532 -0.2810 -0.1324  0.8221
 4932SOL     OW26254   2.383   0.810   8.037 -0.4817 -0.4833 -0.1825
 4932SOL    HW126255   2.292   0.791   8.013 -0.5334 -3.2886  2.2160
 4932SOL    HW226256   2.397   0.789   8.130 -0.6283  0.6701  0.1067
 4933SOL     OW26257   4.214   2.829   8.355 -0.0191  0.2617 -0.1968
 4933SOL    HW126258   4.298   2.800   8.320 -1.0422 -2.0350 -0.6908
 4933SOL    HW226259   4.170   2.745   8.366 -0.8461  0.9704  1.9100
 4934SOL     OW26260   0.990   1.769   9.412  0.4623  0.6510 -0.0576
 4934SOL    HW126261   1.007   1.854   9.371 -0.7131  0.9335  0.0373
 4934SOL    HW226262   1.050   1.763   9.485 -1.1292 -0.1426  1.1799
 4935SOL     OW26263   0.472   1.322   9.000 -0.1092 -0.2438 -0.0763
 4935SOL    HW126264   0.558   1.350   8.968 -1.0805  1.4384 -1.1319
 4935SOL    HW226265   0.448   1.402   9.046  1.9596  0.3758 -0.0517
 4936SOL     OW26266   1.345   3.793  10.551 -0.2539  0.1679  0.4756
 4936SOL    HW126267   1.292   3.713  10.547  0.1610 -0.1387  1.3225
 4936SOL    HW226268   1.298   3.853  10.493 -1.2100 -2.1332 -1.1750
 4937SOL     OW26269   3.997   0.544   6.021  0.5535  0.3764  0.1089
 4937SOL    HW126270   3.979   0.530   5.927 -1.2965  0.6132  0.4206
 4937SOL    HW226271   4.092   0.543   6.022  0.5087 -1.5034  1.6350
 4938SOL     OW26272   0.431   1.205   1.197  0.0054  0.2646  0.3281
 4938SOL    HW126273   0.492   1.244   1.134 -0.2237  2.0284  1.1941
 4938SOL    HW226274   0.456   1.254   1.276 -1.5785  3.3151 -1.0627
 4939SOL     OW26275   0.066   2.941   7.637 -0.3722 -0.2039  0.0957
 4939SOL    HW126276   0.068   2.880   7.563  1.1283  1.3284 -1.1246
 4939SOL    HW226277   0.127   2.903   7.700  2.0348  0.4885 -1.8110
 4940SOL     OW26278   2.404   4.137  15.241  0.2456  0.4443  0.0306
 4940SOL    HW126279   2.342   4.069  15.265  0.2284  0.3254 -0.3526
 4940SOL    HW226280   2.422   4.163  15.332 -4.8695 -1.4307  1.5826
 4941SOL     OW26281   2.757   1.107   0.743  0.7485  0.4667  0.5958
 4941SOL    HW126282   2.802   1.082   0.823 -0.4353 -0.3261  1.0208
 4941SOL    HW226283   2.792   1.194   0.723 -2.6774  2.4946  3.4610
 4942SOL     OW26284   3.974   0.850   6.300 -0.0629 -0.2805  0.0529
 4942SOL    HW126285   4.027   0.878   6.376  2.0741 -1.7661 -0.8985
 4942SOL    HW226286   3.907   0.790   6.333  0.5840 -1.2424 -0.3982
 4943SOL     OW26287   3.675   2.682   6.895 -0.4509  0.2469 -0.3003
 4943SOL    HW126288   3.736   2.671   6.969  0.4064  2.5112 -0.6794
 4943SOL    HW226289   3.622   2.603   6.910 -2.8042  1.7605 -0.6847
 4944SOL     OW26290   3.026   4.222   8.946 -0.6396  0.0537  0.0662
 4944SOL    HW126291   3.096   4.177   8.993  0.2128 -1.4565 -2.6529
 4944SOL    HW226292   3.078   4.259   8.874 -0.9648 -0.4853 -0.4534
 4945SOL     OW26293   4.540   2.881  16.787  0.5471  0.5627  0.3419
 4945SOL    HW126294   4.615   2.837  16.747 -1.4567 -1.4042 -1.2782
 4945SOL    HW226295   4.467   2.829  16.755  0.6262  1.6959 -1.7378
 4946SOL     OW26296   2.109   1.822   0.495  0.2372  0.6950 -0.1313
 4946SOL    HW126297   2.051   1.851   0.425  2.1867  0.0786 -1.9860
 4946SOL    HW226298   2.080   1.871   0.572 -1.8561  1.3150 -1.3134
 4947SOL     OW26299   2.511   3.681   7.023 -0.6337  0.0584 -0.0754
 4947SOL    HW126300   2.417   3.687   7.008 -0.2093  2.9180 -1.6125
 4947SOL    HW226301   2.520   3.626   7.100  2.1642  1.0524  0.3273
 4948SOL     OW26302   1.958   2.830   9.524  0.0966 -0.3014  0.5740
 4948SOL    HW126303   1.971   2.855   9.432 -0.0764 -1.3726  0.2530
 4948SOL    HW226304   2.048   2.834   9.558 -0.1028 -2.9824  1.4100
 4949SOL     OW26305   4.194   1.512   6.399 -0.4527  0.6447 -0.2467
 4949SOL    HW126306   4.204   1.458   6.478 -2.4773 -1.7765 -1.6250
 4949SOL    HW226307   4.233   1.467   6.325 -0.3151  1.2180 -0.5197
 4950SOL     OW26308   0.347   3.999   8.123 -0.4717  0.2058 -0.4958
 4950SOL    HW126309   0.395   3.946   8.058  0.1828 -2.3068  2.0472
 4950SOL    HW226310   0.274   4.040   8.078 -1.1344 -1.5777 -1.0699
 4951SOL     OW26311   0.065   2.280  10.871  0.4886  0.2557 -0.6421
 4951SOL    HW126312   0.088   2.372  10.883  1.1448 -0.1156  1.0052
 4951SOL    HW226313   0.090   2.266  10.780  1.3035  4.2133 -1.0163
 4952SOL     OW26314   1.206   1.447   9.072 -0.2576 -0.8873 -0.3710
 4952SOL    HW126315   1.170   1.359   9.064  0.2003 -1.1557  0.4848
 4952SOL    HW226316   1.185   1.466   9.163 -0.1461  1.1766 -0.7780
 4953SOL     OW26317   3.220   1.311   6.132  0.0941  0.6039  0.2349
 4953SOL    HW126318   3.258   1.392   6.166  1.2650 -0.3156  1.1326
 4953SOL    HW226319   3.292   1.248   6.135 -0.7477 -0.4034 -0.9603
 4954SOL     OW26320   2.657   0.671   7.391  0.0520  0.0157  0.2763
 4954SOL    HW126321   2.672   0.627   7.474 -2.4501  0.2816  0.8693
 4954SOL    HW226322   2.738   0.720   7.378  0.3916 -1.0023 -1.4363
 4955SOL     OW26323   2.580   4.003  10.990 -0.5379 -0.0352  0.1407
 4955SOL    HW126324   2.629   3.934  10.946  0.9088  2.2971 -1.9050
 4955SOL    HW226325   2.494   3.967  10.969 -1.1731  1.9062 -0.6088
 4956SOL     OW26326   4.410   4.109  11.645  0.3404 -0.2174  0.4664
 4956SOL    HW126327   4.469   4.083  11.574 -1.3007  1.2968 -1.4619
 4956SOL    HW226328   4.464   4.113  11.724 -1.4295  2.3165  1.5325
 4957SOL     OW26329   2.439   1.502  13.492  0.1642  0.0763  0.2177
 4957SOL    HW126330   2.362   1.526  13.441 -0.5449 -1.1922  0.7031
 4957SOL    HW226331   2.511   1.514  13.430  1.8387 -0.5462  2.0514
 4958SOL     OW26332   4.612   3.375   7.160 -0.5789  0.1052  0.4442
 4958SOL    HW126333   4.642   3.294   7.203 -0.4401  1.2064  2.4359
 4958SOL    HW226334   4.644   3.370   7.070 -0.3143  1.7273  0.4614
 4959SOL     OW26335   4.352   3.282   4.902 -0.2942 -0.3319  0.4433
 4959SOL    HW126336   4.286   3.332   4.949  0.7157  0.5443  0.9265
 4959SOL    HW226337   4.325   3.285   4.810 -1.0250  2.2328  0.7362
 4960SOL     OW26338   3.181   2.122   2.556  0.0964 -0.2551 -0.3604
 4960SOL    HW126339   3.230   2.201   2.532  1.2712 -0.2888  1.8938
 4960SOL    HW226340   3.182   2.079   2.471  0.6778 -2.2741  0.6680
 4961SOL     OW26341   0.768   2.020   7.239  0.3738 -0.0067 -0.0768
 4961SOL    HW126342   0.862   2.003   7.250  0.1969 -2.5543 -2.3844
 4961SOL    HW226343   0.748   1.942   7.187  1.3674  1.4360 -2.6658
 4962SOL     OW26344   0.321   0.959   7.275 -0.6188  0.0667 -0.5627
 4962SOL    HW126345   0.244   0.927   7.229  0.1724 -1.3102 -0.9321
 4962SOL    HW226346   0.287   1.009   7.350 -0.8742 -0.6888 -0.1750
 4963SOL     OW26347   3.953   3.111  15.942  0.7566 -0.0219 -0.6748
 4963SOL    HW126348   3.926   3.026  15.908  0.1100  0.6396 -1.8116
 4963SOL    HW226349   3.928   3.178  15.879  0.1730 -1.6170 -2.1194
 4964SOL     OW26350   1.015   2.066   3.605  0.3736  0.5617 -0.0383
 4964SOL    HW126351   1.073   1.992   3.586 -2.1882 -1.8013  1.2792
 4964SOL    HW226352   1.026   2.057   3.700 -0.5584 -1.2065 -0.0850
 4965SOL     OW26353   3.095   2.116  12.261  0.0150 -0.1869  0.0113
 4965SOL    HW126354   3.171   2.168  12.235  0.7519 -2.3329 -2.1341
 4965SOL    HW226355   3.103   2.135  12.354  1.0378 -0.7646  0.0399
 4966SOL     OW26356   2.586   3.148  17.356 -0.1381 -0.0821  0.1976
 4966SOL    HW126357   2.575   3.068  17.305 -2.0708  1.1258 -1.3089
 4966SOL    HW226358   2.585   3.105  17.441  0.9505 -1.3267 -0.4240
 4967SOL     OW26359   2.494   0.065   9.742  0.3295  0.0807  0.5063
 4967SOL    HW126360   2.553   0.051   9.668 -1.4063 -0.6632 -0.7600
 4967SOL    HW226361   2.473   4.695   9.755  0.5206 -0.2033 -1.2799
 4968SOL     OW26362   3.282   1.445  17.009 -0.1009 -0.0656  0.2627
 4968SOL    HW126363   3.348   1.451  17.078  1.5283 -0.6889 -1.2247
 4968SOL    HW226364   3.296   1.529  16.965 -0.3334 -1.2933 -2.2069
 4969SOL     OW26365   3.430   2.831   7.417 -0.1055 -0.0666 -0.0269
 4969SOL    HW126366   3.421   2.750   7.368  2.0535 -1.4413  1.8698
 4969SOL    HW226367   3.383   2.885   7.353  0.5287  0.4284 -0.0754
 4970SOL     OW26368   0.185   1.594   5.286 -0.1621  0.6284  0.3419
 4970SOL    HW126369   0.120   1.530   5.258  1.2145 -0.5034 -0.2961
 4970SOL    HW226370   0.186   1.646   5.206 -1.6669 -0.0953 -0.1354
 4971SOL     OW26371   1.307   3.049  14.521  0.0697  0.0002 -0.3032
 4971SOL    HW126372   1.329   3.142  14.508  0.1342 -0.4740 -3.5635
 4971SOL    HW226373   1.395   3.011  14.527 -0.3297 -0.8055  0.3250
 4972SOL     OW26374   1.185   1.175   9.108  0.3452  0.0245  0.6809
 4972SOL    HW126375   1.109   1.119   9.123  0.3807 -0.2507 -0.1195
 4972SOL    HW226376   1.222   1.186   9.195  2.6149  1.7529 -0.5135
 4973SOL     OW26377   3.354   0.279   4.273 -0.2900  0.1796 -0.5788
 4973SOL    HW126378   3.426   0.244   4.219 -0.2111  0.2355 -0.5088
 4973SOL    HW226379   3.285   0.288   4.208  2.2322  2.1164 -3.0000
 4974SOL     OW26380   4.421   4.715   5.458 -0.0609  0.4611  0.1396
 4974SOL    HW126381   4.395   4.699   5.548 -1.4875 -0.5283 -0.4502
 4974SOL    HW226382   4.373   4.649   5.409  1.6351  0.3554 -1.3927
 4975SOL     OW26383   2.152   3.572   8.083 -0.5983 -0.5691 -0.5597
 4975SOL    HW126384   2.223   3.636   8.076 -0.6840 -0.7045 -2.4068
 4975SOL    HW226385   2.099   3.613   8.152 -1.0132 -0.3194 -1.0267
 4976SOL     OW26386   3.703   3.689   2.193 -0.6774  0.2946 -0.5238
 4976SOL    HW126387   3.714   3.719   2.103 -1.8617  1.2153 -0.3505
 4976SOL    HW226388   3.611   3.665   2.190 -1.0298  1.3055  2.1264
 4977SOL     OW26389   2.364   4.440   7.547  0.0099 -0.4697 -0.3855
 4977SOL    HW126390   2.342   4.352   7.517  1.4959 -1.1371  0.4356
 4977SOL    HW226391   2.370   4.427   7.642 -0.8941 -0.7330 -0.3665
 4978SOL     OW26392   1.064   1.032   1.325  0.0988  0.0103 -0.2097
 4978SOL    HW126393   1.105   0.991   1.401  0.1708 -0.5314 -0.5433
 4978SOL    HW226394   1.009   1.097   1.369 -0.6815 -0.3786 -0.5988
 4979SOL     OW26395   4.349   4.676   5.925 -0.4023  0.2868 -0.0466
 4979SOL    HW126396   4.263   4.671   5.884 -1.1702  2.6835  1.2305
 4979SOL    HW226397   4.392   4.629   5.854 -1.0851 -1.2597  0.5699
 4980SOL     OW26398   1.166   1.566   5.055 -0.3496 -0.4664  0.2365
 4980SOL    HW126399   1.109   1.502   5.012  1.1300 -1.3576 -0.4054
 4980SOL    HW226400   1.129   1.653   5.041  0.8019 -0.0137  0.0134
 4981SOL     OW26401   1.532   0.137   3.722  0.2018 -0.2302 -0.1040
 4981SOL    HW126402   1.540   0.172   3.633  0.3293 -1.4260 -0.5688
 4981SOL    HW226403   1.437   0.130   3.728  0.0721 -0.0526 -1.8786
 4982SOL     OW26404   0.971   2.411   7.833 -0.7703 -0.2428  0.1863
 4982SOL    HW126405   0.980   2.349   7.760  1.4802 -1.2893  1.3479
 4982SOL    HW226406   0.993   2.348   7.902 -0.4612  1.2795  1.4849
 4983SOL     OW26407   1.584   1.299   6.222  0.0692 -0.1626  0.6907
 4983SOL    HW126408   1.561   1.344   6.304 -0.4811  0.8801 -0.0315
 4983SOL    HW226409   1.662   1.348   6.197  0.3453 -0.9456  0.0443
 4984SOL     OW26410   3.061   3.893   5.179  0.2664 -0.5679 -0.8734
 4984SOL    HW126411   3.013   3.918   5.258  0.8515 -0.4830 -0.5387
 4984SOL    HW226412   3.118   3.827   5.218  3.0625  2.9473  0.9718
 4985SOL     OW26413   3.386   4.650  16.156  0.2790 -0.3639 -0.4589
 4985SOL    HW126414   3.291   4.652  16.145  0.5168  2.3540 -1.8850
 4985SOL    HW226415   3.389   4.555  16.166 -0.1233 -0.1349  1.7915
 4986SOL     OW26416   1.868   4.157   3.209  0.2070 -0.2645 -0.3101
 4986SOL    HW126417   1.880   4.066   3.235 -0.0147  0.0500  0.8598
 4986SOL    HW226418   1.799   4.141   3.144  0.0558 -1.3112  0.1058
 4987SOL     OW26419   3.104   0.794  13.603 -0.0480  0.0021  0.3611
 4987SOL    HW126420   3.151   0.750  13.532 -3.3333 -2.8788 -0.0112
 4987SOL    HW226421   3.076   0.872  13.556  4.6352  1.4426 -0.0222
 4988SOL     OW26422   2.032   3.702   3.480 -0.2380 -0.0487  0.2204
 4988SOL    HW126423   1.995   3.772   3.533 -0.5259  0.3228 -0.4724
 4988SOL    HW226424   2.105   3.750   3.440 -0.1348 -1.2365 -1.0216
 4989SOL     OW26425   4.388   0.507   7.140 -0.9099  0.2259  0.3655
 4989SOL    HW126426   4.318   0.539   7.084 -0.1918  0.8260 -0.1949
 4989SOL    HW226427   4.334   0.451   7.196 -0.6806  0.2178  0.5781
 4990SOL     OW26428   2.883   1.877   6.434  0.8433 -0.3176  0.1064
 4990SOL    HW126429   2.805   1.926   6.460  1.0020  1.4351 -2.7183
 4990SOL    HW226430   2.929   1.942   6.382  0.7825 -0.6624 -0.3728
 4991SOL     OW26431   4.148   2.907  10.464 -0.2484  0.1379  0.2024
 4991SOL    HW126432   4.166   2.903  10.558  0.8784 -0.4024 -0.0440
 4991SOL    HW226433   4.192   2.827  10.438  0.8034  0.4272  1.1044
 4992SOL     OW26434   2.082   1.195   3.682 -0.1109 -0.4174 -0.1771
 4992SOL    HW126435   2.158   1.249   3.704  0.5368 -0.2004 -2.9934
 4992SOL    HW226436   2.022   1.242   3.625 -0.6530 -1.9364 -0.8572
 4993SOL     OW26437   0.869   4.353  13.016 -0.2999 -0.0692 -0.2154
 4993SOL    HW126438   0.847   4.410  12.942 -0.0215  0.4617  0.1135
 4993SOL    HW226439   0.824   4.398  13.087  1.9552 -0.2170  1.2829
 4994SOL     OW26440   3.349   0.309   7.555 -0.0455 -0.2120  0.0051
 4994SOL    HW126441   3.302   0.327   7.637 -0.1663 -1.1258  0.1348
 4994SOL    HW226442   3.275   0.260   7.520  1.6463 -2.7317 -0.0227
 4995SOL     OW26443   1.935   3.223  10.627  0.1177  0.4972 -0.1487
 4995SOL    HW126444   1.908   3.131  10.624 -1.4145  0.9609 -0.5325
 4995SOL    HW226445   1.923   3.246  10.719 -1.0582 -1.8029  0.2878
 4996SOL     OW26446   1.583   4.479   2.419  0.2991  0.1664  0.4985
 4996SOL    HW126447   1.532   4.398   2.422  0.5690 -0.1012 -2.6902
 4996SOL    HW226448   1.573   4.510   2.330 -1.3769 -3.2110 -0.4863
 4997SOL     OW26449   4.550   3.586   8.626 -0.2247 -0.2125  0.0255
 4997SOL    HW126450   4.477   3.606   8.567 -0.7208 -0.1864  0.6519
 4997SOL    HW226451   4.595   3.511   8.587 -2.4159 -0.7124 -1.5244
 4998SOL     OW26452   1.583   1.674   4.321 -0.2424 -0.8374 -0.3991
 4998SOL    HW126453   1.578   1.755   4.270  0.4689  0.8462  2.2444
 4998SOL    HW226454   1.537   1.615   4.261 -1.4125 -0.0183 -0.3026
 4999SOL     OW26455   0.780   3.243   5.914  0.0079 -0.3113  0.5182
 4999SOL    HW126456   0.721   3.192   5.858  0.7258  1.3434 -1.7417
 4999SOL    HW226457   0.842   3.176   5.942  0.0743 -0.3300  0.3236
 5000SOL     OW26458   4.355   1.085  16.775  0.1321  0.4636  0.0893
 5000SOL    HW126459   4.424   1.049  16.720 -1.0692 -2.4663  0.4748
 5000SOL    HW226460   4.412   1.120  16.843 -0.4863 -1.4123  1.5995
 5001SOL     OW26461   2.959   2.997  14.149  0.4686 -0.2262 -0.5687
 5001SOL    HW126462   2.876   2.987  14.102 -0.8676 -0.1180  1.7304
 5001SOL    HW226463   2.993   2.908  14.140  0.4978 -0.3478  0.7521
 5002SOL     OW26464   1.583   1.727   1.005  0.2027  0.3320  0.3224
 5002SOL    HW126465   1.613   1.699   1.092 -2.0908  0.4361  1.1456
 5002SOL    HW226466   1.539   1.810   1.021 -1.9101 -0.9454  1.1998
 5003SOL     OW26467   1.378   2.932   1.887 -0.3780  0.6075 -0.1190
 5003SOL    HW126468   1.292   2.930   1.927 -0.5065  2.3038 -0.3075
 5003SOL    HW226469   1.412   2.852   1.926 -0.7649 -0.5925 -2.2179
 5004SOL     OW26470   0.298   3.274   6.778 -0.1675 -0.5398 -0.1503
 5004SOL    HW126471   0.328   3.183   6.777 -0.8364 -0.7411 -3.7977
 5004SOL    HW226472   0.383   3.317   6.785  0.6679 -2.2501  0.3475
 5005SOL     OW26473   3.301   3.715  11.410 -0.0298  0.5430 -0.2110
 5005SOL    HW126474   3.259   3.772  11.345 -2.3047 -0.2512  0.5796
 5005SOL    HW226475   3.395   3.729  11.402 -0.1786  0.5720 -1.9198
 5006SOL     OW26476   2.202   2.057   3.614  0.2000 -0.0833  0.2578
 5006SOL    HW126477   2.119   2.103   3.628  0.1276  0.2683 -1.2666
 5006SOL    HW226478   2.202   1.970   3.655 -1.5800  1.2658  3.1343
 5007SOL     OW26479   3.598   2.809  12.997  0.3070  0.2997  0.3254
 5007SOL    HW126480   3.587   2.747  12.924  2.3316  1.3636 -0.8800
 5007SOL    HW226481   3.520   2.813  13.052  0.0503  2.4686 -0.1930
 5008SOL     OW26482   4.578   3.111   4.105  0.1895  0.1708  0.2249
 5008SOL    HW126483   4.670   3.085   4.098 -1.1466 -4.0493 -1.5861
 5008SOL    HW226484   4.549   3.083   4.019  3.1606  0.6967 -0.9532
 5009SOL     OW26485   2.752   0.243   9.042 -0.3296 -0.4811 -0.3324
 5009SOL    HW126486   2.670   0.226   9.090 -1.0749 -0.7278 -1.6883
 5009SOL    HW226487   2.812   0.190   9.095 -0.1263  0.2188  0.1319
 5010SOL     OW26488   2.161   0.589   2.305 -0.2313  0.2997  0.0930
 5010SOL    HW126489   2.134   0.667   2.352 -1.6744 -0.0055 -0.2315
 5010SOL    HW226490   2.177   0.625   2.218 -0.6111  1.1313  0.3707
 5011SOL     OW26491   2.744   0.762  11.701  0.4699 -0.0854 -0.6598
 5011SOL    HW126492   2.701   0.813  11.632 -0.1930 -1.1599 -1.0375
 5011SOL    HW226493   2.716   0.672  11.682 -1.3967  0.5622 -0.9342
 5012SOL     OW26494   0.461   4.150   3.102 -0.0395  0.0817 -0.3429
 5012SOL    HW126495   0.511   4.200   3.167 -1.3325  0.4749  0.3519
 5012SOL    HW226496   0.520   4.075   3.092  0.9550  0.9453 -0.9240
 5013SOL     OW26497   0.249   3.194   0.948 -0.3429  0.2356 -0.3384
 5013SOL    HW126498   0.154   3.195   0.957 -0.4561 -0.7003 -1.3606
 5013SOL    HW226499   0.274   3.222   1.036  3.0733 -1.3385 -0.8062
 5014SOL     OW26500   3.394   1.729   5.774 -0.6491 -0.3961  1.0630
 5014SOL    HW126501   3.408   1.823   5.785 -0.6835 -0.4481  1.5745
 5014SOL    HW226502   3.317   1.710   5.828  0.2439 -0.0952  2.4620
 5015SOL     OW26503   3.357   4.210   3.205  0.1205 -0.7310  0.0855
 5015SOL    HW126504   3.296   4.136   3.196  0.5674 -0.6932 -3.3364
 5015SOL    HW226505   3.295   4.281   3.191  1.2764  0.3580  0.5184
 5016SOL     OW26506   2.308   0.668  14.686  0.2683 -0.1370  0.3325
 5016SOL    HW126507   2.374   0.623  14.738  1.0246  1.1286  0.4905
 5016SOL    HW226508   2.313   0.757  14.722  0.2846 -0.4456  1.0849
 5017SOL     OW26509   0.951   3.232   4.595 -0.1385  0.0291  0.4949
 5017SOL    HW126510   1.017   3.233   4.526  0.3088  0.8515  0.9329
 5017SOL    HW226511   1.000   3.254   4.674  0.3660  0.3137  0.1034
 5018SOL     OW26512   1.428   1.475  13.666  0.0174  0.3091 -0.0160
 5018SOL    HW126513   1.503   1.502  13.720 -0.6627 -0.5368  1.3514
 5018SOL    HW226514   1.444   1.382  13.656  0.2675  0.4218 -0.6565
 5019SOL     OW26515   0.549   2.893  11.659  0.1810 -0.5422 -0.1498
 5019SOL    HW126516   0.500   2.888  11.741 -0.7705 -0.6872 -0.7244
 5019SOL    HW226517   0.566   2.800  11.643  4.8805  0.1615  0.9270
 5020SOL     OW26518   3.723   3.750   2.571 -0.4823 -0.4714  0.0330
 5020SOL    HW126519   3.704   3.839   2.540  1.2817  0.2087  0.9350
 5020SOL    HW226520   3.760   3.769   2.657  0.6106 -1.8509 -0.1336
 5021SOL     OW26521   3.060   3.860   6.621  0.3866  0.5803 -0.3877
 5021SOL    HW126522   3.026   3.771   6.612  2.1307 -0.0483 -0.8573
 5021SOL    HW226523   3.110   3.867   6.539  1.6750  0.3270  0.3787
 5022SOL     OW26524   3.123   2.433   3.625  0.6791  0.1490  0.3921
 5022SOL    HW126525   3.100   2.371   3.694  0.5625 -1.4707 -1.0710
 5022SOL    HW226526   3.041   2.480   3.607  1.0799 -0.1756 -2.3216
 5023SOL     OW26527   2.127   2.262   4.984  0.2304 -0.2852  0.2015
 5023SOL    HW126528   2.218   2.248   5.012  0.2574  1.0394  0.7571
 5023SOL    HW226529   2.097   2.172   5.000 -1.2189  0.3820  1.1827
 5024SOL     OW26530   4.150   0.650   8.427 -0.2349  0.2043  0.0650
 5024SOL    HW126531   4.186   0.735   8.450 -1.2612  0.4806  0.6516
 5024SOL    HW226532   4.065   0.658   8.470 -0.3889  2.8869 -0.7601
 5025SOL     OW26533   4.175   2.629   5.694  0.1138  0.2324  0.0636
 5025SOL    HW126534   4.204   2.595   5.778  0.9006 -0.3121 -0.4338
 5025SOL    HW226535   4.133   2.553   5.652 -1.2781  1.1406 -0.1960
 5026SOL     OW26536   2.992   2.418   7.567 -0.0397 -0.0719 -0.5160
 5026SOL    HW126537   3.006   2.411   7.662  0.1134  2.7296 -0.3164
 5026SOL    HW226538   2.952   2.505   7.570 -0.0537 -0.1168  0.7529
 5027SOL     OW26539   3.965   0.566  14.375 -0.5473  0.3955 -0.2509
 5027SOL    HW126540   3.937   0.657  14.367 -0.1246  0.6458  1.0957
 5027SOL    HW226541   4.011   0.548  14.293 -2.1606  0.6331 -1.1919
 5028SOL     OW26542   4.164   3.250  10.156  0.0587 -0.0035  0.2680
 5028SOL    HW126543   4.141   3.218  10.069 -3.7546  1.9683  0.5321
 5028SOL    HW226544   4.109   3.328  10.167 -1.1661 -0.6160 -1.6015
 5029SOL     OW26545   3.864   2.335   3.310 -0.3420 -0.2678  1.0513
 5029SOL    HW126546   3.873   2.393   3.385  1.5226 -0.9713  1.3595
 5029SOL    HW226547   3.788   2.280   3.332 -2.4695  2.6508  1.1064
 5030SOL     OW26548   4.206   0.704  14.075 -0.1070  0.4754  0.1745
 5030SOL    HW126549   4.202   0.626  14.131  0.3857  0.9933  0.9326
 5030SOL    HW226550   4.145   0.761  14.121 -0.2844 -0.5924  1.2817
 5031SOL     OW26551   1.088   0.929   8.783 -0.1058 -0.0503 -0.6190
 5031SOL    HW126552   1.026   1.002   8.772  0.2678 -0.0436 -2.7504
 5031SOL    HW226553   1.162   0.988   8.799  1.2208 -2.0169  0.4247
 5032SOL     OW26554   3.338   2.370   1.897  0.4069 -0.0168  0.2178
 5032SOL    HW126555   3.327   2.282   1.863 -2.4470 -1.1654  4.1041
 5032SOL    HW226556   3.249   2.405   1.886  0.4517 -0.2627 -0.9186
 5033SOL     OW26557   3.381   4.154   4.693  0.3125 -0.4752  0.3738
 5033SOL    HW126558   3.476   4.160   4.692  0.2559  0.6386  0.6153
 5033SOL    HW226559   3.355   4.234   4.740 -0.7647  0.2167 -1.3891
 5034SOL     OW26560   3.319   0.648  17.460 -0.6430  0.4105 -0.2281
 5034SOL    HW126561   3.373   0.648  17.539  0.3274  1.5471 -0.8667
 5034SOL    HW226562   3.252   0.581  17.473 -0.2129 -0.2402 -1.3123
 5035SOL     OW26563   3.352   0.363   6.400 -0.8035  0.0245  0.3473
 5035SOL    HW126564   3.291   0.299   6.363  0.7650 -1.4903  0.3984
 5035SOL    HW226565   3.427   0.308   6.376 -1.0625  0.2617 -1.0178
 5036SOL     OW26566   2.910   0.142   2.195 -0.1297 -0.4770 -0.5304
 5036SOL    HW126567   2.920   0.141   2.100 -1.4039  1.8622 -0.7012
 5036SOL    HW226568   2.832   0.196   2.206 -0.3886 -0.7801 -0.8695
 5037SOL     OW26569   2.263   3.185   7.514 -0.0654  0.0326 -0.6670
 5037SOL    HW126570   2.273   3.192   7.420 -1.5625  1.1856 -0.7534
 5037SOL    HW226571   2.211   3.105   7.522 -0.6469  0.5770  1.1388
 5038SOL     OW26572   0.523   2.200  10.152 -0.3042  0.4512 -0.0419
 5038SOL    HW126573   0.611   2.233  10.134 -0.1737  0.8836  1.4212
 5038SOL    HW226574   0.467   2.275  10.171 -2.7337 -0.5031 -3.3879
 5039SOL     OW26575   0.429   3.521   1.032  0.0645  0.3956 -0.1742
 5039SOL    HW126576   0.488   3.584   1.073  0.6372 -2.3692  3.1946
 5039SOL    HW226577   0.474   3.500   0.950  1.3343  1.5745  0.2303
 5040SOL     OW26578   3.193   4.137   5.447  0.2489  0.4567  0.0740
 5040SOL    HW126579   3.125   4.143   5.380 -0.5621  1.9506  1.0633
 5040SOL    HW226580   3.139   4.168   5.519  0.2829  1.1546 -0.2005
 5041SOL     OW26581   4.059   3.007   6.857 -0.1429  0.6107  0.0819
 5041SOL    HW126582   4.002   3.071   6.900 -0.9490 -0.3863  0.5087
 5041SOL    HW226583   4.106   3.069   6.801  0.2721  0.5736  0.3958
 5042SOL     OW26584   4.461   0.398   6.042  0.1127 -0.9641  0.0478
 5042SOL    HW126585   4.407   0.367   5.970  0.7913 -1.9563 -0.0317
 5042SOL    HW226586   4.548   0.399   6.004  0.3646  0.4728  0.6540
 5043SOL     OW26587   4.426   3.408   8.910  0.0980  0.5062 -1.0213
 5043SOL    HW126588   4.401   3.498   8.929  4.0044  0.6141  3.6575
 5043SOL    HW226589   4.475   3.395   8.991  0.7931  1.2491 -1.3156
 5044SOL     OW26590   0.126   1.447   6.166  0.2597  0.2565 -0.5003
 5044SOL    HW126591   0.112   1.369   6.113 -1.5234  0.9547 -1.0493
 5044SOL    HW226592   0.108   1.427   6.257  3.2488  0.5872  0.1695
 5045SOL     OW26593   4.050   0.529   2.998 -0.6149 -0.8958 -0.2330
 5045SOL    HW126594   3.978   0.480   3.037  0.7059 -1.7581  1.0943
 5045SOL    HW226595   4.113   0.463   2.971 -1.0983 -0.0364 -3.4807
 5046SOL     OW26596   2.326   1.629  16.446 -0.0985 -0.1837  0.0298
 5046SOL    HW126597   2.254   1.569  16.463 -1.4673  1.3135 -0.4690
 5046SOL    HW226598   2.332   1.627  16.350  0.0754  2.2602 -0.0078
 5047SOL     OW26599   3.795   2.447   8.536  0.0258 -0.5432 -0.5257
 5047SOL    HW126600   3.795   2.355   8.511 -2.2993  0.0923 -2.7735
 5047SOL    HW226601   3.888   2.458   8.557 -0.6412  1.6814  1.3486
 5048SOL     OW26602   3.108   1.369  16.546 -0.1925 -0.1391  0.5156
 5048SOL    HW126603   3.081   1.457  16.571 -0.9558  0.2634 -1.7975
 5048SOL    HW226604   3.195   1.388  16.511 -0.3878 -1.1922 -0.5353
 5049SOL     OW26605   2.031   1.947  16.876 -0.3147  0.7306  0.7511
 5049SOL    HW126606   1.973   1.941  16.800  1.8092  1.3753 -0.9229
 5049SOL    HW226607   1.999   1.880  16.936  0.0208 -0.0885  0.0232
 5050SOL     OW26608   2.560   1.060  17.205 -0.3714  0.8832 -0.3399
 5050SOL    HW126609   2.549   1.139  17.257  1.2107  1.1093 -0.3618
 5050SOL    HW226610   2.621   1.082  17.135 -0.2752 -0.0966 -0.5702
 5051SOL     OW26611   4.513   1.526   2.854 -0.3824  0.4084 -0.0283
 5051SOL    HW126612   4.499   1.440   2.814  1.9686  0.0438 -0.0785
 5051SOL    HW226613   4.455   1.580   2.801 -2.4055 -1.2600  0.4752
 5052SOL     OW26614   0.773   4.301   8.089 -0.5769 -0.1881 -0.1604
 5052SOL    HW126615   0.822   4.223   8.117  1.9301  0.5379 -2.5669
 5052SOL    HW226616   0.796   4.309   7.996 -0.5071 -2.1696 -0.3331
 5053SOL     OW26617   0.601   4.187  16.014  0.7007  0.3443 -0.0317
 5053SOL    HW126618   0.681   4.234  16.038  0.2155  0.1643  1.9546
 5053SOL    HW226619   0.559   4.269  15.991  0.4393  0.3926  0.6153
 5054SOL     OW26620   2.382   4.207  12.797 -0.4185 -0.4019 -0.1618
 5054SOL    HW126621   2.373   4.111  12.797 -2.3009 -0.2133  0.9575
 5054SOL    HW226622   2.303   4.226  12.846  1.0598  0.4414  1.8758
 5055SOL     OW26623   3.240   0.853   6.566 -0.1422  0.3701 -0.0517
 5055SOL    HW126624   3.152   0.823   6.590 -0.8239  1.3123 -1.4452
 5055SOL    HW226625   3.275   0.778   6.518  0.2107  0.5148 -0.0217
 5056SOL     OW26626   0.997   4.481   6.974 -0.4712 -0.3134 -0.1413
 5056SOL    HW126627   1.008   4.565   6.929 -2.4899  0.2431  0.4123
 5056SOL    HW226628   1.031   4.418   6.910  1.4316  1.2163 -0.6478
 5057SOL     OW26629   4.626   3.810   5.918  0.8019 -0.7139 -0.1448
 5057SOL    HW126630   4.706   3.821   5.867  0.6432  1.1746 -0.0029
 5057SOL    HW226631   4.656   3.857   5.996 -0.4832  1.0577 -0.7127
 5058SOL     OW26632   1.436   0.175   1.998  0.0547  0.2846 -0.2623
 5058SOL    HW126633   1.387   0.098   1.971 -0.0086  1.3234 -3.0785
 5058SOL    HW226634   1.368   0.242   1.993 -0.4841 -0.1224  1.3394
 5059SOL     OW26635   1.858   1.475  11.456 -0.3198  0.0629  0.4679
 5059SOL    HW126636   1.855   1.422  11.376 -0.2926  1.3245 -0.3777
 5059SOL    HW226637   1.863   1.564  11.421  0.2524 -0.4149 -0.6723
 5060SOL     OW26638   1.790   1.248  14.246  0.0761 -0.4816  0.8044
 5060SOL    HW126639   1.730   1.322  14.244  2.0630  1.0961  0.1850
 5060SOL    HW226640   1.872   1.294  14.232  0.0673 -1.1904 -1.5006
 5061SOL     OW26641   2.336   0.795   4.387 -0.6345 -0.0678 -0.0221
 5061SOL    HW126642   2.420   0.831   4.358  0.7622 -1.9059  1.8128
 5061SOL    HW226643   2.274   0.846   4.334 -0.6483  0.6412  0.6736
 5062SOL     OW26644   0.651   2.486  12.316 -0.4342 -0.0037 -0.3114
 5062SOL    HW126645   0.604   2.511  12.396  1.2739  2.4597 -0.0665
 5062SOL    HW226646   0.737   2.526  12.331  0.2031 -1.5565  0.2363
 5063SOL     OW26647   0.577   3.755   4.852  0.4886 -0.0413  0.2583
 5063SOL    HW126648   0.673   3.751   4.843  0.2297  0.0012 -2.3607
 5063SOL    HW226649   0.543   3.757   4.763 -0.3625  1.6729  0.6096
 5064SOL     OW26650   3.508   4.179  13.566  0.0364 -0.2020 -0.1277
 5064SOL    HW126651   3.517   4.174  13.471  0.2990 -2.3831  0.0169
 5064SOL    HW226652   3.414   4.181  13.585  0.2207  1.7217  0.5673
 5065SOL     OW26653   3.409   0.486   4.741 -0.6841 -0.2120 -0.3048
 5065SOL    HW126654   3.455   0.414   4.783 -1.3867  0.4130  1.5273
 5065SOL    HW226655   3.442   0.477   4.652  2.9479 -1.6884  1.1993
 5066SOL     OW26656   2.477   1.703   2.455  0.0887  0.3243 -0.4261
 5066SOL    HW126657   2.519   1.655   2.383  0.3131  0.0227 -0.0919
 5066SOL    HW226658   2.522   1.787   2.460 -0.0637  0.2108  2.5686
 5067SOL     OW26659   3.924   0.536   3.367 -0.9703 -0.0753  0.4287
 5067SOL    HW126660   3.861   0.514   3.299 -0.6066 -0.8476  0.3341
 5067SOL    HW226661   3.958   0.449   3.391 -0.1945 -0.0628 -0.6089
 5068SOL     OW26662   4.657   1.828   2.224 -0.3844 -0.1793 -0.2141
 5068SOL    HW126663   4.709   1.892   2.274  0.4667 -1.2259  0.2453
 5068SOL    HW226664   4.615   1.790   2.302  0.2069 -0.3080  0.0437
 5069SOL     OW26665   2.133   4.109   1.969  0.1396 -0.7444 -0.2906
 5069SOL    HW126666   2.145   4.023   2.007 -0.9620 -0.7312  0.0806
 5069SOL    HW226667   2.051   4.094   1.923  0.4939 -0.4598 -1.0133
 5070SOL     OW26668   2.696   3.386  15.300 -0.8637  0.3453 -0.0143
 5070SOL    HW126669   2.673   3.342  15.218 -0.7176  3.7496 -1.9075
 5070SOL    HW226670   2.620   3.355  15.349 -2.3795 -0.8160 -3.0703
 5071SOL     OW26671   4.035   3.229   2.210  0.1003 -0.0098 -0.5810
 5071SOL    HW126672   4.061   3.273   2.129 -2.8609  0.4460 -1.2492
 5071SOL    HW226673   3.947   3.210   2.178  0.2103  0.7262 -1.3260
 5072SOL     OW26674   1.129   0.797   9.117 -0.1332 -0.5094 -0.6944
 5072SOL    HW126675   1.216   0.836   9.128 -1.5494  1.2577  4.4425
 5072SOL    HW226676   1.080   0.871   9.152 -1.6325 -2.3298  1.0454
 5073SOL     OW26677   3.113   1.114   8.664 -0.0395  0.1629  0.1431
 5073SOL    HW126678   3.054   1.190   8.666 -0.6699 -0.4170  3.3444
 5073SOL    HW226679   3.181   1.142   8.725  0.6051  1.9924 -1.4135
 5074SOL     OW26680   0.602   0.345   7.656 -0.0068 -0.3537 -0.1263
 5074SOL    HW126681   0.659   0.269   7.644 -1.4388 -1.8495  2.4060
 5074SOL    HW226682   0.617   0.369   7.748 -0.4416 -1.1608  0.1542
 5075SOL     OW26683   2.404   1.003   8.956  0.6149  0.0564 -0.5738
 5075SOL    HW126684   2.377   0.948   8.882  0.8267 -2.5147  1.2339
 5075SOL    HW226685   2.485   1.039   8.920  1.1386  0.0466  0.6193
 5076SOL     OW26686   4.290   0.993   0.601  0.3963  0.4166 -0.0869
 5076SOL    HW126687   4.315   1.071   0.552 -2.2024  1.7797  0.7703
 5076SOL    HW226688   4.276   1.026   0.690  2.9978 -0.4097  0.6421
 5077SOL     OW26689   1.806   0.190   7.033 -0.5272  0.0829 -0.0696
 5077SOL    HW126690   1.807   0.128   6.960 -0.0241  0.9122 -0.7679
 5077SOL    HW226691   1.898   0.183   7.056 -1.4904 -3.3345  2.6226
 5078SOL     OW26692   3.570   1.646   2.222 -0.4325  0.0101 -0.4775
 5078SOL    HW126693   3.656   1.608   2.240 -1.7890 -0.4117  4.8710
 5078SOL    HW226694   3.587   1.712   2.155  1.0811 -0.9813 -1.0950
 5079SOL     OW26695   3.039   2.242   2.740 -0.1366 -0.7056  0.1110
 5079SOL    HW126696   3.095   2.210   2.669  0.6414 -2.8393  1.6886
 5079SOL    HW226697   3.060   2.335   2.739 -0.2297 -0.6838  0.2624
 5080SOL     OW26698   2.637   3.466   3.364 -0.3548 -0.0600 -0.3764
 5080SOL    HW126699   2.604   3.549   3.397  2.1126 -0.2456  2.5651
 5080SOL    HW226700   2.589   3.461   3.282  0.1679  1.1419 -0.7489
 5081SOL     OW26701   1.994   4.242  13.848  0.2884  0.2133  0.0346
 5081SOL    HW126702   1.953   4.177  13.904 -2.4722  0.2697 -1.9570
 5081SOL    HW226703   1.923   4.302  13.827 -0.2681 -0.6161 -0.4485
 5082SOL     OW26704   0.673   1.528  16.972  0.3727 -0.0797  0.4263
 5082SOL    HW126705   0.631   1.496  17.051 -0.6863 -1.5073 -0.7001
 5082SOL    HW226706   0.602   1.528  16.907  3.1362  4.1885 -2.6546
 5083SOL     OW26707   3.620   3.574   8.539 -0.3011  0.3314  0.4868
 5083SOL    HW126708   3.574   3.525   8.471 -1.4417  1.4347  0.4718
 5083SOL    HW226709   3.682   3.511   8.577  3.2813  3.4626 -0.1873
 5084SOL     OW26710   0.913   3.717  13.522  0.3951  0.4838 -0.3594
 5084SOL    HW126711   0.947   3.750  13.439  0.6386  2.2479  0.4337
 5084SOL    HW226712   0.992   3.710  13.576  0.0744  0.7644  0.1491
 5085SOL     OW26713   1.967   0.789   9.872  0.3685 -0.0430  0.4948
 5085SOL    HW126714   2.025   0.806   9.798 -2.4896 -0.8666 -1.9722
 5085SOL    HW226715   1.881   0.780   9.830  1.4159  2.1839 -2.1068
 5086SOL     OW26716   1.012   1.594   7.140 -0.1710 -0.1396  0.0236
 5086SOL    HW126717   1.065   1.647   7.199 -0.8688 -1.3179  1.7199
 5086SOL    HW226718   0.966   1.537   7.201 -1.4590  1.0916  0.2008
 5087SOL     OW26719   3.659   3.333   5.881  0.5762 -0.2997  0.3185
 5087SOL    HW126720   3.598   3.394   5.923 -0.6525 -0.7280 -0.8296
 5087SOL    HW226721   3.678   3.264   5.944 -0.7884 -1.3715 -0.4290
 5088SOL     OW26722   1.407   1.343   3.152  0.1973  0.4208 -0.0880
 5088SOL    HW126723   1.451   1.394   3.221 -0.0868 -0.5915  0.8407
 5088SOL    HW226724   1.330   1.398   3.136  0.8023  1.3881  0.3553
 5089SOL     OW26725   3.435   0.160   4.721  0.0858 -0.1026  0.4199
 5089SOL    HW126726   3.410   0.118   4.803 -1.2013  2.5722  1.3989
 5089SOL    HW226727   3.400   0.090   4.667  0.8741 -0.1342 -0.0536
 5090SOL     OW26728   2.421   4.112   6.305  0.1182 -0.5569  0.3266
 5090SOL    HW126729   2.443   4.140   6.216 -0.5745  4.0557  1.5853
 5090SOL    HW226730   2.450   4.191   6.352 -0.8101 -0.5813  0.9414
 5091SOL     OW26731   2.854   2.618  11.516  0.2757  0.0138  0.4163
 5091SOL    HW126732   2.864   2.633  11.422 -1.1899  1.7826  0.5387
 5091SOL    HW226733   2.758   2.613  11.518  0.3221 -0.7972  0.3318
 5092SOL     OW26734   1.849   0.593   9.479  0.1415 -0.4705 -1.0874
 5092SOL    HW126735   1.890   0.509   9.458 -0.3839 -0.4342 -2.2408
 5092SOL    HW226736   1.892   0.657   9.423  2.2429 -1.1849 -0.2944
 5093SOL     OW26737   3.588   0.978   2.601  0.1073  0.2670 -0.5756
 5093SOL    HW126738   3.563   0.943   2.516  3.8235  0.8404 -1.8804
 5093SOL    HW226739   3.673   0.937   2.618 -0.2187  0.3515  1.2438
 5094SOL     OW26740   0.156   2.692  16.340  0.1012 -0.0206  0.3666
 5094SOL    HW126741   0.060   2.686  16.346  0.0978 -0.9198 -0.5893
 5094SOL    HW226742   0.169   2.663  16.250  2.9005  1.0828  0.4386
 5095SOL     OW26743   0.516   0.984   7.074 -0.3846  0.1499  0.5150
 5095SOL    HW126744   0.442   0.959   7.129  0.3529 -3.0741  0.0626
 5095SOL    HW226745   0.536   1.067   7.118 -1.0417  0.4651  0.2302
 5096SOL     OW26746   2.601   2.986   1.727  0.2591  0.5237  0.2734
 5096SOL    HW126747   2.651   2.958   1.803 -0.1548 -0.1523  0.2923
 5096SOL    HW226748   2.523   3.023   1.768  0.2407  0.4570  0.2978
 5097SOL     OW26749   0.788   3.162   2.560 -0.0510 -0.3353 -0.2895
 5097SOL    HW126750   0.759   3.240   2.514 -2.8186 -1.5102 -0.5158
 5097SOL    HW226751   0.839   3.195   2.634 -0.9256  0.4612 -0.0411
 5098SOL     OW26752   2.324   2.584   3.353 -0.5060 -0.5704 -0.2654
 5098SOL    HW126753   2.238   2.622   3.375  0.0601  0.3921  0.2769
 5098SOL    HW226754   2.337   2.515   3.418  1.2019 -0.7943 -0.8495
 5099SOL     OW26755   2.736   1.515   0.634  0.6568  0.7493 -0.2853
 5099SOL    HW126756   2.693   1.595   0.664  0.3643 -0.0616  1.4860
 5099SOL    HW226757   2.753   1.536   0.542  0.3432  0.1682 -0.4781
 5100SOL     OW26758   1.444   3.666  13.502  0.2947  0.4818  0.2295
 5100SOL    HW126759   1.432   3.728  13.430 -3.0036  0.1933  0.4952
 5100SOL    HW226760   1.360   3.674  13.547 -0.6721 -2.3848 -1.1113
 5101SOL     OW26761   2.584   4.481   1.548  0.1718  0.0415 -0.2045
 5101SOL    HW126762   2.674   4.512   1.555 -0.4296  1.5826  0.5963
 5101SOL    HW226763   2.588   4.405   1.606  0.6494 -0.1117 -0.4371
 5102SOL     OW26764   4.240   3.811   6.986 -0.5908  0.3637 -0.1220
 5102SOL    HW126765   4.183   3.738   6.961 -0.0493  0.0101 -0.3258
 5102SOL    HW226766   4.212   3.797   7.077 -0.5058 -0.9727 -0.2931
 5103SOL     OW26767   0.784   0.363  14.187  0.1824  0.4137 -0.3247
 5103SOL    HW126768   0.763   0.452  14.161  2.5916  0.4497 -2.0992
 5103SOL    HW226769   0.695   0.332  14.207  0.2409 -0.1514 -0.9297
 5104SOL     OW26770   4.352   1.071  12.838 -0.0363  0.5870 -0.2693
 5104SOL    HW126771   4.275   1.017  12.820 -0.3608  1.0790 -0.3657
 5104SOL    HW226772   4.319   1.160  12.849 -0.5537  0.3513  0.0509
 5105SOL     OW26773   3.466   0.847   5.849 -0.3086  0.0178  0.2957
 5105SOL    HW126774   3.417   0.863   5.768  0.1551  2.3046  0.4571
 5105SOL    HW226775   3.406   0.817   5.917 -1.8381 -1.1772 -1.6084
 5106SOL     OW26776   4.553   3.293  10.339 -0.5944  0.4588  0.2904
 5106SOL    HW126777   4.622   3.267  10.401  0.1774 -0.0032 -0.7582
 5106SOL    HW226778   4.615   3.339  10.283 -0.1374 -0.9959 -0.4009
 5107SOL     OW26779   0.057   2.948   1.045  0.2916 -0.3903 -0.2162
 5107SOL    HW126780   0.102   2.928   0.963  1.1792 -0.0235  0.1664
 5107SOL    HW226781   0.041   3.042   1.036  2.0238  0.0525  1.0698
 5108SOL     OW26782   0.961   0.524   9.087  0.1629  0.0168  0.2977
 5108SOL    HW126783   0.996   0.610   9.113 -2.7741  0.9185  1.2329
 5108SOL    HW226784   1.033   0.461   9.086  1.1208  1.1124 -0.4710
 5109SOL     OW26785   2.716   0.372  10.064  0.2683  0.1732 -0.5468
 5109SOL    HW126786   2.774   0.348  10.137 -1.1130  0.3096  0.5813
 5109SOL    HW226787   2.696   0.463  10.085 -1.2878 -0.4341  0.6254
 5110SOL     OW26788   2.655   2.877   5.484  0.1574  0.4163 -0.0382
 5110SOL    HW126789   2.732   2.917   5.524 -0.6198 -0.6833  2.5425
 5110SOL    HW226790   2.648   2.792   5.527 -0.2444  1.0667  1.1960
 5111SOL     OW26791   4.495   0.288   4.993 -0.2559  0.2159 -0.2799
 5111SOL    HW126792   4.424   0.225   4.985  0.1688 -0.5085  1.5522
 5111SOL    HW226793   4.466   0.355   5.055 -0.1821 -0.0863  0.0839
 5112SOL     OW26794   1.440   2.619   3.118  0.1217  0.4830 -0.0606
 5112SOL    HW126795   1.428   2.711   3.094 -0.8336  0.5331  0.6452
 5112SOL    HW226796   1.352   2.597   3.147  0.4237  0.7651  1.0849
 5113SOL     OW26797   3.128   1.640   0.384  0.1187 -0.1109 -0.2264
 5113SOL    HW126798   3.218   1.671   0.386  0.1169 -0.0600 -1.0811
 5113SOL    HW226799   3.079   1.715   0.420  1.5716  1.0304 -0.6178
 5114SOL     OW26800   3.204   2.265   6.536  0.0862 -0.0805 -0.0457
 5114SOL    HW126801   3.233   2.204   6.468  0.0259 -0.1243 -0.0317
 5114SOL    HW226802   3.138   2.312   6.485  1.0895  1.4462  0.0604
 5115SOL     OW26803   2.643   2.151   1.104 -0.2138 -0.2293  0.0620
 5115SOL    HW126804   2.688   2.234   1.120  0.6909 -0.8792  0.8276
 5115SOL    HW226805   2.592   2.143   1.185  0.5020  0.2437  0.5551
 5116SOL     OW26806   0.845   3.520   1.895 -0.3069  0.1221 -0.3157
 5116SOL    HW126807   0.871   3.612   1.903  0.1662  0.0112 -0.5765
 5116SOL    HW226808   0.927   3.470   1.887 -1.6627 -2.4720  1.9739
 5117SOL     OW26809   1.172   4.505  13.059 -0.1504  0.0447  0.2975
 5117SOL    HW126810   1.138   4.435  13.003  1.9791 -1.7326  1.2223
 5117SOL    HW226811   1.265   4.509  13.035  0.2860  0.9237  2.1037
 5118SOL     OW26812   1.546   1.184   3.859  0.4746  0.1611 -0.4189
 5118SOL    HW126813   1.601   1.248   3.813  2.0765 -1.4228 -0.6873
 5118SOL    HW226814   1.504   1.137   3.787 -4.5234  0.8490  2.0466
 5119SOL     OW26815   0.086   3.936   6.780 -0.9027 -0.0601 -0.4945
 5119SOL    HW126816   0.096   4.031   6.776  0.7813 -0.3328 -2.5473
 5119SOL    HW226817   0.180   3.918   6.780 -0.7608  0.6490  1.0774
 5120SOL     OW26818   3.839   3.302  11.381  0.1158  0.2408  0.3767
 5120SOL    HW126819   3.907   3.289  11.447 -1.0281 -1.0686  1.2880
 5120SOL    HW226820   3.874   3.371  11.324 -2.3272  0.9823 -0.2078
 5121SOL     OW26821   1.437   3.272  10.960  0.1850 -0.0541 -0.9308
 5121SOL    HW126822   1.512   3.267  11.019 -0.8299 -0.4257  0.3395
 5121SOL    HW226823   1.375   3.321  11.015 -0.0013 -1.1071 -0.1914
 5122SOL     OW26824   1.010   3.491   7.958  0.3055 -0.0887  0.1002
 5122SOL    HW126825   1.070   3.473   8.031 -1.0701 -1.1433  0.9713
 5122SOL    HW226826   1.021   3.584   7.938 -1.1903  0.5732  2.3539
 5123SOL     OW26827   2.953   0.596   7.395 -0.0516 -0.7447 -0.3369
 5123SOL    HW126828   3.049   0.586   7.397 -0.3453 -3.1933  1.5262
 5123SOL    HW226829   2.945   0.682   7.434  4.1935  0.7268 -2.6548
 5124SOL     OW26830   0.752   2.705   6.828  0.1514  0.4451  0.0703
 5124SOL    HW126831   0.725   2.624   6.871 -0.0813  0.0303 -0.8712
 5124SOL    HW226832   0.824   2.733   6.885  0.5527 -0.0304 -0.2007
 5125SOL     OW26833   3.864   2.564   1.076 -0.0244 -0.2172  0.5833
 5125SOL    HW126834   3.875   2.469   1.081 -0.4208 -0.3896 -1.8907
 5125SOL    HW226835   3.911   2.588   1.156 -1.8959 -1.3366  2.0215
 5126SOL     OW26836   3.231   4.072   8.499  0.4816  1.0390 -0.4520
 5126SOL    HW126837   3.151   4.067   8.553 -1.0727  1.4906 -2.7154
 5126SOL    HW226838   3.262   4.158   8.527  0.6775 -0.0597  2.6949
 5127SOL     OW26839   0.205   1.626  14.125 -0.2648  0.1960 -0.1756
 5127SOL    HW126840   0.125   1.661  14.164  1.7045  2.1770  2.1583
 5127SOL    HW226841   0.267   1.696  14.146 -1.9550  2.0611 -1.4097
 5128SOL     OW26842   2.371   2.523   2.706 -0.1373 -1.0986 -0.3119
 5128SOL    HW126843   2.419   2.446   2.736  0.8009 -0.0861  0.7895
 5128SOL    HW226844   2.439   2.583   2.675 -0.1604  0.3105  2.3983
 5129SOL     OW26845   1.117   4.524   5.137 -0.1229  0.4302 -0.3784
 5129SOL    HW126846   1.033   4.490   5.106  0.3200 -1.5289  0.6190
 5129SOL    HW226847   1.170   4.506   5.059  2.3619  1.3574  1.1204
 5130SOL     OW26848   4.270   1.798   5.497 -0.4000  0.2402 -0.3807
 5130SOL    HW126849   4.336   1.868   5.493 -1.7884  1.5724  0.2773
 5130SOL    HW226850   4.222   1.818   5.417  0.1439 -1.2136 -1.0623
 5131SOL     OW26851   1.010   0.422   5.355  0.2103  0.3046 -0.0442
 5131SOL    HW126852   1.027   0.485   5.425  4.6307 -0.1624 -0.7241
 5131SOL    HW226853   0.935   0.381   5.400  1.1333 -0.1202  1.1089
 5132SOL     OW26854   2.098   3.501   4.149  0.0941 -0.2702  0.0371
 5132SOL    HW126855   2.139   3.584   4.176  0.4536 -0.6206  0.5846
 5132SOL    HW226856   2.159   3.467   4.083 -0.6159 -0.4815 -0.4996
 5133SOL     OW26857   3.696   2.403   0.587 -0.0525  1.0459 -0.2298
 5133SOL    HW126858   3.692   2.490   0.547 -1.3413  0.3869 -1.5114
 5133SOL    HW226859   3.637   2.413   0.662  1.6448 -0.1202  1.2473
 5134SOL     OW26860   3.439   2.983   4.126 -0.4749 -0.0970 -0.3731
 5134SOL    HW126861   3.384   3.050   4.086 -0.8175 -0.7361 -0.9610
 5134SOL    HW226862   3.512   2.987   4.064  1.3354 -0.9729  1.6642
 5135SOL     OW26863   2.522   2.102   2.346  0.0418 -0.2779 -0.3296
 5135SOL    HW126864   2.545   2.044   2.419  1.9760  2.5742  1.3437
 5135SOL    HW226865   2.482   2.046   2.280 -1.7420 -0.2413  0.7074
 5136SOL     OW26866   0.368   1.456  12.588 -0.2346  0.1814 -0.1355
 5136SOL    HW126867   0.285   1.464  12.635  0.2079 -0.2621  0.7195
 5136SOL    HW226868   0.351   1.372  12.545 -2.1071 -0.1055  1.1599
 5137SOL     OW26869   0.391   2.639  15.691 -0.1644 -0.1855 -0.1253
 5137SOL    HW126870   0.324   2.695  15.653 -2.4995 -1.7729  1.6760
 5137SOL    HW226871   0.438   2.699  15.749 -1.8899  1.6616 -0.6307
 5138SOL     OW26872   3.397   4.237  14.264  0.0534 -0.0503  0.1871
 5138SOL    HW126873   3.453   4.311  14.241  0.5503 -0.7301 -0.7555
 5138SOL    HW226874   3.385   4.190  14.181 -0.5609  0.3537  0.0422
 5139SOL     OW26875   2.345   3.526   0.769 -0.7422  0.1370  0.2659
 5139SOL    HW126876   2.438   3.549   0.777 -0.3552 -1.3382  0.0646
 5139SOL    HW226877   2.306   3.610   0.745 -1.5134  0.0081  1.1001
 5140SOL     OW26878   1.166   0.624  10.787 -0.0015  0.0785 -0.5422
 5140SOL    HW126879   1.108   0.698  10.766 -0.2083  0.0166 -0.1949
 5140SOL    HW226880   1.194   0.664  10.869  0.4320  0.4486 -0.8746
 5141SOL     OW26881   0.699   2.412   4.038 -0.2228 -0.6268  0.0500
 5141SOL    HW126882   0.696   2.436   4.131  0.5925  1.4013 -0.4325
 5141SOL    HW226883   0.613   2.372   4.027 -0.8806  1.1709 -1.2855
 5142SOL     OW26884   4.137   4.569   0.964  0.3767  0.5334 -0.0744
 5142SOL    HW126885   4.157   4.608   0.879 -2.2009 -1.1130 -1.4210
 5142SOL    HW226886   4.118   4.479   0.936  0.9290  1.1275 -2.3493
 5143SOL     OW26887   3.856   2.672   0.837 -0.1545  0.5517  0.6183
 5143SOL    HW126888   3.866   2.656   0.931 -2.7636 -1.8704  0.4622
 5143SOL    HW226889   3.770   2.636   0.818  0.0021 -0.2309  1.3844
 5144SOL     OW26890   3.993   0.243   8.381 -0.7246 -0.2645  0.1888
 5144SOL    HW126891   3.941   0.323   8.378 -1.5181 -0.7498  1.3868
 5144SOL    HW226892   4.024   0.236   8.290 -0.7277  0.2956  0.1423
 5145SOL     OW26893   2.647   0.136   5.937 -0.4636  0.0008 -0.3308
 5145SOL    HW126894   2.645   0.040   5.935  2.1371  0.0111 -2.6772
 5145SOL    HW226895   2.720   0.147   5.998 -0.7512 -2.6341  0.5114
 5146SOL     OW26896   1.222   4.207   2.648  0.9106  0.0260 -0.3428
 5146SOL    HW126897   1.282   4.135   2.624  0.9528  0.9569 -3.0913
 5146SOL    HW226898   1.208   4.186   2.740 -4.9778 -1.5116 -1.5755
 5147SOL     OW26899   2.067   2.760   1.127 -0.5205  0.7413  0.5311
 5147SOL    HW126900   1.975   2.784   1.115 -1.1686 -0.6932  2.5230
 5147SOL    HW226901   2.082   2.808   1.208 -0.1453  1.2306  0.1653
 5148SOL     OW26902   1.111   4.530   5.435 -0.2919  0.0572 -0.2284
 5148SOL    HW126903   1.056   4.517   5.357 -0.6336  0.7857 -0.1092
 5148SOL    HW226904   1.179   4.465   5.420 -0.2883 -0.4232  1.9011
 5149SOL     OW26905   4.495   2.762   8.539  0.0398 -0.1420  0.2855
 5149SOL    HW126906   4.507   2.751   8.444  0.9429  0.9818  0.2689
 5149SOL    HW226907   4.582   2.729   8.562  0.6925  1.0145 -0.5296
 5150SOL     OW26908   2.309   3.578   6.380  0.1143 -0.7232  0.3628
 5150SOL    HW126909   2.400   3.598   6.361  0.2596 -2.0192 -0.3262
 5150SOL    HW226910   2.322   3.489   6.414 -0.5791 -0.2098  1.9951
 5151SOL     OW26911   4.191   2.996   4.914 -0.8433 -0.3688 -0.1392
 5151SOL    HW126912   4.187   3.080   4.959 -1.6258 -2.0050  2.8145
 5151SOL    HW226913   4.147   2.933   4.972  1.0121 -0.6161  0.9820
 5152SOL     OW26914   0.962   3.795   2.603  0.2794  0.2715  0.1214
 5152SOL    HW126915   0.903   3.808   2.677  0.4322  3.0179 -0.2374
 5152SOL    HW226916   0.917   3.726   2.553 -0.3026  0.7674 -0.0381
 5153SOL     OW26917   2.933   1.972   4.913  0.6812  0.6488 -0.4206
 5153SOL    HW126918   2.947   1.919   4.834 -1.0415 -1.0709  0.4112
 5153SOL    HW226919   3.019   1.990   4.950  1.0496  0.3834 -1.1329
 5154SOL     OW26920   3.552   3.022   3.398  0.3202  0.4062 -0.0730
 5154SOL    HW126921   3.581   3.009   3.308  0.1781  3.5241 -0.5462
 5154SOL    HW226922   3.464   2.985   3.390 -0.0784  0.8062  2.4638
 5155SOL     OW26923   2.646   2.247   7.390 -0.2839  0.5036 -0.1465
 5155SOL    HW126924   2.564   2.226   7.434 -0.8396  0.6014 -1.1493
 5155SOL    HW226925   2.662   2.156   7.364  0.8713  0.6540  0.0055
 5156SOL     OW26926   1.653   2.747   3.929  0.2807 -0.2800 -0.4476
 5156SOL    HW126927   1.593   2.672   3.922  0.0758 -0.0429 -1.2390
 5156SOL    HW226928   1.611   2.810   3.871  0.7207  1.6811  1.3787
 5157SOL     OW26929   2.700   0.772   5.909 -0.0812  0.0472  0.1639
 5157SOL    HW126930   2.643   0.728   5.846 -1.2631  1.6661  0.0947
 5157SOL    HW226931   2.645   0.783   5.986  1.1948  1.2757  0.9148
 5158SOL     OW26932   1.756   3.554  11.240 -0.6870  0.2197 -0.2039
 5158SOL    HW126933   1.708   3.580  11.319  1.0762  0.7112  0.6877
 5158SOL    HW226934   1.687   3.554  11.173 -1.1201 -0.0448  0.2335
 5159SOL     OW26935   3.943   3.725   7.992  0.5660  0.1773 -0.6375
 5159SOL    HW126936   3.955   3.777   8.072  1.0451 -0.3697 -0.3547
 5159SOL    HW226937   3.921   3.636   8.021  2.1651  0.3644  1.1273
 5160SOL     OW26938   2.263   3.248   2.896  0.1068  0.2958  0.3523
 5160SOL    HW126939   2.255   3.238   2.801 -2.3740  2.3248  0.3638
 5160SOL    HW226940   2.284   3.341   2.904 -0.6232  0.7239 -2.7159
 5161SOL     OW26941   3.942   3.438   6.169 -0.0042 -0.1835  0.5814
 5161SOL    HW126942   3.994   3.507   6.128  0.1664 -1.3083 -1.0733
 5161SOL    HW226943   3.969   3.365   6.113  1.7035  1.7623 -1.1264
 5162SOL     OW26944   0.973   2.054  15.609  0.2608 -0.2856 -0.4642
 5162SOL    HW126945   1.066   2.059  15.589  0.6151  2.5021  1.8307
 5162SOL    HW226946   0.943   2.142  15.632  1.5089 -0.0746  0.3240
 5163SOL     OW26947   3.974   3.900   6.584  0.5840  0.1412 -0.5520
 5163SOL    HW126948   4.014   3.905   6.671  0.6036  0.3359 -0.5731
 5163SOL    HW226949   3.986   3.805   6.574 -1.5477 -0.1106 -0.8207
 5164SOL     OW26950   3.689   2.974   3.956  0.2117 -0.3543 -0.5802
 5164SOL    HW126951   3.778   2.993   3.928  0.6288  0.0656  1.0395
 5164SOL    HW226952   3.652   2.929   3.880  3.0492 -1.6211 -1.1915
 5165SOL     OW26953   0.752   1.541   7.544 -0.3400 -0.1059 -0.4658
 5165SOL    HW126954   0.839   1.545   7.583  1.4246  0.4369 -4.4608
 5165SOL    HW226955   0.776   1.478   7.476  0.8505  0.4091 -0.5272
 5166SOL     OW26956   4.182   1.966   0.115  0.2458 -0.4492 -0.3133
 5166SOL    HW126957   4.207   1.958   0.207  0.6769  0.9483 -0.2995
 5166SOL    HW226958   4.190   2.061   0.108  0.5496 -0.5946 -2.1253
 5167SOL     OW26959   0.763   1.504   4.494  0.3940 -0.5067  0.5554
 5167SOL    HW126960   0.701   1.551   4.438 -0.6878  0.3589  2.4812
 5167SOL    HW226961   0.706   1.429   4.514 -0.1279  0.1086  1.3767
 5168SOL     OW26962   4.028   3.280  12.337  0.1803  0.5970  0.0820
 5168SOL    HW126963   3.982   3.306  12.257 -4.7778  0.2986  2.8540
 5168SOL    HW226964   4.095   3.348  12.347  0.2520  0.0976  2.9477
 5169SOL     OW26965   0.354   2.999   7.717 -0.5085 -0.2097 -0.0697
 5169SOL    HW126966   0.300   3.056   7.663  0.3835  1.0524  0.3766
 5169SOL    HW226967   0.355   2.927   7.654 -1.3287 -0.5477  0.2992
 5170SOL     OW26968   2.585   0.038   3.078  0.0388  1.0702  0.3678
 5170SOL    HW126969   2.625   4.693   3.133 -0.2438 -0.4523 -1.3091
 5170SOL    HW226970   2.648   0.048   3.007  1.0859 -0.4023  1.0814
 5171SOL     OW26971   4.596   4.292  16.165 -0.4023 -0.1384  0.8865
 5171SOL    HW126972   4.562   4.282  16.255 -0.0915  2.0781  1.2630
 5171SOL    HW226973   4.621   4.384  16.176  0.1113  0.1153 -2.6528
 5172SOL     OW26974   0.048   3.978   2.227 -0.3700 -0.2970  0.0495
 5172SOL    HW126975   0.002   3.933   2.298 -0.3488  0.1474  0.3459
 5172SOL    HW226976   0.094   3.902   2.189  0.6411  0.2332  0.2042
 5173SOL     OW26977   4.257   0.352   5.827 -0.1804  0.3249 -0.0373
 5173SOL    HW126978   4.220   0.311   5.905 -1.3404 -0.9267 -1.2590
 5173SOL    HW226979   4.210   0.305   5.758 -1.7338  2.4847 -0.4932
 5174SOL     OW26980   4.402   3.186   3.620  0.0073 -0.1009  0.6223
 5174SOL    HW126981   4.417   3.118   3.554 -0.5031  0.0024  0.4003
 5174SOL    HW226982   4.428   3.265   3.571 -1.0855  1.2125  2.1828
 5175SOL     OW26983   0.089   0.441  16.565  0.3942  0.0760 -0.5313
 5175SOL    HW126984   0.037   0.419  16.642  0.2702  1.4085 -0.2318
 5175SOL    HW226985   0.018   0.491  16.524 -0.2083  1.9785  2.8463
 5176SOL     OW26986   4.594   4.427  17.007  0.1893 -0.3973 -0.2905
 5176SOL    HW126987   4.682   4.464  17.019  0.1043 -0.1418 -0.4446
 5176SOL    HW226988   4.539   4.505  16.997  0.3917 -0.4211 -1.6166
 5177SOL     OW26989   2.964   1.746   3.473 -0.2057  0.1350 -0.2091
 5177SOL    HW126990   2.875   1.774   3.496 -0.5761 -0.8665 -0.3993
 5177SOL    HW226991   2.986   1.670   3.527  0.2876  0.4619  0.0416
 5178SOL     OW26992   1.191   4.538   1.304  0.3972  0.1744  0.0257
 5178SOL    HW126993   1.133   4.589   1.360  0.1878  0.3315 -0.3303
 5178SOL    HW226994   1.135   4.522   1.228  2.3527 -2.8657 -0.7879
 5179SOL     OW26995   1.861   0.404   8.794  0.3362  0.4164  0.2211
 5179SOL    HW126996   1.792   0.408   8.727  0.2401  0.3060  0.3131
 5179SOL    HW226997   1.925   0.454   8.743  3.2106 -1.2705  2.1685
 5180SOL     OW26998   2.980   2.096   0.317  0.5857 -0.9457  0.3850
 5180SOL    HW126999   2.947   2.008   0.302  1.8563 -1.3860  0.1296
 5180SOL    HW227000   3.038   2.074   0.391  0.2938 -2.0740  0.2674
 5181SOL     OW27001   4.519   3.162   8.150  0.7667  0.3795  0.3692
 5181SOL    HW127002   4.431   3.194   8.130  0.2754 -0.7609  0.7514
 5181SOL    HW227003   4.569   3.236   8.114 -0.9459  1.3170 -0.0760
 5182SOL     OW27004   4.225   0.477   4.905 -0.4774 -0.1596 -0.0547
 5182SOL    HW127005   4.214   0.383   4.919 -0.8576  0.1357  1.5433
 5182SOL    HW227006   4.267   0.505   4.986  1.3204 -2.0713 -0.3210
 5183SOL     OW27007   1.367   1.178   1.356  0.0643 -0.0825 -0.5590
 5183SOL    HW127008   1.317   1.245   1.309  0.0970  0.7886  0.6633
 5183SOL    HW227009   1.338   1.098   1.312 -1.1703 -0.0085  0.1161
 5184SOL     OW27010   1.565   3.290   6.743  0.0328  0.4110 -0.1439
 5184SOL    HW127011   1.509   3.248   6.809  2.0304 -0.3234  1.1016
 5184SOL    HW227012   1.645   3.239   6.758  0.6355  2.0113  2.1601
 5185SOL     OW27013   0.767   2.806   4.119  0.1188  0.2780  0.3175
 5185SOL    HW127014   0.730   2.888   4.151 -0.6044 -0.5786  1.6886
 5185SOL    HW227015   0.739   2.744   4.187 -0.5315  1.9798  1.5903
 5186SOL     OW27016   0.699   3.744   5.539 -0.0588  0.7068  0.1052
 5186SOL    HW127017   0.649   3.818   5.571 -1.8403 -0.1449 -0.7045
 5186SOL    HW227018   0.654   3.717   5.459 -1.5993 -1.1859  1.5874
 5187SOL     OW27019   1.606   3.159   4.445 -0.1356 -0.2197  0.2165
 5187SOL    HW127020   1.599   3.103   4.523  1.7869 -1.0055 -0.1799
 5187SOL    HW227021   1.535   3.121   4.393 -1.2003 -2.3972  3.3036
 5188SOL     OW27022   3.300   3.473   7.630 -0.1063 -0.3556 -0.5776
 5188SOL    HW127023   3.361   3.488   7.702  1.1828 -0.2171 -1.6986
 5188SOL    HW227024   3.249   3.402   7.668  3.3339 -0.9944  2.8049
 5189SOL     OW27025   1.899   2.835   8.150  0.2272 -0.3995  0.6779
 5189SOL    HW127026   1.893   2.881   8.234  5.2599 -0.1889  0.9034
 5189SOL    HW227027   1.984   2.862   8.114 -0.0605 -0.6531 -0.1979
 5190SOL     OW27028   4.597   0.716   8.555 -0.4198  0.3424 -0.2403
 5190SOL    HW127029   4.508   0.723   8.590  0.1976 -0.8842  1.5631
 5190SOL    HW227030   4.652   0.689   8.629  0.2933  1.3334 -0.4280
 5191SOL     OW27031   4.490   3.191  14.834  0.2266  0.0152 -0.0010
 5191SOL    HW127032   4.526   3.181  14.923 -0.7279 -2.5343  0.0951
 5191SOL    HW227033   4.481   3.286  14.824 -0.6206 -0.0744 -0.0350
 5192SOL     OW27034   1.285   2.608   1.940  0.1167 -0.3334  0.2455
 5192SOL    HW127035   1.354   2.564   1.991 -0.4501  0.5148  1.7346
 5192SOL    HW227036   1.296   2.572   1.852 -1.3329  3.2457 -1.3704
 5193SOL     OW27037   0.533   3.529   5.872  0.4677 -0.3524 -0.1884
 5193SOL    HW127038   0.542   3.487   5.786 -0.6270  2.8082 -1.8823
 5193SOL    HW227039   0.626   3.542   5.888 -0.2083  0.1877  3.2120
 5194SOL     OW27040   2.174   3.613  14.720  0.1609 -0.3966  0.4168
 5194SOL    HW127041   2.254   3.575  14.684  1.0312  1.7596  0.0649
 5194SOL    HW227042   2.212   3.701  14.727 -0.6842 -0.1579  2.2668
 5195SOL     OW27043   0.447   2.678  17.451 -0.2362  0.0359 -0.6627
 5195SOL    HW127044   0.445   2.774  17.451 -0.8626  0.0223 -2.1681
 5195SOL    HW227045   0.456   2.664  17.545 -1.1983 -1.8656 -0.8515
 5196SOL     OW27046   2.253   0.033  10.204 -0.4206 -0.5253 -0.2966
 5196SOL    HW127047   2.258   0.025  10.299 -1.4376  2.1302 -0.0271
 5196SOL    HW227048   2.341   0.065  10.181 -0.9037  0.5131 -0.6622
 5197SOL     OW27049   0.876   1.433   7.299  0.4393  0.2190  0.0983
 5197SOL    HW127050   0.935   1.427   7.374  0.1243  2.5428  0.5303
 5197SOL    HW227051   0.843   1.343   7.293  1.3588 -0.0458 -0.8822
 5198SOL     OW27052   3.207   1.852   9.997 -0.3151 -0.4838  0.3512
 5198SOL    HW127053   3.114   1.868  10.013 -0.5846 -0.3656 -1.3481
 5198SOL    HW227054   3.255   1.851  10.080 -1.7553  1.4112  1.2174
 5199SOL     OW27055   0.805   3.044   5.495  0.2826 -0.4760  0.1605
 5199SOL    HW127056   0.757   3.083   5.422  0.9130 -0.2985 -0.1548
 5199SOL    HW227057   0.728   3.017   5.546 -0.3683  2.6208  0.8304
 5200SOL     OW27058   0.564   2.809   3.621 -0.0504  0.0386 -0.1225
 5200SOL    HW127059   0.524   2.734   3.666 -0.7703  0.6744  0.2969
 5200SOL    HW227060   0.529   2.878   3.677  3.3877 -0.1524  2.2777
 5201SOL     OW27061   1.393   3.489   8.993  0.4861 -0.1654  0.2165
 5201SOL    HW127062   1.434   3.419   8.941  0.1606 -0.8199  0.8582
 5201SOL    HW227063   1.344   3.437   9.056 -0.4594 -0.8820 -1.1177
 5202SOL     OW27064   2.871   0.437   5.945 -0.0853 -0.4007 -0.5861
 5202SOL    HW127065   2.874   0.362   6.005 -1.7044  0.1230  0.1388
 5202SOL    HW227066   2.786   0.430   5.901 -0.6321  0.3008  0.3875
 5203SOL     OW27067   4.005   3.448   2.898 -0.0953 -0.3178 -0.3401
 5203SOL    HW127068   4.056   3.482   2.824  0.7170 -0.5014  0.1395
 5203SOL    HW227069   4.005   3.355   2.879 -1.0972  0.5107 -4.5031
 5204SOL     OW27070   2.457   4.492   4.985 -0.4791  0.3816  0.2282
 5204SOL    HW127071   2.520   4.422   4.969  0.0614  0.8974  0.1032
 5204SOL    HW227072   2.503   4.573   4.965  0.1749 -0.5663 -2.1690
 5205SOL     OW27073   2.042   3.699   2.682  0.1700 -0.4906  0.1001
 5205SOL    HW127074   2.089   3.753   2.746 -0.5608  2.4766 -1.8560
 5205SOL    HW227075   2.111   3.636   2.660  0.4298 -0.0480 -0.3631
 5206SOL     OW27076   0.421   1.956  13.357  0.2526 -0.0172  0.0118
 5206SOL    HW127077   0.418   1.924  13.266  0.0766  1.8786 -0.6604
 5206SOL    HW227078   0.512   1.984  13.348 -0.5358  2.9517  1.4375
 5207SOL     OW27079   3.534   2.778   6.571 -0.1229 -0.0912 -0.2598
 5207SOL    HW127080   3.528   2.747   6.661  2.9665 -0.7112 -0.2737
 5207SOL    HW227081   3.608   2.835   6.593  1.1071 -2.5895  1.9793
 5208SOL     OW27082   3.329   0.644  16.670 -0.2430  0.4917 -0.6307
 5208SOL    HW127083   3.281   0.590  16.733  1.4788 -1.4190 -0.9243
 5208SOL    HW227084   3.403   0.587  16.649 -1.5684 -1.4293 -0.0736
 5209SOL     OW27085   1.952   0.281  15.969 -0.2291  0.0566  0.1408
 5209SOL    HW127086   1.918   0.293  15.881 -0.1941  2.9865  0.5350
 5209SOL    HW227087   1.914   0.195  15.987 -1.2398  0.3649 -0.5130
 5210SOL     OW27088   2.546   0.782  13.261 -0.3979 -0.0969  0.4700
 5210SOL    HW127089   2.631   0.748  13.234 -0.3593 -0.4792  1.0758
 5210SOL    HW227090   2.493   0.702  13.256 -0.3257 -0.0325 -1.4447
 5211SOL     OW27091   3.415   3.715  15.478  0.0407 -0.4303 -0.2202
 5211SOL    HW127092   3.499   3.705  15.433  1.6709  1.1280  2.4383
 5211SOL    HW227093   3.394   3.624  15.498  1.2528 -0.7131 -0.2228
 5212SOL     OW27094   2.189   0.244   1.178 -0.3419  0.1826  0.1418
 5212SOL    HW127095   2.176   0.336   1.204  1.5559  1.2811 -2.7773
 5212SOL    HW227096   2.264   0.216   1.229  0.0171  0.7944 -0.0525
 5213SOL     OW27097   1.180   3.407   8.498  0.6613  0.5225  0.4644
 5213SOL    HW127098   1.266   3.374   8.472  1.5547  0.8646  2.9817
 5213SOL    HW227099   1.154   3.343   8.564  0.0519  3.2137  2.8282
 5214SOL     OW27100   0.973   0.802   5.126 -0.6206 -0.7898 -0.2272
 5214SOL    HW127101   1.057   0.822   5.167 -0.6197  0.7071 -0.9673
 5214SOL    HW227102   0.985   0.850   5.044  0.5995  0.0575  0.4434
 5215SOL     OW27103   2.298   3.355   1.736 -0.0691  0.0850 -0.3920
 5215SOL    HW127104   2.327   3.268   1.766 -0.4752 -0.1726 -0.7449
 5215SOL    HW227105   2.376   3.408   1.723  0.4923 -0.7876 -0.5712
 5216SOL     OW27106   0.860   3.187   8.896 -0.5346 -0.5773  0.1375
 5216SOL    HW127107   0.854   3.256   8.830 -0.6801 -0.8551 -0.1385
 5216SOL    HW227108   0.912   3.230   8.964  0.4169  0.3804 -1.2032
 5217SOL     OW27109   0.303   4.021   8.423 -0.0794 -0.0532  0.3778
 5217SOL    HW127110   0.338   4.024   8.334 -1.3669  1.2715 -0.0966
 5217SOL    HW227111   0.251   4.102   8.419 -0.7870 -0.4841  0.9242
 5218SOL     OW27112   3.863   0.383   9.029  0.3234 -0.9282  0.3890
 5218SOL    HW127113   3.777   0.377   9.071 -0.4016 -0.3209 -1.0074
 5218SOL    HW227114   3.865   0.308   8.970 -2.7836 -2.2600  1.9514
 5219SOL     OW27115   1.529   0.383   2.934  0.0125 -0.5302  0.1492
 5219SOL    HW127116   1.558   0.297   2.964  2.1868 -0.3346 -1.3609
 5219SOL    HW227117   1.555   0.383   2.842 -0.0335 -0.1997  0.1381
 5220SOL     OW27118   1.092   3.157  10.134  0.5805 -0.4781  0.2395
 5220SOL    HW127119   1.050   3.236  10.099 -2.2447 -1.4241  1.4541
 5220SOL    HW227120   1.046   3.153  10.218 -1.8575  1.6407 -0.9894
 5221SOL     OW27121   1.707   0.551   2.618  0.1845 -0.0291  0.5744
 5221SOL    HW127122   1.776   0.538   2.553  0.7223 -1.3076  1.4159
 5221SOL    HW227123   1.686   0.460   2.634 -0.7158  0.1885  0.6033
 5222SOL     OW27124   1.485   1.481   7.411 -0.7088 -0.0423 -0.1734
 5222SOL    HW127125   1.568   1.477   7.458 -0.7572  2.4633  0.1408
 5222SOL    HW227126   1.451   1.392   7.409  2.8169 -1.4027  0.5127
 5223SOL     OW27127   1.830   3.521  13.994  0.2927  0.6793 -0.0001
 5223SOL    HW127128   1.825   3.488  13.904 -1.3626 -0.7885  0.6525
 5223SOL    HW227129   1.867   3.442  14.034 -1.3158 -0.3249 -0.5150
 5224SOL     OW27130   2.569   1.316  17.272  0.1393 -0.6361  0.0642
 5224SOL    HW127131   2.641   1.379  17.268 -0.7089  0.3450  0.6102
 5224SOL    HW227132   2.503   1.368  17.226  0.6280 -0.3143 -0.2698
 5225SOL     OW27133   2.837   2.051   2.291  0.5733 -0.4333 -0.1710
 5225SOL    HW127134   2.795   1.987   2.349 -0.2121 -0.3093 -0.5923
 5225SOL    HW227135   2.867   2.124   2.345  1.0780 -1.3510  0.7967
 5226SOL     OW27136   1.424   1.508   2.088  0.4704  0.1886 -0.2137
 5226SOL    HW127137   1.333   1.485   2.068  0.8368  0.2015 -1.8995
 5226SOL    HW227138   1.422   1.544   2.176  1.0843 -0.1849 -0.0470
 5227SOL     OW27139   3.893   0.211   5.570  0.2198 -0.2501 -0.0359
 5227SOL    HW127140   3.801   0.234   5.568  1.0430  3.0741  1.4458
 5227SOL    HW227141   3.929   0.229   5.483 -2.0532  0.1373 -0.8724
 5228SOL     OW27142   2.018   2.797   1.597 -0.1116 -0.5941  0.3421
 5228SOL    HW127143   1.950   2.825   1.658  0.1094  2.4792 -0.7834
 5228SOL    HW227144   2.022   2.705   1.622 -1.5307 -0.6988  0.1998
 5229SOL     OW27145   0.946   3.326  11.142  0.7051  0.1574  1.1679
 5229SOL    HW127146   0.892   3.360  11.213 -1.2278 -2.1168  0.8061
 5229SOL    HW227147   0.873   3.294  11.088  0.7300 -2.6510  2.8121
 5230SOL     OW27148   1.804   0.743   3.549 -0.6167  0.5629 -0.0178
 5230SOL    HW127149   1.890   0.743   3.507 -0.4033 -0.7240  0.4316
 5230SOL    HW227150   1.832   0.785   3.630  2.2537 -0.8406 -0.2570
 5231SOL     OW27151   2.908   2.354   7.103 -0.3345 -0.0366  0.3965
 5231SOL    HW127152   2.972   2.424   7.089 -1.5928  1.0225 -0.0865
 5231SOL    HW227153   2.870   2.381   7.187 -2.3858  1.8498 -1.1218
 5232SOL     OW27154   0.938   3.669   1.518 -0.0476  0.5806 -0.0373
 5232SOL    HW127155   0.893   3.585   1.522  0.8688  0.0813 -0.3574
 5232SOL    HW227156   1.008   3.648   1.457 -1.0646 -2.1157 -0.3009
 5233SOL     OW27157   3.440   4.104   5.030 -0.1373 -0.5675 -0.0201
 5233SOL    HW127158   3.507   4.120   5.097 -0.4888  0.5778  0.0513
 5233SOL    HW227159   3.490   4.054   4.965  1.1200 -1.2870  1.4706
 5234SOL     OW27160   1.915   1.499   9.114 -0.5857  0.4969  0.1880
 5234SOL    HW127161   1.971   1.548   9.175 -1.2749  0.2231  1.0536
 5234SOL    HW227162   1.933   1.545   9.032  0.1328 -1.5033 -0.7535
 5235SOL     OW27163   3.887   3.235   3.310 -0.5795 -0.1689 -0.4679
 5235SOL    HW127164   3.901   3.316   3.261 -0.5831 -1.0767 -1.9577
 5235SOL    HW227165   3.796   3.243   3.336 -0.1004 -2.5884  1.9020
 5236SOL     OW27166   0.385   0.419  13.299  0.2944  0.2038  0.4963
 5236SOL    HW127167   0.302   0.438  13.255  0.4072 -1.8656 -0.5950
 5236SOL    HW227168   0.443   0.481  13.255 -1.4560  0.2523 -1.7383
 5237SOL     OW27169   0.778   2.332  16.726 -0.8893 -0.1565 -0.1849
 5237SOL    HW127170   0.852   2.272  16.720 -0.4200  0.2143  1.9961
 5237SOL    HW227171   0.793   2.356  16.817 -1.9735  1.7262 -0.4857
 5238SOL     OW27172   3.009   1.436   3.852 -0.5080 -0.0132  0.6506
 5238SOL    HW127173   3.030   1.516   3.900 -4.3127  1.4331 -0.0897
 5238SOL    HW227174   2.984   1.380   3.925  1.7731  0.6902  1.9962
 5239SOL     OW27175   3.641   3.655  15.288 -0.0501  0.4231 -0.5270
 5239SOL    HW127176   3.629   3.750  15.285  0.3667  0.4536 -1.1443
 5239SOL    HW227177   3.732   3.656  15.259  0.6002 -0.1956  1.4675
 5240SOL     OW27178   3.969   0.681  12.907  0.2662 -0.3136  0.1212
 5240SOL    HW127179   3.875   0.675  12.887 -0.0299 -1.2401  1.8097
 5240SOL    HW227180   3.972   0.710  12.998 -1.4854 -1.9129  0.7060
 5241SOL     OW27181   4.039   1.312   2.470 -0.1941  0.2693  0.0645
 5241SOL    HW127182   3.968   1.312   2.533 -0.4810  2.3190 -0.2316
 5241SOL    HW227183   4.104   1.268   2.525 -2.1302  0.2454  2.3135
 5242SOL     OW27184   2.071   4.093   1.201  0.3890  0.0838  0.0171
 5242SOL    HW127185   2.001   4.047   1.249 -0.8935  3.3273  1.2554
 5242SOL    HW227186   2.138   4.025   1.206 -0.7889 -1.0368  0.7368
 5243SOL     OW27187   0.928   2.733   8.510  0.4045 -0.5579  0.3036
 5243SOL    HW127188   1.005   2.775   8.472  0.2249 -2.2618 -1.9660
 5243SOL    HW227189   0.963   2.736   8.599  0.9078  1.9677  0.0083
 5244SOL     OW27190   0.175   2.972   8.154  0.3636 -0.3644 -0.0203
 5244SOL    HW127191   0.166   3.001   8.245  0.4862  0.4492 -0.2748
 5244SOL    HW227192   0.222   3.046   8.117 -0.0936  0.7136  1.5911
 5245SOL     OW27193   0.198   0.152   4.401  0.0504 -0.7393  0.3330
 5245SOL    HW127194   0.214   0.093   4.475 -0.2308 -0.6975  0.4283
 5245SOL    HW227195   0.173   0.238   4.436  0.6885 -0.2872 -0.3222
 5246SOL     OW27196   0.777   0.658   4.920 -0.4666 -0.3127  0.4365
 5246SOL    HW127197   0.830   0.738   4.922 -1.0903  0.1287 -0.6593
 5246SOL    HW227198   0.753   0.651   5.012 -0.2743  0.3673  0.5413
 5247SOL     OW27199   1.506   3.205   3.742 -0.2656 -0.2807 -0.0076
 5247SOL    HW127200   1.447   3.264   3.789 -2.4951 -2.4170 -0.1118
 5247SOL    HW227201   1.453   3.206   3.663  0.7260  2.0891 -0.6418
 5248SOL     OW27202   1.469   0.529   3.961 -0.2546  0.2741 -0.1417
 5248SOL    HW127203   1.506   0.616   3.950 -0.6402  0.5938  1.1072
 5248SOL    HW227204   1.536   0.476   3.917  0.2770  1.4869 -0.7850
 5249SOL     OW27205   1.990   2.503   6.075  0.7020 -0.6739 -0.3808
 5249SOL    HW127206   1.991   2.513   5.979  1.3501 -0.0195 -0.3112
 5249SOL    HW227207   1.969   2.591   6.106 -0.0704 -1.2480  0.7067
 5250SOL     OW27208   4.251   4.248   7.480 -0.0033 -0.5030 -0.2543
 5250SOL    HW127209   4.248   4.152   7.484  2.3517 -0.5198  2.0132
 5250SOL    HW227210   4.341   4.270   7.505 -0.2472 -0.5649  0.6784
 5251SOL     OW27211   0.263   1.521   6.495 -0.1916  0.5495  0.3942
 5251SOL    HW127212   0.293   1.460   6.427 -1.5904 -0.8354  1.0168
 5251SOL    HW227213   0.313   1.599   6.473  1.7499 -1.0507 -0.8689
 5252SOL     OW27214   3.814   4.108  15.181 -0.1533  0.0890 -0.4878
 5252SOL    HW127215   3.727   4.121  15.145 -1.5952 -0.3682  2.7763
 5252SOL    HW227216   3.869   4.153  15.117  1.5035 -0.4049  0.5685
 5253SOL     OW27217   4.634   3.302   4.462  0.4476  0.0201  0.6476
 5253SOL    HW127218   4.585   3.224   4.435 -0.7627  0.1874  2.3670
 5253SOL    HW227219   4.670   3.275   4.547  2.4700  1.3584  0.2224
 5254SOL     OW27220   3.444   3.376   6.627  0.1560  0.0544  0.8665
 5254SOL    HW127221   3.422   3.391   6.719  2.2841  2.0157  1.0564
 5254SOL    HW227222   3.471   3.465   6.606  0.6665  0.0701  1.5714
 5255SOL     OW27223   1.271   3.310   8.236  0.4408 -0.3985 -0.3840
 5255SOL    HW127224   1.186   3.310   8.280  0.2907  1.0926 -0.6582
 5255SOL    HW227225   1.245   3.255   8.162 -1.7780 -0.5570  0.5042
 5256SOL     OW27226   3.852   1.131   5.376  0.5390 -0.1233  0.1435
 5256SOL    HW127227   3.896   1.214   5.396  1.3520 -0.3564 -0.6737
 5256SOL    HW227228   3.844   1.100   5.466  0.0091  0.1399  0.1902
 5257SOL     OW27229   2.631   0.553   6.715  0.1343  0.3640 -0.3419
 5257SOL    HW127230   2.599   0.469   6.749 -0.4785  0.4810 -0.6481
 5257SOL    HW227231   2.573   0.613   6.761  0.5570 -1.1488  2.2119
 5258SOL     OW27232   1.978   0.432  13.380  0.1564 -0.1567 -0.0882
 5258SOL    HW127233   2.008   0.416  13.469 -0.3495 -2.2291 -0.2913
 5258SOL    HW227234   2.057   0.464  13.337  0.8791  0.6161  1.8200
 5259SOL     OW27235   1.748   3.877   3.833  0.5543  0.6114  0.0996
 5259SOL    HW127236   1.688   3.944   3.867  0.6734  1.0459 -0.5520
 5259SOL    HW227237   1.820   3.877   3.896 -0.6913  2.7506  1.5502
 5260SOL     OW27238   2.561   2.531   4.898  0.1780  0.4153  0.3390
 5260SOL    HW127239   2.653   2.558   4.903 -0.0732  1.4700 -0.5980
 5260SOL    HW227240   2.516   2.608   4.933 -0.7243  0.6253 -1.2672
 5261SOL     OW27241   0.951   0.192  10.307 -0.3001  0.4757  0.0377
 5261SOL    HW127242   0.998   0.109  10.314 -0.1739  0.4621 -0.8697
 5261SOL    HW227243   0.965   0.210  10.214  2.6138 -0.0869  0.3774
 5262SOL     OW27244   2.422   3.096   4.683 -0.4987  0.0158  0.5099
 5262SOL    HW127245   2.345   3.075   4.631  0.5539  0.3623 -1.1944
 5262SOL    HW227246   2.430   3.190   4.671  0.6662  0.0028  1.1777
 5263SOL     OW27247   0.882   2.768   4.525 -0.5405  0.4241  0.0200
 5263SOL    HW127248   0.928   2.798   4.603  2.9472 -2.2693 -1.0011
 5263SOL    HW227249   0.800   2.769   4.574 -2.0479  2.3310 -2.5358
 5264SOL     OW27250   2.756   1.055  17.017  0.1446 -0.3551 -0.2216
 5264SOL    HW127251   2.746   0.977  16.964  0.1803  0.6062 -1.6507
 5264SOL    HW227252   2.850   1.068  17.005 -0.4029  0.7116 -3.4563
 5265SOL     OW27253   1.003   4.072   3.229  0.3715  0.0950  0.2366
 5265SOL    HW127254   1.087   4.038   3.258  0.7725  2.3278  1.6793
 5265SOL    HW227255   0.990   4.152   3.281 -1.9593  0.4929 -0.9319
 5266SOL     OW27256   1.188   2.384   1.806 -0.1665 -0.1683 -0.1935
 5266SOL    HW127257   1.178   2.426   1.721  0.0855 -0.9781 -0.6266
 5266SOL    HW227258   1.268   2.335   1.787  0.9095  1.6523 -0.3982
 5267SOL     OW27259   1.571   1.341   6.789  0.0501  0.1245  0.1468
 5267SOL    HW127260   1.600   1.255   6.820 -1.0787 -0.3865 -0.2203
 5267SOL    HW227261   1.636   1.398   6.830  0.1351  1.1807 -1.4604
 5268SOL     OW27262   2.493   0.784  16.295 -0.6746  0.2690 -0.0140
 5268SOL    HW127263   2.540   0.858  16.256  0.5417 -1.0134 -1.0154
 5268SOL    HW227264   2.404   0.820  16.290 -0.5036  0.7860  0.6533
 5269SOL     OW27265   3.371   2.149   4.575  0.6164  0.6608  0.6208
 5269SOL    HW127266   3.368   2.196   4.492  1.9511 -0.1607  0.1020
 5269SOL    HW227267   3.460   2.115   4.566  0.9527  1.1268  2.2552
 5270SOL     OW27268   2.059   4.524  12.830 -0.1853 -0.5015  0.0479
 5270SOL    HW127269   2.033   4.569  12.749  2.1336  0.0921 -0.3493
 5270SOL    HW227270   2.012   4.442  12.814  0.4959 -1.2571  1.9543
 5271SOL     OW27271   0.997   3.190  16.666  0.1182  0.4854 -0.3539
 5271SOL    HW127272   0.916   3.208  16.714 -0.5572  1.3008 -1.7652
 5271SOL    HW227273   1.065   3.202  16.731 -0.5440 -4.3724  1.2045
 5272SOL     OW27274   3.278   0.699   9.379 -0.2765 -0.3662 -0.4229
 5272SOL    HW127275   3.281   0.788   9.414 -0.4805 -0.9687  1.0835
 5272SOL    HW227276   3.184   0.687   9.368 -0.0577 -2.2595 -0.2007
 5273SOL     OW27277   3.223   4.309   8.786 -0.1796  0.2400  0.0593
 5273SOL    HW127278   3.241   4.310   8.692  2.7407 -0.8280  0.5827
 5273SOL    HW227279   3.301   4.269   8.824 -1.2696 -3.1411 -1.2838
 5274SOL     OW27280   3.337   0.249  11.047  0.0236  0.5804  0.1502
 5274SOL    HW127281   3.260   0.212  11.003  0.9552 -0.3399 -0.7174
 5274SOL    HW227282   3.299   0.330  11.081 -0.0808  1.1015 -1.1773
 5275SOL     OW27283   4.181   3.622   5.301 -0.2997  0.1184  0.1155
 5275SOL    HW127284   4.200   3.707   5.262  1.7141 -1.1889 -1.8116
 5275SOL    HW227285   4.267   3.600   5.336  0.3029  1.6457 -0.4459
 5276SOL     OW27286   3.852   3.122   8.804  0.1327 -0.1821  0.4019
 5276SOL    HW127287   3.930   3.176   8.821 -0.2250  1.0000 -1.6822
 5276SOL    HW227288   3.838   3.075   8.886  1.9184  1.4978  1.6998
 5277SOL     OW27289   0.879   3.394   1.594  0.3123  0.0808 -0.3650
 5277SOL    HW127290   0.796   3.440   1.606 -0.1267 -0.5210 -1.0745
 5277SOL    HW227291   0.849   3.306   1.617 -0.0174  0.0356 -0.9706
 5278SOL     OW27292   4.133   3.828  10.713 -0.7051 -0.2290  0.2640
 5278SOL    HW127293   4.119   3.919  10.689  0.2799 -0.0220  0.4702
 5278SOL    HW227294   4.106   3.844  10.804  0.7847  1.3702  0.4271
 5279SOL     OW27295   1.704   1.248   8.543 -0.9484 -0.0873 -0.4590
 5279SOL    HW127296   1.737   1.173   8.494  2.0021  0.3175  0.9270
 5279SOL    HW227297   1.742   1.223   8.627 -1.1546  0.0501 -0.3226
 5280SOL     OW27298   3.304   0.200  14.740  0.2420 -0.3886  0.3283
 5280SOL    HW127299   3.225   0.147  14.727 -0.8372  1.4944 -0.9237
 5280SOL    HW227300   3.267   0.278  14.783  1.6061 -0.3878  1.5011
 5281SOL     OW27301   3.306   3.576   4.195  0.2311 -0.0218 -0.1990
 5281SOL    HW127302   3.287   3.557   4.104  1.2429  0.8943 -0.6000
 5281SOL    HW227303   3.401   3.588   4.195  0.1162  0.8578  0.0363
 5282SOL     OW27304   0.255   0.357  16.933 -0.8205  0.0161 -0.2038
 5282SOL    HW127305   0.338   0.319  16.905 -1.1930 -0.4830 -0.6362
 5282SOL    HW227306   0.255   0.444  16.895  0.0037  0.0888 -0.0324
 5283SOL     OW27307   2.145   0.707  15.127 -0.4654  0.6898 -0.4267
 5283SOL    HW127308   2.140   0.802  15.128  0.3291  0.7134  2.6801
 5283SOL    HW227309   2.054   0.690  15.151  0.5268 -3.2262  0.6240
 5284SOL     OW27310   2.246   4.185  15.867  0.3971 -0.4557  0.5171
 5284SOL    HW127311   2.198   4.267  15.870  0.9403 -0.0360 -2.1033
 5284SOL    HW227312   2.246   4.164  15.960  0.1610  2.5840  1.2052
 5285SOL     OW27313   1.863   3.109   7.962 -0.5368 -0.0364 -0.2324
 5285SOL    HW127314   1.824   3.067   8.039  1.5036 -1.4312  0.0425
 5285SOL    HW227315   1.869   3.199   7.997 -2.2393  0.4738 -1.2987
 5286SOL     OW27316   1.803   2.092   5.628 -0.4231  0.3519 -0.3928
 5286SOL    HW127317   1.743   2.097   5.703 -0.3538  0.8792 -0.3728
 5286SOL    HW227318   1.796   2.001   5.599 -0.0421 -0.5868  2.4731
 5287SOL     OW27319   3.627   2.505   0.833 -0.2148 -0.3995  0.2306
 5287SOL    HW127320   3.543   2.552   0.829 -0.7825 -1.3514  1.0867
 5287SOL    HW227321   3.611   2.445   0.906  0.3022  0.0555  0.7180
 5288SOL     OW27322   1.088   1.275  17.107  0.0831 -0.3033  0.1697
 5288SOL    HW127323   1.171   1.320  17.124 -1.6621  2.4511  1.3828
 5288SOL    HW227324   1.097   1.199  17.164 -2.5263  0.9615  2.2882
 5289SOL     OW27325   3.061   2.273   6.772  0.5681  0.5624  0.3568
 5289SOL    HW127326   3.109   2.282   6.690  1.0046 -2.5056  0.2760
 5289SOL    HW227327   3.129   2.242   6.832  1.0864 -0.1973 -0.6430
 5290SOL     OW27328   4.671   2.163   4.445 -0.2549 -0.0348  0.1825
 5290SOL    HW127329   0.009   2.233   4.425 -0.5485  0.1923  0.0958
 5290SOL    HW227330   4.600   2.214   4.483  0.4258  0.5206  0.6984
 5291SOL     OW27331   2.730   1.823   3.588 -0.6783 -0.5853  0.1321
 5291SOL    HW127332   2.715   1.899   3.645 -1.8424  0.3674 -1.4520
 5291SOL    HW227333   2.723   1.753   3.653  1.5124  0.5911  1.6612
 5292SOL     OW27334   3.848   2.472   5.030  0.3354  0.2366  0.3494
 5292SOL    HW127335   3.883   2.546   4.982 -0.5277  0.8518  0.6700
 5292SOL    HW227336   3.889   2.401   4.981  1.1436 -0.2261  1.6957
 5293SOL     OW27337   2.465   2.222   9.328  0.0768 -0.5790 -0.4972
 5293SOL    HW127338   2.381   2.221   9.282 -0.5015  1.9170  0.4991
 5293SOL    HW227339   2.498   2.132   9.331  1.5103 -0.0726 -0.8088
 5294SOL     OW27340   2.251   1.865   8.434 -0.2999  0.6143  0.3296
 5294SOL    HW127341   2.223   1.830   8.519 -0.9091 -1.7227 -0.8227
 5294SOL    HW227342   2.331   1.813   8.425  0.8519  2.4561 -0.0707
 5295SOL     OW27343   0.237   0.342  10.840 -0.0140  0.6933 -0.3130
 5295SOL    HW127344   0.204   0.316  10.754  0.5031  0.7472 -0.5322
 5295SOL    HW227345   0.149   0.365  10.869 -1.1496 -0.7078 -2.6744
 5296SOL     OW27346   1.958   3.558   4.963  0.2598 -0.6015 -0.0902
 5296SOL    HW127347   1.914   3.497   4.904 -1.2098 -0.3671  0.7761
 5296SOL    HW227348   1.888   3.577   5.025  1.2446 -3.1728  1.8300
 5297SOL     OW27349   4.355   0.986   2.634 -0.2227 -0.2674  0.1041
 5297SOL    HW127350   4.382   1.045   2.564  0.3862  0.9534  1.3701
 5297SOL    HW227351   4.376   0.900   2.597  0.3737  0.9561 -2.3966
 5298SOL     OW27352   3.780   3.664   3.819 -0.0867 -0.2390 -0.4536
 5298SOL    HW127353   3.873   3.685   3.817  0.2020 -1.1389  3.0089
 5298SOL    HW227354   3.768   3.632   3.730  2.0241 -0.4490 -0.6645
 5299SOL     OW27355   1.893   4.529   7.965 -0.3231 -0.0890  0.0066
 5299SOL    HW127356   1.865   4.543   8.055  0.1595  0.1317  0.1175
 5299SOL    HW227357   1.822   4.468   7.943  1.8701 -2.1246 -1.4596
 5300SOL     OW27358   2.666   0.918   6.918  0.3707 -0.2670 -0.1297
 5300SOL    HW127359   2.746   0.869   6.936  0.6374 -0.2638 -1.2658
 5300SOL    HW227360   2.609   0.841   6.914  0.4567 -0.3443  0.1305
 5301SOL     OW27361   2.803   1.499   3.233  0.0350  0.7207  0.0004
 5301SOL    HW127362   2.898   1.512   3.232  0.1932 -0.6995 -2.7039
 5301SOL    HW227363   2.775   1.590   3.243 -0.0452  0.8708 -1.6067
 5302SOL     OW27364   1.996   2.179  17.018  0.1921  0.3022 -0.5310
 5302SOL    HW127365   2.022   2.128  17.095 -1.3113 -0.9511 -0.8663
 5302SOL    HW227366   2.028   2.109  16.961  0.8464  1.3379 -1.4267
 5303SOL     OW27367   3.974   3.404   5.341 -0.3080 -0.2593  0.0895
 5303SOL    HW127368   4.060   3.433   5.370  0.0617 -1.0818 -0.1707
 5303SOL    HW227369   3.907   3.450   5.392 -2.1518 -1.3387 -1.3600
 5304SOL     OW27370   3.859   1.300   6.523  0.5680 -0.3684 -0.0525
 5304SOL    HW127371   3.818   1.353   6.591 -0.6919  0.3208 -1.3581
 5304SOL    HW227372   3.795   1.322   6.455 -0.4313  0.4767  1.1629
 5305SOL     OW27373   4.242   0.979   3.815 -0.3648 -0.3693  0.3537
 5305SOL    HW127374   4.181   0.908   3.793  0.5353 -0.3932 -2.1526
 5305SOL    HW227375   4.319   0.923   3.802 -0.9973 -1.0508 -0.4505
 5306SOL     OW27376   1.020   2.032   1.886 -0.4618 -0.0152 -0.0916
 5306SOL    HW127377   1.050   1.963   1.827 -1.3712 -0.6468  0.1904
 5306SOL    HW227378   0.939   2.046   1.837 -0.8117 -0.5623  0.3271
 5307SOL     OW27379   2.858   3.105   2.422  0.1613  0.3599  0.2425
 5307SOL    HW127380   2.831   3.190   2.387  0.6302  0.0518 -0.8603
 5307SOL    HW227381   2.923   3.069   2.363  0.3398 -1.4003  1.5275
 5308SOL     OW27382   3.821   2.323   4.138  0.0413  0.2593 -0.0916
 5308SOL    HW127383   3.825   2.230   4.161  1.3958  0.0586 -1.1801
 5308SOL    HW227384   3.911   2.351   4.122  0.0030  0.6080  0.3052
 5309SOL     OW27385   1.066   1.410  15.601  0.1386 -0.5395  0.4586
 5309SOL    HW127386   1.039   1.501  15.588  0.4726 -0.5416 -0.2431
 5309SOL    HW227387   1.131   1.406  15.532 -0.3925  0.0025 -0.0772
 5310SOL     OW27388   2.787   3.588   7.653  0.0204 -0.3942 -0.0485
 5310SOL    HW127389   2.777   3.630   7.567 -0.5023 -0.9986 -0.2813
 5310SOL    HW227390   2.867   3.634   7.679 -1.4549  1.7015  0.7532
 5311SOL     OW27391   0.374   4.199   7.101  0.0200  0.3953  0.0538
 5311SOL    HW127392   0.404   4.271   7.045 -2.2177 -0.9133 -2.8515
 5311SOL    HW227393   0.407   4.238   7.182  0.0083 -0.6621  0.5592
 5312SOL     OW27394   2.058   2.727   3.350  0.4358 -0.3149 -0.0687
 5312SOL    HW127395   1.977   2.677   3.338  1.5612 -2.2265  0.2529
 5312SOL    HW227396   2.030   2.785   3.421 -3.2798 -2.1923 -0.0026
 5313SOL     OW27397   0.167   0.681   5.648 -0.0941 -0.1700  0.4501
 5313SOL    HW127398   0.158   0.605   5.706 -0.9449 -1.6456 -1.6185
 5313SOL    HW227399   0.181   0.744   5.719 -1.6378  0.3042  0.3195
 5314SOL     OW27400   0.084   1.858   3.340  0.0486 -0.0385 -0.3503
 5314SOL    HW127401   4.716   1.838   3.318  0.0741 -1.5696  0.9763
 5314SOL    HW227402   0.112   1.773   3.376 -0.5415  0.1828  0.6219
 5315SOL     OW27403   3.145   3.095   2.005  0.0121 -0.0191 -0.3506
 5315SOL    HW127404   3.171   3.186   1.993 -0.4284 -0.2484 -3.0397
 5315SOL    HW227405   3.053   3.102   2.029  0.2352  1.3785  0.0516
 5316SOL     OW27406   2.345   4.252   9.683  0.1021 -0.4414 -0.0149
 5316SOL    HW127407   2.317   4.175   9.731  0.6804 -0.4174  0.3641
 5316SOL    HW227408   2.397   4.299   9.749  2.7711 -0.3897 -2.1269
 5317SOL     OW27409   3.073   1.555  13.710  0.1504  0.4233 -0.3309
 5317SOL    HW127410   3.066   1.505  13.629  2.5347 -0.4911  0.0161
 5317SOL    HW227411   3.059   1.648  13.693  0.1687  0.3338 -0.8239
 5318SOL     OW27412   3.325   2.479   6.682 -0.3313 -0.6625  0.0887
 5318SOL    HW127413   3.287   2.444   6.602 -1.9370  1.5924 -0.1375
 5318SOL    HW227414   3.394   2.414   6.693  0.6526  0.2666 -0.5940
 5319SOL     OW27415   4.470   3.532  16.427 -0.0836  0.0952  0.3579
 5319SOL    HW127416   4.384   3.563  16.398 -0.4204  0.6407  1.9454
 5319SOL    HW227417   4.473   3.439  16.407  0.4698  1.0599 -4.1405
 5320SOL     OW27418   2.236   0.980   4.152  0.7308  0.0475 -0.1506
 5320SOL    HW127419   2.329   0.970   4.132  0.2391 -0.2249 -2.3122
 5320SOL    HW227420   2.187   0.959   4.072 -0.0072 -1.9600  0.8135
 5321SOL     OW27421   1.342   3.061   0.147  0.0837  0.5806  1.0660
 5321SOL    HW127422   1.308   3.143   0.113 -2.9305 -1.7866 -1.5964
 5321SOL    HW227423   1.315   3.062   0.239 -2.0315 -0.7991  0.4433
 5322SOL     OW27424   0.135   2.883   6.605 -0.4658 -0.0043  0.1309
 5322SOL    HW127425   0.154   2.876   6.512 -1.2479 -0.7289  0.0307
 5322SOL    HW227426   0.061   2.944   6.607  1.4905  2.3830  1.2810
 5323SOL     OW27427   2.030   3.643   7.141 -0.2144 -0.0038 -0.1839
 5323SOL    HW127428   1.982   3.560   7.146 -0.5451  0.3523  2.3850
 5323SOL    HW227429   1.969   3.700   7.187 -0.4938  0.0887 -0.6633
 5324SOL     OW27430   1.340   1.380  17.233 -0.2379  0.3658  0.5217
 5324SOL    HW127431   1.392   1.396  17.312 -0.2019  2.1154  0.1613
 5324SOL    HW227432   1.324   1.469  17.201  2.0255  0.4958 -0.2654
 5325SOL     OW27433   3.853   0.002  10.223  0.2141  0.5334  0.1003
 5325SOL    HW127434   3.936   4.695  10.186 -1.7718 -0.5296 -3.5015
 5325SOL    HW227435   3.822   4.646  10.267  1.3406 -0.6375 -1.2296
 5326SOL     OW27436   3.490   3.482  15.119  0.0210  0.0308  0.1524
 5326SOL    HW127437   3.546   3.424  15.066  0.8072  0.2525  0.7270
 5326SOL    HW227438   3.554   3.518  15.181  1.5543 -1.7646 -0.3797
 5327SOL     OW27439   2.672   4.263   0.062 -0.0201 -0.9364 -0.8383
 5327SOL    HW127440   2.764   4.277   0.086 -0.6120  0.1720  0.7776
 5327SOL    HW227441   2.630   4.241   0.145  0.0153  1.3452 -0.2356
 5328SOL     OW27442   2.217   3.152   5.263 -0.2948  0.4623 -0.2832
 5328SOL    HW127443   2.241   3.123   5.175 -1.9658 -1.4183 -0.1249
 5328SOL    HW227444   2.227   3.245   5.245 -1.2071  0.6665  0.2867
 5329SOL     OW27445   3.594   0.851   9.628 -0.1857 -0.1495 -0.2123
 5329SOL    HW127446   3.610   0.936   9.585  1.6113  1.5149  3.7521
 5329SOL    HW227447   3.591   0.790   9.555  0.3889 -0.0688 -0.2994
 5330SOL     OW27448   3.082   3.710   5.545 -0.1711 -0.5969  0.2822
 5330SOL    HW127449   2.998   3.699   5.502  0.3230  0.8622 -1.0586
 5330SOL    HW227450   3.061   3.778   5.610  0.6068 -1.5466  1.5373
 5331SOL     OW27451   4.045   0.618   7.791 -0.3717  0.2452 -0.0408
 5331SOL    HW127452   4.080   0.681   7.729  0.7465 -2.2282 -1.9378
 5331SOL    HW227453   3.976   0.674   7.827 -1.3742 -0.6445 -0.5675
 5332SOL     OW27454   3.192   0.960   0.181  0.0046  0.5076 -0.3317
 5332SOL    HW127455   3.209   0.923   0.095  0.6229  0.9752 -0.4073
 5332SOL    HW227456   3.226   0.889   0.236 -1.6968 -0.6918 -0.8229
 5333SOL     OW27457   1.772   1.638  12.417  0.5101  0.1712 -0.3211
 5333SOL    HW127458   1.752   1.703  12.349 -1.5964 -0.1864 -0.0353
 5333SOL    HW227459   1.859   1.677  12.424  0.5938 -0.5037  2.1096
 5334SOL     OW27460   0.253   3.223   3.117  0.1705 -0.1904  0.4746
 5334SOL    HW127461   0.214   3.139   3.142  0.9985 -1.2690 -1.8765
 5334SOL    HW227462   0.187   3.258   3.058  0.7896  3.0746  1.6914
 5335SOL     OW27463   0.085   2.071   3.525  0.0131  0.4800 -0.0750
 5335SOL    HW127464   0.125   2.004   3.470 -0.2075 -0.4567  0.9111
 5335SOL    HW227465   0.142   2.055   3.600  1.9159  0.9094 -1.4487
 5336SOL     OW27466   2.921   1.951   3.967  0.2176 -0.5065  0.5391
 5336SOL    HW127467   3.003   1.979   3.927 -0.6287 -0.6828 -1.3250
 5336SOL    HW227468   2.866   2.029   3.957  0.6351 -0.1666  0.8843
 5337SOL     OW27469   3.771   0.111   6.267 -0.2740  0.1235 -0.1489
 5337SOL    HW127470   3.813   0.156   6.193 -0.4659 -0.0127 -0.3415
 5337SOL    HW227471   3.789   0.022   6.236 -1.2989  0.1899 -0.9274
 5338SOL     OW27472   1.725   4.104  16.432 -0.0121 -0.5394  0.1924
 5338SOL    HW127473   1.642   4.139  16.398 -0.2423 -0.8039  0.4727
 5338SOL    HW227474   1.697   4.064  16.515 -0.7293 -0.6176 -0.0825
 5339SOL     OW27475   4.111   2.148  15.705  0.7576 -0.3651 -0.6483
 5339SOL    HW127476   4.111   2.228  15.652 -0.7753 -0.5676 -0.9509
 5339SOL    HW227477   4.185   2.092  15.682  2.5496  1.2143  1.3178
 5340SOL     OW27478   1.272   1.650   3.368  0.0051  0.3779 -0.2169
 5340SOL    HW127479   1.305   1.705   3.296  0.8810  0.1438  0.0019
 5340SOL    HW227480   1.341   1.584   3.370  0.5869  0.9946  0.0137
 5341SOL     OW27481   2.487   1.315  10.715  0.4956 -0.6284  0.0810
 5341SOL    HW127482   2.441   1.399  10.719 -0.3199 -1.0530 -0.2655
 5341SOL    HW227483   2.420   1.260  10.673 -0.0098  0.2762 -0.3076
 5342SOL     OW27484   2.338   2.394   3.540  0.0140  0.3895 -0.3611
 5342SOL    HW127485   2.311   2.390   3.632 -0.6673 -0.6720 -0.5925
 5342SOL    HW227486   2.269   2.340   3.501  0.0790  0.6839 -0.8771
 5343SOL     OW27487   0.951   2.222   7.652 -0.1481  0.2758  0.3390
 5343SOL    HW127488   0.922   2.131   7.647  0.4027  0.1982 -1.4614
 5343SOL    HW227489   1.014   2.229   7.580  0.5662  0.4910  0.9955
 5344SOL     OW27490   0.461   1.514   4.772  0.4848 -0.0211  0.8566
 5344SOL    HW127491   0.492   1.604   4.776 -2.6158  1.0553  0.7955
 5344SOL    HW227492   0.513   1.479   4.699 -0.1002  2.1095 -0.5947
 5345SOL     OW27493   3.328   2.627   6.207  0.3557  0.3655  0.2773
 5345SOL    HW127494   3.249   2.576   6.189  2.5855 -2.1087 -2.3992
 5345SOL    HW227495   3.310   2.662   6.295 -2.9486  1.2537 -0.7533
 5346SOL     OW27496   1.296   3.413   1.337  0.5164 -0.2150 -0.0886
 5346SOL    HW127497   1.363   3.356   1.300  0.6640 -1.7761  2.5805
 5346SOL    HW227498   1.240   3.353   1.387 -0.7595  0.2922 -0.9013
 5347SOL     OW27499   4.006   2.906  12.316 -0.6502  0.0181 -0.3500
 5347SOL    HW127500   4.010   2.831  12.257 -0.2975  0.7677 -1.2863
 5347SOL    HW227501   4.092   2.947  12.311  0.7377 -3.0493 -1.3990
 5348SOL     OW27502   2.983   2.343  11.128  0.1956  0.2712  0.1010
 5348SOL    HW127503   3.039   2.284  11.178  0.6021 -0.0084 -0.6831
 5348SOL    HW227504   2.927   2.378  11.197  1.6622  1.1132  0.8744
 5349SOL     OW27505   2.426   1.953   6.918  0.3220  0.7200 -0.5347
 5349SOL    HW127506   2.360   1.953   6.849  0.3813 -0.4582 -0.5876
 5349SOL    HW227507   2.506   1.927   6.872  0.1986  0.4668 -0.6067
 5350SOL     OW27508   0.755   2.399   8.702 -0.1659  0.7316  0.2656
 5350SOL    HW127509   0.721   2.420   8.789  0.3621 -2.8857  1.3528
 5350SOL    HW227510   0.766   2.488   8.668  0.2774  0.4426 -0.3474
 5351SOL     OW27511   2.061   4.597   6.192 -0.4303 -0.0792  0.2733
 5351SOL    HW127512   2.021   4.647   6.263  0.4126 -0.5387  1.0926
 5351SOL    HW227513   2.076   4.507   6.223  1.2533 -0.9929 -3.1433
 5352SOL     OW27514   1.694   2.135   8.884 -0.2619  0.2460 -0.1578
 5352SOL    HW127515   1.713   2.092   8.967  2.3763  0.8620 -0.4290
 5352SOL    HW227516   1.750   2.086   8.823  1.3624  1.3514  0.4398
 5353SOL     OW27517   0.734   1.287  14.249  0.1977  0.7346 -0.6747
 5353SOL    HW127518   0.814   1.339  14.257  0.4601 -0.0147  1.6001
 5353SOL    HW227519   0.757   1.194  14.247  1.0426  0.8820  2.5014
 5354SOL     OW27520   0.225   4.539  11.686 -0.3039  0.2508  0.3380
 5354SOL    HW127521   0.311   4.532  11.645 -1.3987 -1.2075 -1.7007
 5354SOL    HW227522   0.183   4.607  11.633 -0.4508  0.2675  0.4783
 5355SOL     OW27523   2.674   3.685   2.305 -0.0942 -0.1288  0.4074
 5355SOL    HW127524   2.651   3.651   2.218 -0.7779  1.0695  0.1238
 5355SOL    HW227525   2.755   3.733   2.288 -1.3727  1.4187 -1.3039
 5356SOL     OW27526   1.417   1.762   0.254 -0.1632 -0.4022 -0.0026
 5356SOL    HW127527   1.432   1.668   0.243 -0.4206 -0.4888  0.3855
 5356SOL    HW227528   1.442   1.771   0.346  1.4030 -1.3444 -0.3227
 5357SOL     OW27529   1.812   0.202   1.218 -0.3665  0.0216  0.5318
 5357SOL    HW127530   1.726   0.210   1.178  0.0386 -3.0080 -0.9610
 5357SOL    HW227531   1.870   0.262   1.172 -2.1204  0.7530 -0.7088
 5358SOL     OW27532   0.495   1.511   8.243  0.6037  0.3499  0.6084
 5358SOL    HW127533   0.573   1.536   8.293 -0.2399 -1.9331  3.0897
 5358SOL    HW227534   0.429   1.548   8.302  1.4283  0.3364  1.5401
 5359SOL     OW27535   1.835   0.010   3.154 -0.3029 -0.3213 -0.4450
 5359SOL    HW127536   1.906   0.061   3.115  0.0022  0.2660  0.8909
 5359SOL    HW227537   1.789   0.075   3.206  1.1889  1.9950 -2.0339
 5360SOL     OW27538   0.937   1.819   0.147 -0.0530  0.1028  0.7758
 5360SOL    HW127539   0.913   1.872   0.070  0.8023  2.1657  1.9327
 5360SOL    HW227540   0.859   1.806   0.201 -0.1277  2.8020  1.3183
 5361SOL     OW27541   1.134   1.771  14.102 -0.3819  0.0480 -0.0534
 5361SOL    HW127542   1.166   1.731  14.021 -1.3776  0.7322 -0.7901
 5361SOL    HW227543   1.208   1.750  14.158  1.2417 -0.6630 -2.4729
 5362SOL     OW27544   2.384   2.196   5.113  0.6606 -0.0519  0.6405
 5362SOL    HW127545   2.387   2.100   5.103 -0.4073  0.0875 -0.9743
 5362SOL    HW227546   2.416   2.203   5.203 -0.8147 -1.3209  1.2644
 5363SOL     OW27547   2.421   3.489  10.003  0.1744  0.0198 -0.6574
 5363SOL    HW127548   2.408   3.579   9.973  1.2155  0.2200 -0.5025
 5363SOL    HW227549   2.422   3.510  10.096  0.3555  0.1226 -0.6835
 5364SOL     OW27550   0.270   3.777   6.060  0.0761  0.9807  0.1728
 5364SOL    HW127551   0.232   3.689   6.059  0.3273  0.8626  0.9706
 5364SOL    HW227552   0.279   3.792   5.966 -1.1827  1.2990  0.1000
 5365SOL     OW27553   2.587   2.186   4.722 -0.3538 -0.0438 -0.3130
 5365SOL    HW127554   2.501   2.222   4.743 -0.3297 -0.9332  1.3035
 5365SOL    HW227555   2.599   2.114   4.784  1.0939  0.2794 -0.2063
 5366SOL     OW27556   2.114   3.260   2.146  0.0886 -0.3563  0.4000
 5366SOL    HW127557   2.112   3.303   2.060 -3.3256 -1.0282  0.1339
 5366SOL    HW227558   2.029   3.215   2.144  0.3758 -0.8487 -1.2621
 5367SOL     OW27559   1.004   2.708   8.184 -0.3315 -0.0281  0.1565
 5367SOL    HW127560   0.927   2.652   8.171  0.8137 -1.6267  0.2364
 5367SOL    HW227561   1.057   2.678   8.110 -1.5525  0.5483 -0.9542
 5368SOL     OW27562   3.229   0.433  15.889 -0.6283  0.3561 -0.2397
 5368SOL    HW127563   3.309   0.468  15.848  0.9656 -2.9226  0.0713
 5368SOL    HW227564   3.250   0.441  15.982 -0.3099 -0.0579 -0.2758
 5369SOL     OW27565   2.162   3.321  16.037  0.7471 -0.3318  0.0898
 5369SOL    HW127566   2.101   3.361  15.975 -2.1674 -1.5255  2.2066
 5369SOL    HW227567   2.245   3.324  15.989  1.9318 -1.4171  2.0894
 5370SOL     OW27568   2.019   2.126   3.227 -0.3455  0.2749 -0.3349
 5370SOL    HW127569   1.949   2.117   3.292  0.5112  0.6959  0.6416
 5370SOL    HW227570   1.998   2.067   3.155  0.7327  0.6094 -0.9198
 5371SOL     OW27571   1.223   0.272   2.784 -0.6489  0.3061 -0.0484
 5371SOL    HW127572   1.256   0.276   2.694 -0.2736  0.9032  0.1123
 5371SOL    HW227573   1.249   0.358   2.817  0.1380 -0.8187  2.2657
 5372SOL     OW27574   0.999   1.238   2.133 -0.4347  0.5309  0.2031
 5372SOL    HW127575   0.963   1.242   2.045 -0.7008 -0.3357  0.2675
 5372SOL    HW227576   0.932   1.270   2.193 -0.1220  1.2648  0.1563
 5373SOL     OW27577   3.717   1.946   6.068  0.1715  0.7578 -0.3343
 5373SOL    HW127578   3.739   2.038   6.050 -0.6577  1.0091 -0.0565
 5373SOL    HW227579   3.771   1.898   6.006 -1.9736  0.5763 -2.0360
 5374SOL     OW27580   4.004   1.991  10.977  0.3646  0.5860  0.5824
 5374SOL    HW127581   4.025   2.080  11.005 -0.3038  0.6315  0.9389
 5374SOL    HW227582   3.924   1.969  11.026  1.1192  1.3131  2.1410
 5375SOL     OW27583   1.621   1.592  16.157 -0.1875  0.5723  0.4909
 5375SOL    HW127584   1.586   1.513  16.118  0.5085  1.1799 -1.3843
 5375SOL    HW227585   1.689   1.554  16.213  1.1822  0.3607 -1.3149
 5376SOL     OW27586   3.258   4.507   6.878 -0.2030  0.2102 -0.0525
 5376SOL    HW127587   3.320   4.450   6.833 -2.9429 -2.0573 -0.9986
 5376SOL    HW227588   3.202   4.444   6.924  2.5355 -2.5179 -0.4790
 5377SOL     OW27589   0.066   0.320   6.967  0.4111  0.0720  0.3633
 5377SOL    HW127590   0.021   0.383   6.910 -0.4980 -2.0595 -1.2705
 5377SOL    HW227591   0.042   0.363   7.049 -0.6771  2.8499 -1.3902
 5378SOL     OW27592   1.390   3.450   7.603  0.3493 -0.0315 -0.2227
 5378SOL    HW127593   1.321   3.516   7.610  0.3859 -0.0812  0.5969
 5378SOL    HW227594   1.468   3.503   7.622  0.1282 -0.3821  1.6705
 5379SOL     OW27595   0.711   3.272   3.615 -0.2301  0.0413 -0.3317
 5379SOL    HW127596   0.643   3.265   3.681  0.3930 -0.5329  0.2444
 5379SOL    HW227597   0.759   3.193   3.639  2.1240  1.3668 -0.6604
 5380SOL     OW27598   4.054   1.596   7.915 -0.3831  0.6657 -0.6185
 5380SOL    HW127599   4.139   1.592   7.870 -0.2130  0.9103 -0.3206
 5380SOL    HW227600   4.071   1.528   7.980 -2.5144  0.4932 -0.2437
 5381SOL     OW27601   3.149   1.248   2.452 -0.0020 -0.6098 -0.1654
 5381SOL    HW127602   3.205   1.233   2.528  1.1017 -2.6523 -1.4071
 5381SOL    HW227603   3.191   1.187   2.392  1.3071 -0.4284  0.5713
 5382SOL     OW27604   4.218   2.860   4.220 -0.1974 -0.1457  0.4064
 5382SOL    HW127605   4.145   2.852   4.158 -0.6488 -0.7457  1.0168
 5382SOL    HW227606   4.290   2.848   4.158 -1.9496 -1.6214 -1.3231
 5383SOL     OW27607   3.463   3.851   7.428  0.4484 -0.1845  0.3084
 5383SOL    HW127608   3.453   3.800   7.347 -1.0773  0.3632  0.1512
 5383SOL    HW227609   3.373   3.878   7.448  0.1879 -0.2745 -0.7722
 5384SOL     OW27610   2.241   2.124  12.184  0.2413 -0.1814  0.4719
 5384SOL    HW127611   2.305   2.056  12.165 -1.1184 -1.2886 -0.1901
 5384SOL    HW227612   2.275   2.177  12.256  0.4653 -1.2422  1.1525
 5385SOL     OW27613   2.186   1.811   3.716 -0.1668  0.5172 -0.3688
 5385SOL    HW127614   2.188   1.740   3.652 -2.8384 -0.4401  0.6150
 5385SOL    HW227615   2.175   1.764   3.799 -0.6582  0.6884 -0.3406
 5386SOL     OW27616   0.305   1.370   5.566 -0.2295 -0.1980  0.1512
 5386SOL    HW127617   0.299   1.303   5.498  0.7260  1.8206 -1.9134
 5386SOL    HW227618   0.360   1.324   5.629 -0.3872 -0.2669  0.2385
 5387SOL     OW27619   0.441   3.850   6.265 -0.2807  0.0929 -0.2211
 5387SOL    HW127620   0.508   3.781   6.267 -0.9279 -0.4523  2.3222
 5387SOL    HW227621   0.383   3.828   6.192  1.5856  0.7274 -1.8714
 5388SOL     OW27622   2.206   3.115   4.399  0.1313  0.2926  0.1222
 5388SOL    HW127623   2.126   3.147   4.357  0.3019 -1.7558 -1.7663
 5388SOL    HW227624   2.172   3.062   4.472 -0.7643 -2.3792 -2.2185
 5389SOL     OW27625   4.016   2.162   7.295 -0.1098  0.4788 -0.5726
 5389SOL    HW127626   4.079   2.233   7.295  0.0794  0.3150 -1.2435
 5389SOL    HW227627   3.985   2.166   7.385  1.5199  2.5793 -0.1171
 5390SOL     OW27628   1.448   2.097  16.683  0.4592  0.0697 -0.3074
 5390SOL    HW127629   1.493   2.178  16.706  0.4942 -0.4544  1.4422
 5390SOL    HW227630   1.406   2.079  16.767  0.8138 -0.3781 -0.2250
 5391SOL     OW27631   2.172   2.211  15.001 -0.2431  0.6071  0.0227
 5391SOL    HW127632   2.128   2.207  15.086  1.8411 -0.4347  1.0649
 5391SOL    HW227633   2.259   2.243  15.026 -0.6356  1.9365 -0.3277
 5392SOL     OW27634   2.170   2.589   9.113 -0.3493 -0.0999  0.1018
 5392SOL    HW127635   2.105   2.654   9.141 -0.3216  0.5492 -1.2987
 5392SOL    HW227636   2.151   2.586   9.019  1.9707  2.1871 -0.4238
 5393SOL     OW27637   4.320   4.119  11.948  0.3316  0.0467  0.2057
 5393SOL    HW127638   4.408   4.114  11.910 -0.2271  0.8531 -1.1687
 5393SOL    HW227639   4.331   4.204  11.990 -0.1098  0.1817  0.0448
 5394SOL     OW27640   3.424   0.899   7.500 -0.0523  0.1645  0.8848
 5394SOL    HW127641   3.423   0.886   7.405  1.8203 -0.5117  0.9379
 5394SOL    HW227642   3.332   0.889   7.525 -0.2565 -1.3152 -0.4475
 5395SOL     OW27643   1.239   3.705   1.761  0.5794  0.2189 -0.4637
 5395SOL    HW127644   1.190   3.644   1.706 -0.0513 -0.7097  1.1392
 5395SOL    HW227645   1.245   3.657   1.844 -0.1178 -0.2274 -0.6748
 5396SOL     OW27646   2.717   0.325   3.908 -0.0182 -0.5635  0.6356
 5396SOL    HW127647   2.736   0.248   3.854 -0.6882  0.1740 -0.6436
 5396SOL    HW227648   2.667   0.387   3.856 -0.2733  0.6202  2.2870
 5397SOL     OW27649   0.636   2.410   6.445  0.3199 -0.1352 -0.1461
 5397SOL    HW127650   0.590   2.447   6.520 -0.8011 -0.9516 -0.4218
 5397SOL    HW227651   0.643   2.487   6.387  0.1697 -0.1061 -0.1252
 5398SOL     OW27652   4.003   3.346   1.955 -0.2451 -0.1689  0.1610
 5398SOL    HW127653   3.913   3.362   1.983 -0.3050  0.5163 -0.4558
 5398SOL    HW227654   4.008   3.251   1.946 -0.2102 -0.2143  0.6382
 5399SOL     OW27655   1.699   0.941   1.600 -0.0089 -0.9036 -0.5604
 5399SOL    HW127656   1.604   0.941   1.609 -0.0234  2.2457 -0.7918
 5399SOL    HW227657   1.718   1.019   1.653  0.8535 -1.0334 -0.6741
 5400SOL     OW27658   0.654   0.370   7.941 -0.0565 -0.3222  0.1359
 5400SOL    HW127659   0.739   0.409   7.961 -1.4317  1.5914  2.2887
 5400SOL    HW227660   0.651   0.283   7.981 -1.0523 -0.8903 -1.2031
 5401SOL     OW27661   3.376   2.842   2.520  0.1321 -0.0657  0.5000
 5401SOL    HW127662   3.468   2.837   2.496  0.2882  1.5353  0.7765
 5401SOL    HW227663   3.341   2.756   2.497  1.8970 -0.4757 -0.6767
 5402SOL     OW27664   2.781   3.241   1.096  0.3977  0.0739  0.7338
 5402SOL    HW127665   2.863   3.218   1.051  0.3815  1.5865 -0.0536
 5402SOL    HW227666   2.774   3.335   1.081 -1.6753 -0.4282 -1.5228
 5403SOL     OW27667   1.101   3.009   2.374  0.1450 -0.1864 -0.1681
 5403SOL    HW127668   1.171   2.981   2.434  0.0451 -0.4676 -0.1841
 5403SOL    HW227669   1.089   3.100   2.404  0.1360 -0.0295 -0.6591
 5404SOL     OW27670   4.219   3.422   3.829  0.0710  0.5154 -0.1136
 5404SOL    HW127671   4.202   3.410   3.736  2.6337 -0.7074 -0.4154
 5404SOL    HW227672   4.289   3.488   3.833  1.0056 -0.7281  3.8523
 5405SOL     OW27673   2.374   3.119   1.831  0.1676  0.2080  0.0501
 5405SOL    HW127674   2.302   3.076   1.785  1.5617 -1.0676 -0.9067
 5405SOL    HW227675   2.336   3.129   1.919 -1.4753  1.1183 -0.7580
 5406SOL     OW27676   0.981   0.942   4.909  0.1335  0.2966  0.1571
 5406SOL    HW127677   0.916   1.005   4.880 -1.0364 -1.3004 -0.6546
 5406SOL    HW227678   0.983   0.902   4.822  1.8069 -0.6360  0.6270
 5407SOL     OW27679   1.029   2.561   3.492 -0.7683  0.1397 -0.2124
 5407SOL    HW127680   1.038   2.479   3.443 -0.9244 -0.1549  0.2414
 5407SOL    HW227681   0.935   2.575   3.478 -0.5432  0.9651 -0.8370
 5408SOL     OW27682   4.668   3.575   6.418 -0.1032  0.2147  0.0688
 5408SOL    HW127683   4.664   3.670   6.410 -0.2932  0.4646  3.4252
 5408SOL    HW227684   0.005   3.560   6.490  0.7765 -1.7028 -1.0534
 5409SOL     OW27685   4.113   1.370   9.901 -0.6847  0.0446 -0.3824
 5409SOL    HW127686   4.099   1.380   9.995 -2.6563 -0.7601 -0.5852
 5409SOL    HW227687   4.154   1.453   9.878 -0.6768  0.1663  0.0768
 5410SOL     OW27688   4.189   0.808   7.617 -0.0887 -0.4689 -0.0722
 5410SOL    HW127689   4.251   0.857   7.563 -1.0134 -0.1801 -0.8644
 5410SOL    HW227690   4.228   0.833   7.701  0.4167 -0.7716 -0.2189
 5411SOL     OW27691   0.333   3.110   7.946 -0.6079  0.3581  0.4590
 5411SOL    HW127692   0.343   3.079   7.855 -1.8098  4.3271 -1.0399
 5411SOL    HW227693   0.409   3.089   7.999 -1.5720 -4.8699 -0.2225
 5412SOL     OW27694   4.473   3.982  16.973  0.2777 -0.4407  0.5361
 5412SOL    HW127695   4.440   4.048  16.912 -1.8141 -2.5358 -0.5920
 5412SOL    HW227696   4.567   3.987  16.956 -0.1301  1.2425 -1.1973
 5413SOL     OW27697   2.866   3.864   2.244 -0.0564 -0.3343  0.1564
 5413SOL    HW127698   2.948   3.826   2.275 -0.0506  0.1010  0.6751
 5413SOL    HW227699   2.849   3.937   2.303  2.7939 -0.3650  1.0362
 5414SOL     OW27700   3.799   1.803  13.900  0.4189  0.4982 -0.7135
 5414SOL    HW127701   3.729   1.746  13.934  0.2374  0.5174 -1.0555
 5414SOL    HW227702   3.795   1.881  13.955  1.5412  0.0953 -0.0468
 5415SOL     OW27703   3.554   3.931  14.837 -0.6862  0.2962 -0.5927
 5415SOL    HW127704   3.538   3.842  14.866  0.1588  0.5486  0.6701
 5415SOL    HW227705   3.599   3.916  14.754 -0.6748 -0.0097 -0.5319
 5416SOL     OW27706   1.463   4.518   5.564  0.0898 -0.6833 -0.2866
 5416SOL    HW127707   1.420   4.471   5.493  0.5187 -0.7391 -0.5155
 5416SOL    HW227708   1.413   4.600   5.570  2.7233  0.8880  0.3455
 5417SOL     OW27709   1.228   3.684   9.090  0.4238 -0.3740 -0.4940
 5417SOL    HW127710   1.229   3.778   9.108  1.1547 -0.4330 -0.1983
 5417SOL    HW227711   1.322   3.669   9.074  0.0951 -0.4301 -2.3443
 5418SOL     OW27712   1.955   1.095  10.435  0.4229 -0.4536 -0.5120
 5418SOL    HW127713   1.994   1.081  10.349  0.6097  0.5533 -0.5965
 5418SOL    HW227714   1.885   1.154  10.408 -0.0980 -0.5921  0.5529
 5419SOL     OW27715   0.381   2.102   5.427  0.1354  0.5216  0.2479
 5419SOL    HW127716   0.356   2.141   5.511 -1.5718  0.2464 -0.1311
 5419SOL    HW227717   0.474   2.122   5.427  0.4507 -0.9662  2.4043
 5420SOL     OW27718   0.579   4.009   7.336  0.5328 -0.3499 -0.1278
 5420SOL    HW127719   0.644   4.004   7.406  1.5884  1.6219 -0.9385
 5420SOL    HW227720   0.505   3.979   7.388  0.0388  0.2980 -0.4594
 5421SOL     OW27721   4.587   1.058   6.274  0.3439  0.4017 -0.6435
 5421SOL    HW127722   4.502   1.098   6.256  1.4689  2.3737 -1.5773
 5421SOL    HW227723   4.552   0.990   6.333 -0.1699 -0.7434 -2.2651
 5422SOL     OW27724   2.626   0.031  13.890 -0.1472  0.1698 -0.0422
 5422SOL    HW127725   2.560   0.036  13.959  0.1587 -1.8479  0.3751
 5422SOL    HW227726   2.665   0.118  13.900  1.4855 -0.4974 -0.6888
 5423SOL     OW27727   4.431   0.174   9.780  0.1128 -0.0065 -0.4855
 5423SOL    HW127728   4.488   0.164   9.704  2.0597  0.2374  0.9547
 5423SOL    HW227729   4.426   0.270   9.783  0.5767 -0.0020  0.0178
 5424SOL     OW27730   1.405   4.021   2.579  0.0818 -0.4337 -0.1750
 5424SOL    HW127731   1.331   3.961   2.567  1.4087 -2.1371  0.1442
 5424SOL    HW227732   1.450   3.965   2.643  1.6775  1.2362  0.1390
 5425SOL     OW27733   2.390   0.785  13.721 -0.3805  0.1961  0.1037
 5425SOL    HW127734   2.328   0.811  13.652  1.2418  0.7604 -1.1410
 5425SOL    HW227735   2.352   0.702  13.751 -2.2969  1.3743  0.9224
 5426SOL     OW27736   1.583   0.224   7.932  0.4854  0.4661 -0.0816
 5426SOL    HW127737   1.638   0.147   7.919 -1.6478 -1.0296 -0.2979
 5426SOL    HW227738   1.534   0.224   7.850  2.2541 -2.8936 -1.1351
 5427SOL     OW27739   0.342   3.615  13.696  0.2444  0.4152 -0.3920
 5427SOL    HW127740   0.331   3.675  13.621  0.9780  0.4293 -0.4962
 5427SOL    HW227741   0.392   3.670  13.756  0.7077 -1.5149  0.9617
 5428SOL     OW27742   4.365   4.694   1.535  0.0289  0.0291 -0.6154
 5428SOL    HW127743   4.361   0.063   1.564 -0.1404 -0.6167  1.3936
 5428SOL    HW227744   4.403   4.660   1.616 -1.1457 -0.7277 -0.3902
 5429SOL     OW27745   0.737   2.548  17.219  0.0952  0.2572 -0.2483
 5429SOL    HW127746   0.651   2.563  17.181 -1.1771 -3.2246  1.2670
 5429SOL    HW227747   0.783   2.632  17.224  1.4485 -0.3865 -1.7891
 5430SOL     OW27748   3.720   0.667   5.070  0.1057 -0.0872  0.2093
 5430SOL    HW127749   3.702   0.730   5.140  1.3280 -1.9923  2.2596
 5430SOL    HW227750   3.701   0.711   4.988 -0.9104 -0.0072  0.4819
 5431SOL     OW27751   0.334   3.302   3.671  0.1088 -0.2381 -0.5811
 5431SOL    HW127752   0.311   3.220   3.715  0.7133 -0.6133 -0.9567
 5431SOL    HW227753   0.342   3.360   3.747  2.9323 -0.9851 -0.3257
 5432SOL     OW27754   1.816   4.475   3.084 -1.1117 -0.0932  0.0954
 5432SOL    HW127755   1.854   4.559   3.111 -1.9848 -0.2112  1.7024
 5432SOL    HW227756   1.753   4.469   3.156  0.5306 -1.2825  1.4480
 5433SOL     OW27757   0.393   1.473   4.394  0.3785 -0.2421  0.5170
 5433SOL    HW127758   0.298   1.463   4.394  0.4604 -1.0440  1.1668
 5433SOL    HW227759   0.403   1.389   4.439  1.3514 -0.8745 -0.9193
 5434SOL     OW27760   3.963   0.059   9.480 -0.1261  0.1592 -0.1737
 5434SOL    HW127761   3.894   0.038   9.543  0.2621 -0.5967 -0.0051
 5434SOL    HW227762   4.042   0.012   9.507 -0.6583  0.2955  1.5658
 5435SOL     OW27763   4.063   2.119   2.188  0.2840 -0.3549  0.2009
 5435SOL    HW127764   3.975   2.152   2.173 -0.5443 -2.6308  0.1857
 5435SOL    HW227765   4.115   2.178   2.133 -1.5572 -0.0170 -1.1604
 5436SOL     OW27766   3.131   3.401   2.998  0.2315 -0.3159  0.8915
 5436SOL    HW127767   3.097   3.382   3.085 -3.4442 -1.7244 -0.8625
 5436SOL    HW227768   3.050   3.420   2.950  0.5608 -1.2908 -0.0294
 5437SOL     OW27769   4.546   0.714  12.964 -0.1152  0.3058 -0.1555
 5437SOL    HW127770   4.520   0.766  13.040 -1.4676  1.6843 -1.5722
 5437SOL    HW227771   4.471   0.734  12.909  1.8017 -0.4692 -3.0565
 5438SOL     OW27772   0.612   1.478   5.259  0.1670  0.5827 -0.0100
 5438SOL    HW127773   0.560   1.520   5.328 -0.9763  0.4702 -0.8040
 5438SOL    HW227774   0.573   1.520   5.182 -1.3424  1.5835  1.3024
 5439SOL     OW27775   1.482   1.965   1.858  0.5874 -0.2818 -0.3082
 5439SOL    HW127776   1.467   1.870   1.865 -0.5993  0.0674  1.8853
 5439SOL    HW227777   1.552   1.965   1.792 -1.0178 -1.7736 -2.0137
 5440SOL     OW27778   1.500   1.437   9.317 -0.8581 -0.0512  0.3568
 5440SOL    HW127779   1.415   1.476   9.299  0.3556  2.8035  0.8353
 5440SOL    HW227780   1.551   1.508   9.356  0.1467  0.4816 -1.9430
 5441SOL     OW27781   2.757   4.528  11.602  0.2570 -0.0669  0.1282
 5441SOL    HW127782   2.683   4.468  11.604  1.8850 -2.0558  1.8389
 5441SOL    HW227783   2.740   4.579  11.523 -1.4182  0.7813  1.0408
 5442SOL     OW27784   3.137   1.581   2.363 -0.6404 -0.0927  0.7862
 5442SOL    HW127785   3.133   1.652   2.427 -1.8967 -0.3732  1.0316
 5442SOL    HW227786   3.231   1.565   2.363 -0.5694  0.3900 -0.9434
 5443SOL     OW27787   3.289   3.451  17.621  0.4427  0.3038  0.4060
 5443SOL    HW127788   3.360   3.479  17.563  1.2311  0.2343  1.3258
 5443SOL    HW227789   3.340   3.467   0.009  0.9893 -0.6162  0.2462
 5444SOL     OW27790   1.513   3.023   1.464  0.2402 -0.2739 -0.0282
 5444SOL    HW127791   1.490   3.018   1.371 -0.9033  2.5034  0.0981
 5444SOL    HW227792   1.425   3.011   1.501 -0.0211 -1.4862 -1.0142
 5445SOL     OW27793   4.465   2.278  15.762  0.6831  0.0735 -0.0190
 5445SOL    HW127794   4.531   2.256  15.827  0.0221 -2.7834 -0.3126
 5445SOL    HW227795   4.453   2.372  15.772 -0.0981 -0.0393  0.1533
 5446SOL     OW27796   0.026   2.785   0.637 -0.4312 -0.4414 -0.6993
 5446SOL    HW127797   0.083   2.862   0.628  0.7471 -1.5725 -2.9740
 5446SOL    HW227798   0.017   2.788   0.732 -0.8833  1.3120 -0.7998
 5447SOL     OW27799   4.486   1.967   0.346  0.5530 -0.1006  0.9235
 5447SOL    HW127800   4.481   2.031   0.276  1.0691 -1.0346  0.0231
 5447SOL    HW227801   4.396   1.936   0.341 -0.1781  2.5277 -1.6591
 5448SOL     OW27802   1.691   4.562  13.555 -0.1538  0.4279  0.1027
 5448SOL    HW127803   1.692   4.652  13.588  3.4381 -0.0554  1.3509
 5448SOL    HW227804   1.779   4.534  13.580  0.4601  1.5373 -0.8065
 5449SOL     OW27805   4.046   0.519   6.546 -0.2407 -0.2332  0.4077
 5449SOL    HW127806   4.004   0.437   6.573 -1.0843  0.4378  1.1109
 5449SOL    HW227807   4.004   0.534   6.462 -0.9825 -3.4067  0.2005
 5450SOL     OW27808   1.305   4.668   5.896  0.0323  0.6211 -0.0303
 5450SOL    HW127809   1.380   4.612   5.879 -0.6503 -0.8429  1.7425
 5450SOL    HW227810   1.237   4.626   5.842 -1.2016  0.9209  1.2834
 5451SOL     OW27811   1.989   1.052  10.957  0.1506 -0.0555 -0.5912
 5451SOL    HW127812   2.052   1.123  10.946 -0.7140  0.7454 -0.3871
 5451SOL    HW227813   1.991   0.998  10.878 -2.3296 -0.1504 -0.6125
 5452SOL     OW27814   4.112   3.596  10.579  0.2195  0.3557 -0.0865
 5452SOL    HW127815   4.188   3.569  10.528  1.2009 -0.1327  1.6192
 5452SOL    HW227816   4.139   3.684  10.605 -1.3607  0.9519 -0.4667
 5453SOL     OW27817   0.497   3.072   9.584  0.2907  0.0794 -0.1960
 5453SOL    HW127818   0.528   2.991   9.624 -0.1367  0.5926  1.1694
 5453SOL    HW227819   0.431   3.095   9.649  0.4140  0.6605 -0.2806
 5454SOL     OW27820   0.530   0.109  14.661  0.2900 -0.2328  0.3759
 5454SOL    HW127821   0.442   0.074  14.676  0.4316 -0.8335 -0.2264
 5454SOL    HW227822   0.537   0.135  14.570 -1.7229  0.0207  0.2896
 5455SOL     OW27823   2.685   1.485   5.098 -0.3077 -0.6798  0.2774
 5455SOL    HW127824   2.726   1.436   5.027 -0.0257  1.6568 -1.1569
 5455SOL    HW227825   2.765   1.529   5.125 -0.2414 -0.2257 -0.6770
 5456SOL     OW27826   2.859   2.291   7.958  0.2081  0.0113  0.0383
 5456SOL    HW127827   2.873   2.213   8.012 -2.1885  1.2075  2.4279
 5456SOL    HW227828   2.861   2.357   8.027  1.0665  1.5929 -1.5051
 5457SOL     OW27829   4.467   3.598   9.386 -0.6363  0.3500 -0.3430
 5457SOL    HW127830   4.432   3.562   9.305  0.5603  1.6038 -1.4130
 5457SOL    HW227831   4.509   3.678   9.355 -0.4099  0.3247 -0.0966
 5458SOL     OW27832   0.507   0.171   5.375 -0.3802  0.7272 -0.2441
 5458SOL    HW127833   0.475   0.236   5.313  0.3399  2.1461  0.8713
 5458SOL    HW227834   0.486   0.082   5.346 -1.9265  0.9633  0.1735
 5459SOL     OW27835   2.815   0.315  17.173  0.9414 -0.4706 -0.3823
 5459SOL    HW127836   2.748   0.282  17.114  0.7838 -1.9354  0.6072
 5459SOL    HW227837   2.810   0.265  17.254 -0.2877  1.5923  0.8167
 5460SOL     OW27838   4.656   2.425   6.306  0.8252 -0.2098 -0.1229
 5460SOL    HW127839   4.593   2.497   6.311  2.4394  1.2377 -0.6261
 5460SOL    HW227840   4.670   2.415   6.400 -1.1394  1.6223  0.3451
 5461SOL     OW27841   1.354   1.255  10.649  0.3439 -0.1299 -0.1319
 5461SOL    HW127842   1.437   1.240  10.694 -0.6063 -2.3814  0.9082
 5461SOL    HW227843   1.333   1.162  10.633  0.8747 -0.2162 -0.3028
 5462SOL     OW27844   0.587   3.215   6.732  0.5924 -0.3995 -0.1075
 5462SOL    HW127845   0.625   3.137   6.774 -1.6310 -1.3910  0.0748
 5462SOL    HW227846   0.541   3.168   6.662 -0.9905  2.2828 -0.8468
 5463SOL     OW27847   0.811   3.045  17.199 -0.1386  0.3189  0.0616
 5463SOL    HW127848   0.891   3.096  17.201  0.3974 -0.5063 -0.2594
 5463SOL    HW227849   0.824   3.005  17.113 -0.7369  0.9534 -0.3260
 5464SOL     OW27850   0.985   3.872   8.201  0.3425  0.4767  0.3066
 5464SOL    HW127851   1.052   3.842   8.140  0.3322  0.0345  0.5051
 5464SOL    HW227852   1.034   3.876   8.283  1.7978 -0.3278 -0.5259
 5465SOL     OW27853   2.734   0.612  17.217 -0.4903  0.0831 -0.8486
 5465SOL    HW127854   2.764   0.530  17.177 -0.1386  1.4207 -3.3121
 5465SOL    HW227855   2.674   0.574  17.281 -0.9949  1.1407 -0.6944
 5466SOL     OW27856   4.352   3.037   5.460 -0.0897 -0.3162  0.0199
 5466SOL    HW127857   4.402   2.993   5.391  0.1923  0.4386 -0.2596
 5466SOL    HW227858   4.406   3.028   5.539  1.2394  1.5997 -0.6609
 5467SOL     OW27859   1.286   3.646   7.306 -1.0293 -0.3738 -0.0339
 5467SOL    HW127860   1.380   3.645   7.325 -1.6559 -0.9178  2.9776
 5467SOL    HW227861   1.297   3.632   7.212  1.0827  0.8068  0.0286
 5468SOL     OW27862   2.251   0.625   7.580 -0.4553 -0.7982 -0.0126
 5468SOL    HW127863   2.196   0.611   7.503 -2.5085 -0.3673  1.4029
 5468SOL    HW227864   2.304   0.546   7.565  0.0923 -0.3907 -0.2338
 5469SOL     OW27865   4.717   1.142  16.728  0.0221 -0.6234  0.1908
 5469SOL    HW127866   4.713   1.055  16.768 -1.3078 -0.8377 -0.3827
 5469SOL    HW227867   4.635   1.181  16.758  0.9857  2.7260 -1.5483
 5470SOL     OW27868   0.800   1.017   2.268 -0.3219 -0.6283 -0.3100
 5470SOL    HW127869   0.742   1.092   2.275 -0.6913 -1.0995  1.6656
 5470SOL    HW227870   0.801   1.013   2.173  0.7389  1.2544 -0.3840
 5471SOL     OW27871   0.334   4.409  15.360 -0.5615 -0.0951 -0.0466
 5471SOL    HW127872   0.340   4.371  15.273 -2.6390 -1.1425  0.2678
 5471SOL    HW227873   0.266   4.474  15.342 -2.5049 -1.4484  2.2966
 5472SOL     OW27874   2.050   2.363  14.803  0.3643 -0.1632 -0.4117
 5472SOL    HW127875   2.081   2.294  14.863  0.6980 -1.6993 -2.3479
 5472SOL    HW227876   2.105   2.342  14.727  0.0443 -0.9337 -0.4266
 5473SOL     OW27877   1.132   3.704   4.628 -0.5998  0.2167  0.2577
 5473SOL    HW127878   1.081   3.784   4.615 -0.0766  0.4503 -0.3513
 5473SOL    HW227879   1.146   3.678   4.537 -2.6826 -0.9006  0.2725
 5474SOL     OW27880   0.556   3.925  14.984  0.7296 -0.1316  0.2456
 5474SOL    HW127881   0.545   3.840  14.942  1.3140  0.7733 -1.7067
 5474SOL    HW227882   0.634   3.913  15.039  1.6653  0.1014 -1.0236
 5475SOL     OW27883   2.196   4.420   4.172  0.4007  0.0721  0.9754
 5475SOL    HW127884   2.116   4.430   4.223  0.2671  0.9987  0.5649
 5475SOL    HW227885   2.218   4.510   4.150 -0.9809 -0.1839 -1.4253
 5476SOL     OW27886   1.551   4.337   1.565  0.0951  0.0099 -0.1457
 5476SOL    HW127887   1.623   4.396   1.586  0.9519  0.4587 -4.2050
 5476SOL    HW227888   1.588   4.251   1.544 -1.7505 -0.7535 -0.3329
 5477SOL     OW27889   4.667   0.640   2.181 -0.3585 -0.0523  0.6271
 5477SOL    HW127890   4.616   0.599   2.111 -1.9688  1.2032  1.0674
 5477SOL    HW227891   4.651   0.733   2.170  0.3918 -0.0398 -0.2905
 5478SOL     OW27892   1.034   0.434   8.801  0.8641 -0.5060  0.2927
 5478SOL    HW127893   1.060   0.393   8.883  1.4747  0.7645  0.7336
 5478SOL    HW227894   1.047   0.525   8.826 -0.0670 -0.5158  0.8037
 5479SOL     OW27895   2.643   1.395  14.629 -0.8407 -0.1288  0.4442
 5479SOL    HW127896   2.680   1.355  14.550 -1.3468 -2.9021  1.5955
 5479SOL    HW227897   2.557   1.423  14.600  0.3378  1.0249 -1.9315
 5480SOL     OW27898   2.845   0.746  11.969  0.6078 -0.1236  0.0157
 5480SOL    HW127899   2.827   0.772  11.879  0.8364 -2.6230 -0.7584
 5480SOL    HW227900   2.926   0.698  11.951 -1.6582 -3.1299 -2.0531
 5481SOL     OW27901   4.195   1.853   7.435  0.4376  0.0273  0.4768
 5481SOL    HW127902   4.142   1.880   7.360  1.3097  2.0038  0.5860
 5481SOL    HW227903   4.154   1.894   7.511 -0.6217 -1.6701  0.8390
 5482SOL     OW27904   0.243   2.401   8.439  0.0359 -0.5379 -0.5555
 5482SOL    HW127905   0.214   2.492   8.441 -0.1367 -0.6377  1.4277
 5482SOL    HW227906   0.338   2.412   8.444 -0.3367  0.0249  4.9381
 5483SOL     OW27907   0.644   1.778   3.905  0.3717  0.0621  0.3839
 5483SOL    HW127908   0.573   1.834   3.872  0.7037  1.5423  2.2318
 5483SOL    HW227909   0.718   1.838   3.902 -1.6734  2.5431 -0.2911
 5484SOL     OW27910   4.637   1.574   6.301 -0.3661 -0.9459 -0.2525
 5484SOL    HW127911   4.587   1.521   6.362  0.3075 -1.6277 -0.2884
 5484SOL    HW227912   4.680   1.510   6.245  0.7888 -0.9462  0.6395
 5485SOL     OW27913   3.348   2.412   3.219  0.7359 -0.1352  0.8164
 5485SOL    HW127914   3.324   2.448   3.305 -1.2212  0.8516 -0.1612
 5485SOL    HW227915   3.435   2.451   3.214  1.6321 -2.0261  1.4446
 5486SOL     OW27916   0.702   2.396  14.217 -0.4210  0.1785  0.2294
 5486SOL    HW127917   0.625   2.354  14.180 -0.7239  0.0519  1.0023
 5486SOL    HW227918   0.745   2.423  14.136  0.7955 -2.6415 -0.0586
 5487SOL     OW27919   1.928   0.031   4.178  0.3000 -0.1434  0.2617
 5487SOL    HW127920   1.903   4.668   4.141 -0.8597  0.6761 -0.8364
 5487SOL    HW227921   1.857   0.083   4.142  1.8173  2.4222  1.0319
 5488SOL     OW27922   4.652   1.718  12.656  0.0061 -0.4320 -0.0196
 5488SOL    HW127923   4.685   1.794  12.607  1.0146 -2.4914 -2.5548
 5488SOL    HW227924   4.570   1.697  12.611 -1.1773  1.2258  1.3921
 5489SOL     OW27925   3.650   3.470   7.058 -0.0218 -0.5146 -0.5614
 5489SOL    HW127926   3.733   3.476   7.013 -1.8552 -1.6320 -4.0640
 5489SOL    HW227927   3.640   3.563   7.075 -3.2032 -0.6177 -1.7656
 5490SOL     OW27928   2.440   3.882  10.696  0.3569  0.3790  0.0374
 5490SOL    HW127929   2.501   3.851  10.628  0.3203 -0.8100  0.5391
 5490SOL    HW227930   2.443   3.976  10.679 -2.9162  0.3467 -0.7044
 5491SOL     OW27931   1.611   3.842  10.486 -0.2932  0.0025 -0.6228
 5491SOL    HW127932   1.675   3.859  10.555 -0.4220  1.7896 -0.9465
 5491SOL    HW227933   1.529   3.833  10.535 -1.4677  2.0377 -2.2163
 5492SOL     OW27934   3.491   0.386   2.026 -0.1952 -0.1747  0.2644
 5492SOL    HW127935   3.466   0.479   2.024  1.7170  0.3682  1.4718
 5492SOL    HW227936   3.563   0.384   1.964 -0.7403 -0.0964 -0.3683
 5493SOL     OW27937   1.391   1.092  12.290 -0.4854 -0.2281 -0.5648
 5493SOL    HW127938   1.426   1.158  12.351  0.8759 -1.1345 -0.3618
 5493SOL    HW227939   1.436   1.131  12.215 -0.1856  0.0725 -0.2361
 5494SOL     OW27940   1.065   3.403   7.032 -0.1261  0.0990 -0.0007
 5494SOL    HW127941   1.089   3.324   7.082  0.5385  0.1037 -0.3094
 5494SOL    HW227942   0.977   3.406   7.069 -0.0299 -1.0132  0.3223
 5495SOL     OW27943   0.809   1.558   6.333  0.0496  0.6199  0.0519
 5495SOL    HW127944   0.832   1.465   6.333  0.9146  0.8351 -0.9011
 5495SOL    HW227945   0.871   1.597   6.271 -0.5172  2.1578  0.4827
 5496SOL     OW27946   1.700   4.481   3.320  0.4196 -0.0581  0.3663
 5496SOL    HW127947   1.636   4.471   3.391  2.4109 -3.2948  1.6910
 5496SOL    HW227948   1.767   4.417   3.345 -0.2807 -1.4164 -1.2095
 5497SOL     OW27949   2.622   4.644  13.502  0.0931  0.4155  0.2183
 5497SOL    HW127950   2.698   4.634  13.560  1.1196  0.8919 -1.0471
 5497SOL    HW227951   2.577   4.560  13.512 -2.2422  1.5660 -0.7678
 5498SOL     OW27952   3.868   0.322   3.058 -0.0484  0.7097 -0.0121
 5498SOL    HW127953   3.845   0.286   3.144  0.3076  1.6422  0.4847
 5498SOL    HW227954   3.891   0.243   3.009 -0.1843  2.6754 -3.2305
 5499SOL     OW27955   2.649   1.487   7.779 -0.3048 -0.2799  0.3259
 5499SOL    HW127956   2.606   1.401   7.782 -0.7061 -0.0887 -0.0452
 5499SOL    HW227957   2.741   1.461   7.774 -0.3500 -0.5891  1.0450
 5500SOL     OW27958   0.603   0.324   3.781  0.5158 -0.3776 -0.4966
 5500SOL    HW127959   0.614   0.229   3.775 -2.6049 -0.7047 -1.0190
 5500SOL    HW227960   0.646   0.351   3.700  0.7702  1.2509  0.1725
 5501SOL     OW27961   1.967   0.155   2.546 -0.4709 -0.3298 -0.1853
 5501SOL    HW127962   1.999   0.215   2.614 -0.0123  1.4641 -1.9871
 5501SOL    HW227963   1.998   0.210   2.474  0.4961 -0.0963  0.4059
 5502SOL     OW27964   0.416   0.956   7.559  0.5173 -0.2503 -0.0611
 5502SOL    HW127965   0.326   0.922   7.556  0.1449  0.8745 -1.2137
 5502SOL    HW227966   0.413   1.025   7.493 -0.1333 -1.4390 -1.2745
 5503SOL     OW27967   2.428   3.616   8.842  0.7548 -0.1750  0.1868
 5503SOL    HW127968   2.401   3.689   8.787  0.3239  0.2851  1.0072
 5503SOL    HW227969   2.504   3.644   8.893  1.7333  0.2919 -1.5631
 5504SOL     OW27970   1.970   1.278   6.784  0.1644 -0.2841  0.3602
 5504SOL    HW127971   1.908   1.222   6.832  0.7425  0.4801  1.9900
 5504SOL    HW227972   1.973   1.354   6.841  1.5429  0.2940 -0.4872
 5505SOL     OW27973   2.406   1.281   7.247  0.1082  0.2723 -0.1329
 5505SOL    HW127974   2.472   1.230   7.200 -0.3781  1.1467 -1.7765
 5505SOL    HW227975   2.398   1.356   7.188 -1.5318  0.1845 -0.0433
 5506SOL     OW27976   1.229   2.603  16.773 -0.0089  0.2530 -0.2870
 5506SOL    HW127977   1.149   2.630  16.729 -0.6511 -2.2866 -0.7053
 5506SOL    HW227978   1.199   2.555  16.850 -1.2738 -0.0509 -0.9815
 5507SOL     OW27979   4.111   0.622   3.606 -0.2024 -0.3203 -0.7093
 5507SOL    HW127980   4.078   0.699   3.560 -1.7120  0.0959  1.0710
 5507SOL    HW227981   4.126   0.556   3.539 -1.1118 -0.6185 -0.6238
 5508SOL     OW27982   2.871   3.637   3.979  0.0439 -0.1068  0.4629
 5508SOL    HW127983   2.885   3.710   3.918 -0.0579 -0.2295  0.2924
 5508SOL    HW227984   2.934   3.656   4.048 -1.1843 -1.0678  1.8448
 5509SOL     OW27985   3.004   1.178   2.148  0.3557  0.9687 -0.1773
 5509SOL    HW127986   2.989   1.179   2.054 -1.1005 -1.2098  0.0341
 5509SOL    HW227987   3.037   1.088   2.148  1.1248  1.2463  2.0251
 5510SOL     OW27988   2.537   1.633  15.051  0.0521  0.5511  0.2433
 5510SOL    HW127989   2.581   1.678  14.978 -0.6212  0.9384  0.0800
 5510SOL    HW227990   2.487   1.701  15.097 -0.7875 -0.6071  1.0174
 5511SOL     OW27991   2.026   2.556   8.865 -0.1696  0.7304  0.4944
 5511SOL    HW127992   1.995   2.625   8.807 -0.7827 -1.4963 -1.8764
 5511SOL    HW227993   1.949   2.510   8.897 -0.8323  0.9834 -0.7531
 5512SOL     OW27994   1.031   3.204  15.602  0.2612  0.0433  0.0997
 5512SOL    HW127995   1.002   3.163  15.684  1.0240  1.6734  1.1836
 5512SOL    HW227996   0.953   3.258  15.588 -0.5940 -1.7028 -1.9740
 5513SOL     OW27997   4.156   1.720  17.682  0.8721  0.0337  0.0031
 5513SOL    HW127998   4.172   1.807   0.025  1.5862 -0.7109  1.5220
 5513SOL    HW227999   4.213   1.669   0.047 -0.2028 -0.9852  0.1734
 5514SOL     OW28000   2.824   3.519  17.230  0.4216 -0.3835  0.1180
 5514SOL    HW128001   2.866   3.497  17.313 -1.8938  1.5916  1.8217
 5514SOL    HW228002   2.890   3.483  17.170  0.7879  0.1988  0.1691
 5515SOL     OW28003   2.265   3.198   6.909  0.3509 -0.1863  0.5500
 5515SOL    HW128004   2.180   3.165   6.881  1.1368  1.5568 -3.9860
 5515SOL    HW228005   2.315   3.123   6.943  0.2053 -0.1141  0.9211
 5516SOL     OW28006   2.434   1.621   4.796 -0.3026  0.3488 -0.3107
 5516SOL    HW128007   2.412   1.594   4.885  2.8890  0.7497  0.6312
 5516SOL    HW228008   2.371   1.692   4.790 -0.4240  0.4449  1.8026
 5517SOL     OW28009   0.295   1.811   6.915  0.2067 -0.2377  0.2190
 5517SOL    HW128010   0.364   1.745   6.919  2.2390  1.8503 -0.0187
 5517SOL    HW228011   0.330   1.872   6.980 -2.3802  2.5343 -0.9973
 5518SOL     OW28012   2.114   3.689   1.733 -0.2510  0.3540  0.3621
 5518SOL    HW128013   2.150   3.652   1.653 -1.3281  0.8445 -0.3425
 5518SOL    HW228014   2.043   3.627   1.750  1.1192 -0.9916  1.1867
 5519SOL     OW28015   4.426   2.307   7.380  0.4385 -0.5922  0.1511
 5519SOL    HW128016   4.376   2.365   7.436  1.5534 -0.0177  0.5617
 5519SOL    HW228017   4.506   2.360   7.370 -1.0544  1.6619  0.2823
 5520SOL     OW28018   4.104   3.403  15.917  0.3755 -0.4986 -0.2346
 5520SOL    HW128019   4.168   3.396  15.846 -1.3901 -0.2109 -1.8542
 5520SOL    HW228020   4.143   3.358  15.992 -0.9627  0.6032  1.1442
 5521SOL     OW28021   3.089   4.631  12.106 -0.3159  0.2754 -0.0574
 5521SOL    HW128022   3.125   4.573  12.038 -0.1891  0.4197 -0.1139
 5521SOL    HW228023   3.122   4.711  12.066 -1.3378  1.9258  2.4170
 5522SOL     OW28024   1.564   1.761  14.566 -0.6684  1.0985 -0.3279
 5522SOL    HW128025   1.633   1.827  14.574  0.4359 -0.0515 -0.4610
 5522SOL    HW228026   1.552   1.750  14.471 -1.1896  4.2960 -0.6332
 5523SOL     OW28027   0.425   0.677   7.831  0.3552  0.2447  0.6186
 5523SOL    HW128028   0.343   0.681   7.783 -0.5471 -2.4548  1.9172
 5523SOL    HW228029   0.405   0.749   7.892  2.0767  1.8568 -0.7090
 5524SOL     OW28030   1.684   4.453   4.379  0.7182  0.4379 -0.2554
 5524SOL    HW128031   1.775   4.461   4.408  0.7457  0.6566 -0.4013
 5524SOL    HW228032   1.626   4.470   4.454  0.8938  0.7263 -0.1839
 5525SOL     OW28033   1.801   2.111   5.233 -0.6691  0.2849  0.2492
 5525SOL    HW128034   1.800   2.186   5.292  0.7292  1.4748 -1.2424
 5525SOL    HW228035   1.736   2.136   5.167 -0.0352  1.2767 -0.0034
 5526SOL     OW28036   0.206   0.587   0.046 -0.6098 -0.1069  0.3878
 5526SOL    HW128037   0.128   0.629   0.010  1.2528  1.3783 -1.9136
 5526SOL    HW228038   0.166   0.519   0.101  0.2026 -1.8386 -1.1545
 5527SOL     OW28039   2.416   4.263   9.415 -0.2276  0.0579  0.3334
 5527SOL    HW128040   2.393   4.269   9.508 -1.6442  2.1675 -0.1514
 5527SOL    HW228041   2.336   4.231   9.373  0.9003 -2.4686  0.0619
 5528SOL     OW28042   2.781   4.339   5.567  0.4039  0.5128 -0.2208
 5528SOL    HW128043   2.794   4.430   5.538 -0.4435  0.8764  0.5342
 5528SOL    HW228044   2.770   4.294   5.483 -0.6257  0.0854  0.1533
 5529SOL     OW28045   3.454   0.256   3.035 -0.5936 -0.4154 -0.0580
 5529SOL    HW128046   3.393   0.205   2.982  0.5755 -2.1546  0.2564
 5529SOL    HW228047   3.524   0.277   2.973 -0.9592  1.3894  0.1394
 5530SOL     OW28048   0.248   0.411   1.244 -0.3626  0.4168 -0.2678
 5530SOL    HW128049   0.187   0.484   1.238 -0.7671  0.1096  0.1700
 5530SOL    HW228050   0.187   0.342   1.267  0.3148  0.5200  1.8096
 5531SOL     OW28051   4.615   4.597   8.673 -0.1462 -0.1375  0.1860
 5531SOL    HW128052   4.679   4.606   8.743 -1.1247  0.5606  0.9836
 5531SOL    HW228053   4.541   4.635   8.720 -1.4312 -0.9496 -1.1532
 5532SOL     OW28054   4.414   0.470  14.801 -0.1189  0.2287 -0.2437
 5532SOL    HW128055   4.437   0.390  14.753 -0.0653 -0.3829  0.7891
 5532SOL    HW228056   4.402   0.436  14.889 -2.0923  1.6452  0.0167
 5533SOL     OW28057   3.630   1.333  12.092  0.0570  0.3464 -0.6602
 5533SOL    HW128058   3.700   1.269  12.103 -1.8313 -1.3202  1.7515
 5533SOL    HW228059   3.574   1.287  12.029 -0.2272 -0.0060 -0.1494
 5534SOL     OW28060   2.335   1.140   0.430  0.4508 -0.2968 -0.3266
 5534SOL    HW128061   2.250   1.115   0.467  1.2941  0.3273  1.9854
 5534SOL    HW228062   2.374   1.054   0.415 -2.0814 -1.2064 -1.6676
 5535SOL     OW28063   3.145   3.844  12.213  0.3704  0.1484 -0.1058
 5535SOL    HW128064   3.123   3.757  12.247  2.3379 -0.0861  0.5769
 5535SOL    HW228065   3.207   3.877  12.279  2.1044 -2.6603 -0.3436
 5536SOL     OW28066   1.110   2.567   1.368 -0.3741  0.1604  0.8061
 5536SOL    HW128067   1.019   2.561   1.339 -0.2952  0.1281  0.5603
 5536SOL    HW228068   1.099   2.500   1.435 -0.0958  0.7317  1.4317
 5537SOL     OW28069   1.828   3.732   4.655  0.2328 -0.4914  0.0606
 5537SOL    HW128070   1.821   3.825   4.674  0.1570 -0.4308 -0.2574
 5537SOL    HW228071   1.923   3.724   4.649  0.2346  0.1931 -0.8071
 5538SOL     OW28072   2.439   4.146  14.216 -0.4278 -0.4819  0.4922
 5538SOL    HW128073   2.490   4.203  14.158 -2.2693 -0.8434 -1.4761
 5538SOL    HW228074   2.479   4.059  14.209  2.1653  0.5473  2.4738
 5539SOL     OW28075   0.318   3.731   5.796  0.0074 -0.1279  0.5713
 5539SOL    HW128076   0.246   3.726   5.733  0.3999  3.5473 -0.1170
 5539SOL    HW228077   0.379   3.664   5.765 -0.4312 -0.2343 -0.0550
 5540SOL     OW28078   1.666   3.461  13.202 -0.1173 -0.1551  0.1431
 5540SOL    HW128079   1.671   3.551  13.170  1.0794  0.0834  1.0158
 5540SOL    HW228080   1.737   3.417  13.155 -0.1587 -0.5940  0.4923
 5541SOL     OW28081   0.580   1.349   2.131 -0.9687  0.5767  0.2889
 5541SOL    HW128082   0.634   1.331   2.207  1.4467  1.1496 -1.3031
 5541SOL    HW228083   0.644   1.390   2.073  0.7462 -1.2988  0.8448
 5542SOL     OW28084   0.149   0.553   3.292  0.2006 -0.2301  0.0011
 5542SOL    HW128085   0.087   0.612   3.335 -1.5522 -0.9793 -1.4769
 5542SOL    HW228086   0.120   0.576   3.203  0.0181 -0.1422  0.0817
 5543SOL     OW28087   0.746   3.933   2.313 -0.0169  0.5861 -1.0506
 5543SOL    HW128088   0.750   3.851   2.362 -0.1953  1.6277  0.7244
 5543SOL    HW228089   0.665   3.924   2.263 -0.3405  1.5911 -0.7120
 5544SOL     OW28090   1.618   1.504   0.655 -0.2016  0.7621 -0.1437
 5544SOL    HW128091   1.660   1.511   0.741 -2.0906  1.6921  0.7218
 5544SOL    HW228092   1.700   1.496   0.607 -0.5044  0.1633 -0.5547
 5545SOL     OW28093   3.877   1.199  11.551  0.5595 -0.3069 -0.4708
 5545SOL    HW128094   3.835   1.175  11.468 -0.0590 -0.5804 -0.0829
 5545SOL    HW228095   3.803   1.246  11.590 -0.8094 -1.0356 -2.1601
 5546SOL     OW28096   4.564   3.891   9.372  0.6060 -0.7060  0.3331
 5546SOL    HW128097   4.587   3.969   9.321  1.2741 -0.9676  0.2328
 5546SOL    HW228098   4.471   3.913   9.379  0.7620  0.6306 -1.8434
 5547SOL     OW28099   0.707   2.583  17.510  0.2248 -0.0412  0.2531
 5547SOL    HW128100   0.766   2.620  17.444 -0.1131  5.0532  2.8512
 5547SOL    HW228101   0.638   2.567  17.445 -0.4288  0.9209  0.7142
 5548SOL     OW28102   2.971   0.285   5.597 -0.4292  0.7257  0.8737
 5548SOL    HW128103   2.925   0.352   5.548  1.0756  1.8405  0.9606
 5548SOL    HW228104   2.979   0.217   5.531  1.1151  0.5645  1.2223
 5549SOL     OW28105   1.645   1.329   5.759  0.5221 -0.1057  0.1049
 5549SOL    HW128106   1.616   1.374   5.838 -0.0200 -1.9232  0.9336
 5549SOL    HW228107   1.719   1.382   5.730 -0.3431  1.1026  0.1088
 5550SOL     OW28108   0.774   4.130  12.669 -0.3094 -0.2204 -0.6818
 5550SOL    HW128109   0.763   4.038  12.644 -1.6174 -0.1804 -0.2507
 5550SOL    HW228110   0.828   4.118  12.748  1.5917  0.1385 -1.9391
 5551SOL     OW28111   0.175   2.618   4.939  0.3378  0.1813 -0.2908
 5551SOL    HW128112   0.177   2.600   4.845 -0.5134  2.7552 -0.7860
 5551SOL    HW228113   0.099   2.675   4.940 -0.9870 -1.5950 -0.0090
 5552SOL     OW28114   3.189   3.129   7.109  0.8864 -0.0130 -0.1252
 5552SOL    HW128115   3.224   3.044   7.135 -0.1594  0.3708  2.5600
 5552SOL    HW228116   3.218   3.133   7.018  0.1280 -1.7654 -0.4349
 5553SOL     OW28117   1.296   4.513   6.430 -0.0983  0.3495  0.0308
 5553SOL    HW128118   1.357   4.581   6.400  1.1945 -0.3701  1.0395
 5553SOL    HW228119   1.337   4.484   6.511  2.1173  1.5117 -0.6597
 5554SOL     OW28120   1.806   2.498   5.054  0.3449 -0.2948 -0.5778
 5554SOL    HW128121   1.807   2.519   5.148 -1.4408 -0.4368 -0.5252
 5554SOL    HW228122   1.723   2.450   5.055  0.0816  0.1752  0.3845
 5555SOL     OW28123   1.440   1.805  17.678  0.4746 -0.1551 -0.0693
 5555SOL    HW128124   1.424   1.791   0.079 -0.6456 -0.2847 -0.2819
 5555SOL    HW228125   1.355   1.773  17.649  0.5321  1.5782 -2.1295
 5556SOL     OW28126   1.138   2.337   0.786 -0.0593  0.2003  0.5623
 5556SOL    HW128127   1.226   2.337   0.749 -0.1939 -0.4296  0.2398
 5556SOL    HW228128   1.093   2.284   0.719  0.6094 -1.0288  1.0706
 5557SOL     OW28129   1.065   2.266   9.557 -0.6479 -0.6776  0.0267
 5557SOL    HW128130   1.003   2.309   9.498  0.2682  2.7053  1.5665
 5557SOL    HW228131   1.091   2.340   9.611  0.2369  0.7164 -2.3129
 5558SOL     OW28132   0.305   0.251  15.521  0.2477 -0.4140  0.1641
 5558SOL    HW128133   0.333   0.277  15.609  1.8032 -3.1738  0.4727
 5558SOL    HW228134   0.297   0.335  15.475  0.7979 -1.3266 -1.6007
 5559SOL     OW28135   2.314   2.093  11.844  0.2632  0.4824  0.0719
 5559SOL    HW128136   2.345   2.129  11.760 -0.3790 -0.8400 -0.7381
 5559SOL    HW228137   2.333   2.001  11.828 -1.3735  0.2573 -0.6013
 5560SOL     OW28138   3.002   0.710   0.175 -0.0835  0.3696  0.5743
 5560SOL    HW128139   3.064   0.747   0.111  0.0777 -0.6743  0.1210
 5560SOL    HW228140   3.058   0.681   0.247  1.8065  0.1953 -0.9572
 5561SOL     OW28141   1.218   1.939   9.240 -0.0638  0.1870 -0.3923
 5561SOL    HW128142   1.268   2.008   9.285 -0.3119 -0.5664  1.0380
 5561SOL    HW228143   1.294   1.881   9.241  0.9905  1.5592  2.1230
 5562SOL     OW28144   4.357   4.531  11.853 -0.4730 -0.2780  0.0355
 5562SOL    HW128145   4.355   4.444  11.894  1.5876 -1.5731 -2.5853
 5562SOL    HW228146   4.412   4.511  11.777  1.3231  0.0362  1.2553
 5563SOL     OW28147   4.305   1.031  15.154 -0.2408  0.4238 -0.4993
 5563SOL    HW128148   4.242   1.014  15.224  0.2775  1.5893  0.2547
 5563SOL    HW228149   4.384   1.016  15.207  0.8187 -1.5776 -2.6380
 5564SOL     OW28150   1.506   2.516   8.809  0.0220  0.6200 -0.2252
 5564SOL    HW128151   1.563   2.486   8.738 -0.1332 -1.0612  0.3743
 5564SOL    HW228152   1.485   2.438   8.859 -0.3693  0.1238 -1.1611
 5565SOL     OW28153   3.079   2.760  13.834 -0.3397  0.4885 -0.7886
 5565SOL    HW128154   3.165   2.730  13.862 -0.4263  0.0587 -0.9768
 5565SOL    HW228155   3.058   2.691  13.771 -0.7409  1.2949 -1.5383
 5566SOL     OW28156   4.702   3.254   0.571  0.0281 -0.4328  0.2945
 5566SOL    HW128157   4.624   3.285   0.526 -0.3795  0.4752  1.6641
 5566SOL    HW228158   4.686   3.283   0.660  2.2571 -3.7717  1.7753
 5567SOL     OW28159   0.607   2.807   8.315 -0.2336 -0.0712 -0.0362
 5567SOL    HW128160   0.685   2.862   8.302  1.2615 -1.7594  1.6256
 5567SOL    HW228161   0.640   2.727   8.357  0.8424  0.3768 -0.0071
 5568SOL     OW28162   0.151   2.732  13.306 -0.2279  0.0828  0.4534
 5568SOL    HW128163   0.180   2.819  13.278  1.2645 -1.0109 -1.3659
 5568SOL    HW228164   0.056   2.740  13.298 -0.0291  1.3452 -0.6310
 5569SOL     OW28165   0.799   2.879   4.923  0.3396  0.5654 -0.4032
 5569SOL    HW128166   0.877   2.888   4.977 -0.9516  1.1645  1.3777
 5569SOL    HW228167   0.732   2.882   4.991  0.0841  4.1233 -0.8014
 5570SOL     OW28168   2.210   2.274   4.623 -0.1284 -0.1665  0.2598
 5570SOL    HW128169   2.199   2.179   4.620 -0.3345 -0.1557  0.7186
 5570SOL    HW228170   2.243   2.276   4.713  2.1306 -0.6219 -0.5462
 5571SOL     OW28171   2.787   0.556   4.558  0.0214 -0.3146  0.5094
 5571SOL    HW128172   2.813   0.525   4.471  1.0912  0.8941  0.4042
 5571SOL    HW228173   2.755   0.645   4.542 -1.4691 -0.6735  1.4468
 5572SOL     OW28174   3.521   0.503  12.191 -0.5933  0.1977 -0.1703
 5572SOL    HW128175   3.550   0.594  12.197 -0.7817  0.1857  1.0315
 5572SOL    HW228176   3.544   0.471  12.279 -0.9885 -1.5562 -0.7174
 5573SOL     OW28177   2.001   1.792  12.451 -0.3627 -0.0369 -0.1936
 5573SOL    HW128178   2.086   1.834  12.444 -0.5196 -0.0338 -2.1010
 5573SOL    HW228179   1.953   1.851  12.392 -0.6919 -1.3611 -1.2487
 5574SOL     OW28180   2.550   1.209   5.091 -0.4238  0.4643  0.5307
 5574SOL    HW128181   2.527   1.180   5.179  1.2140 -4.5475 -0.6895
 5574SOL    HW228182   2.642   1.233   5.100 -0.2488  0.2734 -0.6473
 5575SOL     OW28183   3.165   2.689  17.194 -0.5522 -0.1782  0.2821
 5575SOL    HW128184   3.121   2.716  17.113  0.5719 -1.7901 -0.8496
 5575SOL    HW228185   3.207   2.768  17.227  1.9424 -1.9603  1.3793
 5576SOL     OW28186   0.198   0.746   4.979  0.2380 -0.1052  0.2297
 5576SOL    HW128187   0.284   0.704   4.980 -0.7098 -2.0132  0.6786
 5576SOL    HW228188   0.210   0.794   5.060  2.2789 -3.6296  2.0254
 5577SOL     OW28189   2.648   2.110   8.650 -0.6760 -0.6458  0.3173
 5577SOL    HW128190   2.591   2.182   8.622 -1.2792 -0.1353  2.8809
 5577SOL    HW228191   2.733   2.153   8.643 -1.6710  1.3356  0.2184
 5578SOL     OW28192   3.268   2.761   4.509 -0.5512 -0.5926  0.0175
 5578SOL    HW128193   3.342   2.821   4.501 -0.3533 -0.9819 -1.0085
 5578SOL    HW228194   3.207   2.819   4.463 -1.1828 -1.6644 -0.4830
 5579SOL     OW28195   4.702   2.695   0.382  0.1465  0.3609 -0.1021
 5579SOL    HW128196   4.716   2.735   0.468 -0.4514 -2.1734  1.1602
 5579SOL    HW228197   0.033   2.752   0.326  2.7378  0.7207  2.6905
 5580SOL     OW28198   1.130   1.953   0.608  0.1434  0.0285 -0.2175
 5580SOL    HW128199   1.048   1.921   0.572  0.6402 -1.9016  0.3595
 5580SOL    HW228200   1.109   2.046   0.613  0.5454 -0.0661  2.9512
 5581SOL     OW28201   2.312   1.273  17.454 -0.0717  0.1059 -0.0260
 5581SOL    HW128202   2.318   1.366  17.478 -0.3592 -0.2598  1.4255
 5581SOL    HW228203   2.253   1.268  17.378 -2.3695  1.6691  1.6447
 5582SOL     OW28204   4.063   2.606   8.833  0.0364  0.3856  0.2746
 5582SOL    HW128205   3.975   2.597   8.871 -0.0838 -0.6246 -0.2262
 5582SOL    HW228206   4.073   2.698   8.809  0.7144  0.3000  0.2287
 5583SOL     OW28207   3.842   0.510   8.310 -0.0289  0.1486 -0.5943
 5583SOL    HW128208   3.752   0.494   8.282 -0.7971  1.2739  1.2251
 5583SOL    HW228209   3.833   0.524   8.404 -0.6302 -0.0226 -0.6271
 5584SOL     OW28210   4.526   2.632   2.331  0.0017 -0.4064  0.3697
 5584SOL    HW128211   4.498   2.694   2.264  1.3576  0.7178  0.8499
 5584SOL    HW228212   4.534   2.547   2.287 -3.2257 -0.1572 -0.6940
 5585SOL     OW28213   0.555   1.756  16.564 -0.6162 -0.5995  0.1936
 5585SOL    HW128214   0.499   1.739  16.640  0.3203 -0.9415  0.8079
 5585SOL    HW228215   0.517   1.841  16.544  0.4820 -0.6944 -2.3234
 5586SOL     OW28216   0.634   3.368  16.862 -0.3496  0.3421  0.5144
 5586SOL    HW128217   0.548   3.341  16.895 -0.8148  0.3023 -0.7372
 5586SOL    HW228218   0.677   3.283  16.860 -0.9313  0.1321 -2.8281
 5587SOL     OW28219   4.260   4.570   9.843  0.4449  0.3766  0.5876
 5587SOL    HW128220   4.344   4.575   9.888 -0.0432 -0.9160  1.6395
 5587SOL    HW228221   4.207   4.631   9.894  0.7323 -0.0959  1.4550
 5588SOL     OW28222   1.213   4.190  10.722 -0.1551 -1.3760 -0.4041
 5588SOL    HW128223   1.224   4.181  10.627  0.8734  1.3334 -0.5353
 5588SOL    HW228224   1.245   4.279  10.735 -2.7484 -0.5553  0.3647
 5589SOL     OW28225   0.579   4.343   3.314  0.0298  0.1676  0.7578
 5589SOL    HW128226   0.660   4.356   3.364  0.8244 -0.6834 -0.3184
 5589SOL    HW228227   0.576   4.439   3.306  0.6895  0.2218  1.1727
 5590SOL     OW28228   0.689   0.711   2.672 -0.1803 -0.0872 -0.0461
 5590SOL    HW128229   0.743   0.634   2.656  1.0893  0.4370  1.6533
 5590SOL    HW228230   0.644   0.679   2.750 -0.5746 -1.2602 -0.7708
 5591SOL     OW28231   0.506   4.215   1.714 -0.1613 -0.4681 -0.1841
 5591SOL    HW128232   0.583   4.178   1.756  0.3378  0.6047 -0.1704
 5591SOL    HW228233   0.442   4.218   1.785 -1.4398  0.6330 -1.3781
 5592SOL     OW28234   2.455   4.563   2.619 -0.2876 -0.7149  0.0542
 5592SOL    HW128235   2.439   4.513   2.699 -1.4120 -0.1062  0.2102
 5592SOL    HW228236   2.464   4.653   2.649  0.1448 -0.8889  0.4524
 5593SOL     OW28237   2.630   2.351   6.970  0.4649 -0.1799  0.0248
 5593SOL    HW128238   2.725   2.344   6.981  0.2992 -1.1071  0.8935
 5593SOL    HW228239   2.608   2.262   6.996  2.9140 -0.5405  0.9100
 5594SOL     OW28240   2.888   1.285   0.524  0.1793 -1.1383  0.2773
 5594SOL    HW128241   2.977   1.301   0.555 -0.5976 -1.5621  2.7565
 5594SOL    HW228242   2.870   1.343   0.450 -0.2009 -1.2405  0.2926
 5595SOL     OW28243   2.506   2.216   5.640  0.0289  0.7286 -0.0257
 5595SOL    HW128244   2.441   2.147   5.653  0.2152  0.5862  0.1519
 5595SOL    HW228245   2.591   2.173   5.646 -0.3838  0.1389  1.8794
 5596SOL     OW28246   1.053   1.415   9.342 -0.5408  0.7618  0.6383
 5596SOL    HW128247   1.060   1.333   9.391  0.5091  0.2411 -0.3540
 5596SOL    HW228248   1.097   1.489   9.383  1.1462  1.0529 -1.6773
 5597SOL     OW28249   0.345   1.502   7.258  0.2759  0.0438 -0.0134
 5597SOL    HW128250   0.439   1.487   7.254  0.6353  1.7795  2.1548
 5597SOL    HW228251   0.309   1.458   7.180  1.3517 -2.9778  1.2096
 5598SOL     OW28252   1.588   3.709   6.064  0.4679 -0.2763  0.2860
 5598SOL    HW128253   1.533   3.773   6.019  0.5087 -0.8987 -0.6681
 5598SOL    HW228254   1.638   3.684   5.986 -0.2463 -0.7544 -0.0316
 5599SOL     OW28255   2.366   2.974   6.121 -0.4755 -0.1307  0.1825
 5599SOL    HW128256   2.384   2.896   6.070 -2.1503  0.6982 -1.6335
 5599SOL    HW228257   2.405   2.944   6.203 -1.1351 -1.9628 -0.1859
 5600SOL     OW28258   3.409   2.207   3.036 -0.1158 -0.7423  0.0641
 5600SOL    HW128259   3.396   2.270   3.106  1.0343 -1.1058  0.6026
 5600SOL    HW228260   3.472   2.260   2.987 -2.8598 -0.7774 -3.4954
 5601SOL     OW28261   1.632   4.015   3.148  0.0769 -0.2053  0.3654
 5601SOL    HW128262   1.572   3.943   3.127  0.4795 -0.6100  0.6041
 5601SOL    HW228263   1.591   4.089   3.103 -0.3835 -0.8766 -0.3288
 5602SOL     OW28264   2.025   3.610  11.142  0.0634  0.1659  0.7403
 5602SOL    HW128265   1.981   3.691  11.116 -0.5209 -0.4174 -0.0795
 5602SOL    HW228266   1.961   3.577  11.206 -1.7735  0.8614 -0.7489
 5603SOL     OW28267   0.099   2.810  14.962  0.2782 -0.3990 -0.3244
 5603SOL    HW128268   0.039   2.790  15.033  1.0743 -2.2311 -0.1594
 5603SOL    HW228269   0.075   2.741  14.900 -0.5734 -0.0086 -0.4174
 5604SOL     OW28270   3.884   1.053   6.706  0.0458 -0.2092  0.0489
 5604SOL    HW128271   3.849   1.127   6.656 -0.4120 -0.2292  0.3490
 5604SOL    HW228272   3.808   0.998   6.722 -0.4234  0.7981  1.2703
 5605SOL     OW28273   1.592   4.703   8.101  0.0508  0.1372  0.0623
 5605SOL    HW128274   1.605   4.620   8.146  0.8596 -1.0975 -2.4780
 5605SOL    HW228275   1.632   0.051   8.153 -1.3519  0.0266  1.3113
 5606SOL     OW28276   3.174   1.826   6.985 -0.2135  0.8871 -0.3288
 5606SOL    HW128277   3.269   1.817   6.975  0.0055  3.4951 -0.5415
 5606SOL    HW228278   3.157   1.850   7.076 -2.1571  0.0512 -0.4799
 5607SOL     OW28279   3.427   0.848  15.568 -0.0265 -0.1099  0.3484
 5607SOL    HW128280   3.490   0.799  15.516 -1.6067 -1.0216 -0.7215
 5607SOL    HW228281   3.401   0.926  15.519 -0.0708 -0.7912 -0.7125
 5608SOL     OW28282   1.557   4.585  11.618  0.2655  0.0420  0.3075
 5608SOL    HW128283   1.570   4.657  11.556  1.7914 -0.5519 -0.0682
 5608SOL    HW228284   1.572   4.626  11.702 -0.7317 -1.7264  1.3481
 5609SOL     OW28285   0.627   0.547   6.459 -0.0781 -0.0950 -0.1918
 5609SOL    HW128286   0.599   0.456   6.454 -1.7099  0.3624  0.9052
 5609SOL    HW228287   0.717   0.529   6.487  0.3989 -0.0019 -1.6584
 5610SOL     OW28288   0.236   4.185   6.245  0.2627  0.5637  0.3956
 5610SOL    HW128289   0.329   4.201   6.232 -0.1786  2.9696  0.2235
 5610SOL    HW228290   0.196   4.269   6.221  0.0546  1.1103  2.5863
 5611SOL     OW28291   0.253   1.915   9.213 -0.3956 -0.6003 -0.3663
 5611SOL    HW128292   0.272   1.831   9.254 -2.0537 -0.7308  0.1271
 5611SOL    HW228293   0.190   1.895   9.144 -2.4958  1.7746  0.8670
 5612SOL     OW28294   0.075   0.153   1.882  0.2627  0.3984  0.5782
 5612SOL    HW128295   0.147   0.210   1.907  0.1701  1.2723 -1.1164
 5612SOL    HW228296   0.122   0.083   1.836 -0.8173 -0.3686  0.6450
 5613SOL     OW28297   2.916   1.227   5.590  0.1845 -0.2745  0.1177
 5613SOL    HW128298   2.923   1.313   5.550  2.0301  0.6130  2.3565
 5613SOL    HW228299   2.843   1.244   5.650 -0.5312 -2.0485 -0.2222
 5614SOL     OW28300   2.696   4.364   1.145 -0.2628 -0.1639  0.3980
 5614SOL    HW128301   2.615   4.320   1.118 -0.4616  0.5791 -0.2281
 5614SOL    HW228302   2.745   4.289   1.179 -2.8932 -0.9160  2.4966
 5615SOL     OW28303   3.423   3.548   3.294 -0.1678 -0.2537 -0.1938
 5615SOL    HW128304   3.477   3.533   3.217 -1.8836 -0.1339 -1.4254
 5615SOL    HW228305   3.495   3.556   3.357 -1.3704 -0.1351  1.1817
 5616SOL     OW28306   2.895   0.755   9.730  0.2321 -0.3029 -0.2626
 5616SOL    HW128307   2.876   0.846   9.752  3.5684 -0.3448  2.6698
 5616SOL    HW228308   2.809   0.720   9.753 -0.7832  3.1445  1.0976
 5617SOL     OW28309   3.799   0.091   2.102  0.5068  0.4610  0.2361
 5617SOL    HW128310   3.892   0.071   2.118  0.1368 -2.1396 -0.8868
 5617SOL    HW228311   3.808   0.164   2.040 -0.8806  0.7170  0.3366
 5618SOL     OW28312   2.004   2.596   7.559  0.1513  0.5826  0.4185
 5618SOL    HW128313   2.096   2.613   7.580  1.0706 -3.2371 -0.5391
 5618SOL    HW228314   2.005   2.595   7.464  0.4233  1.3985  0.4160
 5619SOL     OW28315   1.455   3.903  14.153 -0.1108  0.1819 -0.7605
 5619SOL    HW128316   1.405   3.893  14.233  0.2101  4.0151 -0.0425
 5619SOL    HW228317   1.538   3.946  14.177 -0.9314  1.9595 -1.0708
 5620SOL     OW28318   4.056   3.119   5.200 -0.1430 -0.3274 -0.2877
 5620SOL    HW128319   3.996   3.192   5.187 -0.5350 -0.6563 -0.2987
 5620SOL    HW228320   4.133   3.157   5.243 -0.9247  0.4484  0.4217
 5621SOL     OW28321   4.712   2.439  16.230  0.2097  1.2807 -0.0664
 5621SOL    HW128322   4.640   2.448  16.292 -1.4206 -0.6732 -1.6746
 5621SOL    HW228323   0.021   2.357  16.268  1.1328  1.1079 -1.1845
 5622SOL     OW28324   0.776   2.867   1.424 -0.3094 -0.1531  0.2912
 5622SOL    HW128325   0.740   2.779   1.434  2.3260 -0.9247  2.8191
 5622SOL    HW228326   0.807   2.867   1.333 -0.8428  0.0820  0.1094
 5623SOL     OW28327   1.492   0.346   4.396  0.7066 -0.5085  0.1594
 5623SOL    HW128328   1.455   0.292   4.466  3.0079  2.0462  3.3769
 5623SOL    HW228329   1.438   0.316   4.323 -0.8324  2.7268 -0.0225
 5624SOL     OW28330   4.493   0.069   0.125  0.1431 -0.2460 -0.2557
 5624SOL    HW128331   4.542   0.008   0.181  0.4954 -0.2297 -0.5435
 5624SOL    HW228332   4.423   0.100   0.182  1.5961 -0.0629  1.3994
 5625SOL     OW28333   4.180   1.634   9.894  0.2207 -0.0831 -0.0894
 5625SOL    HW128334   4.272   1.660   9.901  0.5144 -0.9862 -0.6883
 5625SOL    HW228335   4.152   1.710   9.842  0.9934  0.8797  0.8828
 5626SOL     OW28336   4.146   0.667   7.063 -0.6324 -0.1132  0.4394
 5626SOL    HW128337   4.180   0.648   6.976 -0.0132 -1.6130  1.0053
 5626SOL    HW228338   4.051   0.676   7.063 -0.6578 -0.3062  2.6339
 5627SOL     OW28339   0.974   4.170   8.855 -0.2501  0.0602 -0.0134
 5627SOL    HW128340   0.947   4.252   8.897 -1.8804  0.1997 -1.3735
 5627SOL    HW228341   1.018   4.140   8.935 -3.3607  0.5520  1.8791
 5628SOL     OW28342   1.203   3.050   4.422  0.4940  0.1532 -0.1771
 5628SOL    HW128343   1.259   3.124   4.398  2.4539 -1.4624 -0.6065
 5628SOL    HW228344   1.218   2.989   4.349  2.7180 -0.8638  1.1313
 5629SOL     OW28345   1.359   0.552   7.968 -0.7534 -0.0111 -0.2130
 5629SOL    HW128346   1.293   0.495   8.005  0.7097 -0.0724  2.3498
 5629SOL    HW228347   1.307   0.626   7.936 -0.9727  0.3746  1.0341
 5630SOL     OW28348   0.597   3.735   7.199 -0.0336  0.2587 -0.2273
 5630SOL    HW128349   0.515   3.780   7.181 -0.0922  0.4329  0.4757
 5630SOL    HW228350   0.653   3.812   7.186 -1.4364  1.7571  2.4630
 5631SOL     OW28351   4.515   4.190   3.839  0.6378 -0.7107 -0.2173
 5631SOL    HW128352   4.605   4.160   3.826  1.1748  0.9767 -0.3765
 5631SOL    HW228353   4.460   4.121   3.801 -0.3379 -0.4146  0.6709
 5632SOL     OW28354   0.856   3.592  15.582  0.5846  0.5762  0.4518
 5632SOL    HW128355   0.802   3.663  15.617  0.7489 -0.1166  2.1026
 5632SOL    HW228356   0.943   3.614  15.614  0.6162  0.4777  0.4326
 5633SOL     OW28357   2.005   1.335   4.914 -0.1342  0.1881  1.4590
 5633SOL    HW128358   2.025   1.386   4.992  0.4194  0.8484  0.8837
 5633SOL    HW228359   2.081   1.277   4.908 -0.0506  0.8396 -3.5251
 5634SOL     OW28360   1.614   0.506   7.886 -0.4450 -0.8433  0.3621
 5634SOL    HW128361   1.528   0.534   7.918 -0.3062 -2.5063  2.1957
 5634SOL    HW228362   1.610   0.415   7.917  0.6961 -0.5879  1.2863
 5635SOL     OW28363   2.922   2.594  16.584  0.3332 -0.0053 -0.2501
 5635SOL    HW128364   2.856   2.664  16.584  1.8409  1.4329  2.1425
 5635SOL    HW228365   2.894   2.542  16.659 -0.4243 -0.9761 -1.2122
 5636SOL     OW28366   3.689   2.858   8.712 -0.4911  0.7796  0.3840
 5636SOL    HW128367   3.648   2.804   8.645  0.6393  0.2120  0.1594
 5636SOL    HW228368   3.754   2.903   8.658  0.6273 -1.4473 -0.0982
 5637SOL     OW28369   2.328   0.948   7.042 -0.9271  0.0584  0.8676
 5637SOL    HW128370   2.399   0.977   7.098 -0.5322 -2.1619  1.5328
 5637SOL    HW228371   2.350   0.858   7.018 -2.2227 -0.0558  0.0967
 5638SOL     OW28372   4.304   1.821   7.021  0.1083 -0.1981  0.3991
 5638SOL    HW128373   4.288   1.732   7.053 -1.1286 -0.5995 -1.3530
 5638SOL    HW228374   4.231   1.875   7.049  0.4585 -0.1791  1.2857
 5639SOL     OW28375   4.102   4.370   3.141  0.1642 -0.5130  0.0223
 5639SOL    HW128376   4.156   4.308   3.091 -0.8028 -0.5824 -0.9463
 5639SOL    HW228377   4.175   4.408   3.189 -0.5636  0.4005  0.3984
 5640SOL     OW28378   0.720   3.301   9.175  0.3578  0.2471  0.0243
 5640SOL    HW128379   0.634   3.269   9.203  0.2428 -0.8326 -1.5929
 5640SOL    HW228380   0.782   3.270   9.241  0.4765 -1.4719 -0.9070
 5641SOL     OW28381   2.734   0.097   2.845  0.1262  0.0058  0.3168
 5641SOL    HW128382   2.646   0.104   2.807 -0.2775 -0.7695  1.1029
 5641SOL    HW228383   2.782   0.140   2.774 -1.0592 -0.9532 -1.0627
 5642SOL     OW28384   1.974   1.414   2.525  0.4973 -0.0911  0.0295
 5642SOL    HW128385   1.949   1.476   2.593  0.6475  0.4538 -0.4086
 5642SOL    HW228386   2.060   1.452   2.510  0.1892 -0.3220 -2.3366
 5643SOL     OW28387   2.041   3.264  16.295  0.1423  0.0564  0.6915
 5643SOL    HW128388   2.063   3.318  16.220  0.5467  2.7702  2.7538
 5643SOL    HW228389   1.953   3.300  16.310  0.1223  0.3897 -0.2235
 5644SOL     OW28390   0.336   2.939   5.285  0.8192  0.1422  0.1366
 5644SOL    HW128391   0.287   2.976   5.359  3.3452  3.8757 -0.0393
 5644SOL    HW228392   0.282   2.872   5.243  0.9605  0.2611 -0.2335
 5645SOL     OW28393   0.483   3.393  14.898 -0.0824 -0.0445 -0.0531
 5645SOL    HW128394   0.496   3.304  14.933  1.2417  0.2100  0.0859
 5645SOL    HW228395   0.485   3.369  14.806  2.9197  1.7160 -0.4529
 5646SOL     OW28396   3.027   3.049   3.603  0.8924  0.1902 -0.2011
 5646SOL    HW128397   3.017   3.139   3.572  0.7568 -0.1673 -1.1815
 5646SOL    HW228398   3.099   3.055   3.666  2.3840  0.4614 -1.9514
 5647SOL     OW28399   3.328   1.133  12.260  0.2662  0.1694  0.2584
 5647SOL    HW128400   3.368   1.103  12.342 -0.1856 -1.5557 -0.1561
 5647SOL    HW228401   3.358   1.072  12.192  0.5497 -0.2701  0.7798
 5648SOL     OW28402   0.880   0.991  13.925  0.1670  0.3482 -0.1957
 5648SOL    HW128403   0.956   1.048  13.935 -0.0246  0.2872  1.5921
 5648SOL    HW228404   0.815   1.048  13.967 -1.0660 -0.3080 -1.2359
 5649SOL     OW28405   0.706   1.111   4.802  0.1134 -0.3199 -0.5315
 5649SOL    HW128406   0.614   1.130   4.819  0.4254  1.0623 -0.4132
 5649SOL    HW228407   0.708   1.015   4.797  0.6247 -0.3838  0.7828
 5650SOL     OW28408   3.164   4.240   3.507 -0.2629  1.1330 -0.5230
 5650SOL    HW128409   3.089   4.297   3.489  0.2768  2.0889  0.2244
 5650SOL    HW228410   3.125   4.155   3.487  1.3984  0.5955 -1.5088
 5651SOL     OW28411   4.027   4.564  13.857 -0.7572  0.1316  0.2302
 5651SOL    HW128412   3.973   4.619  13.800  1.8694  1.2542 -1.1498
 5651SOL    HW228413   4.113   4.602  13.842  0.0056 -1.0656  1.6277
 5652SOL     OW28414   4.208   3.897   2.994  0.4443 -0.2890 -0.2812
 5652SOL    HW128415   4.243   3.958   3.059 -1.2947  0.0067  0.3582
 5652SOL    HW228416   4.127   3.947   2.988  0.5086 -0.1905 -0.3239
 5653SOL     OW28417   3.991   1.082   8.223 -0.1921 -0.4543 -0.3675
 5653SOL    HW128418   3.917   1.041   8.268 -0.0693 -0.0515  0.2152
 5653SOL    HW228419   3.983   1.043   8.136 -1.8966 -1.5587  0.2704
 5654SOL     OW28420   4.024   4.646   2.172 -0.4332  0.2213  0.5662
 5654SOL    HW128421   3.940   4.610   2.143  0.9011 -0.5407 -2.3535
 5654SOL    HW228422   4.071   4.577   2.218  2.4849  1.0600 -1.1401
 5655SOL     OW28423   0.184   3.652   0.557  0.1142  0.4238  0.2949
 5655SOL    HW128424   0.256   3.637   0.496  0.2042 -0.9453  0.7373
 5655SOL    HW228425   0.180   3.576   0.615  1.5901  1.7690  2.1877
 5656SOL     OW28426   4.187   3.836   8.780  0.0809 -0.5339 -0.0213
 5656SOL    HW128427   4.254   3.827   8.848  2.5412 -0.8028 -2.4393
 5656SOL    HW228428   4.213   3.920   8.741  0.2671 -0.5739  0.0147
 5657SOL     OW28429   0.939   0.542  10.075  0.1744 -0.5283 -0.1273
 5657SOL    HW128430   0.907   0.624  10.112 -1.2757 -0.6862 -1.0169
 5657SOL    HW228431   0.980   0.500  10.151  1.5770  1.1579  0.0396
 5658SOL     OW28432   3.451   3.248   9.114 -0.5789  0.1762  0.0506
 5658SOL    HW128433   3.454   3.205   9.028  0.5464 -0.7285  0.5374
 5658SOL    HW228434   3.401   3.327   9.094 -0.8790  0.0599  0.3306
 5659SOL     OW28435   2.285   4.682   7.720 -0.4194  0.6225  0.6113
 5659SOL    HW128436   2.366   0.008   7.705  0.1868 -1.4845 -2.8054
 5659SOL    HW228437   2.265   4.677   7.627 -0.2276 -0.4869  0.6362
 5660SOL     OW28438   1.573   0.315   4.908 -0.4891 -0.0280  0.2904
 5660SOL    HW128439   1.485   0.338   4.879  0.4932  0.7021 -2.0639
 5660SOL    HW228440   1.597   0.386   4.967 -0.0606  0.8234 -0.9058
 5661SOL     OW28441   0.823   0.494   1.932  1.0196  0.0248 -0.0926
 5661SOL    HW128442   0.862   0.506   1.846 -0.0911 -1.5280 -0.7949
 5661SOL    HW228443   0.886   0.542   1.987  3.0241 -0.2598 -2.1677
 5662SOL     OW28444   1.767   1.942  17.029  0.1917 -0.2543 -0.4894
 5662SOL    HW128445   1.825   2.003  16.984 -2.1659  1.4999 -1.1726
 5662SOL    HW228446   1.784   1.967  17.120 -0.0039 -0.3726 -0.4200
 5663SOL     OW28447   2.046   3.161  15.776  0.1942  0.2113 -0.8600
 5663SOL    HW128448   2.118   3.120  15.728  1.0572  0.5680  0.1328
 5663SOL    HW228449   2.065   3.255  15.776 -2.3965  0.7355  0.0090
 5664SOL     OW28450   0.955   4.116  12.895  0.5643  0.3064 -0.3272
 5664SOL    HW128451   1.015   4.076  12.958  0.3783  2.0466  0.9768
 5664SOL    HW228452   0.931   4.199  12.937 -2.3144 -2.0548  2.7060
 5665SOL     OW28453   0.986   3.377   9.319  0.2952  0.1607  0.4619
 5665SOL    HW128454   0.925   3.441   9.356  1.5227 -0.0610  2.8311
 5665SOL    HW228455   1.067   3.395   9.367  0.9670  0.5467 -0.8098
 5666SOL     OW28456   1.750   1.103   6.090 -0.1843 -0.2942  0.7091
 5666SOL    HW128457   1.712   1.163   6.153 -2.9073 -0.9968 -0.2501
 5666SOL    HW228458   1.751   1.017   6.133  1.8084 -1.7875 -2.2917
 5667SOL     OW28459   3.833   2.981   9.024  0.4101  0.2102 -0.7841
 5667SOL    HW128460   3.897   2.958   9.092 -2.9102  1.0756  2.6582
 5667SOL    HW228461   3.760   2.922   9.045  0.2597  1.2310  1.6468
 5668SOL     OW28462   0.436   0.147  16.842 -0.2821 -0.2148 -0.5979
 5668SOL    HW128463   0.438   0.059  16.803  0.2100 -0.3651 -0.2364
 5668SOL    HW228464   0.403   0.129  16.930  1.7975 -0.2174  0.1765
 5669SOL     OW28465   1.281   1.975   6.099 -0.3846  0.4892 -0.1053
 5669SOL    HW128466   1.240   2.028   6.031  0.8411  1.8116  0.1710
 5669SOL    HW228467   1.298   1.895   6.049 -1.3291 -0.7324  1.5357
 5670SOL     OW28468   1.804   1.163   8.780  0.4959 -0.0561  0.0427
 5670SOL    HW128469   1.785   1.115   8.861  0.7621 -0.5066 -0.1628
 5670SOL    HW228470   1.899   1.173   8.791  0.7236 -0.8594 -1.1678
 5671SOL     OW28471   0.638   2.430   4.976  0.4195 -0.8640  0.5309
 5671SOL    HW128472   0.632   2.426   5.071 -0.7391  1.9145  0.5682
 5671SOL    HW228473   0.602   2.516   4.957 -0.9328 -0.9302  2.8166
 5672SOL     OW28474   2.203   0.008   6.729  0.2147  0.3972 -0.5581
 5672SOL    HW128475   2.188   4.636   6.719  2.0528  0.0037  0.3983
 5672SOL    HW228476   2.178   0.047   6.646  0.3668 -0.0733 -0.8232
 5673SOL     OW28477   0.996   2.864   2.020  0.4843  0.2179 -0.5049
 5673SOL    HW128478   0.968   2.945   2.063  1.1581  0.4247 -0.4574
 5673SOL    HW228479   0.918   2.810   2.035  0.6366  1.0810  3.5738
 5674SOL     OW28480   0.237   0.991  16.565 -0.2186 -0.4824  0.0922
 5674SOL    HW128481   0.290   1.066  16.541  0.1889 -0.2634  1.6865
 5674SOL    HW228482   0.156   1.041  16.562 -1.0628 -1.8175  0.1750
 5675SOL     OW28483   2.948   3.053   2.694 -0.0001 -0.4137 -0.2768
 5675SOL    HW128484   2.883   3.121   2.677 -0.4784 -0.4284  1.4351
 5675SOL    HW228485   2.976   3.042   2.604  0.3992  2.6702 -0.5288
 5676SOL     OW28486   2.856   3.688   2.634  0.1430  0.6186 -0.7208
 5676SOL    HW128487   2.777   3.731   2.603 -0.9115  0.2659  1.4822
 5676SOL    HW228488   2.834   3.598   2.613 -3.1859  1.1534  0.4680
 5677SOL     OW28489   1.560   2.190   3.271 -0.1202 -0.9704 -0.3667
 5677SOL    HW128490   1.541   2.117   3.212  0.0765 -0.8958 -0.5241
 5677SOL    HW228491   1.518   2.173   3.355  0.7619 -1.8745 -0.0996
 5678SOL     OW28492   3.577   0.475  14.237 -0.0517 -0.2188 -0.1049
 5678SOL    HW128493   3.526   0.517  14.307  0.4717  1.1644 -0.5361
 5678SOL    HW228494   3.529   0.393  14.226  0.1994 -0.8051  2.9658
 5679SOL     OW28495   2.027   3.469  15.841  0.1878  0.0003  0.1661
 5679SOL    HW128496   2.080   3.533  15.793 -0.3852 -0.4168 -1.0329
 5679SOL    HW228497   1.938   3.500  15.822 -1.0902 -3.5359  0.4942
 5680SOL     OW28498   0.005   2.388  15.499  0.3729  0.1473 -0.7128
 5680SOL    HW128499   4.644   2.343  15.509  0.0906  0.6166 -0.9428
 5680SOL    HW228500   0.060   2.352  15.569 -0.6495 -0.6845 -0.3378
 5681SOL     OW28501   0.614   0.500  17.526 -0.1371  1.0390 -0.2685
 5681SOL    HW128502   0.658   0.417  17.542 -0.5859  0.9393  0.4357
 5681SOL    HW228503   0.685   0.544  17.480 -0.5516  0.8934 -1.0500
 5682SOL     OW28504   1.670   2.900   2.759  0.0888 -0.1474 -0.4923
 5682SOL    HW128505   1.724   2.848   2.819  1.1608  0.2767 -1.0923
 5682SOL    HW228506   1.636   2.836   2.697  0.1660 -1.0014  0.3450
 5683SOL     OW28507   0.167   2.838  17.525  0.0708 -1.4359 -0.6205
 5683SOL    HW128508   0.133   2.792  17.448 -0.9209  0.9314 -1.5955
 5683SOL    HW228509   0.097   2.900  17.544  1.2206  0.3197 -2.0693
 5684SOL     OW28510   0.853   4.662   3.376 -0.1993 -0.7807  0.5299
 5684SOL    HW128511   0.874   0.002   3.446 -2.1596  0.4278  0.0312
 5684SOL    HW228512   0.928   4.673   3.317 -0.9339 -0.8752 -0.4168
 5685SOL     OW28513   4.690   4.459  10.237 -0.4114 -0.3189 -0.1066
 5685SOL    HW128514   4.609   4.415  10.211 -2.9071  2.2970  3.3219
 5685SOL    HW228515   0.032   4.459  10.165 -0.8033  1.3365 -0.4438
 5686SOL     OW28516   2.026   0.646   2.843  0.0237 -0.2033 -0.4515
 5686SOL    HW128517   2.073   0.700   2.907  1.5076 -1.8761 -0.1304
 5686SOL    HW228518   2.001   0.710   2.776  0.3572 -0.0220 -0.4042
 5687SOL     OW28519   2.488   3.536   1.672 -0.6879 -0.3313  0.0267
 5687SOL    HW128520   2.563   3.572   1.720 -1.4069  1.7125 -0.3668
 5687SOL    HW228521   2.531   3.477   1.609  3.2122  0.7279  1.6958
 5688SOL     OW28522   1.187   2.586   8.444  0.3246  0.2492  0.4145
 5688SOL    HW128523   1.121   2.631   8.391 -1.3608 -3.2313 -0.4924
 5688SOL    HW228524   1.256   2.583   8.378  1.2858  1.4047  1.3795
 5689SOL     OW28525   3.573   2.579   3.234  0.0338  0.2016 -0.4714
 5689SOL    HW128526   3.639   2.601   3.168  1.5162 -0.3436  0.8328
 5689SOL    HW228527   3.613   2.596   3.319 -0.1827 -0.8672 -0.1494
 5690SOL     OW28528   1.975   1.419   7.401 -0.0895 -0.1237 -0.2999
 5690SOL    HW128529   2.021   1.382   7.476 -0.0337  1.3333  0.3809
 5690SOL    HW228530   1.958   1.333   7.364 -0.2207 -0.2741  0.1129
 5691SOL     OW28531   3.209   3.700   3.190  0.2643 -0.3380  0.0492
 5691SOL    HW128532   3.284   3.660   3.233 -0.9432 -0.8291  1.6835
 5691SOL    HW228533   3.211   3.665   3.101 -2.1035 -1.1471  0.2873
 5692SOL     OW28534   4.703   3.497  16.063 -0.5687 -0.0273  0.3387
 5692SOL    HW128535   4.641   3.570  16.059 -0.6891 -0.0738  1.3994
 5692SOL    HW228536   0.059   3.550  16.076 -1.4504  1.7780 -1.5662
 5693SOL     OW28537   3.338   4.077  14.716  0.2170  0.0855 -0.1707
 5693SOL    HW128538   3.297   4.005  14.667 -0.9562  1.2780 -0.9455
 5693SOL    HW228539   3.404   4.024  14.759  0.9744  0.3592 -0.9910
 5694SOL     OW28540   3.711   0.982  12.371 -0.1140  0.4386  0.0251
 5694SOL    HW128541   3.776   1.021  12.428 -0.9115  4.5994 -1.9420
 5694SOL    HW228542   3.730   1.040  12.297 -0.1907  0.0806 -0.2823
 5695SOL     OW28543   1.528   1.324  12.149 -0.6712  0.2059  0.2857
 5695SOL    HW128544   1.605   1.368  12.186 -1.4471  1.0180  0.9518
 5695SOL    HW228545   1.471   1.400  12.134  2.1464  2.4682  0.9940
 5696SOL     OW28546   4.720   4.547   9.318 -0.2139  0.2560 -0.1237
 5696SOL    HW128547   0.088   4.533   9.291 -0.4089 -3.4370  1.1654
 5696SOL    HW228548   4.706   4.623   9.262  0.2617  0.3306 -0.1433
 5697SOL     OW28549   0.971   1.953   6.434  0.4718  0.3807  0.2800
 5697SOL    HW128550   0.939   1.981   6.348  0.7790  3.2112  1.0683
 5697SOL    HW228551   1.057   1.995   6.427 -0.0871  1.8157  1.8150
 5698SOL     OW28552   3.293   0.337   3.946  0.5136  0.0276 -0.3055
 5698SOL    HW128553   3.241   0.418   3.944 -0.7398 -0.7769 -0.0433
 5698SOL    HW228554   3.381   0.371   3.958  0.5195 -0.2002  0.3202
 5699SOL     OW28555   4.493   1.405   4.577 -0.2641  0.2521  0.1960
 5699SOL    HW128556   4.501   1.500   4.575  1.1159  0.0767 -1.9952
 5699SOL    HW228557   4.461   1.401   4.667 -0.1717  2.4687  0.3332
 5700SOL     OW28558   1.856   4.638   5.562 -0.1844  0.3798 -0.1917
 5700SOL    HW128559   1.947   4.639   5.535 -0.4252  0.6788 -0.9804
 5700SOL    HW228560   1.854   4.669   5.653 -2.4762 -0.1824 -0.0387
 5701SOL     OW28561   2.024   3.126   3.472 -0.0846 -0.7097 -0.6050
 5701SOL    HW128562   2.009   3.166   3.558  1.4810 -0.0299 -0.6332
 5701SOL    HW228563   2.027   3.033   3.494  0.0873 -0.7711 -0.8952
 5702SOL     OW28564   3.549   1.204   4.251  0.0966  0.2211 -0.3614
 5702SOL    HW128565   3.622   1.197   4.312 -1.1392  1.1220  1.2336
 5702SOL    HW228566   3.485   1.142   4.287 -1.2810  1.8040 -0.0528
 5703SOL     OW28567   3.590   1.275   2.142 -0.0653  0.2228 -0.0359
 5703SOL    HW128568   3.513   1.224   2.119  0.9759 -0.0348 -3.0032
 5703SOL    HW228569   3.646   1.198   2.148 -0.4091 -0.0026  0.2640
 5704SOL     OW28570   0.212   3.620   3.443 -0.4532 -0.3531  0.1348
 5704SOL    HW128571   0.210   3.673   3.363 -0.4908 -0.0156  0.3569
 5704SOL    HW228572   0.123   3.583   3.445  0.0015 -1.4633 -0.1546
 5705SOL     OW28573   0.544   4.019   3.910  0.6453  0.4331 -0.6258
 5705SOL    HW128574   0.520   3.943   3.857 -2.0884 -0.8450  2.4745
 5705SOL    HW228575   0.586   3.984   3.988  0.9700 -0.5337 -1.2300
 5706SOL     OW28576   0.372   3.916  12.042 -0.6099 -0.3017 -0.3406
 5706SOL    HW128577   0.403   3.830  12.072 -0.2546 -0.0254  0.0868
 5706SOL    HW228578   0.369   3.907  11.947  0.5235 -0.5866 -0.3611
 5707SOL     OW28579   3.683   0.470   1.735  0.2198 -0.0989  0.3900
 5707SOL    HW128580   3.767   0.515   1.733  0.1487  0.0833  1.2990
 5707SOL    HW228581   3.632   0.528   1.793  1.5130  0.2359  1.1956
 5708SOL     OW28582   3.164   3.478  11.340 -0.3147 -0.1799  0.4671
 5708SOL    HW128583   3.196   3.567  11.357 -0.7423  0.0499  0.0652
 5708SOL    HW228584   3.108   3.512  11.270  0.7811 -1.0235 -0.8245
 5709SOL     OW28585   3.494   1.180   4.638  0.2132  0.0911  0.2100
 5709SOL    HW128586   3.559   1.195   4.570  1.6118 -0.1941  1.4910
 5709SOL    HW228587   3.550   1.170   4.715  2.7628  0.5418 -1.5826
 5710SOL     OW28588   3.454   0.008   1.851  1.0121 -0.0846 -0.7445
 5710SOL    HW128589   3.479   0.088   1.805 -2.1063  1.3058 -0.0293
 5710SOL    HW228590   3.435   0.041   1.939  1.3407 -1.7536 -0.0458
 5711SOL     OW28591   4.424   2.841   6.229 -0.4468  0.8162  0.3160
 5711SOL    HW128592   4.412   2.763   6.283 -1.9944  0.2076 -0.9009
 5711SOL    HW228593   4.494   2.891   6.271  0.2253  0.3449 -0.2377
 5712SOL     OW28594   4.460   4.517   6.978 -0.2099 -0.3016  0.7497
 5712SOL    HW128595   4.370   4.515   7.009 -0.6272  1.2919 -0.3422
 5712SOL    HW228596   4.492   4.428   6.988 -0.6027 -0.5054  0.2445
 5713SOL     OW28597   4.317   0.577   8.677 -0.2473 -0.3815  0.0621
 5713SOL    HW128598   4.297   0.594   8.585  1.3007  1.6601  0.0976
 5713SOL    HW228599   4.242   0.527   8.707 -1.2519  1.5322  0.7168
 5714SOL     OW28600   4.507   1.528   8.275 -0.3828  0.3570 -0.2709
 5714SOL    HW128601   4.556   1.472   8.336  0.4845 -0.6411 -1.8805
 5714SOL    HW228602   4.481   1.599   8.333  1.2537  0.2091  0.6441
 5715SOL     OW28603   4.209   1.247   0.495  0.2695  0.2395  0.1500
 5715SOL    HW128604   4.224   1.276   0.405 -0.8238 -0.6288 -0.3097
 5715SOL    HW228605   4.116   1.268   0.508  0.1205 -0.5564  0.3800
 5716SOL     OW28606   2.570   1.966   2.588 -0.2552 -0.0862 -0.3735
 5716SOL    HW128607   2.648   1.930   2.545 -1.1783 -2.4520 -0.0246
 5716SOL    HW228608   2.602   1.990   2.675  0.2052 -2.7449  0.1691
 5717SOL     OW28609   0.900   0.829   2.562 -0.0200  0.0694 -0.2379
 5717SOL    HW128610   0.814   0.795   2.588 -0.6226  1.9440  0.2278
 5717SOL    HW228611   0.964   0.770   2.601 -2.2930 -1.9722  0.4754
 5718SOL     OW28612   2.782   1.055  13.655  0.0037  0.4902 -0.0528
 5718SOL    HW128613   2.752   1.054  13.564  0.8979  0.0813 -0.3415
 5718SOL    HW228614   2.749   1.141  13.681 -2.9251 -0.9837  1.0010
 5719SOL     OW28615   3.159   4.424   3.212  0.0803  0.0621  0.2718
 5719SOL    HW128616   3.081   4.479   3.199 -0.5643 -0.6102  1.3136
 5719SOL    HW228617   3.126   4.367   3.281 -1.4701 -0.8088 -1.1840
 5720SOL     OW28618   0.492   2.199   6.226  0.0085 -0.2313 -0.7664
 5720SOL    HW128619   0.431   2.129   6.247  0.4627 -0.6762 -0.9294
 5720SOL    HW228620   0.520   2.221   6.315  1.2343  0.8409 -1.4128
 5721SOL     OW28621   0.697   3.455   5.368 -0.1372  0.7072  0.0361
 5721SOL    HW128622   0.609   3.475   5.400  0.0685  2.9356 -0.7548
 5721SOL    HW228623   0.689   3.369   5.327  0.2477 -0.0064  1.4576
 5722SOL     OW28624   0.164   0.103  16.118 -0.0053 -0.8183  0.3145
 5722SOL    HW128625   0.085   0.072  16.074 -0.9907  2.1877  0.0132
 5722SOL    HW228626   0.206   0.152  16.048  1.0823  0.0231  1.5341
 5723SOL     OW28627   1.348   1.715   1.646  0.5918 -0.3843  0.1147
 5723SOL    HW128628   1.420   1.691   1.705 -0.5822 -0.7426  1.4081
 5723SOL    HW228629   1.313   1.626   1.644 -1.6681  0.4390  2.1108
 5724SOL     OW28630   4.175   0.701   0.503  0.0772 -0.0453 -0.0186
 5724SOL    HW128631   4.184   0.654   0.420 -0.1495 -0.3148  0.1078
 5724SOL    HW228632   4.142   0.627   0.555 -0.5434  0.3939  0.2063
 5725SOL     OW28633   1.964   0.292   6.107 -0.3241  0.0296 -0.5580
 5725SOL    HW128634   1.968   0.221   6.043  0.7511  0.8412 -1.3838
 5725SOL    HW228635   2.058   0.308   6.116 -0.8110  1.5896  1.7652
 5726SOL     OW28636   2.354   3.224   3.642 -0.0442 -0.2206 -1.2042
 5726SOL    HW128637   2.448   3.233   3.627  0.0243 -0.8645 -1.1711
 5726SOL    HW228638   2.344   3.134   3.675  0.2974  1.2148  2.8007
 5727SOL     OW28639   3.361   0.667   8.554 -0.2049  0.8522  0.4427
 5727SOL    HW128640   3.339   0.652   8.646 -1.0541 -1.2194 -0.1024
 5727SOL    HW228641   3.293   0.613   8.514 -1.0020  1.0016  1.5888
 5728SOL     OW28642   4.330   1.386   4.356  0.0110 -0.0114 -0.4439
 5728SOL    HW128643   4.262   1.335   4.399  1.0315 -1.4191 -0.4936
 5728SOL    HW228644   4.382   1.421   4.428 -1.3333  0.5421  0.2708
 5729SOL     OW28645   2.792   1.522   8.485 -0.1284 -0.4613  0.0099
 5729SOL    HW128646   2.781   1.463   8.560  2.7035 -1.0941 -0.0723
 5729SOL    HW228647   2.753   1.464   8.419  0.4567 -2.0115  1.0266
 5730SOL     OW28648   2.834   3.803   8.161 -0.4204  0.0587  0.0798
 5730SOL    HW128649   2.829   3.723   8.109 -0.7592  0.0381  0.1476
 5730SOL    HW228650   2.748   3.808   8.202 -0.5338 -3.0479  0.2200
 5731SOL     OW28651   4.416   3.468   6.415 -0.2372 -0.4312  0.2817
 5731SOL    HW128652   4.497   3.513   6.390 -0.6796 -0.6621 -1.6190
 5731SOL    HW228653   4.358   3.517   6.356 -0.8535 -2.3069 -0.6704
 5732SOL     OW28654   4.366   2.523   2.723 -0.0195  0.3851 -0.0854
 5732SOL    HW128655   4.443   2.535   2.667 -0.5211 -1.1689 -1.1047
 5732SOL    HW228656   4.395   2.569   2.802 -1.5717 -1.3385  1.4956
 5733SOL     OW28657   2.225   4.343  12.580 -0.2929 -0.1083 -0.1618
 5733SOL    HW128658   2.308   4.384  12.558 -0.6149 -0.5611 -2.2306
 5733SOL    HW228659   2.196   4.299  12.500 -0.8935  0.8776 -0.4946
 5734SOL     OW28660   2.828   2.891   8.340  0.5083 -0.2314  0.0903
 5734SOL    HW128661   2.793   2.887   8.429  1.0842 -1.0014  0.2841
 5734SOL    HW228662   2.792   2.974   8.309 -0.4904 -0.5373  0.4333
 5735SOL     OW28663   2.741   0.327  16.301  0.1713  0.1980 -0.4241
 5735SOL    HW128664   2.782   0.351  16.385 -3.2774 -0.1903  1.3578
 5735SOL    HW228665   2.745   0.410  16.255 -0.9514  0.0155 -0.8413
 5736SOL     OW28666   4.112   2.772   8.002 -0.0104 -0.0393  0.0482
 5736SOL    HW128667   4.196   2.727   8.012 -0.8349 -1.7592 -0.7457
 5736SOL    HW228668   4.137   2.856   7.964 -1.8335  0.8979  0.9520
 5737SOL     OW28669   4.111   0.288   6.883 -0.1962  0.0076 -0.2001
 5737SOL    HW128670   4.094   0.224   6.951  2.8360 -1.5140 -0.8862
 5737SOL    HW228671   4.146   0.242   6.807 -1.2770  2.0012 -1.9133
 5738SOL     OW28672   4.501   0.429   3.333  0.4978 -0.3825 -0.3405
 5738SOL    HW128673   4.532   0.519   3.326 -0.1170 -0.3086 -2.0572
 5738SOL    HW228674   4.532   0.409   3.421  0.0029  1.3075  0.2105
 5739SOL     OW28675   3.330   0.660  14.316 -0.1682 -0.7241  0.9427
 5739SOL    HW128676   3.357   0.634  14.228 -0.8948 -1.8645  1.0511
 5739SOL    HW228677   3.235   0.662  14.300  0.1705  2.3950 -0.7203
 5740SOL     OW28678   0.964   0.894   5.740 -0.0617 -0.3344 -0.2555
 5740SOL    HW128679   1.050   0.852   5.750  1.0442  2.0037 -0.0688
 5740SOL    HW228680   0.935   0.879   5.830  0.5630  1.3127  0.2106
 5741SOL     OW28681   4.048   2.102   1.797 -0.1288  0.4332  0.4311
 5741SOL    HW128682   4.001   2.162   1.855 -0.1241  0.8848 -0.0325
 5741SOL    HW228683   4.138   2.106   1.830  0.4845 -0.3258 -1.1667
 5742SOL     OW28684   2.856   3.224   9.557  0.0747  0.6921 -0.0974
 5742SOL    HW128685   2.899   3.224   9.472 -1.1568 -0.2936 -0.7152
 5742SOL    HW228686   2.774   3.260   9.523 -0.0958  2.1807  1.8385
 5743SOL     OW28687   4.444   2.130   4.984  0.1600 -0.2765 -0.2224
 5743SOL    HW128688   4.431   2.037   4.967 -1.5153 -0.0135 -0.3542
 5743SOL    HW228689   4.437   2.159   4.893  3.0410 -0.7451 -0.5802
 5744SOL     OW28690   1.520   3.546  12.000  0.7810 -0.2718  0.1463
 5744SOL    HW128691   1.458   3.508  12.063  1.1635 -1.4361 -0.1897
 5744SOL    HW228692   1.515   3.483  11.928  1.2513 -1.7666  1.4442
 5745SOL     OW28693   2.097   0.806   2.496  0.0627 -0.2382 -0.7657
 5745SOL    HW128694   2.089   0.891   2.453 -1.7199 -1.3352 -2.5629
 5745SOL    HW228695   2.083   0.839   2.585  0.7372  1.0339 -1.1271
 5746SOL     OW28696   2.344   1.843   7.453 -0.5371  0.2853  0.1173
 5746SOL    HW128697   2.367   1.860   7.361 -0.3592  2.2200  0.5103
 5746SOL    HW228698   2.322   1.750   7.446 -0.2051  0.0925  1.8041
 5747SOL     OW28699   2.254   3.599   7.765  0.2232  0.0008 -0.1480
 5747SOL    HW128700   2.295   3.590   7.851 -0.4302 -0.1519  0.1468
 5747SOL    HW228701   2.291   3.684   7.741  1.3821 -0.8190 -1.2796
 5748SOL     OW28702   3.959   0.947  11.661 -0.1386  0.1199 -0.6885
 5748SOL    HW128703   3.926   1.036  11.650 -1.6340 -0.6346 -2.2368
 5748SOL    HW228704   3.872   0.911  11.646 -1.2620  3.2569 -1.5886
 5749SOL     OW28705   0.575   4.578   8.514  0.2729  0.4821  0.4338
 5749SOL    HW128706   0.502   4.595   8.573 -0.5182  1.0498 -0.6984
 5749SOL    HW228707   0.643   4.641   8.536  0.8469  0.4288 -1.1848
 5750SOL     OW28708   1.595   1.261   4.115 -0.0223  0.3976 -0.0963
 5750SOL    HW128709   1.677   1.225   4.150  0.2950  0.4031 -0.8291
 5750SOL    HW228710   1.603   1.246   4.020  1.5559  1.0087 -0.0617
 5751SOL     OW28711   1.521   3.401   7.164  0.1258  0.5477  0.5554
 5751SOL    HW128712   1.475   3.363   7.239  0.2854  1.1673  0.9699
 5751SOL    HW228713   1.520   3.326   7.105 -1.7878 -1.3530  3.0489
 5752SOL     OW28714   1.965   1.259  12.325  0.1106  0.1044 -0.8043
 5752SOL    HW128715   1.949   1.247  12.231  1.8966 -1.6165 -0.8900
 5752SOL    HW228716   2.038   1.197  12.332 -0.1055 -0.2226 -1.4962
 5753SOL     OW28717   2.910   4.556   5.759 -0.1004  0.0284  0.0056
 5753SOL    HW128718   2.857   4.485   5.796 -1.7942  0.9970 -0.5542
 5753SOL    HW228719   2.883   4.557   5.667 -1.0009 -3.0235  0.2294
 5754SOL     OW28720   2.540   1.735   2.092  0.8528 -0.3729  0.1276
 5754SOL    HW128721   2.472   1.721   2.026  1.7365  0.6230 -0.9741
 5754SOL    HW228722   2.628   1.744   2.056  0.1249  0.4087 -1.4314
 5755SOL     OW28723   4.331   2.142   5.911 -0.2358 -0.1823 -0.7861
 5755SOL    HW128724   4.374   2.096   5.983  0.7018 -0.0855 -1.2746
 5755SOL    HW228725   4.307   2.067   5.856 -2.3915  0.3443 -0.5642
 5756SOL     OW28726   3.429   4.465   7.397 -0.5010 -0.1621 -0.8833
 5756SOL    HW128727   3.396   4.542   7.350 -1.1559  0.1887  0.1502
 5756SOL    HW228728   3.448   4.504   7.483 -1.5160  1.9731 -1.6164
 5757SOL     OW28729   0.614   4.609   6.420 -0.0409  0.3254 -0.5363
 5757SOL    HW128730   0.545   4.673   6.401 -1.4110 -0.8156  0.5571
 5757SOL    HW228731   0.679   4.672   6.449  0.7031 -0.7507  0.1426
 5758SOL     OW28732   3.317   1.747   8.348  0.6013  0.0249 -0.0389
 5758SOL    HW128733   3.346   1.696   8.424 -1.1670  0.3233  0.8447
 5758SOL    HW228734   3.386   1.721   8.287 -0.8176 -1.2993 -1.0655
 5759SOL     OW28735   3.316   3.649   1.957 -0.4385  0.4224  0.2900
 5759SOL    HW128736   3.237   3.667   2.008 -0.9068 -1.6118  0.3044
 5759SOL    HW228737   3.281   3.574   1.909  0.2561 -0.2737  0.8608
 5760SOL     OW28738   1.133   4.427   4.414  0.1717 -0.0717  0.2852
 5760SOL    HW128739   1.040   4.404   4.425 -0.0193  0.9384  0.7625
 5760SOL    HW228740   1.151   4.421   4.508  0.9006  0.2527  0.1638
 5761SOL     OW28741   3.786   0.479   4.040 -0.2883 -0.8980 -0.7664
 5761SOL    HW128742   3.861   0.502   3.985 -1.3914  2.8215 -0.6958
 5761SOL    HW228743   3.826   0.483   4.127  0.0438  1.6184 -1.0422
 5762SOL     OW28744   3.741   4.133  14.399 -0.1840  0.4784 -1.0524
 5762SOL    HW128745   3.751   4.038  14.392 -2.2076  0.0943  1.0546
 5762SOL    HW228746   3.811   4.165  14.342 -0.0656  1.4192 -0.3709
 5763SOL     OW28747   3.894   1.945  14.150 -0.3900  0.3933  1.2800
 5763SOL    HW128748   3.913   2.019  14.208 -1.4815  0.2111  1.8746
 5763SOL    HW228749   3.977   1.899  14.157 -0.7175 -0.5748 -1.4605
 5764SOL     OW28750   0.083   3.299   4.253  0.1133 -0.7993 -0.0267
 5764SOL    HW128751   0.026   3.311   4.177  1.1204  0.2565 -0.6115
 5764SOL    HW228752   0.036   3.330   4.330 -0.4487  0.5578 -0.9194
 5765SOL     OW28753   4.379   2.753   9.312 -0.1685  0.1490  0.1701
 5765SOL    HW128754   4.438   2.752   9.237  0.7636  0.6350  0.9004
 5765SOL    HW228755   4.427   2.815   9.367  0.4139  0.1713 -0.3595
 5766SOL     OW28756   2.409   0.661  12.581 -0.0005  0.1176  0.2269
 5766SOL    HW128757   2.347   0.589  12.587  0.1733  0.0182  0.8390
 5766SOL    HW228758   2.353   0.736  12.597  1.0615  0.8568  0.5195
 5767SOL     OW28759   3.914   1.149   5.106 -0.1134  0.0832 -0.7423
 5767SOL    HW128760   3.882   1.112   5.188 -0.8058  0.4981 -0.8274
 5767SOL    HW228761   3.946   1.232   5.141  0.2986 -1.6107  2.9700
 5768SOL     OW28762   1.631   3.027   1.001 -0.0150 -0.0623 -0.3388
 5768SOL    HW128763   1.554   2.973   1.018 -0.4119  0.2323 -1.1788
 5768SOL    HW228764   1.611   3.105   1.052  1.1183  0.2673 -0.3928
 5769SOL     OW28765   3.801   4.352   9.714  0.0311 -0.3039  0.3077
 5769SOL    HW128766   3.767   4.424   9.660  0.3464  0.6139  1.3337
 5769SOL    HW228767   3.876   4.333   9.658 -0.4609 -0.7645 -0.1949
 5770SOL     OW28768   3.929   0.439   0.018  0.5837 -0.3947  0.0918
 5770SOL    HW128769   3.851   0.490  17.690  1.8532  0.8594 -1.6606
 5770SOL    HW228770   3.997   0.488  17.664 -0.3706  2.4250  1.6849
 5771SOL     OW28771   0.335   3.087  16.838  0.0771  0.0057 -0.0073
 5771SOL    HW128772   0.351   3.163  16.894  2.5472 -0.5914  0.1276
 5771SOL    HW228773   0.360   3.128  16.755 -0.1890  1.0373  0.4184
 5772SOL     OW28774   1.914   3.472   3.174  0.5517 -0.2017 -0.1174
 5772SOL    HW128775   1.918   3.441   3.083 -0.1818 -1.7387  0.3721
 5772SOL    HW228776   1.897   3.566   3.166 -0.3115 -0.1833  2.0529
 5773SOL     OW28777   0.746   2.201   8.169 -0.0655 -0.1013 -0.2858
 5773SOL    HW128778   0.745   2.119   8.119  0.6842 -0.5103  0.3730
 5773SOL    HW228779   0.729   2.260   8.095  0.2553 -0.3831 -0.5869
 5774SOL     OW28780   3.183   1.145   4.646 -0.9139  0.6494  0.4226
 5774SOL    HW128781   3.267   1.111   4.618  0.0424  4.4522 -1.3729
 5774SOL    HW228782   3.204   1.239   4.654  1.8270  0.1773 -1.4703
 5775SOL     OW28783   3.453   4.419   9.796 -0.2422 -0.0717  0.0421
 5775SOL    HW128784   3.516   4.460   9.737 -1.0060 -0.6284 -1.1593
 5775SOL    HW228785   3.445   4.493   9.857 -2.6884 -0.3337  0.0398
 5776SOL     OW28786   1.209   1.401   7.087 -0.7799 -0.4659 -0.0686
 5776SOL    HW128787   1.176   1.441   7.168 -2.4824  0.3469 -1.1573
 5776SOL    HW228788   1.292   1.448   7.078 -0.4012 -0.5796  2.7213
 5777SOL     OW28789   1.119   4.070   4.792 -0.1330 -0.8927 -0.1087
 5777SOL    HW128790   1.204   4.051   4.832 -0.7195  0.9185  1.9593
 5777SOL    HW228791   1.065   4.075   4.870  0.4779 -0.7099  0.3003
 5778SOL     OW28792   4.106   4.378   1.190  0.0468 -0.4452 -0.0959
 5778SOL    HW128793   4.133   4.413   1.275 -2.3540 -1.1820  0.9595
 5778SOL    HW228794   4.116   4.457   1.137 -1.4993  0.8086  1.4857
 5779SOL     OW28795   4.402   1.884   9.268 -0.1923 -0.2061 -0.4540
 5779SOL    HW128796   4.368   1.842   9.189 -0.8595 -0.5060 -0.0087
 5779SOL    HW228797   4.458   1.811   9.296 -0.9674 -0.8596 -0.6091
 5780SOL     OW28798   0.528   3.657   2.396  0.8829  0.6854  0.7276
 5780SOL    HW128799   0.499   3.738   2.439 -0.8351  1.3675 -1.7393
 5780SOL    HW228800   0.518   3.679   2.304  3.3562  2.0281  0.7563
 5781SOL     OW28801   1.197   0.759   7.963  0.0771 -0.5040  0.2916
 5781SOL    HW128802   1.175   0.851   7.949  2.7807  0.0123 -0.4805
 5781SOL    HW228803   1.172   0.758   8.056 -0.1565 -0.4536  0.2302
 5782SOL     OW28804   0.257   3.278  12.610  0.3971  0.4757  0.3308
 5782SOL    HW128805   0.304   3.360  12.590 -1.3092  0.8630 -2.0826
 5782SOL    HW228806   0.246   3.251  12.519 -2.0782  0.0433  0.7549
 5783SOL     OW28807   4.277   2.221   0.231  0.6367 -0.4525  0.6363
 5783SOL    HW128808   4.276   2.316   0.226  0.4933 -0.4679  0.4031
 5783SOL    HW228809   4.364   2.210   0.191  1.1032 -1.5418  1.9461
 5784SOL     OW28810   0.351   0.441  16.575 -0.9559 -0.3192  0.4017
 5784SOL    HW128811   0.341   0.498  16.651 -0.0948 -1.5728  1.4394
 5784SOL    HW228812   0.259   0.428  16.553 -1.1648  1.9844 -0.1565
 5785SOL     OW28813   2.304   4.512   5.960 -0.6110  0.1783  0.2636
 5785SOL    HW128814   2.267   4.549   5.880 -1.1210  2.3426  1.4871
 5785SOL    HW228815   2.238   4.445   5.982  0.7024 -0.5614  1.9136
 5786SOL     OW28816   3.420   0.740  15.250 -0.2324  0.0592  0.0853
 5786SOL    HW128817   3.368   0.820  15.262 -0.0221  0.1024  0.6987
 5786SOL    HW228818   3.461   0.752  15.165  3.9534 -0.3352  2.0575
 5787SOL     OW28819   1.922   1.915   0.080  0.6161 -0.0605  0.1628
 5787SOL    HW128820   1.980   1.914   0.157 -0.3513  0.1253  0.8964
 5787SOL    HW228821   1.849   1.859   0.108  0.4147  1.3540  2.5235
 5788SOL     OW28822   4.492   2.562  15.816  0.4239  0.4583  0.5860
 5788SOL    HW128823   4.570   2.507  15.827 -0.6193 -1.1361 -0.0275
 5788SOL    HW228824   4.516   2.629  15.880  0.0966  0.6274  0.5331
 5789SOL     OW28825   3.056   3.636  17.604  0.3446 -0.0616  0.6360
 5789SOL    HW128826   3.128   3.575  17.589 -1.1585 -1.8617  0.7754
 5789SOL    HW228827   3.046   3.666  17.514 -0.3072 -2.1066  0.0264
 5790SOL     OW28828   2.184   0.542   8.409 -0.3980  0.2040  0.7855
 5790SOL    HW128829   2.267   0.531   8.363  0.5812 -2.0631  3.0631
 5790SOL    HW228830   2.116   0.500   8.356  0.2927 -2.1122  1.7535
 5791SOL     OW28831   0.298   3.367   1.197 -0.5474 -0.1926 -0.3431
 5791SOL    HW128832   0.356   3.402   1.129  0.6521 -2.3331 -0.4173
 5791SOL    HW228833   0.282   3.436   1.261 -3.7494 -1.8616  0.6199
 5792SOL     OW28834   1.153   4.308  10.995 -0.1768  0.2150 -0.6566
 5792SOL    HW128835   1.248   4.325  10.990 -0.2406  0.8909  0.3887
 5792SOL    HW228836   1.163   4.234  11.055  1.8369  1.0531  0.0825
 5793SOL     OW28837   3.368   1.899   6.378 -0.0174 -0.2651  0.6758
 5793SOL    HW128838   3.406   1.832   6.321  0.2863  1.2711 -0.9705
 5793SOL    HW228839   3.309   1.845   6.430  0.9519 -2.0321 -0.0515
 5794SOL     OW28840   2.780   0.203   4.982  0.2758 -0.1582 -0.2864
 5794SOL    HW128841   2.799   0.277   4.924 -0.0810 -0.2146 -0.4751
 5794SOL    HW228842   2.865   0.166   5.003  1.0807  1.2554 -1.0325
 5795SOL     OW28843   1.961   1.224   0.966  0.1749  0.0028 -0.1255
 5795SOL    HW128844   2.010   1.304   0.986 -1.8005  0.8961  1.1951
 5795SOL    HW228845   1.898   1.223   1.038 -0.6009 -0.5180 -0.8125
 5796SOL     OW28846   4.660   0.004  10.474  0.4198 -0.6100 -0.6384
 5796SOL    HW128847   0.010   4.669  10.497 -0.2720 -0.6369  1.4647
 5796SOL    HW228848   4.582   4.678  10.501 -0.2050 -0.3769 -2.0585
 5797SOL     OW28849   1.064   3.953   4.551 -0.4859  0.4996  0.0696
 5797SOL    HW128850   1.062   4.004   4.469  4.0805 -1.0159 -0.9729
 5797SOL    HW228851   1.098   4.018   4.613  2.0082 -0.7896  0.0627
 5798SOL     OW28852   1.560   0.076   6.077  0.1463 -0.2658  0.2051
 5798SOL    HW128853   1.578   0.118   5.993  0.2226  2.9691  1.8735
 5798SOL    HW228854   1.613   4.719   6.071 -0.6910 -0.7570 -0.9461
 5799SOL     OW28855   1.031   2.128   0.254 -0.1430 -0.2103 -0.5483
 5799SOL    HW128856   0.977   2.048   0.254 -1.0439  0.4026 -1.9969
 5799SOL    HW228857   1.091   2.115   0.181 -0.2673 -0.3727 -0.6238
 5800SOL     OW28858   0.829   0.166  14.529  0.4781  0.4569 -0.0388
 5800SOL    HW128859   0.783   0.238  14.572 -0.5161 -0.6340  0.7253
 5800SOL    HW228860   0.916   0.165  14.569  0.2652 -0.8919  0.3700
 5801SOL     OW28861   1.636   1.258   3.428  0.1418 -0.2694 -0.4991
 5801SOL    HW128862   1.546   1.236   3.451  0.4993 -1.4605 -0.2658
 5801SOL    HW228863   1.683   1.175   3.438 -0.2967 -0.1578  2.5866
 5802SOL     OW28864   4.336   0.212   0.741 -0.7203 -0.1749 -0.3529
 5802SOL    HW128865   4.315   0.305   0.728 -0.0017  0.3991  2.5275
 5802SOL    HW228866   4.344   0.207   0.836  0.9089  0.3510 -0.4630
 5803SOL     OW28867   0.115   4.412   4.453  0.2592 -0.3474 -0.4848
 5803SOL    HW128868   0.154   4.476   4.394  1.4871  1.1019  1.9193
 5803SOL    HW228869   0.025   4.402   4.420  0.3581 -0.1739 -0.8042
 5804SOL     OW28870   4.041   4.193   5.805 -0.2479 -0.0506 -0.5921
 5804SOL    HW128871   4.058   4.175   5.712  0.2437  3.7162 -1.2230
 5804SOL    HW228872   4.131   4.196   5.835 -0.8863 -2.3899  1.5633
 5805SOL     OW28873   1.730   1.732   2.934 -0.3080  0.4201 -0.4278
 5805SOL    HW128874   1.637   1.724   2.914 -0.7088 -0.9604  2.0125
 5805SOL    HW228875   1.769   1.664   2.879  0.3432 -0.8963  1.6589
 5806SOL     OW28876   1.979   2.074   6.105  0.3092 -0.1207 -0.1246
 5806SOL    HW128877   2.066   2.042   6.080  0.9586  0.9844  0.7148
 5806SOL    HW228878   1.995   2.113   6.191 -3.1524 -1.6895  1.2218
 5807SOL     OW28879   4.144   1.246   6.524 -0.2480 -0.0401  0.7090
 5807SOL    HW128880   4.138   1.150   6.520  2.6576 -0.2970  2.5003
 5807SOL    HW228881   4.054   1.269   6.500  0.3459  3.1989  1.6321
 5808SOL     OW28882   2.701   4.528   3.488 -0.2039 -0.0409  0.1148
 5808SOL    HW128883   2.634   4.572   3.541 -1.5256 -0.5452 -1.1406
 5808SOL    HW228884   2.675   4.562   3.403 -2.0575  0.3395  0.8238
 5809SOL     OW28885   3.621   1.971  14.316 -0.1227  0.0177 -0.7886
 5809SOL    HW128886   3.667   1.897  14.357 -2.1103 -0.7398  0.0484
 5809SOL    HW228887   3.682   2.008  14.252 -0.0979 -2.0610 -1.9865
 5810SOL     OW28888   0.259   4.169   5.639  0.1725 -0.4125 -0.2240
 5810SOL    HW128889   0.298   4.215   5.713 -0.9687 -1.0213  0.7765
 5810SOL    HW228890   0.253   4.233   5.569  0.4699  0.2457  0.3577
 5811SOL     OW28891   2.781   3.438  15.957  0.4159 -0.0544  0.2500
 5811SOL    HW128892   2.688   3.428  15.976 -0.2806  1.6623 -2.2339
 5811SOL    HW228893   2.772   3.458  15.863 -0.8201  1.6186  0.7261
 5812SOL     OW28894   1.570   0.534   2.275 -0.5168 -0.1018 -0.0385
 5812SOL    HW128895   1.498   0.499   2.222 -1.7811  0.0852  1.5631
 5812SOL    HW228896   1.621   0.453   2.280 -1.6136 -0.7734  0.5754
 5813SOL     OW28897   3.650   3.657   3.111  0.0989 -0.0881  0.1382
 5813SOL    HW128898   3.633   3.734   3.056  0.5329 -0.7765 -0.9520
 5813SOL    HW228899   3.654   3.701   3.196 -0.5540  2.4650 -1.1389
 5814SOL     OW28900   0.041   3.221   4.706 -0.2369 -0.3086  0.0429
 5814SOL    HW128901   0.079   3.304   4.735 -0.2864 -0.1010 -0.4817
 5814SOL    HW228902   0.118   3.192   4.658 -1.0787 -1.4774 -0.5979
 5815SOL     OW28903   4.337   0.668   9.325 -0.2354  0.0774  0.5802
 5815SOL    HW128904   4.368   0.604   9.261  0.0567  0.0488  0.7499
 5815SOL    HW228905   4.274   0.710   9.266  1.2844 -1.0822 -1.8594
 5816SOL     OW28906   2.190   0.603   0.859 -0.0150  0.1892 -0.0092
 5816SOL    HW128907   2.225   0.643   0.779  0.9583 -2.3368 -0.8333
 5816SOL    HW228908   2.192   0.673   0.924 -0.8196 -1.1415  1.4419
 5817SOL     OW28909   2.241   1.477  11.225  0.2039 -0.2121 -0.1753
 5817SOL    HW128910   2.190   1.557  11.208 -2.3084 -1.8867 -0.5261
 5817SOL    HW228911   2.294   1.477  11.146 -1.4438  0.0655 -1.2930
 5818SOL     OW28912   0.439   0.096   1.297  0.9770 -0.0017  0.3762
 5818SOL    HW128913   0.376   0.118   1.365 -0.6278  0.5095 -1.2762
 5818SOL    HW228914   0.432   0.177   1.245  1.0916  0.4693  1.0990
 5819SOL     OW28915   3.392   2.012  17.293 -0.0270 -0.2065  0.1779
 5819SOL    HW128916   3.350   2.071  17.231  1.4077 -0.3590 -0.9287
 5819SOL    HW228917   3.432   2.062  17.364 -0.9486 -0.0518  0.5970
 5820SOL     OW28918   3.010   0.885   0.775 -0.2901  0.1133 -0.0776
 5820SOL    HW128919   2.939   0.887   0.711  0.3697 -0.3887 -0.8369
 5820SOL    HW228920   3.065   0.816   0.736  1.0635 -0.0399  2.1390
 5821SOL     OW28921   2.456   3.008   4.270 -0.3894 -0.4239  0.4338
 5821SOL    HW128922   2.462   2.918   4.303  0.7624 -0.4670  0.1048
 5821SOL    HW228923   2.374   3.045   4.304 -0.7856  0.0394 -1.0169
 5822SOL     OW28924   4.213   2.806  15.545 -0.0873  0.2878 -0.2430
 5822SOL    HW128925   4.262   2.724  15.547  0.8144  0.8027 -0.9237
 5822SOL    HW228926   4.199   2.818  15.451 -3.0680 -1.5634 -0.0374
 5823SOL     OW28927   2.387   4.117   1.473 -0.3426 -0.0230  0.0781
 5823SOL    HW128928   2.481   4.096   1.468  0.0024  1.5525 -0.1005
 5823SOL    HW228929   2.353   4.102   1.385  0.4636 -1.4489  0.0184
 5824SOL     OW28930   2.721   1.928   6.150  0.1092  0.0779 -0.1040
 5824SOL    HW128931   2.670   1.869   6.206 -1.7436  1.7854  0.0145
 5824SOL    HW228932   2.686   2.011   6.183 -2.1796 -1.1198  0.5447
 5825SOL     OW28933   4.274   1.597  13.354  0.1042  0.0637 -0.0405
 5825SOL    HW128934   4.235   1.665  13.408  1.0870  0.3066  0.3514
 5825SOL    HW228935   4.276   1.524  13.416 -0.4889 -0.4386 -0.6138
 5826SOL     OW28936   1.741   2.556   6.370 -0.3265 -0.1090  0.5358
 5826SOL    HW128937   1.755   2.582   6.461 -0.6118 -0.9583  0.8233
 5826SOL    HW228938   1.827   2.581   6.336 -0.5723  0.8182  0.6154
 5827SOL     OW28939   0.373   2.229  15.108  0.5215 -0.4373  0.2109
 5827SOL    HW128940   0.342   2.314  15.139  0.3055 -0.5009  0.1650
 5827SOL    HW228941   0.396   2.192  15.193 -0.2757  1.3484  1.1993
 5828SOL     OW28942   3.186   0.438  11.901  0.1150  0.3939  0.5016
 5828SOL    HW128943   3.194   0.422  11.994 -1.1760 -1.8258  0.2235
 5828SOL    HW228944   3.214   0.357  11.858  0.4381  0.7297  0.0728
 5829SOL     OW28945   2.693   2.257   9.549 -0.2902 -0.2257 -0.4399
 5829SOL    HW128946   2.651   2.194   9.490  0.3043 -1.5702  0.5731
 5829SOL    HW228947   2.628   2.256   9.620  0.4073 -0.2298  0.1971
 5830SOL     OW28948   1.935   2.780   2.019  0.2104 -0.6747  0.6657
 5830SOL    HW128949   1.917   2.700   1.971 -0.6668  0.6008 -1.1290
 5830SOL    HW228950   2.013   2.811   1.974 -0.3260  1.0681  0.9249
 5831SOL     OW28951   4.510   0.872  10.004  0.2398  0.0707 -0.1685
 5831SOL    HW128952   4.439   0.935  10.012  1.1980  0.9599  1.3786
 5831SOL    HW228953   4.570   0.904   9.937  3.1903 -1.3462  1.7920
 5832SOL     OW28954   3.469   2.419   9.094  0.7158 -0.1413 -0.9899
 5832SOL    HW128955   3.493   2.427   9.186 -1.2165 -0.2857 -0.4684
 5832SOL    HW228956   3.397   2.357   9.106  1.6278 -0.8746  0.6042
 5833SOL     OW28957   4.127   4.092  17.539 -0.1835  0.1539 -0.2698
 5833SOL    HW128958   4.057   4.142  17.497 -0.9389 -1.4057 -0.8796
 5833SOL    HW228959   4.115   4.010  17.490 -0.9172  0.6929 -0.9835
 5834SOL     OW28960   4.720   3.787   8.765 -0.5066  0.1000  0.1369
 5834SOL    HW128961   0.052   3.835   8.702  0.2625 -1.5289 -0.4300
 5834SOL    HW228962   4.656   3.750   8.705 -0.2573  0.0598 -0.1073
 5835SOL     OW28963   4.167   3.903   6.182  0.3415 -0.0409  0.2179
 5835SOL    HW128964   4.216   3.860   6.253  0.7073 -0.9090 -0.5637
 5835SOL    HW228965   4.210   3.879   6.100  1.2696  2.3735  0.0168
 5836SOL     OW28966   2.860   3.094   2.111 -0.1802 -0.3259  0.8395
 5836SOL    HW128967   2.776   3.139   2.106 -0.1193 -0.2804  0.2263
 5836SOL    HW228968   2.837   3.015   2.160 -2.1513  0.0946  0.5964
 5837SOL     OW28969   1.116   3.513   2.232  0.8060  0.3414 -0.6687
 5837SOL    HW128970   1.165   3.592   2.253 -1.2714  1.2069  0.9618
 5837SOL    HW228971   1.029   3.550   2.219  0.1527 -1.7775 -2.3526
 5838SOL     OW28972   0.523   0.833   2.297  0.7442 -0.3000 -0.6620
 5838SOL    HW128973   0.456   0.804   2.235 -0.9467  3.3639 -0.5114
 5838SOL    HW228974   0.565   0.901   2.245  2.6880 -2.4858 -1.9131
 5839SOL     OW28975   1.585   3.501   4.305 -0.5377  0.5253 -0.0677
 5839SOL    HW128976   1.673   3.486   4.340 -0.5039 -1.9322 -1.2066
 5839SOL    HW228977   1.597   3.588   4.267  0.3061  0.4728  0.0637
 5840SOL     OW28978   3.380   1.428   0.698 -0.0832 -0.0872  0.4690
 5840SOL    HW128979   3.392   1.523   0.695 -1.4108  0.0923  0.6781
 5840SOL    HW228980   3.455   1.405   0.643  2.1329  2.1949  2.5618
 5841SOL     OW28981   0.232   3.651   6.864  0.2146 -0.0942  0.1281
 5841SOL    HW128982   0.303   3.712   6.846  0.0687 -0.2513 -0.9580
 5841SOL    HW228983   0.183   3.708   6.923  0.7516  0.5363 -0.0383
 5842SOL     OW28984   3.393   2.146   3.455 -0.0830  0.0704 -0.0094
 5842SOL    HW128985   3.416   2.142   3.548 -0.4437  2.1928  0.1911
 5842SOL    HW228986   3.300   2.170   3.458 -0.2494 -0.6088  0.1968
 5843SOL     OW28987   3.592   3.801   4.076  0.3558  0.3655 -0.3386
 5843SOL    HW128988   3.509   3.847   4.091  1.1018  2.0662 -1.4330
 5843SOL    HW228989   3.661   3.859   4.108  0.2892  1.3939 -2.0793
 5844SOL     OW28990   3.186   4.201   3.927 -0.8615 -0.2118  0.3193
 5844SOL    HW128991   3.151   4.249   4.003 -1.6365 -0.6591  0.2507
 5844SOL    HW228992   3.104   4.198   3.878 -0.8254  0.0708  0.2402
 5845SOL     OW28993   1.686   1.559  17.565 -0.0387  0.1931  0.4726
 5845SOL    HW128994   1.600   1.526  17.593  0.8493 -2.0282  0.6297
 5845SOL    HW228995   1.668   1.604  17.483  0.2986  0.2953  0.4548
 5846SOL     OW28996   1.556   0.177   1.434  1.1445 -0.2428 -0.3411
 5846SOL    HW128997   1.536   0.204   1.524 -0.2495 -0.9034 -0.4475
 5846SOL    HW228998   1.501   0.099   1.431 -0.5213  0.9084  0.1400
 5847SOL     OW28999   4.556   3.328   9.438 -0.0421  0.1648  0.3066
 5847SOL    HW129000   4.476   3.314   9.387  0.8791  0.7592 -1.3082
 5847SOL    HW229001   4.543   3.404   9.495  1.0346  0.8172 -0.3113
 5848SOL     OW29002   3.209   2.317   7.186 -0.0496  0.3133 -0.5419
 5848SOL    HW129003   3.143   2.269   7.235  0.0234  1.5364  0.7465
 5848SOL    HW229004   3.225   2.262   7.109  0.8751  0.3633 -0.3919
 5849SOL     OW29005   3.366   3.772  13.059 -0.2349  1.1284  0.1403
 5849SOL    HW129006   3.416   3.701  13.021  0.6154  1.8621 -0.1268
 5849SOL    HW229007   3.343   3.817  12.978  0.9704 -1.4254 -1.5845
 5850SOL     OW29008   2.995   2.952   4.738  0.0508 -0.6215 -0.5688
 5850SOL    HW129009   3.025   2.953   4.829 -0.9458  0.0168 -0.2388
 5850SOL    HW229010   2.995   2.858   4.724  2.1155 -0.4361 -1.7987
 5851SOL     OW29011   1.115   3.933   8.462  0.1641  0.2892 -0.0826
 5851SOL    HW129012   1.109   4.022   8.427 -1.6806  0.2531  0.1495
 5851SOL    HW229013   1.054   3.944   8.535 -0.5694  0.8899 -0.7930
 5852SOL     OW29014   1.068   3.875  12.519 -0.0711 -0.3299  0.2063
 5852SOL    HW129015   1.037   3.906  12.434  0.9655  0.8789  0.2684
 5852SOL    HW229016   1.143   3.932  12.538 -0.8509  0.8564 -0.2806
 5853SOL     OW29017   2.649   3.262   2.023 -0.2139  0.7535 -0.0052
 5853SOL    HW129018   2.568   3.297   1.985  0.3263 -1.5854 -3.2821
 5853SOL    HW229019   2.705   3.274   1.947 -0.2792  0.3883 -0.1093
 5854SOL     OW29020   4.618   0.418   7.902  0.3566  0.2813  0.0306
 5854SOL    HW129021   4.683   0.351   7.880  0.8830  0.0481  2.2985
 5854SOL    HW229022   4.539   0.374   7.870 -0.1218 -0.0057  1.6039
 5855SOL     OW29023   3.406   0.764   4.703 -0.1194  0.5456 -0.0894
 5855SOL    HW129024   3.317   0.793   4.723  0.6769  1.9064  1.5419
 5855SOL    HW229025   3.403   0.669   4.705  1.5799  0.4516 -2.3300
 5856SOL     OW29026   4.667   0.133   3.693  0.1190  0.1753 -0.2174
 5856SOL    HW129027   4.704   0.058   3.739  1.9379  2.0767  1.4562
 5856SOL    HW229028   0.013   0.143   3.626  1.5392 -0.2534  1.1724
 5857SOL     OW29029   1.599   0.927   4.779 -0.1282 -0.2091  0.0457
 5857SOL    HW129030   1.508   0.900   4.770 -0.4042  0.4566  0.8664
 5857SOL    HW229031   1.637   0.870   4.712  0.9058 -0.3406  0.7393
 5858SOL     OW29032   3.420   1.796   2.693 -0.0575  0.0321 -0.3930
 5858SOL    HW129033   3.357   1.866   2.711  0.9437  1.0148 -0.6477
 5858SOL    HW229034   3.423   1.803   2.598 -1.6394  0.7786 -0.3901
 5859SOL     OW29035   4.133   2.288   4.544  0.3019  0.0123 -0.2735
 5859SOL    HW129036   4.049   2.330   4.522 -0.5928 -1.7220 -0.2382
 5859SOL    HW229037   4.171   2.277   4.457 -0.3493 -1.7858 -0.3287
 5860SOL     OW29038   3.582   2.134   0.610  0.1266 -0.6132  0.1791
 5860SOL    HW129039   3.641   2.203   0.580  0.6974 -0.2203  2.2089
 5860SOL    HW229040   3.536   2.193   0.669 -0.5491 -1.5180  0.5608
 5861SOL     OW29041   3.617   3.124  12.408 -0.0333 -0.6089 -0.1627
 5861SOL    HW129042   3.662   3.119  12.492 -3.2406 -0.6962  1.5866
 5861SOL    HW229043   3.550   3.191  12.421  0.1224 -0.5118  0.1260
 5862SOL     OW29044   1.264   4.482   7.365  0.0432  0.7073  0.1480
 5862SOL    HW129045   1.267   4.388   7.384 -1.4544  0.2992 -1.7170
 5862SOL    HW229046   1.286   4.517   7.451 -0.6966 -0.1611  0.6989
 5863SOL     OW29047   3.204   3.704  15.254 -0.5362 -0.2308  0.7722
 5863SOL    HW129048   3.155   3.625  15.233 -0.4148 -0.9210  3.0806
 5863SOL    HW229049   3.229   3.685  15.344 -1.1568 -1.9526  0.5648
 5864SOL     OW29050   3.962   2.018  11.302 -0.1146  0.7742 -0.6538
 5864SOL    HW129051   3.952   1.982  11.390 -0.3686  0.4656 -0.8096
 5864SOL    HW229052   3.878   2.005  11.258 -0.2862  3.4458 -1.1183
 5865SOL     OW29053   3.822   4.482   5.548 -0.7349  0.1171 -0.4275
 5865SOL    HW129054   3.820   4.558   5.490 -0.9896 -0.5914 -1.3551
 5865SOL    HW229055   3.827   4.535   5.627  0.0959 -2.6116  1.3404
 5866SOL     OW29056   3.572   0.281   2.525 -0.2333  0.1352  0.6089
 5866SOL    HW129057   3.542   0.372   2.533 -0.7277 -0.0315  0.6322
 5866SOL    HW229058   3.565   0.266   2.431 -0.1230  1.1581  0.4378
 5867SOL     OW29059   0.032   1.926   8.292  0.0015  0.0880 -0.3200
 5867SOL    HW129060   4.701   1.900   8.367  0.0737 -2.1788 -1.0548
 5867SOL    HW229061   4.683   1.972   8.248 -0.0255 -1.1104 -1.5380
 5868SOL     OW29062   0.589   0.847   4.810  0.1082 -0.1984  0.3365
 5868SOL    HW129063   0.501   0.828   4.841 -1.0729  2.5315 -1.3454
 5868SOL    HW229064   0.608   0.783   4.741  0.6985  1.7961 -1.3562
 5869SOL     OW29065   1.365   0.936   9.156 -0.1584 -0.3294  0.2402
 5869SOL    HW129066   1.336   1.022   9.127 -0.5089  0.3435  2.5748
 5869SOL    HW229067   1.394   0.951   9.246  0.4802  4.1005 -0.7379
 5870SOL     OW29068   1.678   0.353   5.607 -0.2013  0.4697 -0.2975
 5870SOL    HW129069   1.593   0.328   5.571 -0.2674  0.7790 -0.3604
 5870SOL    HW229070   1.652   0.445   5.613  0.3217  0.6463 -0.7562
 5871SOL     OW29071   3.344   3.182  14.242 -0.2790  0.0276 -0.0951
 5871SOL    HW129072   3.272   3.245  14.245 -0.0853  0.2920 -0.8810
 5871SOL    HW229073   3.384   3.215  14.162  1.9921 -1.0177  0.6072
 5872SOL     OW29074   2.317   1.166   2.293  0.3112 -0.1559 -0.2337
 5872SOL    HW129075   2.362   1.138   2.213 -0.1275 -2.0028  0.1701
 5872SOL    HW229076   2.362   1.120   2.364  0.9354 -0.7915 -1.0443
 5873SOL     OW29077   3.598   0.014   3.910  0.9329 -0.0634  0.0088
 5873SOL    HW129078   3.610   0.080   3.843 -0.8061  0.7088  0.4716
 5873SOL    HW229079   3.503   0.018   3.917  0.9187  0.8863 -0.7708
 5874SOL     OW29080   0.912   2.207   9.132 -0.1232 -0.8377  0.4385
 5874SOL    HW129081   0.838   2.224   9.073 -0.7321 -1.5191  1.0124
 5874SOL    HW229082   0.987   2.231   9.077 -1.0793  0.4872 -0.2925
 5875SOL     OW29083   3.121   2.673   5.685  0.0989  0.2813  0.4224
 5875SOL    HW129084   3.134   2.639   5.773  0.0267 -0.3887  0.1725
 5875SOL    HW229085   3.088   2.760   5.709  0.5508  0.0073  2.0388
 5876SOL     OW29086   1.948   4.127   3.708 -0.2015  0.5851  0.0352
 5876SOL    HW129087   1.878   4.184   3.741 -1.5155 -1.1359  0.2256
 5876SOL    HW229088   1.960   4.074   3.787 -0.6991 -0.4158 -0.5498
 5877SOL     OW29089   3.169   0.777  12.124  0.2072 -0.3601  0.4847
 5877SOL    HW129090   3.138   0.753  12.037 -0.2174  1.4992  0.1298
 5877SOL    HW229091   3.165   0.697  12.176 -0.3103  0.8509  2.2898
 5878SOL     OW29092   1.962   0.414   6.620 -0.2633  0.1583  0.0318
 5878SOL    HW129093   1.882   0.398   6.571 -0.2327  0.0358  0.0198
 5878SOL    HW229094   1.998   0.488   6.571 -0.6416  0.4640  0.2165
 5879SOL     OW29095   3.545   3.073   6.204 -0.0213 -0.0201 -0.1673
 5879SOL    HW129096   3.530   3.090   6.297  0.6971 -0.0842 -0.0405
 5879SOL    HW229097   3.627   3.120   6.189  1.2524 -2.1814  0.0676
 5880SOL     OW29098   1.920   3.935   8.378 -0.4454  0.3026 -0.0891
 5880SOL    HW129099   1.829   3.915   8.399  0.4088 -2.5851  0.8409
 5880SOL    HW229100   1.915   4.026   8.348 -1.9602  0.3257  0.2718
 5881SOL     OW29101   0.982   2.317  11.141  0.5397  0.3150  0.1661
 5881SOL    HW129102   0.939   2.330  11.057 -0.0797 -0.0547  0.4308
 5881SOL    HW229103   1.036   2.396  11.153 -0.7323  0.8729  2.1122
 5882SOL     OW29104   2.910   4.571   2.130 -0.6647  0.2687 -0.4507
 5882SOL    HW129105   2.921   4.655   2.174 -1.5870  0.3502 -0.3697
 5882SOL    HW229106   2.867   4.606   2.052 -1.9462  0.6740  0.4432
 5883SOL     OW29107   0.983   4.637   4.574  0.3598  0.0366  0.2585
 5883SOL    HW129108   0.910   4.675   4.527  1.2532 -0.0447 -1.1897
 5883SOL    HW229109   0.941   4.566   4.624 -0.6304  0.8298  0.5408
 5884SOL     OW29110   2.638   3.771   3.425 -0.1584 -0.4322 -0.2172
 5884SOL    HW129111   2.701   3.786   3.495  0.6015  0.6375 -1.1253
 5884SOL    HW229112   2.691   3.789   3.348 -0.4746 -1.6412 -0.7054
 5885SOL     OW29113   3.466   1.763  15.403 -0.1789 -0.6551 -0.0477
 5885SOL    HW129114   3.548   1.720  15.378 -0.1315 -0.1210 -0.7861
 5885SOL    HW229115   3.443   1.819  15.330  1.6516 -1.1552 -0.9942
 5886SOL     OW29116   3.491   1.345   4.946  0.1218 -0.0532  0.2086
 5886SOL    HW129117   3.412   1.396   4.965 -1.1927 -1.3428 -1.8305
 5886SOL    HW229118   3.536   1.409   4.891 -0.8467  0.7987  0.4139
 5887SOL     OW29119   4.430   1.769   3.654 -0.5816 -0.0378  0.2419
 5887SOL    HW129120   4.521   1.771   3.684  0.1550  1.5823 -2.0939
 5887SOL    HW229121   4.411   1.857   3.620 -2.4393 -1.2499 -1.8890
 5888SOL     OW29122   4.646   2.433   2.201  0.0050  0.1011 -0.3900
 5888SOL    HW129123   4.710   2.403   2.266  0.8802 -0.7603 -1.6495
 5888SOL    HW229124   4.710   2.492   2.162  0.5869 -0.9813 -1.0767
 5889SOL     OW29125   1.955   4.003   7.787  0.2318 -0.4410  0.3786
 5889SOL    HW129126   1.899   4.053   7.847 -0.7708  0.9396 -1.6919
 5889SOL    HW229127   2.021   4.070   7.766 -0.0596 -0.3617 -0.2906
 5890SOL     OW29128   2.799   2.193   7.692  0.4561  0.0523 -0.0370
 5890SOL    HW129129   2.750   2.257   7.640  0.6461  0.0924 -0.1671
 5890SOL    HW229130   2.798   2.224   7.782 -2.2664 -0.1145 -0.0105
 5891SOL     OW29131   4.539   0.701   7.032  1.1561 -0.3264  0.3953
 5891SOL    HW129132   4.474   0.771   7.028  0.0240 -1.3210  1.2250
 5891SOL    HW229133   4.480   0.634   7.068  2.6998 -0.5474  2.5006
 5892SOL     OW29134   0.199   3.727   7.349 -0.1541 -0.1004 -0.7128
 5892SOL    HW129135   0.134   3.670   7.308 -0.6183 -1.0192  1.2692
 5892SOL    HW229136   0.157   3.813   7.351 -0.7567 -0.4419  1.7558
 5893SOL     OW29137   1.224   0.783   5.764  0.1784 -0.0013  0.0497
 5893SOL    HW129138   1.277   0.802   5.687 -1.4784 -0.5523 -1.2405
 5893SOL    HW229139   1.243   0.866   5.809 -2.1581  0.7697 -0.3462
 5894SOL     OW29140   4.310   2.534  14.767 -0.0458 -0.2840  0.2102
 5894SOL    HW129141   4.372   2.558  14.835  1.6772  1.2246 -1.8677
 5894SOL    HW229142   4.269   2.618  14.747 -1.0929 -1.2437 -1.7772
 5895SOL     OW29143   2.408   2.311   4.883  0.0308  0.8699  0.0174
 5895SOL    HW129144   2.418   2.265   4.966 -0.2404  1.7168  0.5302
 5895SOL    HW229145   2.464   2.388   4.897  0.7348  0.3167  0.2162
 5896SOL     OW29146   3.547   4.237   2.964  0.3143  0.3844  0.2874
 5896SOL    HW129147   3.546   4.318   2.913  0.2435 -0.4239 -0.9782
 5896SOL    HW229148   3.492   4.261   3.039 -1.1577  0.0192 -0.6684
 5897SOL     OW29149   3.264   2.133   9.973  0.1923 -0.5716 -0.3664
 5897SOL    HW129150   3.203   2.162  10.041  1.0846 -0.9920  0.6321
 5897SOL    HW229151   3.228   2.049   9.945 -0.9649 -1.3055  3.2440
 5898SOL     OW29152   3.878   2.648   2.391  0.4171  0.2004 -1.0103
 5898SOL    HW129153   3.970   2.631   2.368 -0.0668 -0.2808 -2.5614
 5898SOL    HW229154   3.874   2.620   2.483  0.7545  0.8786 -0.7890
 5899SOL     OW29155   0.072   3.311  16.227 -0.4686  0.7049  0.1944
 5899SOL    HW129156   0.071   3.236  16.168 -0.4664 -0.4929  1.7126
 5899SOL    HW229157   0.020   3.379  16.185 -1.7405 -0.3595  0.0558
 5900SOL     OW29158   4.658   3.777  10.479  0.2225 -0.3676  0.2198
 5900SOL    HW129159   4.693   3.715  10.416 -0.0120 -1.3547  1.0700
 5900SOL    HW229160   0.014   3.830  10.495 -0.8620  1.5760 -0.9457
 5901SOL     OW29161   2.222   3.798  17.608 -0.3338  0.3030 -0.0204
 5901SOL    HW129162   2.273   3.781  17.529  2.5732  1.9130  1.4727
 5901SOL    HW229163   2.295   3.788  17.669 -0.3463 -0.3528 -0.1148
 5902SOL     OW29164   3.065   0.512  13.838  0.1796  0.8926  0.0463
 5902SOL    HW129165   3.140   0.460  13.868 -0.5725 -0.4060 -0.3583
 5902SOL    HW229166   3.113   0.595  13.832  1.4514  0.1637 -0.0470
 5903SOL     OW29167   2.215   3.780   1.956 -0.1282  0.2670 -0.2573
 5903SOL    HW129168   2.305   3.794   1.926 -0.4916  0.4518 -1.2655
 5903SOL    HW229169   2.170   3.794   1.872  0.5600  2.6901 -0.2379
 5904SOL     OW29170   3.167   3.244   5.966  0.4455 -0.7448 -0.2112
 5904SOL    HW129171   3.228   3.245   5.892  1.2876 -0.7032  0.4865
 5904SOL    HW229172   3.212   3.189   6.029  3.0545 -1.7660 -2.9632
 5905SOL     OW29173   1.370   4.568   6.735 -0.4972 -0.1655 -0.4350
 5905SOL    HW129174   1.368   4.646   6.679 -0.7500  1.4685  1.8753
 5905SOL    HW229175   1.301   4.587   6.799  2.3915  1.9210  2.0733
 5906SOL     OW29176   1.596   0.629   6.728 -0.1232  0.1174 -0.2550
 5906SOL    HW129177   1.680   0.663   6.698 -0.8520  0.1098 -2.3387
 5906SOL    HW229178   1.560   0.589   6.649  2.3672 -1.4485 -0.5987
 5907SOL     OW29179   0.053   4.306   3.386 -0.5103  0.6410  0.4587
 5907SOL    HW129180   4.686   4.275   3.370  0.2808 -1.0771 -0.7313
 5907SOL    HW229181   0.042   4.395   3.352  0.7410  0.4441 -0.4681
 5908SOL     OW29182   1.034   0.177   4.059 -0.2469  0.6041 -0.0600
 5908SOL    HW129183   1.000   0.114   4.122 -0.1239  1.3921  0.7965
 5908SOL    HW229184   1.127   0.155   4.067 -0.3693  0.2714  0.4681
 5909SOL     OW29185   0.284   0.639   3.811 -0.1960 -0.0978 -0.3947
 5909SOL    HW129186   0.281   0.544   3.797 -1.9107 -0.3191  1.4975
 5909SOL    HW229187   0.366   0.660   3.766 -0.2821  1.9010  0.3727
 5910SOL     OW29188   0.704   4.486  14.155  0.3200 -0.2497 -0.0687
 5910SOL    HW129189   0.741   4.506  14.070  0.0651  0.2896 -0.0582
 5910SOL    HW229190   0.667   4.400  14.135 -0.5657 -0.2982  1.7378
 5911SOL     OW29191   4.348   4.576   4.246 -0.1339  0.0254  0.0859
 5911SOL    HW129192   4.259   4.566   4.212  0.1597  1.1517 -1.0100
 5911SOL    HW229193   4.389   4.623   4.174  1.5858 -1.5713  0.0339
 5912SOL     OW29194   1.809   3.418   9.130  0.1848 -0.7686  0.0678
 5912SOL    HW129195   1.860   3.396   9.208 -0.7008  1.9153  1.4234
 5912SOL    HW229196   1.867   3.491   9.108 -1.1526 -0.2423 -1.7020
 5913SOL     OW29197   2.151   1.489  15.641  0.4083  0.2031  0.0190
 5913SOL    HW129198   2.233   1.440  15.646  0.4097  0.4249  2.0541
 5913SOL    HW229199   2.169   1.560  15.703 -0.6613 -0.7327  1.3918
 5914SOL     OW29200   2.938   4.633  10.136  0.3676  0.0220 -0.0431
 5914SOL    HW129201   2.888   4.707  10.103 -0.3084  0.0125  0.9654
 5914SOL    HW229202   3.009   4.611  10.075  1.0045  0.9542  0.3610
 5915SOL     OW29203   4.302   0.827   7.879 -0.3064  0.2373  0.1671
 5915SOL    HW129204   4.397   0.833   7.868 -0.3881 -0.0956 -0.7025
 5915SOL    HW229205   4.307   0.768   7.955  0.1822  0.4090  0.2717
 5916SOL     OW29206   3.633   1.070   5.899  0.8015 -0.0750 -0.4461
 5916SOL    HW129207   3.702   1.019   5.942  0.0627  1.5139  2.7014
 5916SOL    HW229208   3.569   1.001   5.883 -1.8908  2.4350 -0.6012
 5917SOL     OW29209   2.747   0.576  15.225  0.3051 -0.1250 -0.4423
 5917SOL    HW129210   2.792   0.518  15.286 -1.3786  0.0357  0.9558
 5917SOL    HW229211   2.733   0.514  15.154  2.4919 -0.4424 -0.6023
 5918SOL     OW29212   2.529   4.488   7.309  0.3016 -0.0744 -0.2883
 5918SOL    HW129213   2.595   4.557   7.311  0.2313 -0.0451  0.6865
 5918SOL    HW229214   2.474   4.508   7.384 -0.7653 -1.7060 -0.6386
 5919SOL     OW29215   1.746   2.450   4.206 -0.1502 -0.2790 -0.7420
 5919SOL    HW129216   1.766   2.541   4.230 -0.2007 -0.4336 -0.1126
 5919SOL    HW229217   1.799   2.401   4.270 -2.0362  0.6248  1.5078
 5920SOL     OW29218   3.966   4.671   5.916 -0.2735  0.5230  0.1591
 5920SOL    HW129219   3.894   4.669   5.979 -1.0642  1.5993 -0.7118
 5920SOL    HW229220   3.921   4.648   5.835  2.5696 -1.9864 -0.6906
 5921SOL     OW29221   3.298   1.125   7.172  0.2593  0.1663  0.1943
 5921SOL    HW129222   3.344   1.108   7.089 -0.7918 -1.3094 -0.0807
 5921SOL    HW229223   3.233   1.194   7.159  1.1442  0.9155 -0.2877
 5922SOL     OW29224   2.128   0.887   5.488 -0.6101 -0.0736 -0.1466
 5922SOL    HW129225   2.130   0.803   5.532  0.3345 -0.7224 -1.4379
 5922SOL    HW229226   2.160   0.873   5.399  1.9156  1.2592  0.5291
 5923SOL     OW29227   1.132   1.351  16.548 -0.0358 -0.2657  0.2916
 5923SOL    HW129228   1.125   1.361  16.643 -3.2058 -1.2427  0.1764
 5923SOL    HW229229   1.191   1.422  16.522 -1.5512  0.8445 -0.0841
 5924SOL     OW29230   2.426   2.970   8.956 -0.5460  0.4323  0.4047
 5924SOL    HW129231   2.362   2.916   9.003 -1.3297 -1.6486 -3.0868
 5924SOL    HW229232   2.444   3.046   9.011  3.4915 -1.1870  1.2682
 5925SOL     OW29233   2.624   1.038   3.124 -0.0550  0.4147  0.3160
 5925SOL    HW129234   2.669   1.070   3.046  0.0223  1.2204  0.6957
 5925SOL    HW229235   2.599   1.115   3.174  0.0976  0.7391 -0.1053
 5926SOL     OW29236   2.794   1.351  13.402 -0.3473 -0.1513  0.5785
 5926SOL    HW129237   2.855   1.401  13.347 -1.1391  0.6976  0.4629
 5926SOL    HW229238   2.714   1.369  13.352 -0.0232  2.1590  0.9142
 5927SOL     OW29239   3.683   0.874   6.752 -0.2502  0.1443  0.3180
 5927SOL    HW129240   3.625   0.832   6.815 -0.9633 -1.8419 -1.6916
 5927SOL    HW229241   3.709   0.802   6.695  1.3813 -1.1542  2.7351
 5928SOL     OW29242   1.575   3.962   7.283  0.0198 -0.0029  0.1932
 5928SOL    HW129243   1.625   4.032   7.324 -0.8385  0.4986  0.3831
 5928SOL    HW229244   1.489   4.003   7.277  0.6263  0.4104 -5.4084
 5929SOL     OW29245   3.389   3.870   5.175 -0.3774  0.1956  0.1213
 5929SOL    HW129246   3.386   3.870   5.271 -0.1729  1.9321  0.1217
 5929SOL    HW229247   3.391   3.965   5.160  0.6326  0.2977  0.8742
 5930SOL     OW29248   1.182   3.667   5.505 -0.5977  0.2461  0.7132
 5930SOL    HW129249   1.088   3.647   5.499 -0.6721  0.4970  1.0172
 5930SOL    HW229250   1.180   3.731   5.434 -2.1524 -0.1548  0.3751
 5931SOL     OW29251   4.571   0.359   0.525  0.2482 -0.3015 -0.6300
 5931SOL    HW129252   4.525   0.276   0.517  0.3422 -0.2382 -1.7448
 5931SOL    HW229253   4.580   0.361   0.621 -1.8414  2.1034 -0.4761
 5932SOL     OW29254   3.912   4.215   1.218 -0.0708  0.4708 -0.3782
 5932SOL    HW129255   3.992   4.267   1.208 -1.1841  2.2509  0.0249
 5932SOL    HW229256   3.897   4.193   1.126 -0.0638 -1.1106  0.0011
 5933SOL     OW29257   4.665   0.546   6.849  0.0125  0.3558  0.1039
 5933SOL    HW129258   4.586   0.519   6.802  0.6518 -1.4605  0.0669
 5933SOL    HW229259   4.628   0.609   6.911 -0.5922 -0.9182  1.0484
 5934SOL     OW29260   3.943   0.591   8.633 -0.3559 -0.3222 -0.0696
 5934SOL    HW129261   3.992   0.550   8.705 -0.3724 -1.7429 -0.8843
 5934SOL    HW229262   3.883   0.518   8.623 -0.0341 -0.2596 -2.3711
 5935SOL     OW29263   0.783   2.714   8.821  0.1179  0.1877  0.1883
 5935SOL    HW129264   0.759   2.804   8.797  0.0876 -0.2330 -1.3544
 5935SOL    HW229265   0.878   2.713   8.814  0.1072  1.4502 -0.1831
 5936SOL     OW29266   2.413   4.416   2.887 -0.7278 -0.5315 -0.3152
 5936SOL    HW129267   2.321   4.390   2.878 -0.2077 -2.6278  0.6735
 5936SOL    HW229268   2.458   4.337   2.858 -2.9049 -2.1471  0.6948
 5937SOL     OW29269   0.619   4.345   8.345  0.2003 -0.4915 -0.0609
 5937SOL    HW129270   0.667   4.399   8.282  0.4088 -0.6235 -0.0137
 5937SOL    HW229271   0.593   4.410   8.410 -1.2903 -1.5093  0.3568
 5938SOL     OW29272   3.038   2.208  17.272 -0.0185 -0.1182  0.1956
 5938SOL    HW129273   3.080   2.226  17.188  1.5042 -1.5179  0.6617
 5938SOL    HW229274   2.975   2.143  17.241 -1.3619  1.7586 -1.0664
 5939SOL     OW29275   3.125   3.702  14.692 -0.4970  0.1961 -0.5545
 5939SOL    HW129276   3.083   3.658  14.619 -0.1376 -0.5516 -0.3092
 5939SOL    HW229277   3.174   3.768  14.642  1.1554  0.4322  1.3582
 5940SOL     OW29278   0.210   0.557  15.447  0.2455  0.6863 -0.4614
 5940SOL    HW129279   0.199   0.508  15.365 -0.5541  1.3479 -0.7502
 5940SOL    HW229280   0.298   0.594  15.438  0.6209 -0.2427 -0.6558
 5941SOL     OW29281   2.843   2.440   7.335  0.5031 -0.2828  0.4502
 5941SOL    HW129282   2.762   2.402   7.368  1.3705 -1.8156  0.8243
 5941SOL    HW229283   2.899   2.425   7.412  0.3076  0.9761  0.8364
 5942SOL     OW29284   0.115   3.473  13.595  0.3922  0.2318  0.0568
 5942SOL    HW129285   0.188   3.533  13.611 -0.5187  1.2601  0.3594
 5942SOL    HW229286   0.033   3.520  13.580  1.0248  1.6690  1.0763
 5943SOL     OW29287   4.306   2.021   3.180  0.6457 -0.2881 -0.3189
 5943SOL    HW129288   4.290   2.011   3.086 -0.6258  0.1189 -0.1374
 5943SOL    HW229289   4.357   2.102   3.182 -1.2041  0.7829  2.6147
 5944SOL     OW29290   3.314   2.168   4.006 -0.3147  0.0658  0.0623
 5944SOL    HW129291   3.392   2.217   4.031  0.8190 -2.4021  1.4068
 5944SOL    HW229292   3.282   2.138   4.092 -0.0168 -1.4929 -0.3632
 5945SOL     OW29293   0.977   0.059   3.803 -0.5024  0.5076  0.1068
 5945SOL    HW129294   1.067   0.075   3.773 -0.0901  0.2529  1.1722
 5945SOL    HW229295   0.998   0.075   3.896 -2.9226 -0.1107  0.7463
 5946SOL     OW29296   2.293   2.619   7.246  0.1530 -0.2118  0.0604
 5946SOL    HW129297   2.358   2.675   7.288 -0.2946  0.4010 -0.0567
 5946SOL    HW229298   2.346   2.571   7.182  0.2578  0.6554 -0.5111
 5947SOL     OW29299   1.446   2.024   2.413  0.2318 -0.7972  0.4141
 5947SOL    HW129300   1.489   1.939   2.400  0.9609 -0.5084  0.9057
 5947SOL    HW229301   1.516   2.083   2.385 -2.3214  0.8559 -2.4415
 5948SOL     OW29302   1.993   0.897   4.772 -0.1440 -0.6081  0.4585
 5948SOL    HW129303   2.078   0.884   4.815 -0.5841 -0.7577  1.2675
 5948SOL    HW229304   1.951   0.956   4.835  1.5037  0.8749  0.1784
 5949SOL     OW29305   2.285   0.060   1.562  0.0340  0.1465  0.4687
 5949SOL    HW129306   2.318   0.026   1.646 -2.9820 -3.8173  0.0125
 5949SOL    HW229307   2.241   4.703   1.535 -0.2949  0.9802 -1.4665
 5950SOL     OW29308   1.240   2.212  17.051 -0.3568  0.2506 -0.2697
 5950SOL    HW129309   1.175   2.220  16.981  0.4545  1.6567 -0.8570
 5950SOL    HW229310   1.187   2.227  17.130  1.6256 -0.0425  1.1377
 5951SOL     OW29311   3.961   1.851   6.986 -0.1198 -0.5680 -0.1417
 5951SOL    HW129312   4.030   1.911   7.014  0.2151 -0.9499 -0.1407
 5951SOL    HW229313   3.879   1.899   6.976  0.3805  0.3913  0.3117
 5952SOL     OW29314   0.082   4.335  10.440  0.2220  0.4305 -0.3463
 5952SOL    HW129315   0.024   4.259  10.437  1.1607 -0.2862 -0.4511
 5952SOL    HW229316   0.047   4.392  10.372  1.0960  0.5662 -0.6928
 5953SOL     OW29317   3.906   2.137   5.535  0.1888  0.4810  0.5020
 5953SOL    HW129318   3.966   2.116   5.607 -0.8714 -1.4899  0.8036
 5953SOL    HW229319   3.834   2.075   5.549  0.3986  0.5080  1.7452
 5954SOL     OW29320   2.946   3.223  15.367 -0.1554  0.2467 -0.2079
 5954SOL    HW129321   2.924   3.170  15.291 -2.3980  0.6595  0.1374
 5954SOL    HW229322   2.876   3.289  15.366 -1.1328 -0.8258 -2.7107
 5955SOL     OW29323   1.593   2.107   6.866 -0.3226  0.1483  0.7561
 5955SOL    HW129324   1.624   2.032   6.817 -0.2954 -0.9732  2.4832
 5955SOL    HW229325   1.585   2.070   6.954  1.1410  0.8810  1.2049
 5956SOL     OW29326   4.461   2.208   2.137 -0.1090  0.4120  0.4072
 5956SOL    HW129327   4.488   2.140   2.199 -1.1369 -1.1055 -0.8124
 5956SOL    HW229328   4.538   2.264   2.127  0.2287 -0.2928 -1.0251
 5957SOL     OW29329   4.586   4.586   9.839 -0.0993 -0.1909  0.1371
 5957SOL    HW129330   4.587   4.638   9.758  0.3861 -2.0360 -1.0323
 5957SOL    HW229331   4.589   4.500   9.798 -1.0586 -0.2774  0.2534
 5958SOL     OW29332   1.416   1.210   7.410 -0.1520  0.0352  0.0061
 5958SOL    HW129333   1.331   1.168   7.419 -0.8249  1.9211  2.3738
 5958SOL    HW229334   1.473   1.146   7.453 -1.0401  0.0051  1.1266
 5959SOL     OW29335   1.147   3.670   6.005  0.3305 -0.4924  0.5150
 5959SOL    HW129336   1.188   3.715   5.931  2.0684 -1.7454  0.7184
 5959SOL    HW229337   1.069   3.636   5.961 -0.1445  1.0581  0.1446
 5960SOL     OW29338   3.939   3.143   5.615 -0.2404  0.1870  0.0813
 5960SOL    HW129339   3.919   3.225   5.661 -0.1834 -0.8512  1.9638
 5960SOL    HW229340   4.032   3.157   5.597 -0.0353  0.4190  1.3577
 5961SOL     OW29341   4.353   3.344   1.537  0.0890  0.3911 -0.1425
 5961SOL    HW129342   4.280   3.289   1.509 -0.1106 -0.2041  1.5647
 5961SOL    HW229343   4.420   3.307   1.479  0.8052  1.8879 -0.2828
 5962SOL     OW29344   2.618   3.831   3.947  0.2718  0.6419  0.1679
 5962SOL    HW129345   2.713   3.830   3.947  0.2712  0.7557 -0.2920
 5962SOL    HW229346   2.597   3.904   3.889 -1.3222  0.1479  0.1093
 5963SOL     OW29347   1.917   0.931  10.700  0.4594  0.5934  0.1139
 5963SOL    HW129348   1.929   0.952  10.607  3.3986 -0.3902  0.2715
 5963SOL    HW229349   1.828   0.898  10.695  0.0206  1.8183 -0.2006
 5964SOL     OW29350   0.862   1.195  11.986  0.1376 -0.2926  0.1488
 5964SOL    HW129351   0.804   1.268  12.009  0.0537  0.0991 -1.3126
 5964SOL    HW229352   0.939   1.244  11.958 -1.2833  1.3953 -0.7836
 5965SOL     OW29353   1.776   3.932   1.205  0.1298 -0.3183 -0.3164
 5965SOL    HW129354   1.734   4.015   1.225  2.1557  1.5997 -4.1520
 5965SOL    HW229355   1.762   3.888   1.289 -2.0951  2.0502  0.5296
 5966SOL     OW29356   3.121   1.979   7.570 -0.0731  0.1805  0.2173
 5966SOL    HW129357   3.171   1.910   7.614 -1.0847 -0.3710  0.5054
 5966SOL    HW229358   3.171   1.983   7.489  0.3327 -0.3330  0.4411
 5967SOL     OW29359   3.205   4.350  10.387  0.2894  0.2072  0.5843
 5967SOL    HW129360   3.122   4.302  10.392 -0.0670  0.8104  0.3970
 5967SOL    HW229361   3.164   4.436  10.390  1.0568  0.5248  1.8512
 5968SOL     OW29362   0.701   3.658  12.069 -0.0140  0.4256  0.1161
 5968SOL    HW129363   0.696   3.754  12.077 -1.2394  0.2634  1.2549
 5968SOL    HW229364   0.730   3.659  11.978  0.3523  1.0289  0.2358
 5969SOL     OW29365   1.014   1.543   5.927 -0.7091  0.5418  0.2666
 5969SOL    HW129366   1.054   1.626   5.901  0.7771 -0.9878 -2.3802
 5969SOL    HW229367   1.091   1.496   5.961 -2.1126 -1.4297  0.7110
 5970SOL     OW29368   2.329   1.384   3.765  0.6907  0.1658 -0.6499
 5970SOL    HW129369   2.408   1.425   3.801 -0.1044  0.6443  0.5376
 5970SOL    HW229370   2.333   1.290   3.777 -2.0215 -0.0414 -1.4455
 5971SOL     OW29371   1.820   0.062  11.870 -0.2846 -0.1907  0.1341
 5971SOL    HW129372   1.733   0.021  11.868 -0.4698  0.3298 -2.3071
 5971SOL    HW229373   1.860   0.008  11.802 -2.4330  1.3457 -2.3572
 5972SOL     OW29374   3.566   4.570   4.288 -0.2171 -0.0902 -0.2776
 5972SOL    HW129375   3.584   4.526   4.371 -1.9352 -0.4944 -0.1158
 5972SOL    HW229376   3.627   4.644   4.288  0.0806 -0.3548  1.8314
 5973SOL     OW29377   3.391   1.029   7.803  0.1442 -0.4154  0.2833
 5973SOL    HW129378   3.369   0.935   7.808  1.1765 -0.7962 -2.1368
 5973SOL    HW229379   3.306   1.069   7.821 -0.1185 -0.1843 -1.4550
 5974SOL     OW29380   4.413   1.662   6.672 -0.0612  0.8055 -0.5600
 5974SOL    HW129381   4.340   1.625   6.721  2.4486 -0.1979  2.4473
 5974SOL    HW229382   4.456   1.580   6.645  0.8336  0.8800  0.6583
 5975SOL     OW29383   0.822   1.688   8.794 -0.0830  0.2554 -0.2586
 5975SOL    HW129384   0.771   1.734   8.729 -0.5867  1.7300  1.1791
 5975SOL    HW229385   0.766   1.697   8.871  2.9175  0.7913  1.8764
 5976SOL     OW29386   2.566   2.318  11.170  0.0541  0.0393  0.2402
 5976SOL    HW129387   2.585   2.227  11.194 -0.6196 -0.0495  0.4235
 5976SOL    HW229388   2.475   2.326  11.198  0.2468  1.8157  0.3474
 5977SOL     OW29389   0.232   0.139   6.630  0.1940  0.1435  0.0758
 5977SOL    HW129390   0.181   0.109   6.555 -1.1769  0.4883  0.8771
 5977SOL    HW229391   0.251   0.228   6.600  1.0853 -0.3363 -0.8007
 5978SOL     OW29392   2.938   0.916   8.743 -0.1972 -0.1814 -0.0689
 5978SOL    HW129393   3.025   0.944   8.712  1.2576 -2.1967  2.2155
 5978SOL    HW229394   2.917   0.983   8.809 -2.9216 -0.4250 -0.6932
 5979SOL     OW29395   1.749   2.522  10.936 -0.5859 -0.2161  0.2426
 5979SOL    HW129396   1.809   2.574  10.882  0.0573  0.5771  1.7307
 5979SOL    HW229397   1.693   2.498  10.863 -1.2909  0.7907  0.4488
 5980SOL     OW29398   0.589   3.742   9.825  0.7718  0.1384 -0.1721
 5980SOL    HW129399   0.564   3.656   9.858  0.6184  0.2156 -0.0839
 5980SOL    HW229400   0.642   3.707   9.753  2.6448  1.4971  0.5350
 5981SOL     OW29401   0.188   3.264   7.209 -0.2406  0.7325 -0.1371
 5981SOL    HW129402   0.149   3.313   7.282 -1.8570 -1.1167  0.2424
 5981SOL    HW229403   0.268   3.306   7.178 -0.5270  0.8952 -0.6521
 5982SOL     OW29404   2.341   2.742   1.685  0.4307 -0.0648 -0.0792
 5982SOL    HW129405   2.435   2.721   1.690 -0.1291 -2.3892  0.6562
 5982SOL    HW229406   2.329   2.787   1.602 -0.2193 -1.8549 -0.9568
 5983SOL     OW29407   2.293   0.225   6.893  0.3302 -0.4302 -0.0439
 5983SOL    HW129408   2.245   0.160   6.842  1.5117  0.9114 -2.8713
 5983SOL    HW229409   2.350   0.165   6.942  0.4812  0.3094  0.6872
 5984SOL     OW29410   4.216   4.614   0.368 -0.1463  0.1945  0.2153
 5984SOL    HW129411   4.310   4.600   0.381 -0.0629  1.1147  0.6132
 5984SOL    HW229412   4.198   4.520   0.366  0.5325  0.0771 -0.5589
 5985SOL     OW29413   3.189   1.043  10.894 -0.4184  0.4461  0.0269
 5985SOL    HW129414   3.145   1.098  10.829  0.7282  1.7024  0.3165
 5985SOL    HW229415   3.109   1.007  10.932 -0.2123 -2.2701 -2.0807
 5986SOL     OW29416   4.661   3.744   4.067 -0.7581 -0.1883  0.7482
 5986SOL    HW129417   4.640   3.788   3.985 -1.4503 -1.0074  0.4841
 5986SOL    HW229418   0.033   3.732   4.053 -0.8092  1.4603 -1.0765
 5987SOL     OW29419   4.323   1.072  13.476  0.1357 -0.2169 -0.0480
 5987SOL    HW129420   4.289   0.993  13.518  1.9612 -0.2392  1.3786
 5987SOL    HW229421   4.245   1.100  13.427  1.3983 -1.0938 -2.5274
 5988SOL     OW29422   2.239   4.171   7.147  0.0136  0.2364  0.0688
 5988SOL    HW129423   2.260   4.124   7.066  1.6287  0.5231  0.3209
 5988SOL    HW229424   2.325   4.208   7.168  1.1182 -2.0739 -0.3760
 5989SOL     OW29425   2.995   1.465   6.761  0.5005  0.1689  0.1391
 5989SOL    HW129426   2.920   1.423   6.804 -2.1214  2.1251 -2.5267
 5989SOL    HW229427   3.038   1.509   6.835 -0.4055 -1.4434  1.6374
 5990SOL     OW29428   1.940   1.404   4.536  0.4509  0.2705 -0.4544
 5990SOL    HW129429   1.909   1.319   4.568 -3.0856  1.7044 -0.0473
 5990SOL    HW229430   2.024   1.413   4.580  0.6665  2.2550 -1.2370
 5991SOL     OW29431   3.907   1.249   3.632  0.3901 -0.3991  0.3205
 5991SOL    HW129432   3.866   1.169   3.665 -0.6946 -1.3061 -3.1963
 5991SOL    HW229433   3.909   1.225   3.539 -2.4397  1.8795 -0.3186
 5992SOL     OW29434   4.555   2.974  13.433  0.5170  0.3103  0.1408
 5992SOL    HW129435   4.482   2.962  13.493 -1.1650 -0.2234 -1.9877
 5992SOL    HW229436   4.509   3.019  13.361 -1.1356 -1.0986  0.3433
 5993SOL     OW29437   4.453   2.799   7.653  0.4400 -0.1093 -0.8809
 5993SOL    HW129438   4.415   2.832   7.571  0.5369 -1.1726 -1.3502
 5993SOL    HW229439   4.544   2.798   7.623  0.3825 -0.2876 -1.0534
 5994SOL     OW29440   1.004   2.571  14.069 -0.3468  0.1318 -0.9488
 5994SOL    HW129441   1.030   2.480  14.056  2.4561  0.6147  1.2356
 5994SOL    HW229442   0.915   2.559  14.035  0.3325 -0.5843 -2.4793
 5995SOL     OW29443   3.164   2.826   5.162 -0.5912  0.2033 -0.5815
 5995SOL    HW129444   3.229   2.888   5.194 -0.1690 -0.7029  0.2959
 5995SOL    HW229445   3.087   2.879   5.143  0.4916  1.8416 -0.4772
 5996SOL     OW29446   3.675   3.217  16.708  0.0874  0.1051  0.2600
 5996SOL    HW129447   3.607   3.192  16.646  0.2502 -1.1499  0.5704
 5996SOL    HW229448   3.623   3.239  16.785 -0.8710 -2.2503  0.2849
 5997SOL     OW29449   2.577   2.645   4.576 -0.3032  0.2036  0.0657
 5997SOL    HW129450   2.610   2.689   4.498  1.1675  1.4554  1.3593
 5997SOL    HW229451   2.558   2.726   4.624 -1.6878  0.5481 -1.0803
 5998SOL     OW29452   1.182   3.794   2.940 -0.4044 -0.1277 -0.0126
 5998SOL    HW129453   1.205   3.718   2.992  1.3541  0.3098 -0.1197
 5998SOL    HW229454   1.087   3.791   2.935 -0.3767  0.3236 -0.8716
 5999SOL     OW29455   2.544   3.282   6.137 -0.5644  0.0675 -0.3810
 5999SOL    HW129456   2.539   3.341   6.212  1.0376  2.8715 -2.4813
 5999SOL    HW229457   2.450   3.265   6.139 -0.8468  1.6629 -0.3538
 6000SOL     OW29458   2.097   2.215   7.890  0.9159 -0.5840  0.4885
 6000SOL    HW129459   2.082   2.289   7.948 -1.9272 -0.3740 -0.5425
 6000SOL    HW229460   2.037   2.148   7.921  0.8703 -0.9005 -0.2820
 6001SOL     OW29461   4.262   1.492   1.070  0.0931  0.0001 -0.2731
 6001SOL    HW129462   4.189   1.488   1.132 -0.7212 -0.0459 -1.2390
 6001SOL    HW229463   4.211   1.480   0.989  0.6778  0.8614 -0.7737
 6002SOL     OW29464   2.507   0.264  14.091  0.5126 -0.1032  0.0447
 6002SOL    HW129465   2.460   0.343  14.064  0.7607  1.0586  3.0412
 6002SOL    HW229466   2.590   0.308  14.075  0.1835 -0.8314 -3.8419
 6003SOL     OW29467   4.662   1.590   3.662  0.5516 -0.0106  0.6618
 6003SOL    HW129468   4.676   1.583   3.568  1.1754 -1.0491  0.8262
 6003SOL    HW229469   4.645   1.498   3.683 -1.7618  0.7819  2.3780
 6004SOL     OW29470   3.045   1.748  16.907 -0.8510  0.0443 -0.6303
 6004SOL    HW129471   3.117   1.786  16.956 -1.4511  0.0199  0.2714
 6004SOL    HW229472   3.048   1.810  16.835  1.0565  0.4461 -0.1821
 6005SOL     OW29473   3.399   2.539   5.904 -0.0011 -1.0534  0.5337
 6005SOL    HW129474   3.309   2.509   5.895 -0.0458 -1.0294  0.9116
 6005SOL    HW229475   3.406   2.581   5.819  0.6560  1.2567  1.7162
 6006SOL     OW29476   4.322   1.422   6.182  0.1910  0.0727 -0.3731
 6006SOL    HW129477   4.354   1.511   6.168  0.3560  0.4081  2.1616
 6006SOL    HW229478   4.290   1.409   6.092  0.6713 -4.6672  0.1468
 6007SOL     OW29479   1.092   3.837  17.316  0.8376  0.2700  0.3567
 6007SOL    HW129480   1.142   3.799  17.244  3.1283  3.6824  0.1551
 6007SOL    HW229481   1.031   3.897  17.274 -0.6325 -0.1543  1.8813
 6008SOL     OW29482   3.596   1.504   5.372 -0.4532 -0.0362  0.2355
 6008SOL    HW129483   3.586   1.592   5.408 -0.3126  0.6241 -1.3314
 6008SOL    HW229484   3.508   1.468   5.385 -1.5665  3.3825  1.9640
 6009SOL     OW29485   2.768   4.472   3.978 -0.0298  0.4218  0.5464
 6009SOL    HW129486   2.769   4.440   3.888  0.1121 -1.3301  1.1549
 6009SOL    HW229487   2.844   4.530   3.982  0.0098  0.2619  2.2907
 6010SOL     OW29488   2.464   4.061   2.122 -0.1550  0.4646 -0.9621
 6010SOL    HW129489   2.392   4.123   2.129  1.6143  2.3915  0.0614
 6010SOL    HW229490   2.503   4.070   2.209 -1.0199  0.4620 -0.5724
 6011SOL     OW29491   1.222   0.265   0.847 -0.0880 -0.8346 -0.2118
 6011SOL    HW129492   1.181   0.193   0.895 -1.6779  1.1183  1.3386
 6011SOL    HW229493   1.149   0.308   0.802 -1.1630  0.0083  2.3286
 6012SOL     OW29494   1.979   0.128   0.549 -0.8502 -0.1012 -0.1271
 6012SOL    HW129495   1.915   0.059   0.532 -0.1718 -1.0744  1.2915
 6012SOL    HW229496   1.952   0.186   0.478 -2.2220  0.6180  0.9924
 6013SOL     OW29497   3.319   0.968   3.464  0.0915 -0.3328  0.6613
 6013SOL    HW129498   3.235   1.014   3.472  0.0558 -0.4500  0.9754
 6013SOL    HW229499   3.390   1.031   3.473 -1.2027  1.4650 -1.7367
 6014SOL     OW29500   4.392   3.347   1.840  0.3038  0.7376 -0.0518
 6014SOL    HW129501   4.343   3.300   1.907 -2.6395  3.7859 -0.1283
 6014SOL    HW229502   4.344   3.326   1.760  1.4366 -2.6370  0.1148
 6015SOL     OW29503   0.778   1.089   3.233 -0.4139 -0.2636  0.2834
 6015SOL    HW129504   0.713   1.031   3.273 -0.7747 -0.1455 -0.1426
 6015SOL    HW229505   0.852   1.028   3.237  0.7255  1.0240 -1.2857
 6016SOL     OW29506   3.247   4.062   0.903  0.4108 -0.4094  0.2001
 6016SOL    HW129507   3.205   4.031   0.822  0.5924  0.9310 -0.4046
 6016SOL    HW229508   3.229   3.983   0.955  0.4704 -0.3222  0.3517
 6017SOL     OW29509   1.170   2.316   7.159 -0.0246 -0.5973 -0.0095
 6017SOL    HW129510   1.095   2.337   7.103 -0.8679 -1.1191  0.9461
 6017SOL    HW229511   1.231   2.387   7.139 -1.0428  1.0028  2.6223
 6018SOL     OW29512   2.596   0.939  13.861  0.1759 -0.3087  0.5304
 6018SOL    HW129513   2.656   0.928  13.787  1.3895 -1.0896  1.6412
 6018SOL    HW229514   2.534   0.873  13.829 -1.4007  1.0245  0.8202
 6019SOL     OW29515   1.896   1.475   8.481  0.2250 -0.0448 -0.8548
 6019SOL    HW129516   1.954   1.469   8.405  1.1974 -2.4855  0.0694
 6019SOL    HW229517   1.826   1.412   8.463  0.7026 -0.3767 -1.5326
 6020SOL     OW29518   0.971   4.245   7.192 -0.3901 -0.3656 -0.7082
 6020SOL    HW129519   0.880   4.267   7.170 -0.6478  2.2319  2.8846
 6020SOL    HW229520   1.018   4.276   7.114 -0.8641  0.5231 -0.6523
 6021SOL     OW29521   1.747   0.454   8.236 -0.0985 -0.1402 -0.4097
 6021SOL    HW129522   1.673   0.479   8.291  0.6662 -2.9365  1.8588
 6021SOL    HW229523   1.779   0.534   8.194  0.3596  0.1185  0.4237
 6022SOL     OW29524   3.864   1.775   7.843  0.3906  0.5329  0.8788
 6022SOL    HW129525   3.944   1.726   7.862  1.0935  0.4274 -2.3570
 6022SOL    HW229526   3.799   1.730   7.897  1.1599 -0.4924  0.9615
 6023SOL     OW29527   3.020   2.169   0.983 -0.3268  0.1196  0.0296
 6023SOL    HW129528   3.110   2.142   0.962  0.4281  1.6464  1.3055
 6023SOL    HW229529   3.030   2.182   1.077  2.1199  1.3304 -0.4034
 6024SOL     OW29530   2.282   0.686   6.199  0.3526 -0.9221 -0.1717
 6024SOL    HW129531   2.259   0.605   6.244 -0.3569 -0.4456  0.3220
 6024SOL    HW229532   2.232   0.748   6.252 -1.0778 -1.3678 -0.9910
 6025SOL     OW29533   4.481   3.266   6.779  0.0811 -0.0308  0.3346
 6025SOL    HW129534   4.429   3.341   6.751 -1.8741 -0.5175  2.7100
 6025SOL    HW229535   4.557   3.312   6.815  0.8443 -0.5016 -0.6783
 6026SOL     OW29536   2.183   4.461   8.654  0.6616  0.2362  0.0160
 6026SOL    HW129537   2.182   4.551   8.621 -0.8978  0.2188  0.0103
 6026SOL    HW229538   2.217   4.470   8.743 -0.5423  1.6286  0.3464
 6027SOL     OW29539   4.354   3.095  10.347  0.2664 -0.4631 -0.4859
 6027SOL    HW129540   4.434   3.142  10.369 -0.2044 -0.2834  0.8417
 6027SOL    HW229541   4.388   3.022  10.295  3.6129 -0.1398  1.2157
 6028SOL     OW29542   2.718   0.303   0.031  0.0897  0.3177  0.0753
 6028SOL    HW129543   2.712   0.247  17.645 -1.6957  0.7673 -0.1136
 6028SOL    HW229544   2.764   0.383   0.005 -1.1570 -0.0653 -3.4128
 6029SOL     OW29545   2.356   0.725   1.375 -0.5030 -0.5630 -0.8005
 6029SOL    HW129546   2.352   0.805   1.427  1.6872 -0.4131 -0.8242
 6029SOL    HW229547   2.290   0.729   1.306 -0.5763 -0.3339 -0.7174
 6030SOL     OW29548   0.011   4.654   1.185 -0.8202 -0.0547 -0.3506
 6030SOL    HW129549   4.659   4.616   1.139 -1.5644  0.0539  0.7842
 6030SOL    HW229550   0.004   4.597   1.261 -2.2676 -1.8956 -1.8744
 6031SOL     OW29551   4.348   1.319   8.047 -0.3725  0.9679  0.2492
 6031SOL    HW129552   4.438   1.349   8.060 -0.3097  0.7372  0.3469
 6031SOL    HW229553   4.357   1.233   8.006 -1.8758  1.1020 -0.3684
 6032SOL     OW29554   0.115   1.236   6.011  0.2551  0.2359 -0.0025
 6032SOL    HW129555   0.208   1.214   5.998  0.8199  0.3672  3.7903
 6032SOL    HW229556   0.086   1.151   6.043  0.7298  0.2216  0.3883
 6033SOL     OW29557   3.705   4.005   5.915  0.6466 -0.2722 -0.1093
 6033SOL    HW129558   3.644   3.938   5.945 -1.1856  1.3808 -0.1024
 6033SOL    HW229559   3.775   4.003   5.980 -1.0977  0.3876  1.7908
 6034SOL     OW29560   1.628   2.450  10.031 -0.5019 -0.4581 -0.1124
 6034SOL    HW129561   1.644   2.540  10.061  0.5594 -0.2599 -1.2847
 6034SOL    HW229562   1.641   2.404  10.114 -2.4710 -0.2991  0.2734
 6035SOL     OW29563   0.078   4.203   4.905 -0.1196  0.0634  0.1270
 6035SOL    HW129564   0.151   4.157   4.863 -0.0584  1.1254 -0.9415
 6035SOL    HW229565   0.013   4.133   4.917  0.1884 -0.4444 -1.1465
 6036SOL     OW29566   3.973   2.271  10.966  0.3026  0.0298  0.0605
 6036SOL    HW129567   3.919   2.287  11.043  2.2740  0.2923  1.3665
 6036SOL    HW229568   3.950   2.344  10.908  1.1571  1.4223  1.4960
 6037SOL     OW29569   4.146   1.594   2.485  0.3598 -0.1690 -0.1502
 6037SOL    HW129570   4.099   1.511   2.490  1.1491 -0.6240 -0.2501
 6037SOL    HW229571   4.111   1.622   2.400 -0.2765  1.6987  0.7184
 6038SOL     OW29572   3.292   4.218  15.070 -0.2168  0.0755  0.7571
 6038SOL    HW129573   3.229   4.171  15.015  0.7936 -0.1294 -0.2192
 6038SOL    HW229574   3.371   4.164  15.059  0.1851  1.0538 -1.1623
 6039SOL     OW29575   3.843   0.669   7.005 -0.2219 -0.0783 -0.7350
 6039SOL    HW129576   3.884   0.704   6.925 -1.7744  1.2535 -0.9596
 6039SOL    HW229577   3.750   0.688   6.995  0.4044  3.2500 -0.4293
 6040SOL     OW29578   1.367   3.936   9.000 -0.5812 -0.1356 -0.1656
 6040SOL    HW129579   1.360   3.948   8.905  0.5681  0.7486 -0.1266
 6040SOL    HW229580   1.426   3.860   9.001 -0.7616 -0.2786 -0.3071
 6041SOL     OW29581   4.077   0.958   6.561 -0.2774 -0.1922  0.3778
 6041SOL    HW129582   4.008   0.987   6.621 -0.3291 -0.9006  0.6686
 6041SOL    HW229583   4.139   0.939   6.632  2.4929  0.8667 -1.7779
 6042SOL     OW29584   2.837   3.133   6.685 -0.0403  0.4338 -0.4653
 6042SOL    HW129585   2.922   3.167   6.711 -0.4623 -0.2232  1.7848
 6042SOL    HW229586   2.837   3.138   6.590 -1.4721  2.5213 -0.3698
 6043SOL     OW29587   1.368   3.854   3.659  0.0228 -1.0565  0.3731
 6043SOL    HW129588   1.369   3.900   3.743 -0.8298 -1.9256  0.8633
 6043SOL    HW229589   1.428   3.906   3.606  1.6219 -1.4689  1.7861
 6044SOL     OW29590   4.422   0.167  10.062 -0.3336 -0.4578  0.3055
 6044SOL    HW129591   4.484   0.095  10.071 -0.6633 -0.9562 -1.4324
 6044SOL    HW229592   4.415   0.163   9.966  1.6915 -0.0768  0.1377
 6045SOL     OW29593   3.349   1.370  16.425 -0.7422  0.3722 -0.2688
 6045SOL    HW129594   3.402   1.292  16.438 -1.3647 -0.3024 -1.7937
 6045SOL    HW229595   3.392   1.421  16.357  0.9884 -0.9052 -0.1171
 6046SOL     OW29596   3.712   1.044  17.183 -0.0147 -0.3452 -0.6305
 6046SOL    HW129597   3.657   0.973  17.149 -0.2414  0.6380 -2.2781
 6046SOL    HW229598   3.665   1.124  17.160 -0.0182 -1.2309 -3.6696
 6047SOL     OW29599   3.171   3.973   7.767  0.6426 -0.6703 -0.1252
 6047SOL    HW129600   3.241   3.977   7.832 -0.0712 -0.5402  0.6405
 6047SOL    HW229601   3.130   4.057   7.789 -0.4750 -1.5709  1.2177
 6048SOL     OW29602   3.557   0.438   5.046 -0.2982  0.1446  0.6821
 6048SOL    HW129603   3.604   0.390   4.977 -3.1304 -0.6171 -0.7113
 6048SOL    HW229604   3.607   0.518   5.063  1.0993  0.0460 -2.9595
 6049SOL     OW29605   1.572   1.524   8.647 -0.4408  0.2970 -0.1274
 6049SOL    HW129606   1.492   1.475   8.664  0.0470 -0.0458  1.2603
 6049SOL    HW229607   1.639   1.464   8.681 -0.3290  0.1079 -0.6846
 6050SOL     OW29608   0.901   3.465   6.246 -0.0600 -0.0961 -0.1681
 6050SOL    HW129609   0.867   3.386   6.204  1.6840 -1.3779  0.8169
 6050SOL    HW229610   0.974   3.422   6.292 -2.3483 -0.9967  2.6066
 6051SOL     OW29611   1.890   0.518  13.049  0.2769 -0.4193 -0.0539
 6051SOL    HW129612   1.866   0.607  13.072 -0.0696 -0.6580  0.5060
 6051SOL    HW229613   1.887   0.482  13.137  0.9694  1.8941  0.8920
 6052SOL     OW29614   2.481   0.674   7.158 -0.2829 -0.5190 -0.0674
 6052SOL    HW129615   2.542   0.655   7.229 -0.5813 -0.9269  0.0774
 6052SOL    HW229616   2.405   0.647   7.209  1.2926 -2.6873  1.1436
 6053SOL     OW29617   0.366   1.194   7.963  0.7168 -0.2552  0.0325
 6053SOL    HW129618   0.270   1.187   7.963  0.6023  1.2573  1.0739
 6053SOL    HW229619   0.375   1.205   7.868  1.3782 -0.1301  0.1093
 6054SOL     OW29620   3.052   2.904   6.551 -0.6186  0.0592  0.1645
 6054SOL    HW129621   3.019   2.818   6.526 -0.6921  0.3402 -0.6958
 6054SOL    HW229622   3.044   2.899   6.646 -0.3983  0.2155  0.1915
 6055SOL     OW29623   4.432   4.691  15.527 -0.3483 -0.3534  0.3256
 6055SOL    HW129624   4.360   4.648  15.482 -0.3314  0.8425 -0.8416
 6055SOL    HW229625   4.434   4.653  15.615 -2.2334  0.0157  0.5146
 6056SOL     OW29626   3.649   3.205   6.962 -0.2261 -0.1551 -0.4212
 6056SOL    HW129627   3.630   3.290   7.001  0.8941 -0.8475  1.6359
 6056SOL    HW229628   3.736   3.182   6.994 -1.8640 -1.0721  3.4358
 6057SOL     OW29629   2.691   1.284   7.136 -0.6003  0.0466  0.4632
 6057SOL    HW129630   2.670   1.374   7.162 -1.7012 -0.0970  0.0958
 6057SOL    HW229631   2.739   1.306   7.056 -0.1541  2.4937  1.4180
 6058SOL     OW29632   0.592   0.631   8.292  0.0534  0.1979 -0.0319
 6058SOL    HW129633   0.630   0.663   8.373 -0.2096 -1.3861  0.7099
 6058SOL    HW229634   0.570   0.541   8.317 -0.0931  0.4974  0.8949
 6059SOL     OW29635   2.676   1.585   4.471  0.7133  0.1476  0.1563
 6059SOL    HW129636   2.669   1.653   4.539  3.7241  2.4835 -1.8473
 6059SOL    HW229637   2.698   1.509   4.525 -1.6142 -0.5881  0.0508
 6060SOL     OW29638   0.477   1.022  17.110 -0.3519 -0.0529 -0.2025
 6060SOL    HW129639   0.394   1.061  17.137 -1.1158 -0.9383 -1.2946
 6060SOL    HW229640   0.516   1.105  17.082 -0.8077 -0.6738 -2.6631
 6061SOL     OW29641   3.852   2.696   7.122 -0.1649  0.4097  0.2829
 6061SOL    HW129642   3.913   2.645   7.176 -0.2829 -0.5637 -0.5043
 6061SOL    HW229643   3.816   2.754   7.188 -0.5056  0.4107  0.0963
 6062SOL     OW29644   4.050   0.029   1.306  0.5908 -0.4887  0.0375
 6062SOL    HW129645   4.018   0.077   1.383  0.0162 -2.1395  0.8154
 6062SOL    HW229646   4.016   0.087   1.237  2.0754 -0.4600 -0.6798
 6063SOL     OW29647   3.285   1.127   2.242  0.2333  0.0236  0.1258
 6063SOL    HW129648   3.269   1.054   2.182  0.5807 -0.1590  0.2615
 6063SOL    HW229649   3.277   1.209   2.192  1.6075  0.6098  0.8651
 6064SOL     OW29650   2.240   1.185   3.027  0.2176 -0.2680 -0.6358
 6064SOL    HW129651   2.326   1.215   2.997  0.4039 -1.8199 -1.6860
 6064SOL    HW229652   2.220   1.232   3.107  0.8338  0.4515 -0.9016
 6065SOL     OW29653   3.935   2.898   8.500 -0.3599 -0.6879 -0.1862
 6065SOL    HW129654   3.944   2.870   8.409  1.9150  2.2002 -0.8632
 6065SOL    HW229655   4.027   2.913   8.522 -0.2715 -1.9493  0.3216
 6066SOL     OW29656   3.721   1.708  13.061  0.3291  0.3718 -0.2541
 6066SOL    HW129657   3.778   1.705  13.137  0.4428 -4.3375 -0.5522
 6066SOL    HW229658   3.745   1.626  13.018  0.8318  1.1126 -1.4200
 6067SOL     OW29659   3.300   0.912   5.572  0.0503  0.4525  0.1253
 6067SOL    HW129660   3.368   0.936   5.510 -0.7000  1.7729 -0.1879
 6067SOL    HW229661   3.292   0.828   5.529 -0.1112 -0.6225  2.2590
 6068SOL     OW29662   2.765   4.319   8.952 -0.3296  0.2791  0.0711
 6068SOL    HW129663   2.836   4.259   8.977  0.9385  2.1911  1.0848
 6068SOL    HW229664   2.695   4.260   8.980 -0.2908  0.2233  0.0499
 6069SOL     OW29665   3.604   3.089  13.323  0.3094  0.0859  0.1497
 6069SOL    HW129666   3.696   3.106  13.302  0.7491 -0.8141  1.2950
 6069SOL    HW229667   3.591   3.131  13.408  0.5741  2.6708 -1.0801
 6070SOL     OW29668   4.308   1.995  10.780  0.0201 -0.4047 -0.2443
 6070SOL    HW129669   4.288   2.049  10.857  0.1478 -0.1289 -0.4049
 6070SOL    HW229670   4.225   1.999  10.732 -0.9104  1.3091  1.4603
 6071SOL     OW29671   3.909   0.525  14.734 -0.5112 -0.0303 -0.4867
 6071SOL    HW129672   3.988   0.504  14.786 -0.7510 -0.7664 -0.4180
 6071SOL    HW229673   3.939   0.615  14.720  2.6243 -0.6449  2.1894
 6072SOL     OW29674   4.576   2.090   8.154 -0.0269 -0.3813  0.1068
 6072SOL    HW129675   4.589   2.173   8.201 -2.5559 -0.7244  1.3994
 6072SOL    HW229676   4.622   2.110   8.072  1.4206  2.2616  1.5536
 6073SOL     OW29677   4.714   2.638   8.679 -0.4160 -0.4952  0.0656
 6073SOL    HW129678   0.038   2.664   8.758 -0.7091 -0.6433  0.2887
 6073SOL    HW229679   0.065   2.627   8.619  0.7708 -1.1807  1.6380
 6074SOL     OW29680   3.327   0.815   6.843 -0.7185 -0.2018  0.7428
 6074SOL    HW129681   3.321   0.909   6.859 -2.2742 -0.1350 -0.2178
 6074SOL    HW229682   3.306   0.811   6.750 -1.8013  2.4287  0.8541
 6075SOL     OW29683   2.249   1.904  12.397  0.1870 -0.1498 -0.0930
 6075SOL    HW129684   2.294   1.873  12.476 -0.3297 -2.3442 -0.6613
 6075SOL    HW229685   2.308   1.967  12.356  1.6788 -0.0096  2.2358
 6076SOL     OW29686   1.155   1.067   5.354 -0.3029 -0.6046 -0.1003
 6076SOL    HW129687   1.144   1.156   5.320 -1.9978 -0.5227  0.6612
 6076SOL    HW229688   1.175   1.021   5.273 -1.2172 -0.4295 -0.4181
 6077SOL     OW29689   3.712   2.557   4.755 -0.0034  0.4879  0.5770
 6077SOL    HW129690   3.644   2.505   4.798 -1.7699  2.3301  0.0031
 6077SOL    HW229691   3.670   2.635   4.717  3.0039  0.6087 -2.5550
 6078SOL     OW29692   2.511   2.839   5.004 -0.0693 -0.4466 -0.5870
 6078SOL    HW129693   2.480   2.884   5.082  0.0244 -0.0879 -0.7596
 6078SOL    HW229694   2.601   2.816   5.027  0.0002 -0.1516 -0.5757
 6079SOL     OW29695   4.128   1.562  12.831 -0.2687  0.3362  0.2562
 6079SOL    HW129696   4.095   1.482  12.871 -1.1228  0.9191  0.7033
 6079SOL    HW229697   4.047   1.572  12.781 -1.5678 -1.3802  2.0189
 6080SOL     OW29698   4.098   4.579   4.140 -0.6884  0.6267  0.4338
 6080SOL    HW129699   4.094   4.632   4.061  3.1103 -1.3490 -1.0270
 6080SOL    HW229700   4.005   4.558   4.151 -0.3716 -0.4497  0.9992
 6081SOL     OW29701   0.466   2.282   4.024 -0.0967 -0.0309  0.2034
 6081SOL    HW129702   0.404   2.354   4.037  0.4557  0.6075 -0.7210
 6081SOL    HW229703   0.416   2.211   4.064 -3.5657  2.0152 -0.4562
 6082SOL     OW29704   1.716   2.781   1.336  0.6311  0.0688  0.3407
 6082SOL    HW129705   1.625   2.807   1.352  1.3136  2.5818  0.0633
 6082SOL    HW229706   1.740   2.718   1.405 -0.9697  0.1274  0.9540
 6083SOL     OW29707   1.858   3.943   2.100  0.4067  0.9130 -0.2984
 6083SOL    HW129708   1.794   3.997   2.147 -0.8323  0.0470 -0.9871
 6083SOL    HW229709   1.872   3.880   2.171 -1.1256  1.0041  0.0868
 6084SOL     OW29710   0.836   2.543   1.308  0.1829 -0.5948  0.3860
 6084SOL    HW129711   0.811   2.598   1.234 -2.4226 -1.1266  0.8728
 6084SOL    HW229712   0.762   2.560   1.365  0.9969 -0.3797  1.3922
 6085SOL     OW29713   2.467   3.535   7.281  0.3668  0.4286 -0.1099
 6085SOL    HW129714   2.495   3.450   7.315 -0.2766  0.7746  1.2731
 6085SOL    HW229715   2.478   3.596   7.354 -0.5193 -0.6485  0.9122
 6086SOL     OW29716   3.693   0.490  13.007 -0.3284 -0.7555 -0.6937
 6086SOL    HW129717   3.643   0.491  13.089 -0.5262 -2.9117 -0.7876
 6086SOL    HW229718   3.656   0.564  12.961  1.7906 -0.0599 -1.2856
 6087SOL     OW29719   3.678   3.123  10.892  0.1514  0.4106  0.1013
 6087SOL    HW129720   3.634   3.046  10.927  1.1749 -0.9796 -1.6930
 6087SOL    HW229721   3.727   3.162  10.965 -0.3014  2.6882 -0.7954
 6088SOL     OW29722   1.430   1.648   5.426  0.1865 -0.3124 -0.0724
 6088SOL    HW129723   1.346   1.687   5.403  0.7220  0.6214 -0.4633
 6088SOL    HW229724   1.401   1.591   5.497 -1.3300 -0.1529 -0.5657
 6089SOL     OW29725   2.689   1.120   4.170  0.6257 -0.3562 -0.3936
 6089SOL    HW129726   2.639   1.195   4.137  1.3371  0.8324  1.2349
 6089SOL    HW229727   2.761   1.169   4.210  1.4492 -0.8663 -1.2398
 6090SOL     OW29728   2.597   3.978   1.353  0.0655 -0.1048 -0.0212
 6090SOL    HW129729   2.625   4.062   1.316  2.4147 -0.9460 -0.1903
 6090SOL    HW229730   2.681   3.940   1.379 -0.7862 -1.9758  0.0017
 6091SOL     OW29731   3.967   2.552  15.412 -0.1779 -0.3559  0.0925
 6091SOL    HW129732   3.882   2.553  15.368  1.9794  2.6574 -3.9935
 6091SOL    HW229733   3.946   2.630  15.463 -1.5877  0.6920 -2.0771
 6092SOL     OW29734   0.234   3.838   4.901  0.7859  0.2191 -0.1963
 6092SOL    HW129735   0.183   3.845   4.981 -0.2614  1.3673 -0.9491
 6092SOL    HW229736   0.304   3.783   4.936 -0.2613  0.1068  1.6740
 6093SOL     OW29737   3.750   2.942   6.663  0.0724 -0.1948  0.5020
 6093SOL    HW129738   3.687   3.005   6.698 -0.8014 -0.5729 -0.3799
 6093SOL    HW229739   3.806   2.918   6.737  1.3103  0.4719 -0.2192
 6094SOL     OW29740   2.621   0.349   9.284  0.0640 -0.2275 -0.1677
 6094SOL    HW129741   2.607   0.370   9.376 -0.1346  1.0991 -0.5002
 6094SOL    HW229742   2.591   0.258   9.278 -3.9917  1.0571  0.6588
 6095SOL     OW29743   3.674   2.483   5.588 -0.4232 -0.2864  0.2209
 6095SOL    HW129744   3.765   2.500   5.564 -0.9464 -1.1657 -2.4364
 6095SOL    HW229745   3.676   2.515   5.678  0.9072 -1.8151  0.7355
 6096SOL     OW29746   1.093   1.448   3.908  0.0285  0.5419  0.5155
 6096SOL    HW129747   1.052   1.480   3.827  1.0004  1.3266  0.3313
 6096SOL    HW229748   1.046   1.491   3.979 -0.4874 -2.8180  2.1834
 6097SOL     OW29749   3.148   3.506   6.922 -0.4852  0.2000 -0.1831
 6097SOL    HW129750   3.175   3.590   6.958  2.8725 -0.2343 -1.6382
 6097SOL    HW229751   3.088   3.527   6.851 -0.0999 -1.2931 -0.9607
 6098SOL     OW29752   4.365   1.967  11.091  0.0773  0.0032 -0.7179
 6098SOL    HW129753   4.317   2.047  11.068 -2.5357 -1.5483 -0.6653
 6098SOL    HW229754   4.295   1.919  11.135 -0.8789  1.2176 -0.8857
 6099SOL     OW29755   4.176   0.921   5.145  0.0728 -0.4160 -0.3653
 6099SOL    HW129756   4.146   0.891   5.231  0.0170 -0.7487 -0.4990
 6099SOL    HW229757   4.105   0.895   5.085 -1.0507 -0.5070  1.0181
 6100SOL     OW29758   3.428   2.597  14.364 -0.2163 -0.3081 -0.4234
 6100SOL    HW129759   3.496   2.552  14.314  0.9630  1.2238 -0.1735
 6100SOL    HW229760   3.352   2.604  14.306 -0.7216 -1.6066  0.0707
 6101SOL     OW29761   1.345   0.533   8.848 -0.1262 -0.2653 -0.0031
 6101SOL    HW129762   1.265   0.586   8.855 -0.3438 -0.2888 -2.2603
 6101SOL    HW229763   1.361   0.530   8.942  1.8585  3.9369 -0.1674
 6102SOL     OW29764   1.114   0.002   6.854  0.2914 -0.4682 -0.2481
 6102SOL    HW129765   1.156   0.061   6.917 -0.5185  0.3837 -0.5130
 6102SOL    HW229766   1.100   0.061   6.781  0.2841 -0.8276 -0.5370
 6103SOL     OW29767   0.855   4.200   7.600  0.2588  0.2356 -0.0508
 6103SOL    HW129768   0.908   4.218   7.523  0.7008 -0.2993  0.1270
 6103SOL    HW229769   0.803   4.125   7.570 -0.0365  0.0688  0.8970
 6104SOL     OW29770   3.908   2.575   6.735 -0.2474  0.7915  0.0403
 6104SOL    HW129771   3.845   2.641   6.764  0.2324  0.9798  0.6597
 6104SOL    HW229772   3.852   2.501   6.712  0.5932  0.1860 -0.0795
 6105SOL     OW29773   3.961   2.137   6.801 -0.5653 -0.0279 -0.2304
 6105SOL    HW129774   3.887   2.086   6.833 -2.4972  2.6955 -0.2971
 6105SOL    HW229775   3.975   2.103   6.713  1.8531 -1.9301  0.8752
 6106SOL     OW29776   0.072   1.344   9.877 -0.3249 -0.1029  0.2157
 6106SOL    HW129777   0.150   1.292   9.861 -1.1367 -1.5078  0.7369
 6106SOL    HW229778   0.100   1.422   9.924  1.0942  0.0307 -0.8812
 6107SOL     OW29779   2.892   2.611   1.906  0.2250  0.1385 -0.1068
 6107SOL    HW129780   2.912   2.681   1.844 -1.5552 -1.3473 -2.3505
 6107SOL    HW229781   2.939   2.533   1.878 -1.2708 -1.0543  0.7250
 6108SOL     OW29782   2.173   4.023  12.562 -0.2525 -0.1528 -0.2029
 6108SOL    HW129783   2.197   4.050  12.473 -0.9677  3.8869  0.8339
 6108SOL    HW229784   2.223   3.942  12.557  1.5716  0.9800  0.0566
 6109SOL     OW29785   1.830   2.029   4.105  0.1215  0.1724 -0.3572
 6109SOL    HW129786   1.836   1.961   4.038 -0.0620  2.4980 -2.7169
 6109SOL    HW229787   1.875   2.108   4.074  0.7242 -1.0747 -2.6987
 6110SOL     OW29788   2.551   1.343  11.045 -0.7116  0.4721 -0.4748
 6110SOL    HW129789   2.601   1.333  10.964  2.6576  0.0089  1.6637
 6110SOL    HW229790   2.461   1.371  11.030 -0.5355  0.5818 -1.3096
 6111SOL     OW29791   2.338   0.302  11.410 -0.0561 -0.4237 -0.2755
 6111SOL    HW129792   2.329   0.382  11.357 -0.0670  1.1562  2.1436
 6111SOL    HW229793   2.425   0.301  11.448 -0.8806  0.7245  1.6188
 6112SOL     OW29794   2.802   3.480   6.731 -0.0450  0.0795 -0.2869
 6112SOL    HW129795   2.794   3.439   6.817 -0.9360 -0.2708 -0.5446
 6112SOL    HW229796   2.752   3.560   6.744  0.7210  0.4929  0.1523
 6113SOL     OW29797   3.311   2.612   8.076 -0.2376  0.4701  0.4533
 6113SOL    HW129798   3.301   2.517   8.072  0.6537  0.3790  0.3777
 6113SOL    HW229799   3.347   2.624   8.164  0.7613  0.9236 -0.0127
 6114SOL     OW29800   4.282   0.116   8.794  0.0178  0.0586  0.4855
 6114SOL    HW129801   4.261   0.172   8.869 -0.6095  0.5555 -0.0703
 6114SOL    HW229802   4.200   0.102   8.748  1.0938  0.9039 -1.7057
 6115SOL     OW29803   2.034   4.312   6.391  0.0167 -0.1735 -0.1306
 6115SOL    HW129804   2.087   4.236   6.367 -0.4338 -0.3835 -0.4704
 6115SOL    HW229805   2.017   4.278   6.479  1.2568 -1.3996 -0.3647
 6116SOL     OW29806   2.307   1.567  12.137 -0.0253  0.2357 -0.0185
 6116SOL    HW129807   2.396   1.546  12.108 -0.7643  0.2863 -2.3836
 6116SOL    HW229808   2.260   1.500  12.087 -0.0108 -1.5221  2.3353
 6117SOL     OW29809   1.042   1.233   5.597 -0.3844  0.0515  0.1016
 6117SOL    HW129810   1.111   1.176   5.562  1.3812  0.4175  2.9588
 6117SOL    HW229811   0.995   1.249   5.515  1.0904  0.9631 -0.5732
 6118SOL     OW29812   3.000   2.894   2.918  0.1388  0.0294 -0.2912
 6118SOL    HW129813   3.064   2.931   2.979 -0.3896  0.6084 -0.0968
 6118SOL    HW229814   2.988   2.947   2.839  0.9531  1.2063  0.3892
 6119SOL     OW29815   2.995   1.433   2.929 -0.4859  0.4207  0.2308
 6119SOL    HW129816   3.014   1.526   2.917  1.0367  0.3779  2.4342
 6119SOL    HW229817   3.059   1.411   2.996 -0.3919  2.6193  0.8476
 6120SOL     OW29818   0.004   3.919   4.518 -0.5509  0.1852 -0.9049
 6120SOL    HW129819   0.083   3.952   4.475 -1.0249  1.2188 -0.9723
 6120SOL    HW229820   4.678   4.000   4.532 -0.4379  0.1848 -0.5227
 6121SOL     OW29821   0.569   2.212   5.840 -0.4372  0.7935 -0.4427
 6121SOL    HW129822   0.474   2.221   5.850 -0.4341 -0.8303  0.9166
 6121SOL    HW229823   0.558   2.136   5.784  2.3706 -2.6238  3.6975
 6122SOL     OW29824   0.233   4.310   3.610  0.0856  0.3192  0.0362
 6122SOL    HW129825   0.176   4.303   3.534  0.2547 -0.1864 -0.0399
 6122SOL    HW229826   0.313   4.337   3.565  0.4772 -3.0340 -1.2405
 6123SOL     OW29827   0.710   4.593  14.542 -0.2845  0.1558 -0.1632
 6123SOL    HW129828   0.716   4.682  14.576 -0.1690  0.1960 -0.2881
 6123SOL    HW229829   0.617   4.594  14.519 -0.3402  0.7469  0.0948
 6124SOL     OW29830   1.483   3.050  16.745  0.3828 -0.1199 -0.3820
 6124SOL    HW129831   1.460   2.958  16.759 -0.3537  0.1168 -0.0706
 6124SOL    HW229832   1.421   3.078  16.677  1.5188 -0.7318 -1.6741
 6125SOL     OW29833   0.892   4.347   6.441 -0.2745  0.1148 -0.3584
 6125SOL    HW129834   0.936   4.422   6.401 -0.5156  0.5080  0.1106
 6125SOL    HW229835   0.842   4.403   6.500  0.0961  0.6592 -0.5661
 6126SOL     OW29836   4.044   4.684  12.277  0.4485 -0.6085  0.4419
 6126SOL    HW129837   4.046   4.647  12.365 -1.8268 -0.2952  0.6403
 6126SOL    HW229838   4.133   4.663  12.251  1.5530  0.2492  3.5629
 6127SOL     OW29839   3.289   1.148   9.348 -0.2097  0.8750  0.4651
 6127SOL    HW129840   3.296   1.060   9.311  1.2341  1.6455 -1.1168
 6127SOL    HW229841   3.335   1.134   9.430  1.5032 -1.9570 -0.9909
 6128SOL     OW29842   3.164   4.039   4.938 -0.0408  0.3515  0.3441
 6128SOL    HW129843   3.242   4.095   4.935 -0.1810  0.4531 -1.4478
 6128SOL    HW229844   3.194   3.974   5.002 -0.0597 -0.4283 -0.4436
 6129SOL     OW29845   1.716   3.638   8.731 -0.1208  0.6372 -0.2476
 6129SOL    HW129846   1.621   3.629   8.723 -0.1198  0.6177 -0.2374
 6129SOL    HW229847   1.745   3.569   8.791 -1.2420 -1.7557 -2.4570
 6130SOL     OW29848   3.712   0.332  14.717  0.5822  0.1958  0.2005
 6130SOL    HW129849   3.711   0.318  14.812 -1.1971  2.4016  0.4992
 6130SOL    HW229850   3.781   0.398  14.710 -0.3864  1.3141  1.4329
 6131SOL     OW29851   3.564   1.249   2.637 -0.4224  0.5255 -1.0358
 6131SOL    HW129852   3.616   1.169   2.622 -1.0910  0.3638 -2.5297
 6131SOL    HW229853   3.587   1.296   2.557 -0.1241  0.8624 -0.7472
 6132SOL     OW29854   1.793   2.396   8.894  0.4045  0.2574 -0.1303
 6132SOL    HW129855   1.760   2.426   8.809 -1.7360  0.6062  0.8011
 6132SOL    HW229856   1.752   2.310   8.901 -2.6900  1.6088 -1.4034
 6133SOL     OW29857   3.209   2.471  10.966  0.3393  0.4124 -0.0912
 6133SOL    HW129858   3.261   2.465  11.046 -0.8219 -0.6655  0.6049
 6133SOL    HW229859   3.123   2.455  11.006  0.0915  1.9080 -0.0427
 6134SOL     OW29860   0.427   0.436   6.913  0.2237  0.2830  0.1893
 6134SOL    HW129861   0.421   0.490   6.991  0.3351  0.1672  0.2785
 6134SOL    HW229862   0.362   0.473   6.853  0.1192 -0.5214 -0.2012
 6135SOL     OW29863   3.753   3.226   6.179 -0.4043  0.5460  0.4538
 6135SOL    HW129864   3.759   3.315   6.214 -0.5041  0.8871 -0.4174
 6135SOL    HW229865   3.842   3.197   6.198 -0.5668  0.2187  0.7281
 6136SOL     OW29866   4.429   1.982   2.627  0.0608 -0.3274  0.2718
 6136SOL    HW129867   4.455   1.977   2.535  3.4119  2.4951  1.0717
 6136SOL    HW229868   4.371   2.058   2.624  3.3211  2.1196 -0.1763
 6137SOL     OW29869   3.488   4.351  13.303  0.0678 -0.0123  0.3503
 6137SOL    HW129870   3.421   4.371  13.368  0.1309 -0.0251  0.4187
 6137SOL    HW229871   3.537   4.433  13.299 -1.6542  1.0312  0.7601
 6138SOL     OW29872   0.947   1.500   5.637  0.1349  0.0435 -0.4252
 6138SOL    HW129873   0.925   1.407   5.643  2.1748 -0.3919  0.4677
 6138SOL    HW229874   0.949   1.519   5.731  3.6546  1.8822 -0.8608
 6139SOL     OW29875   3.755   2.368   6.613  0.1505 -0.8227  0.0902
 6139SOL    HW129876   3.714   2.314   6.545  3.6148  0.0238 -2.6860
 6139SOL    HW229877   3.845   2.341   6.595 -0.5015 -3.1961  0.2993
 6140SOL     OW29878   4.087   1.704  13.110 -0.7894 -0.3665  0.1802
 6140SOL    HW129879   4.159   1.641  13.115  0.9290  1.5493 -0.1689
 6140SOL    HW229880   4.086   1.721  13.016 -3.2697  0.2091  0.3168
 6141SOL     OW29881   0.470   1.866   4.989  0.6673 -0.0177  0.2236
 6141SOL    HW129882   0.401   1.917   4.947 -0.4973 -0.6757  1.3275
 6141SOL    HW229883   0.423   1.851   5.071 -0.1283  0.2778 -0.1792
 6142SOL     OW29884   0.028   2.306   8.279  0.0456 -0.0590 -0.3298
 6142SOL    HW129885   0.087   2.351   8.339  0.8551 -2.6889  0.8519
 6142SOL    HW229886   0.066   2.218   8.282 -2.7949 -1.3940 -3.3973
 6143SOL     OW29887   1.630   3.295   6.187 -0.2382  0.1903 -0.5728
 6143SOL    HW129888   1.653   3.386   6.207  0.3604  0.2048 -1.3480
 6143SOL    HW229889   1.591   3.278   6.273 -0.1328  0.8654 -0.3876
 6144SOL     OW29890   2.288   0.143   2.867 -0.8442 -0.0552  0.5320
 6144SOL    HW129891   2.325   0.203   2.932 -0.4411 -1.0187  1.1972
 6144SOL    HW229892   2.257   0.073   2.925 -1.9774  2.3947  2.8555
 6145SOL     OW29893   0.362   2.266   4.343  0.0644 -0.4068  0.2693
 6145SOL    HW129894   0.357   2.215   4.262 -0.5814 -0.3304  0.2598
 6145SOL    HW229895   0.424   2.218   4.398  1.2290 -1.1636 -1.7036
 6146SOL     OW29896   0.595   2.802   2.859  0.0154  0.1359  0.3177
 6146SOL    HW129897   0.588   2.870   2.792  0.7739  0.4529  0.5643
 6146SOL    HW229898   0.656   2.743   2.817  1.2046  0.9159  0.9502
 6147SOL     OW29899   0.389   1.030   4.015 -0.4556  0.4004 -0.0013
 6147SOL    HW129900   0.375   1.054   3.923  0.7946 -2.8945 -1.0490
 6147SOL    HW229901   0.485   1.030   4.014 -0.4473  0.4491  1.8767
 6148SOL     OW29902   0.413   2.715  16.800  0.1139 -0.2321  0.3140
 6148SOL    HW129903   0.336   2.766  16.823 -0.8177 -1.4351 -0.1173
 6148SOL    HW229904   0.386   2.687  16.713 -3.3701  2.0777  0.6453
 6149SOL     OW29905   0.623   0.502   6.115  0.1643  0.7476  0.3795
 6149SOL    HW129906   0.545   0.474   6.163 -1.4559  1.1890 -2.0619
 6149SOL    HW229907   0.669   0.418   6.107 -0.5204  0.1014  2.9200
 6150SOL     OW29908   2.133   4.621   7.152 -0.0995  0.1977 -0.1336
 6150SOL    HW129909   2.094   4.560   7.089  0.0721  1.2448 -1.2595
 6150SOL    HW229910   2.080   4.700   7.142 -0.2009  0.0200 -1.0279
 6151SOL     OW29911   1.447   2.528   2.430 -0.1624  0.3307  0.1023
 6151SOL    HW129912   1.425   2.447   2.477  1.9406 -0.5205 -0.3793
 6151SOL    HW229913   1.522   2.564   2.478 -0.7620 -0.3952  1.6023
 6152SOL     OW29914   1.441   3.663   4.999  0.4369 -0.2392 -0.0939
 6152SOL    HW129915   1.385   3.632   4.928  1.2507  0.2258 -0.9332
 6152SOL    HW229916   1.499   3.716   4.945  2.4775 -0.7291  1.6101
 6153SOL     OW29917   4.588   1.184   2.737 -0.7940  0.0567  0.4181
 6153SOL    HW129918   4.511   1.240   2.735 -1.4347 -0.8577 -0.4849
 6153SOL    HW229919   4.656   1.231   2.689  0.4624 -0.4563  1.6936
 6154SOL     OW29920   0.784   2.676   0.469  0.2387  0.3205  0.3369
 6154SOL    HW129921   0.776   2.683   0.374  4.2533  1.3993  0.0934
 6154SOL    HW229922   0.876   2.658   0.485  0.1899  0.3958  0.7143
 6155SOL     OW29923   1.389   3.521   5.615 -0.5282 -0.1614 -0.2282
 6155SOL    HW129924   1.307   3.562   5.589 -2.2520 -4.4729 -1.4919
 6155SOL    HW229925   1.446   3.598   5.601  1.7349 -2.3775 -3.0855
 6156SOL     OW29926   2.660   2.013   4.907  0.1612  0.2551  0.8721
 6156SOL    HW129927   2.750   1.981   4.914  0.5758  0.8600 -1.7205
 6156SOL    HW229928   2.607   1.962   4.967 -0.5328  1.6065  1.4064
 6157SOL     OW29929   2.686   0.622  14.764 -0.4929 -0.1860 -0.0720
 6157SOL    HW129930   2.742   0.679  14.818 -1.2851  3.2211 -2.8878
 6157SOL    HW229931   2.622   0.684  14.730  0.2260  0.5745 -0.0374
 6158SOL     OW29932   1.085   3.277   6.353  0.0473 -0.3415  0.7640
 6158SOL    HW129933   1.028   3.202   6.334  0.2931 -0.6157  1.1147
 6158SOL    HW229934   1.089   3.263   6.448  0.4540  3.3950  1.3152
 6159SOL     OW29935   1.322   3.564   7.033 -0.3003  0.5442 -0.3563
 6159SOL    HW129936   1.242   3.519   7.060  1.0035 -1.0825  0.7719
 6159SOL    HW229937   1.393   3.510   7.066 -0.4219 -0.6070 -1.9840
 6160SOL     OW29938   2.545   3.951  10.046 -0.3335 -0.3124  0.7716
 6160SOL    HW129939   2.516   4.041  10.062 -0.3893  0.2466 -2.5333
 6160SOL    HW229940   2.562   3.913  10.133 -1.2152 -1.6898  0.3455
 6161SOL     OW29941   2.914   4.193   3.851 -0.0166  0.1804  0.0005
 6161SOL    HW129942   2.881   4.143   3.776  0.5051 -2.1866  1.3379
 6161SOL    HW229943   2.895   4.280   3.817  0.4958  0.1927 -0.2556
 6162SOL     OW29944   0.778   2.844   5.708  0.4288  0.1420  0.0068
 6162SOL    HW129945   0.720   2.770   5.724  2.3658 -2.0848 -3.3317
 6162SOL    HW229946   0.785   2.829   5.614 -0.3836  3.5790 -0.6271
 6163SOL     OW29947   3.477   4.218   3.934 -0.6643  0.5933 -0.0079
 6163SOL    HW129948   3.497   4.296   3.985  0.8708 -0.3777  0.8529
 6163SOL    HW229949   3.396   4.245   3.890 -0.7583 -3.2609 -2.1929
 6164SOL     OW29950   4.016   1.697   6.775 -0.8768  0.4326  0.3210
 6164SOL    HW129951   4.005   1.742   6.859 -2.4812  0.9487 -0.1752
 6164SOL    HW229952   4.058   1.619   6.810 -0.9650 -0.3602 -1.3167
 6165SOL     OW29953   4.574   3.326   5.139 -0.2980  0.5832 -0.3531
 6165SOL    HW129954   4.521   3.262   5.091 -4.3358  1.8135  2.5148
 6165SOL    HW229955   4.610   3.386   5.073 -3.1928  3.4839  0.7164
 6166SOL     OW29956   2.129   3.072   1.070  0.0465  0.1677  0.2968
 6166SOL    HW129957   2.094   2.994   1.114 -0.8289 -0.6683 -1.8921
 6166SOL    HW229958   2.126   3.047   0.978  1.4176  0.3162  0.2176
 6167SOL     OW29959   3.199   1.104  15.643 -0.2660  0.0885  0.2952
 6167SOL    HW129960   3.122   1.064  15.683  1.5001 -3.0853  0.5115
 6167SOL    HW229961   3.183   1.093  15.549 -0.5215 -1.7391  0.5534
 6168SOL     OW29962   0.196   3.557   5.296  0.8955 -0.3651 -0.7514
 6168SOL    HW129963   0.171   3.520   5.380  1.0834  0.9512 -0.1156
 6168SOL    HW229964   0.139   3.517   5.231  1.3599 -2.8115  0.3615
 6169SOL     OW29965   2.517   0.542   4.925  0.3910 -0.4214  0.2058
 6169SOL    HW129966   2.601   0.497   4.936  0.9319  1.0952  2.2572
 6169SOL    HW229967   2.477   0.508   5.004 -0.3512 -0.4860 -0.1978
 6170SOL     OW29968   2.391   3.857  11.902 -0.2404  0.0022 -0.3162
 6170SOL    HW129969   2.476   3.817  11.920 -0.0149  1.0069  0.9221
 6170SOL    HW229970   2.333   3.783  11.890  1.7922 -2.2490  3.7799
 6171SOL     OW29971   0.990   1.803   5.122 -0.0017 -0.4941 -0.7038
 6171SOL    HW129972   0.901   1.838   5.118  0.0212 -0.1147  2.1125
 6171SOL    HW229973   0.987   1.733   5.188 -0.1929 -0.1470 -0.3379
 6172SOL     OW29974   4.060   0.485   0.650  0.3469 -0.1346 -0.0540
 6172SOL    HW129975   4.007   0.544   0.704  0.7780  2.2777 -2.2697
 6172SOL    HW229976   4.046   0.407   0.705 -1.5448  0.1170 -0.1678
 6173SOL     OW29977   1.222   3.910   7.926 -0.2048  0.3400 -0.1176
 6173SOL    HW129978   1.279   3.986   7.940  1.3519 -0.7494 -0.5492
 6173SOL    HW229979   1.287   3.845   7.951 -0.8352 -0.3726 -0.3356
 6174SOL     OW29980   3.408   1.444   7.995  0.4272 -0.5035  0.5958
 6174SOL    HW129981   3.440   1.450   7.905  1.2827 -1.5749  0.8347
 6174SOL    HW229982   3.319   1.432   7.962  0.4343 -0.6629  0.6379
 6175SOL     OW29983   4.325   4.056   3.166  0.0074 -0.0187 -0.8612
 6175SOL    HW129984   4.299   4.128   3.108 -0.2404 -0.0779 -0.8237
 6175SOL    HW229985   4.419   4.072   3.171 -0.0034 -0.3552  0.3823
 6176SOL     OW29986   0.647   0.126  17.539  0.0030 -0.1729 -0.3031
 6176SOL    HW129987   0.721   0.182  17.517 -0.3208 -0.1375 -1.2778
 6176SOL    HW229988   0.697   0.071  17.599 -0.9676  1.0970  1.6856
 6177SOL     OW29989   4.474   0.961  17.053 -0.2974 -0.3382 -0.1386
 6177SOL    HW129990   4.473   1.056  17.067 -1.0377 -0.1423 -1.5375
 6177SOL    HW229991   4.438   0.932  17.137 -0.2705 -0.2206 -0.0870
 6178SOL     OW29992   0.480   4.417  15.986 -0.4960  0.6216 -0.3402
 6178SOL    HW129993   0.497   4.491  16.044 -3.8476 -0.4627  2.0218
 6178SOL    HW229994   0.386   4.430  15.973 -0.3080  0.4253 -1.8675
 6179SOL     OW29995   0.594   2.032   7.600 -0.3602  0.7627 -0.3934
 6179SOL    HW129996   0.659   1.982   7.649  2.2694  3.3314 -1.1945
 6179SOL    HW229997   0.514   1.998   7.640  0.6563 -0.4031  0.6293
 6180SOL     OW29998   0.913   3.486  14.822 -0.5169  0.2287  0.7485
 6180SOL    HW129999   1.005   3.497  14.846  0.1146 -0.3267 -1.3757
 6180SOL    HW230000   0.894   3.579  14.813 -1.9519  0.0134  1.5830
 6181SOL     OW30001   4.291   2.683  15.032 -0.0457  1.3246  0.3151
 6181SOL    HW130002   4.269   2.623  15.103 -0.0666  3.0172  1.7444
 6181SOL    HW230003   4.209   2.687  14.981  1.2811 -1.8098 -2.0247
 6182SOL     OW30004   2.741   2.550   0.015 -0.1593 -0.3015  0.9799
 6182SOL    HW130005   2.751   2.562  17.613  1.5776  0.7154  1.3007
 6182SOL    HW230006   2.648   2.566   0.030 -0.5561 -1.2756 -0.3643
 6183SOL     OW30007   3.189   0.983   2.989  0.5419  0.4320 -0.2061
 6183SOL    HW130008   3.248   0.907   2.990 -0.7618 -0.5501  1.2681
 6183SOL    HW230009   3.252   1.054   2.978  1.3244 -0.2044  0.1297
 6184SOL     OW30010   4.184   1.772   6.503  0.2162  0.0480  0.2127
 6184SOL    HW130011   4.273   1.768   6.538 -0.4403 -0.7995  1.7731
 6184SOL    HW230012   4.164   1.679   6.489  0.9206  0.4489 -3.4744
 6185SOL     OW30013   4.539   4.296   8.440  0.8791  0.2762 -0.4440
 6185SOL    HW130014   4.524   4.375   8.388 -0.0572 -0.7524 -1.7485
 6185SOL    HW230015   4.490   4.235   8.385  1.0711 -0.8138  0.6029
 6186SOL     OW30016   0.958   0.313  13.952 -0.0406 -0.3476 -0.3026
 6186SOL    HW130017   0.947   0.223  13.981  1.0337 -0.0693  0.9698
 6186SOL    HW230018   0.953   0.360  14.035 -1.9141  1.8438 -1.6634
 6187SOL     OW30019   3.231   4.569   2.161  0.3616  0.2671 -0.3223
 6187SOL    HW130020   3.247   4.647   2.107  1.5075  0.0214 -0.3209
 6187SOL    HW230021   3.157   4.525   2.118 -0.5251  0.7555  0.7262
 6188SOL     OW30022   3.590   2.608   1.177 -0.3478 -0.2146  0.1908
 6188SOL    HW130023   3.683   2.616   1.155 -0.6947 -1.4052 -1.7399
 6188SOL    HW230024   3.588   2.526   1.127 -0.4127 -0.0475 -0.0809
 6189SOL     OW30025   0.584   3.413   4.168  0.1356  0.2847  0.0771
 6189SOL    HW130026   0.490   3.427   4.158  0.0721 -3.3274 -4.0663
 6189SOL    HW230027   0.617   3.492   4.126 -1.1835  0.4904 -0.5640
 6190SOL     OW30028   2.321   1.848   5.431  0.3917  0.0901 -0.5581
 6190SOL    HW130029   2.323   1.808   5.344  3.3126 -4.4672  1.6156
 6190SOL    HW230030   2.379   1.785   5.474  0.0655 -0.9787 -1.6970
 6191SOL     OW30031   3.200   3.383   3.360  0.0981 -0.1195  0.6055
 6191SOL    HW130032   3.249   3.327   3.300  0.4133  0.8508 -0.0536
 6191SOL    HW230033   3.271   3.446   3.374 -1.1883  1.6459 -0.8843
 6192SOL     OW30034   2.024   2.190   2.193 -0.2273 -0.1679  0.0100
 6192SOL    HW130035   2.095   2.134   2.161 -2.0299 -1.4886 -1.6952
 6192SOL    HW230036   1.970   2.128   2.243  1.0740  0.6731  2.4410
 6193SOL     OW30037   3.807   1.582   2.623  0.0869  0.1125  0.0615
 6193SOL    HW130038   3.766   1.560   2.539  2.0897 -0.1674 -0.8576
 6193SOL    HW230039   3.843   1.501   2.661  0.6568 -0.3508 -1.4576
 6194SOL     OW30040   0.172   2.824   7.851  0.2657  0.6034  0.0799
 6194SOL    HW130041   0.218   2.900   7.886  2.5661 -0.5325 -0.4576
 6194SOL    HW230042   0.201   2.759   7.915 -1.6670 -0.6230 -0.2982
 6195SOL     OW30043   0.603   3.852   1.376 -0.0175 -0.1114  0.0952
 6195SOL    HW130044   0.662   3.855   1.301  1.2978  3.5863  1.2734
 6195SOL    HW230045   0.622   3.936   1.417 -1.9823 -0.8951  2.6352
 6196SOL     OW30046   1.142   3.619   1.299 -0.2855 -0.3061 -0.1852
 6196SOL    HW130047   1.149   3.620   1.203  0.5982 -1.1609 -0.1345
 6196SOL    HW230048   1.200   3.545   1.321 -1.0237 -0.5264  0.9725
 6197SOL     OW30049   1.330   2.977   5.169 -0.0911  0.3082 -0.5802
 6197SOL    HW130050   1.415   2.977   5.125  0.5483 -0.3734  0.6512
 6197SOL    HW230051   1.335   2.898   5.222  1.3555 -0.1471 -1.3969
 6198SOL     OW30052   2.961   4.641   3.197  0.5464  0.3304  0.0696
 6198SOL    HW130053   2.883   4.592   3.221  2.1961 -2.7309 -0.6447
 6198SOL    HW230054   2.924   0.005   3.183  0.6631  0.5255  0.9712
 6199SOL     OW30055   3.956   0.498   5.734  0.1204 -0.4344 -0.1341
 6199SOL    HW130056   3.915   0.418   5.699 -1.5997  0.6810 -0.6726
 6199SOL    HW230057   3.910   0.570   5.691  0.8766  0.7419  1.0648
 6200SOL     OW30058   2.687   3.866  10.490 -0.4188 -0.8877 -0.0627
 6200SOL    HW130059   2.722   3.951  10.517 -2.4639  0.0181 -0.2703
 6200SOL    HW230060   2.635   3.882  10.411 -1.2618  0.7209  0.8155
 6201SOL     OW30061   2.741   0.155   7.803  0.0018  0.0963  0.1074
 6201SOL    HW130062   2.741   0.241   7.844  0.8289  0.7163 -1.1970
 6201SOL    HW230063   2.782   0.104   7.873 -1.1707 -1.7296 -0.5502
 6202SOL     OW30064   1.067   1.613   1.866  0.3469 -0.1390  0.0101
 6202SOL    HW130065   1.062   1.533   1.814  2.3356 -0.3921  0.2186
 6202SOL    HW230066   1.116   1.571   1.936  0.1895 -0.1531  0.1116
 6203SOL     OW30067   2.662   2.857   1.972  0.0379 -0.3723 -0.2706
 6203SOL    HW130068   2.738   2.872   1.917  0.4871 -0.8970  0.2073
 6203SOL    HW230069   2.696   2.866   2.061 -0.7519 -1.3962  0.1408
 6204SOL     OW30070   3.562   1.697   2.905  0.6078 -0.7944  0.1970
 6204SOL    HW130071   3.514   1.761   2.852 -0.2171 -0.9408  0.7744
 6204SOL    HW230072   3.547   1.616   2.857 -3.1160 -0.5430  0.9405
 6205SOL     OW30073   3.958   1.150   4.308  0.2449 -0.0747  0.8005
 6205SOL    HW130074   4.015   1.074   4.297 -1.4305 -1.2626  0.2011
 6205SOL    HW230075   3.911   1.147   4.224  2.9220 -2.8319 -0.5821
 6206SOL     OW30076   4.565   4.071   9.171  0.7317 -0.6578 -0.4960
 6206SOL    HW130077   4.572   4.163   9.195  0.5325 -0.7401 -0.1213
 6206SOL    HW230078   4.621   4.063   9.094 -0.5362 -2.3758 -1.2618
 6207SOL     OW30079   2.294   4.100   4.813  0.0610  0.2058 -0.7894
 6207SOL    HW130080   2.208   4.058   4.816  0.8588 -1.3835 -0.1525
 6207SOL    HW230081   2.276   4.167   4.879 -0.5353  1.5999 -2.3621
 6208SOL     OW30082   2.108   2.362   4.374 -0.2914  0.5262 -0.0137
 6208SOL    HW130083   2.148   2.349   4.460 -0.4720  0.3667  0.0457
 6208SOL    HW230084   2.082   2.273   4.350 -0.2101  0.1126  1.4516
 6209SOL     OW30085   2.366   1.830   7.733  0.3658 -0.3913 -0.1415
 6209SOL    HW130086   2.345   1.783   7.653  0.7906 -1.3177  0.2891
 6209SOL    HW230087   2.294   1.892   7.744 -1.0143 -1.9231 -0.5626
 6210SOL     OW30088   0.910   2.540  13.723 -0.6063  0.0548  0.2597
 6210SOL    HW130089   0.946   2.622  13.690  1.0954 -0.6261  0.4355
 6210SOL    HW230090   0.974   2.472  13.703  0.1922  1.0706 -0.5893
 6211SOL     OW30091   1.515   1.508   1.440  0.0277  0.3187  0.4209
 6211SOL    HW130092   1.547   1.519   1.350 -2.2251  0.7239 -0.3454
 6211SOL    HW230093   1.482   1.597   1.453 -1.0696 -0.2340  1.3419
 6212SOL     OW30094   2.852   0.912   8.291 -0.0820  0.2435 -0.0487
 6212SOL    HW130095   2.899   0.889   8.211 -1.5364 -1.2044 -0.5047
 6212SOL    HW230096   2.865   1.006   8.298 -2.5950  0.7365 -1.8403
 6213SOL     OW30097   3.188   3.278   5.640  0.1708  0.0133 -0.0035
 6213SOL    HW130098   3.157   3.348   5.697  0.4461  0.0215  0.1340
 6213SOL    HW230099   3.276   3.263   5.675  0.8990 -1.1870 -2.3202
 6214SOL     OW30100   4.318   1.747   8.368 -0.1235  0.0768  0.5272
 6214SOL    HW130101   4.309   1.811   8.298 -0.6147  0.4564  0.9370
 6214SOL    HW230102   4.271   1.673   8.328  0.3673  0.8004 -1.3998
 6215SOL     OW30103   0.384   4.262   7.766  0.0214 -0.4443 -0.2260
 6215SOL    HW130104   0.432   4.259   7.848  0.3109  2.0818 -0.2973
 6215SOL    HW230105   0.305   4.305   7.800  0.7691 -0.5881  1.6585
 6216SOL     OW30106   1.356   3.032  12.515  0.3485  0.3789  0.1363
 6216SOL    HW130107   1.278   3.024  12.570 -0.1126  1.2863 -0.3927
 6216SOL    HW230108   1.379   2.942  12.492  0.7085  0.5592 -0.2196
 6217SOL     OW30109   1.695   1.647  15.343 -0.3237 -0.0342 -0.4703
 6217SOL    HW130110   1.707   1.731  15.300  0.9903  0.0093  0.0050
 6217SOL    HW230111   1.607   1.626  15.311 -0.1879  1.1756 -1.6264
 6218SOL     OW30112   3.388   0.557  15.454 -0.3959 -0.0169  0.3859
 6218SOL    HW130113   3.337   0.625  15.498  1.3577  0.5891  1.4900
 6218SOL    HW230114   3.410   0.608  15.376  1.3819 -0.3042  0.6849
 6219SOL     OW30115   3.345   2.474   4.774  0.3976  0.1886  0.1467
 6219SOL    HW130116   3.321   2.382   4.787 -1.0628  0.6543  0.7427
 6219SOL    HW230117   3.366   2.506   4.862  1.4256 -0.8788  0.2962
 6220SOL     OW30118   1.573   3.124   8.372 -0.5042 -0.1716 -0.1273
 6220SOL    HW130119   1.569   3.145   8.278  1.6234  1.7343  0.2150
 6220SOL    HW230120   1.588   3.213   8.403  0.4720 -0.2297 -0.4528
 6221SOL     OW30121   3.380   4.330   9.146  0.0255 -0.0994 -0.1823
 6221SOL    HW130122   3.299   4.375   9.122  1.0415  2.3927  1.1472
 6221SOL    HW230123   3.337   4.247   9.167  2.5080 -1.4089 -0.3650
 6222SOL     OW30124   3.123   0.611   7.700 -0.3846  0.1224  0.1859
 6222SOL    HW130125   3.108   0.540   7.762  0.4625  0.4249  0.7483
 6222SOL    HW230126   3.081   0.571   7.624  2.5653  0.1144 -1.4580
 6223SOL     OW30127   0.133   3.993  10.612 -0.1207 -0.1700  0.3553
 6223SOL    HW130128   0.163   4.054  10.680 -1.3852 -0.5203  1.2112
 6223SOL    HW230129   0.064   4.046  10.571 -0.8424 -0.1520  1.6120
 6224SOL     OW30130   3.051   0.352   6.180 -0.1391  0.3922 -0.2808
 6224SOL    HW130131   3.077   0.444   6.184 -0.5962  0.5244 -0.3579
 6224SOL    HW230132   3.067   0.326   6.271 -0.2146 -0.0812 -0.4052
 6225SOL     OW30133   4.038   0.823   8.668 -0.3585 -0.3824  0.3149
 6225SOL    HW130134   4.069   0.796   8.755  2.7562 -0.9218 -0.9702
 6225SOL    HW230135   3.984   0.745   8.654 -0.6655 -0.1726  0.3304
 6226SOL     OW30136   4.103   3.989   6.810  0.0440  0.1743  0.2491
 6226SOL    HW130137   4.138   3.956   6.893 -0.4018  0.0919  0.4003
 6226SOL    HW230138   4.146   4.074   6.822 -0.2552  0.1671  1.3621
 6227SOL     OW30139   1.879   1.797   9.457 -0.4904 -0.3091 -0.4335
 6227SOL    HW130140   1.814   1.862   9.483  0.3721  1.2583 -2.2185
 6227SOL    HW230141   1.946   1.819   9.521 -2.3106 -1.7264  1.9610
 6228SOL     OW30142   3.205   1.208   5.409 -0.5613 -0.6312  0.1200
 6228SOL    HW130143   3.228   1.124   5.448 -1.2547 -0.7043  0.3669
 6228SOL    HW230144   3.134   1.177   5.354  0.0046  0.2451 -1.1103
 6229SOL     OW30145   2.993   3.741   0.724  0.2284 -0.6446  0.0646
 6229SOL    HW130146   3.044   3.704   0.796  1.2510  2.7226  1.0719
 6229SOL    HW230147   3.059   3.777   0.665  0.2514  0.3253  0.6903
 6230SOL     OW30148   3.986   1.269   7.753  0.1134  0.4247  1.1374
 6230SOL    HW130149   3.905   1.249   7.801 -0.5043 -2.0640 -0.9112
 6230SOL    HW230150   4.042   1.276   7.830 -1.3972 -3.5719  2.6219
 6231SOL     OW30151   2.303   3.678   9.867  0.1069 -0.0737 -0.0099
 6231SOL    HW130152   2.274   3.742   9.802 -0.6419 -0.3902  0.0212
 6231SOL    HW230153   2.217   3.641   9.886 -0.0236 -0.3603 -1.1633
 6232SOL     OW30154   0.148   0.804  17.112  0.0815 -0.0942 -0.0164
 6232SOL    HW130155   0.194   0.721  17.103 -1.0406 -0.4966 -2.1834
 6232SOL    HW230156   0.086   0.798  17.185  0.3302  1.0269  0.2801
 6233SOL     OW30157   1.276   0.547   5.280 -0.4338  0.2515 -0.3343
 6233SOL    HW130158   1.181   0.535   5.281 -0.2086 -1.5623 -0.5885
 6233SOL    HW230159   1.301   0.463   5.241  0.0310  0.4875 -0.5375
 6234SOL     OW30160   3.459   1.045  15.885 -0.1411 -0.0019 -0.2056
 6234SOL    HW130161   3.446   0.968  15.829 -2.6634  0.4894 -0.3013
 6234SOL    HW230162   3.449   1.118  15.825 -0.4817  0.5348  0.5041
 6235SOL     OW30163   4.257   2.365  13.363  0.0371  0.3238 -0.2897
 6235SOL    HW130164   4.282   2.272  13.363  3.1177  1.1544 -0.1804
 6235SOL    HW230165   4.217   2.382  13.448 -1.3147  0.2276 -0.9114
 6236SOL     OW30166   2.053   2.325   5.405 -0.3978  0.0275  0.2983
 6236SOL    HW130167   2.098   2.394   5.356 -1.0848 -0.1366 -0.5544
 6236SOL    HW230168   2.090   2.247   5.365  1.4460  1.7587 -1.3830
 6237SOL     OW30169   4.129   3.245  12.606 -0.5820 -1.1606  0.0027
 6237SOL    HW130170   4.163   3.330  12.632 -2.0392 -0.6758  0.2924
 6237SOL    HW230171   4.107   3.264  12.515 -2.2373  2.3352  1.1293
 6238SOL     OW30172   3.277   0.126   2.093  0.6595 -0.5279  0.2800
 6238SOL    HW130173   3.233   0.208   2.076  1.4591 -0.1372  0.0840
 6238SOL    HW230174   3.348   0.174   2.136  0.7088 -0.0236 -0.3808
 6239SOL     OW30175   0.185   1.561   5.886 -0.0653 -0.2021  0.4196
 6239SOL    HW130176   0.159   1.529   5.972 -0.5475 -2.6248 -0.6257
 6239SOL    HW230177   0.170   1.484   5.831 -1.5744  1.7115 -1.8313
 6240SOL     OW30178   4.335   2.875   3.947 -0.7582  0.1868  0.1953
 6240SOL    HW130179   4.423   2.911   3.948 -0.1226 -1.3808  0.7857
 6240SOL    HW230180   4.281   2.949   3.919 -4.0700 -1.5029  2.0060
 6241SOL     OW30181   3.613   3.601   8.027  0.3641 -0.1314  0.1804
 6241SOL    HW130182   3.629   3.670   8.092  1.0362  0.1773 -0.3153
 6241SOL    HW230183   3.665   3.533   8.070 -2.4221 -1.1285  1.9769
 6242SOL     OW30184   2.901   0.588   2.812  0.1328  0.3840 -0.0622
 6242SOL    HW130185   2.982   0.536   2.817 -0.3019 -0.4934 -2.2613
 6242SOL    HW230186   2.853   0.565   2.891  0.3777 -2.8864 -0.8879
 6243SOL     OW30187   2.155   4.103   6.295  0.5076  0.0268 -0.1447
 6243SOL    HW130188   2.131   4.074   6.207  3.5380 -2.1860 -0.2792
 6243SOL    HW230189   2.249   4.092   6.279  0.4496 -0.0640 -0.4355
 6244SOL     OW30190   2.259   0.572  13.815  0.3277  0.2731 -0.2185
 6244SOL    HW130191   2.260   0.500  13.752  0.0627 -0.4576  0.6106
 6244SOL    HW230192   2.167   0.591  13.833 -0.7547 -4.7337 -0.5097
 6245SOL     OW30193   0.986   2.354   2.747 -0.6877 -0.2088  0.3110
 6245SOL    HW130194   0.994   2.275   2.694 -0.8320 -0.8104  1.1917
 6245SOL    HW230195   0.892   2.369   2.748 -0.3993  1.6872 -0.5987
 6246SOL     OW30196   1.043   0.435   0.313  1.3691 -0.9358  0.1706
 6246SOL    HW130197   0.958   0.461   0.350  0.6717 -2.2239 -0.5106
 6246SOL    HW230198   1.071   0.517   0.272 -1.2466  1.9165  4.1659
 6247SOL     OW30199   0.536   1.580   5.750 -0.0328  0.4583 -0.3584
 6247SOL    HW130200   0.530   1.619   5.838 -0.7254 -1.5678  0.4848
 6247SOL    HW230201   0.448   1.600   5.717  0.5443  0.1090 -2.1072
 6248SOL     OW30202   0.966   2.226   5.224 -0.4600 -0.2393 -0.1573
 6248SOL    HW130203   0.945   2.188   5.138 -1.6032 -2.1344  0.9441
 6248SOL    HW230204   0.961   2.319   5.206 -0.0429 -0.2896 -0.5200
 6249SOL     OW30205   2.942   3.724   1.635  0.2842  0.1495  0.5459
 6249SOL    HW130206   2.923   3.786   1.565 -1.0840  1.4570  2.0766
 6249SOL    HW230207   3.033   3.751   1.646  0.7083 -1.5977  1.3139
 6250SOL     OW30208   4.070   2.157   5.759 -0.4695 -0.0007  0.3833
 6250SOL    HW130209   4.056   2.138   5.852 -0.8995  2.2954  0.7828
 6250SOL    HW230210   4.154   2.113   5.746 -1.8263 -1.7384 -2.5728
 6251SOL     OW30211   4.335   1.826  17.171 -0.8349 -0.3268 -0.0444
 6251SOL    HW130212   4.394   1.865  17.107 -1.4837  1.1546  0.2570
 6251SOL    HW230213   4.342   1.732  17.161  0.6228 -0.3072  0.8163
 6252SOL     OW30214   2.044   1.134   8.036  0.2694 -0.5492 -0.3131
 6252SOL    HW130215   2.080   1.063   8.088 -2.3547  0.7227  3.2631
 6252SOL    HW230216   1.984   1.163   8.105  0.9463  0.5809 -0.2002
 6253SOL     OW30217   0.877   3.460   2.659  0.8056 -0.2234 -0.0566
 6253SOL    HW130218   0.839   3.518   2.594  2.6273  0.0486 -0.8984
 6253SOL    HW230219   0.964   3.451   2.620  1.2381  2.7876  0.2137
 6254SOL     OW30220   2.764   3.177   8.428 -0.7440 -0.3086 -0.1900
 6254SOL    HW130221   2.676   3.161   8.463 -0.7725  0.4919  0.1071
 6254SOL    HW230222   2.813   3.208   8.505  0.8970 -0.9161 -0.9814
 6255SOL     OW30223   2.860   0.314  12.010 -0.3718 -0.0909  0.2665
 6255SOL    HW130224   2.808   0.233  12.003  0.1264 -0.4590  0.7809
 6255SOL    HW230225   2.945   0.280  11.982 -0.2521 -0.0138  0.5368
 6256SOL     OW30226   2.962   0.091  11.562  0.2536  0.3998 -0.3734
 6256SOL    HW130227   2.919   0.173  11.586  1.4981  0.8871  0.2291
 6256SOL    HW230228   3.020   0.125  11.494 -1.5173 -1.7843 -2.9533
 6257SOL     OW30229   2.706   4.655   6.605  0.1405 -0.4589 -0.6765
 6257SOL    HW130230   2.743   0.011   6.643  0.2854 -0.8771  0.0498
 6257SOL    HW230231   2.612   4.673   6.601  0.1133 -0.6271 -0.8550
 6258SOL     OW30232   3.280   3.791   8.508 -0.3788 -0.1597  0.3357
 6258SOL    HW130233   3.358   3.773   8.456  0.5022  0.5155  1.4124
 6258SOL    HW230234   3.277   3.886   8.501  0.3719 -0.1781 -0.1925
 6259SOL     OW30235   2.781   1.606   3.775  0.1151  0.5687  0.0034
 6259SOL    HW130236   2.829   1.612   3.858 -0.3114  0.3010  0.2686
 6259SOL    HW230237   2.835   1.546   3.725 -3.0946 -2.3480  0.0657
 6260SOL     OW30238   3.924   4.696   8.079  0.0648 -0.2174  0.2977
 6260SOL    HW130239   4.017   4.714   8.094 -0.0071 -0.8323  1.5113
 6260SOL    HW230240   3.924   4.605   8.110  0.5170  0.7136  3.0486
 6261SOL     OW30241   1.140   4.674   1.640  0.2556  0.1414  0.0789
 6261SOL    HW130242   1.149   4.580   1.656 -0.2990 -0.0862 -0.9448
 6261SOL    HW230243   1.062   4.680   1.584 -0.5710  0.5201  1.2586
 6262SOL     OW30244   4.376   2.978   9.752  0.0063  0.5738  0.2045
 6262SOL    HW130245   4.327   3.026   9.685  0.5558 -1.3831 -1.5792
 6262SOL    HW230246   4.385   3.041   9.824  2.1241 -0.0188  0.4599
 6263SOL     OW30247   1.361   2.116   7.200 -0.6641  0.3360 -0.2179
 6263SOL    HW130248   1.396   2.145   7.284  0.9952 -0.0303 -0.7839
 6263SOL    HW230249   1.287   2.176   7.195 -0.6290  0.3902 -0.0880
 6264SOL     OW30250   1.164   0.443   7.538  0.0844  0.0970  0.2198
 6264SOL    HW130251   1.258   0.462   7.538  0.2763 -0.7743  2.0649
 6264SOL    HW230252   1.141   0.495   7.615  2.0508  1.0759  0.1651
 6265SOL     OW30253   1.111   4.264   8.634  0.3571 -0.1015 -0.3805
 6265SOL    HW130254   1.063   4.217   8.702  1.7380  1.0200  1.3544
 6265SOL    HW230255   1.201   4.268   8.665 -0.1934 -0.8188  1.2833
 6266SOL     OW30256   2.367   2.400   5.792 -0.3768 -0.3789 -0.1204
 6266SOL    HW130257   2.436   2.376   5.731 -1.7253 -1.1657 -1.3454
 6266SOL    HW230258   2.336   2.316   5.825  2.0602 -0.2673  2.4534
 6267SOL     OW30259   4.722   1.537   3.408  0.1639  0.0200  0.4019
 6267SOL    HW130260   0.076   1.530   3.351 -1.0464 -2.2842 -0.9835
 6267SOL    HW230261   4.693   1.447   3.395 -3.0309  1.1140 -0.0461
 6268SOL     OW30262   0.876   4.092  12.393  0.1375 -0.1305  0.1935
 6268SOL    HW130263   0.859   4.146  12.470  0.9073  2.0085 -1.1694
 6268SOL    HW230264   0.843   4.152  12.327 -0.3724 -1.1174 -0.4523
 6269SOL     OW30265   4.201   0.708  15.232 -0.0442  0.0591 -0.4134
 6269SOL    HW130266   4.174   0.633  15.285  0.9676 -1.5209 -2.1345
 6269SOL    HW230267   4.259   0.751  15.294  0.4316 -2.2923  0.7794
 6270SOL     OW30268   3.819   0.102   3.281 -0.0470 -0.2247  0.4710
 6270SOL    HW130269   3.903   0.141   3.305 -0.4768 -0.2105  1.9658
 6270SOL    HW230270   3.836   0.008   3.276 -0.4870 -0.3089  0.5987
 6271SOL     OW30271   4.676   0.607  17.620 -0.1126 -0.0183  0.2552
 6271SOL    HW130272   4.681   0.608  17.525 -1.3840 -0.2248  0.1943
 6271SOL    HW230273   4.587   0.638  17.637 -0.3175  0.4082 -1.6414
 6272SOL     OW30274   3.895   3.968   6.101 -0.3925  0.2871 -0.3523
 6272SOL    HW130275   3.882   3.874   6.086  0.6673  0.0102  0.4783
 6272SOL    HW230276   3.986   3.972   6.131 -0.0779 -0.6950 -1.1498
 6273SOL     OW30277   3.535   0.665   6.143 -0.2973 -0.0152  0.1443
 6273SOL    HW130278   3.473   0.604   6.103 -1.9335  1.7351  0.0333
 6273SOL    HW230279   3.480   0.743   6.147  0.2794  0.4254 -0.5154
 6274SOL     OW30280   4.458   0.411  10.178 -0.1827 -0.1865 -0.8673
 6274SOL    HW130281   4.446   0.332  10.126  2.4317 -1.9448  1.1702
 6274SOL    HW230282   4.532   0.382  10.231  0.1351  0.2832 -1.0507
 6275SOL     OW30283   0.498   2.949   0.292 -0.4281  0.0014 -0.4730
 6275SOL    HW130284   0.504   2.861   0.329 -0.9707 -0.3253 -1.1785
 6275SOL    HW230285   0.588   2.971   0.316 -0.3989  0.5633 -1.0765
 6276SOL     OW30286   0.673   3.137   4.318 -0.6450 -0.1024  0.0479
 6276SOL    HW130287   0.765   3.136   4.290 -1.1811 -3.5955 -1.5842
 6276SOL    HW230288   0.659   3.230   4.300  0.8405  0.4177  1.5391
 6277SOL     OW30289   3.618   0.546   6.389  1.1605  0.2754 -0.3941
 6277SOL    HW130290   3.680   0.524   6.320 -0.6188 -0.0653 -1.9159
 6277SOL    HW230291   3.571   0.618   6.346  0.5928  0.3395  0.3396
 6278SOL     OW30292   0.153   0.330   5.034  0.1689  0.2359 -0.0500
 6278SOL    HW130293   0.085   0.395   5.016  0.0978  0.8021  2.3659
 6278SOL    HW230294   0.130   0.266   4.966 -1.2604  0.0599  0.5909
 6279SOL     OW30295   3.244   3.281  14.660  0.2372  0.0554 -0.6663
 6279SOL    HW130296   3.186   3.229  14.605  0.9892 -0.9546 -0.4898
 6279SOL    HW230297   3.303   3.217  14.699 -2.0967 -0.1427  2.5309
 6280SOL     OW30298   1.040   2.733   7.310  0.5084 -0.0233  0.3983
 6280SOL    HW130299   0.995   2.707   7.230  0.5437  1.4131 -0.0985
 6280SOL    HW230300   1.133   2.712   7.295  0.2898  0.7989 -2.2203
 6281SOL     OW30301   3.662   3.503   4.836  0.3147  0.0833  0.1144
 6281SOL    HW130302   3.623   3.564   4.898  1.0283 -0.2117  0.8487
 6281SOL    HW230303   3.756   3.517   4.841  0.4229 -0.2909 -0.8027
 6282SOL     OW30304   1.088   4.056   7.353  0.4339  1.0109 -0.1169
 6282SOL    HW130305   1.031   4.124   7.319  1.2101  1.9315  0.4405
 6282SOL    HW230306   1.070   3.976   7.303 -0.4065  1.0080  0.1827
 6283SOL     OW30307   1.730   4.152   8.658  0.0315  0.1782 -0.5970
 6283SOL    HW130308   1.799   4.215   8.638 -0.9923  2.1360  1.9954
 6283SOL    HW230309   1.766   4.066   8.635 -0.2785 -0.0035 -0.4087
 6284SOL     OW30310   3.848   1.883   8.197  0.1052 -0.3273 -0.4289
 6284SOL    HW130311   3.903   1.817   8.238  1.2817  2.9339  3.1649
 6284SOL    HW230312   3.805   1.920   8.274  0.4305 -2.3664  0.7368
 6285SOL     OW30313   1.237   4.713   1.878  0.3534 -0.0843 -0.2605
 6285SOL    HW130314   1.256   4.620   1.889 -0.8097 -0.4208 -1.1533
 6285SOL    HW230315   1.197   4.703   1.792 -1.0686 -2.1781  0.6447
 6286SOL     OW30316   0.973   2.616  16.594 -0.1053 -0.0527  0.0727
 6286SOL    HW130317   1.044   2.618  16.530 -0.0450 -0.2512  0.1355
 6286SOL    HW230318   0.901   2.571  16.550 -1.3867  1.5428  0.5234
 6287SOL     OW30319   3.617   2.753   4.564  0.5607 -0.1743 -0.1655
 6287SOL    HW130320   3.599   2.827   4.623  0.9597 -0.5489  0.4263
 6287SOL    HW230321   3.585   2.794   4.484  2.0310  1.1420 -0.0813
 6288SOL     OW30322   2.656   1.722   2.884 -0.0936 -0.5360 -0.3913
 6288SOL    HW130323   2.651   1.817   2.876 -1.3612 -0.6750 -1.0840
 6288SOL    HW230324   2.706   1.702   2.805  2.2978 -1.0835  1.2280
 6289SOL     OW30325   3.509   4.300  14.839 -0.3938  0.3599  0.2746
 6289SOL    HW130326   3.531   4.380  14.792  0.7404 -0.2503 -0.2380
 6289SOL    HW230327   3.421   4.283  14.806 -0.2846  0.2705  0.0280
 6290SOL     OW30328   2.148   2.649   2.841 -0.2834 -0.1035 -0.1442
 6290SOL    HW130329   2.180   2.577   2.786  0.1640 -1.1807  1.5093
 6290SOL    HW230330   2.183   2.716   2.782  1.6385 -1.2582 -0.3328
 6291SOL     OW30331   2.673   3.271  14.971 -0.0419 -0.0202  0.5539
 6291SOL    HW130332   2.743   3.294  14.910 -1.8346  0.8321 -1.1446
 6291SOL    HW230333   2.592   3.308  14.937 -1.4385 -2.1189  1.5934
 6292SOL     OW30334   0.143   0.880   8.142  0.2622 -0.3382  0.5294
 6292SOL    HW130335   0.231   0.877   8.106  0.7268  0.9663  1.5698
 6292SOL    HW230336   0.138   0.805   8.201 -2.0540  0.0814  0.8666
 6293SOL     OW30337   3.136   1.964   3.733  0.2375 -0.3562 -0.3622
 6293SOL    HW130338   3.203   1.902   3.763  0.1248  0.3740  1.3975
 6293SOL    HW230339   3.140   1.953   3.638 -0.7551  0.7970 -0.5413
 6294SOL     OW30340   0.619   0.320   9.799 -0.0111  0.1954  0.5294
 6294SOL    HW130341   0.631   0.371   9.879 -1.9288  0.1656  0.8258
 6294SOL    HW230342   0.693   0.263   9.819  0.0189  0.0562  0.0351
 6295SOL     OW30343   0.987   0.761   3.407  0.1480 -0.1460  0.8442
 6295SOL    HW130344   1.049   0.827   3.377  0.7739 -0.9471  0.3603
 6295SOL    HW230345   0.941   0.746   3.324  1.5789 -1.7494  0.3338
 6296SOL     OW30346   3.566   0.498   7.483 -0.0044 -0.3777  0.3466
 6296SOL    HW130347   3.519   0.426   7.525 -2.8905  1.7197  0.6856
 6296SOL    HW230348   3.583   0.554   7.558  0.8347 -0.4116  0.1862
 6297SOL     OW30349   3.368   0.269   1.127  0.4182 -0.6415  0.0140
 6297SOL    HW130350   3.331   0.192   1.171 -1.3871  0.4040  0.3572
 6297SOL    HW230351   3.305   0.336   1.153 -0.4954 -1.5960  0.2639
 6298SOL     OW30352   0.906   1.796  15.241 -0.5487  0.8128  0.1790
 6298SOL    HW130353   0.892   1.730  15.173 -3.4565  0.4299  1.1380
 6298SOL    HW230354   0.927   1.870  15.184 -1.2649  1.1724  0.3820
 6299SOL     OW30355   1.017   2.834   3.712  0.1077  0.4342 -0.2380
 6299SOL    HW130356   1.025   2.838   3.807  0.5777  0.0794 -0.2623
 6299SOL    HW230357   1.013   2.738   3.706 -0.2778  0.3772  0.9269
 6300SOL     OW30358   2.941   1.017   2.892 -0.1429 -0.7440 -0.0115
 6300SOL    HW130359   2.935   0.983   2.803  0.5650  0.4252 -0.5041
 6300SOL    HW230360   3.031   0.999   2.920  0.0412  0.1806 -0.0203
 6301SOL     OW30361   0.913   0.849   8.509 -0.4821  0.0374 -0.6845
 6301SOL    HW130362   0.849   0.914   8.480 -1.1938 -0.1896  0.3946
 6301SOL    HW230363   0.994   0.895   8.485  0.4882 -0.3575  1.8669
 6302SOL     OW30364   4.042   3.253   5.984 -0.6095 -0.1229 -0.4161
 6302SOL    HW130365   4.001   3.172   5.952 -0.4098 -0.6676  0.7085
 6302SOL    HW230366   4.134   3.231   5.964 -0.4074  0.3125  0.0512
 6303SOL     OW30367   1.348   3.453   5.878 -0.3542  0.1717  0.8398
 6303SOL    HW130368   1.282   3.386   5.857 -0.1952  0.5232 -0.8361
 6303SOL    HW230369   1.375   3.479   5.790  1.6041  0.4196  1.5254
 6304SOL     OW30370   2.922   1.773   4.715  0.4703  0.1703 -0.3382
 6304SOL    HW130371   2.877   1.696   4.749 -1.9720  1.8400  0.1475
 6304SOL    HW230372   2.864   1.792   4.642  0.9265  0.0709 -0.7307
 6305SOL     OW30373   1.697   0.345   3.841  0.2639 -0.7529 -0.0029
 6305SOL    HW130374   1.669   0.272   3.786  1.3410 -0.9302 -0.3009
 6305SOL    HW230375   1.747   0.404   3.786  0.6639 -0.5368  0.5930
 6306SOL     OW30376   0.729   1.228   6.784 -0.7832 -0.6577 -0.7265
 6306SOL    HW130377   0.644   1.270   6.787 -0.4020  0.0131  0.9474
 6306SOL    HW230378   0.792   1.289   6.747 -0.8614 -0.5647 -0.7052
 6307SOL     OW30379   2.736   1.170   6.034 -0.3297  0.8373 -0.4272
 6307SOL    HW130380   2.795   1.095   6.025 -1.7568 -0.0745 -2.1076
 6307SOL    HW230381   2.768   1.215   6.112 -0.4516 -1.2240  0.7940
 6308SOL     OW30382   3.702   1.479   3.201 -0.5641 -0.0161  0.6787
 6308SOL    HW130383   3.746   1.444   3.124 -1.1277 -0.4396  0.5479
 6308SOL    HW230384   3.715   1.572   3.186  0.9157 -0.1175  1.3002
 6309SOL     OW30385   4.472   1.406  14.600  0.4402  0.2860 -0.0750
 6309SOL    HW130386   4.387   1.367  14.583  0.7687  0.4304 -1.9569
 6309SOL    HW230387   4.472   1.438  14.691 -0.7428 -2.7109  0.9808
 6310SOL     OW30388   0.290   2.859   9.855  0.2624 -0.7367 -0.1718
 6310SOL    HW130389   0.233   2.795   9.812 -0.9754  0.3597 -0.1784
 6310SOL    HW230390   0.372   2.824   9.821  1.1168  0.1918  0.9457
 6311SOL     OW30391   2.322   1.196  10.307  0.3473  0.2189  0.6091
 6311SOL    HW130392   2.319   1.116  10.255  0.1719  0.6245  0.0045
 6311SOL    HW230393   2.415   1.193  10.332  0.6313 -2.2032 -0.6676
 6312SOL     OW30394   3.640   0.096   8.180 -0.9964 -0.0092  0.7923
 6312SOL    HW130395   3.616   0.154   8.108 -3.9840  0.2534  2.0407
 6312SOL    HW230396   3.660   0.014   8.134  1.8693 -0.0206  2.0557
 6313SOL     OW30397   2.211   0.328   0.918 -0.1524 -0.2540 -0.7347
 6313SOL    HW130398   2.191   0.279   0.997 -0.2350 -0.3886 -0.8391
 6313SOL    HW230399   2.181   0.414   0.946 -1.7155 -0.7690 -0.7941
 6314SOL     OW30400   4.418   4.371  13.425  0.3623  0.4353 -0.2833
 6314SOL    HW130401   4.475   4.350  13.499 -1.4357 -2.3994  0.2969
 6314SOL    HW230402   4.387   4.283  13.402  0.4493  1.1474 -3.1141
 6315SOL     OW30403   3.884   2.430   4.573 -0.3796  0.6568  0.3610
 6315SOL    HW130404   3.834   2.469   4.501  1.8511  1.6233 -0.6597
 6315SOL    HW230405   3.845   2.478   4.646  1.2991 -1.4721  2.6286
 6316SOL     OW30406   4.327   3.924  14.266  0.0930 -0.3136  0.0609
 6316SOL    HW130407   4.297   4.005  14.225  0.2125  0.0777  0.7468
 6316SOL    HW230408   4.332   3.858  14.197  0.1562  0.2563 -0.4773
 6317SOL     OW30409   3.032   1.154   7.994 -0.3016  0.0278 -0.1118
 6317SOL    HW130410   3.015   1.060   8.008  2.1511 -0.5829 -1.3202
 6317SOL    HW230411   3.070   1.157   7.906 -1.0495  2.1763 -0.3600
 6318SOL     OW30412   2.819   3.429  16.226  0.1069  0.7350  0.3973
 6318SOL    HW130413   2.817   3.435  16.131 -0.8027 -0.0281  0.3703
 6318SOL    HW230414   2.793   3.339  16.245 -1.9931  1.4203  0.6824
 6319SOL     OW30415   3.225   4.615   5.318  0.1471  0.2646  0.2313
 6319SOL    HW130416   3.228   4.557   5.395 -1.2703 -0.1931 -0.0600
 6319SOL    HW230417   3.316   4.643   5.319  0.5593 -1.0814  1.1232
 6320SOL     OW30418   0.209   0.854   3.676 -0.3387  0.3035  0.2921
 6320SOL    HW130419   0.133   0.838   3.619 -1.0766  0.4143  1.2616
 6320SOL    HW230420   0.213   0.780   3.736  0.0803  1.2085  1.3664
 6321SOL     OW30421   2.016   2.768   5.590  0.3723  0.3317  0.3901
 6321SOL    HW130422   2.081   2.702   5.614 -1.0783 -1.3280 -0.1854
 6321SOL    HW230423   2.068   2.823   5.532 -0.8826 -1.5527 -2.5537
 6322SOL     OW30424   4.478   2.165   9.364  0.1654  0.4650  0.6099
 6322SOL    HW130425   4.554   2.212   9.328 -0.6978 -0.3572 -2.2579
 6322SOL    HW230426   4.466   2.097   9.297  0.1148  1.1980 -0.1238
 6323SOL     OW30427   4.242   1.932   9.523 -0.0678  0.0216  0.2261
 6323SOL    HW130428   4.155   1.934   9.483  0.0295  1.6402  0.1185
 6323SOL    HW230429   4.300   1.964   9.454  0.2437  0.1684  0.5549
 6324SOL     OW30430   2.593   1.774  17.496  0.7535  0.3272  0.3099
 6324SOL    HW130431   2.632   1.833  17.561  1.0090  1.0804 -0.5316
 6324SOL    HW230432   2.670   1.745  17.446  1.2122 -1.6213  2.1045
 6325SOL     OW30433   3.206   3.610   6.040 -0.2931  0.0839 -0.2292
 6325SOL    HW130434   3.184   3.671   5.969 -0.4752 -0.4384 -0.6261
 6325SOL    HW230435   3.151   3.536   6.015  2.1441 -1.8394  0.0473
 6326SOL     OW30436   1.384   3.823   8.156  0.0892 -0.0498 -0.1447
 6326SOL    HW130437   1.441   3.801   8.229  0.7632  2.1599  0.0143
 6326SOL    HW230438   1.381   3.919   8.162  3.0024  0.1224 -1.2927
 6327SOL     OW30439   4.454   3.864   0.510  0.3518  0.3984 -0.2450
 6327SOL    HW130440   4.512   3.928   0.553 -1.4583  0.9687  1.3700
 6327SOL    HW230441   4.378   3.921   0.518  0.5817  0.5708  0.7494
 6328SOL     OW30442   3.520   0.407  12.450 -0.1177 -0.4180  0.0127
 6328SOL    HW130443   3.567   0.385  12.531 -0.4819  0.7647  0.5372
 6328SOL    HW230444   3.495   0.325  12.407  2.6641 -1.0580 -0.3886
 6329SOL     OW30445   1.248   0.819   6.211  0.0012 -0.1073  0.2339
 6329SOL    HW130446   1.291   0.776   6.137 -0.7638  0.2862 -0.4392
 6329SOL    HW230447   1.193   0.874   6.156 -0.0680 -0.9480 -0.5540
 6330SOL     OW30448   4.476   3.337  12.391  0.1510  0.6976 -0.1580
 6330SOL    HW130449   4.486   3.430  12.371  1.5685  0.2549 -1.4894
 6330SOL    HW230450   4.553   3.324  12.446  0.0380 -1.9626 -0.6215
 6331SOL     OW30451   2.538   0.342   7.081  0.3109  0.7023  0.3737
 6331SOL    HW130452   2.506   0.354   6.992 -1.8213  1.6567  1.2790
 6331SOL    HW230453   2.466   0.386   7.125  1.1983  1.0668  1.4759
 6332SOL     OW30454   3.292   3.512  14.820  0.2066 -0.4331  0.3376
 6332SOL    HW130455   3.271   3.583  14.759 -0.4088  0.5819  1.7408
 6332SOL    HW230456   3.276   3.435  14.766 -1.5462  0.4853 -0.4525
 6333SOL     OW30457   2.136   4.353   2.784 -0.5112 -0.2785  0.7515
 6333SOL    HW130458   2.123   4.439   2.745 -2.3409 -0.3285  1.2346
 6333SOL    HW230459   2.171   4.308   2.708  0.5261 -1.3504  1.8602
 6334SOL     OW30460   4.535   0.707   3.945 -0.8454  0.1662  0.1006
 6334SOL    HW130461   4.453   0.703   3.995 -0.6474 -0.6733  0.3541
 6334SOL    HW230462   4.595   0.665   4.006 -0.0708 -0.8408 -1.3611
 6335SOL     OW30463   1.643   2.078   9.173 -0.5735 -0.3997 -0.1580
 6335SOL    HW130464   1.722   2.062   9.224  0.3944  3.0345 -0.5854
 6335SOL    HW230465   1.610   2.159   9.212  0.0961 -1.0034  1.6674
 6336SOL     OW30466   2.574   3.886   6.319  0.2434 -0.5257 -0.0924
 6336SOL    HW130467   2.505   3.952   6.326  1.2312  0.4148  0.7206
 6336SOL    HW230468   2.591   3.895   6.225 -1.4795 -0.9824 -0.4523
 6337SOL     OW30469   3.805   3.173   5.384  0.7054  0.4365 -0.3655
 6337SOL    HW130470   3.854   3.256   5.387 -1.5523  1.7863 -0.6010
 6337SOL    HW230471   3.841   3.125   5.459  0.9879  0.2143 -0.6398
 6338SOL     OW30472   4.195   2.917   3.167  0.2185 -0.6119 -0.3345
 6338SOL    HW130473   4.099   2.916   3.164  0.2179  3.2730 -1.8971
 6338SOL    HW230474   4.206   2.946   3.076 -1.4726  0.2908 -0.2512
 6339SOL     OW30475   1.545   4.200   0.100  0.3173 -0.4722  0.1826
 6339SOL    HW130476   1.531   4.174   0.191 -2.9944 -2.3460 -0.8567
 6339SOL    HW230477   1.627   4.155   0.085  1.4290  1.7801 -0.5215
 6340SOL     OW30478   4.650   0.747   9.552 -0.3374  0.6644  0.1874
 6340SOL    HW130479   4.716   0.811   9.578 -1.4956  3.0551 -2.8590
 6340SOL    HW230480   4.615   0.808   9.487 -0.2491  1.6074  1.0137
 6341SOL     OW30481   2.143   1.483   8.284 -0.0466  0.1373 -0.0572
 6341SOL    HW130482   2.234   1.460   8.303  0.6125  1.9804 -0.9273
 6341SOL    HW230483   2.134   1.446   8.196 -0.5682  2.7931 -1.1297
 6342SOL     OW30484   1.771   1.804   3.349  0.1309 -0.0857  0.3563
 6342SOL    HW130485   1.806   1.786   3.436  0.2737 -1.8391 -0.0576
 6342SOL    HW230486   1.778   1.899   3.348  0.6428 -0.1495 -1.7600
 6343SOL     OW30487   1.127   3.592  14.949 -0.3874 -0.1877  0.0317
 6343SOL    HW130488   1.098   3.649  14.878 -0.3176  1.0122  0.9634
 6343SOL    HW230489   1.106   3.655  15.019  0.8069  0.8244 -0.5302
 6344SOL     OW30490   2.498   1.702   5.561  0.2526  0.5459 -0.3805
 6344SOL    HW130491   2.594   1.706   5.565  0.3207  0.1321 -1.6601
 6344SOL    HW230492   2.484   1.611   5.534 -1.0486  0.2895  1.1666
 6345SOL     OW30493   3.776   4.546   3.162  0.2833 -1.4855 -1.0036
 6345SOL    HW130494   3.766   4.562   3.068  0.6940  1.0701 -0.6042
 6345SOL    HW230495   3.860   4.586   3.182 -1.4122  1.3888  0.2370
 6346SOL     OW30496   2.387   1.130  13.798  0.1057  0.4537 -0.2735
 6346SOL    HW130497   2.391   1.166  13.710 -2.6781  0.6276 -0.3368
 6346SOL    HW230498   2.469   1.080  13.801 -0.8753 -1.0590  2.0339
 6347SOL     OW30499   3.515   0.838   0.170  0.8600 -0.0826 -0.4025
 6347SOL    HW130500   3.490   0.837   0.262 -1.1591  0.8166 -0.9410
 6347SOL    HW230501   3.604   0.872   0.167  1.1789 -0.8077  1.1407
 6348SOL     OW30502   1.891   2.174   6.769  0.0691  0.1984 -0.1591
 6348SOL    HW130503   1.885   2.182   6.864  1.4569  0.4985 -0.0920
 6348SOL    HW230504   1.799   2.183   6.743 -0.2178  0.4254  0.9582
 6349SOL     OW30505   4.301   3.322   2.966 -0.6728 -0.4029  1.0167
 6349SOL    HW130506   4.365   3.389   2.991 -0.6710  0.1175 -0.3731
 6349SOL    HW230507   4.254   3.368   2.896  1.1360 -0.7275 -0.4192
 6350SOL     OW30508   3.279   0.425  10.527  0.4250 -0.4017  0.6472
 6350SOL    HW130509   3.332   0.472  10.463  0.0462  0.0266  0.6470
 6350SOL    HW230510   3.198   0.471  10.507  0.0337 -1.7572 -0.8290
 6351SOL     OW30511   4.409   3.301  10.723  0.0798  0.1421  0.5742
 6351SOL    HW130512   4.483   3.253  10.760  1.5789  0.5502 -1.9123
 6351SOL    HW230513   4.448   3.368  10.666  0.9715 -0.5529  0.3626
 6352SOL     OW30514   0.120   2.217  11.210  0.0538 -0.0713 -0.5908
 6352SOL    HW130515   0.107   2.277  11.284  2.1076 -0.7372  0.2903
 6352SOL    HW230516   0.194   2.164  11.239 -0.7361  0.0374  1.6546
 6353SOL     OW30517   0.422   3.151   2.640 -0.2305  0.0751  0.5098
 6353SOL    HW130518   0.366   3.203   2.581 -0.3860 -0.1414  0.4649
 6353SOL    HW230519   0.358   3.105   2.694  1.0360 -0.3364  1.6441
 6354SOL     OW30520   3.919   0.595   1.764  0.2248  0.1371  0.3027
 6354SOL    HW130521   3.952   0.631   1.846 -1.2688 -1.2898  1.5234
 6354SOL    HW230522   3.939   0.664   1.701  0.3413  0.6219  0.8764
 6355SOL     OW30523   0.561   3.599   8.094  0.1428 -0.1428  0.2769
 6355SOL    HW130524   0.554   3.660   8.021 -1.2247  0.9920  1.3626
 6355SOL    HW230525   0.615   3.529   8.056  1.8864  2.4917 -2.1057
 6356SOL     OW30526   1.393   4.099   7.932  0.5238  0.1839 -0.3133
 6356SOL    HW130527   1.417   4.185   7.965  0.1301  0.2591 -0.2355
 6356SOL    HW230528   1.402   4.130   7.842 -1.4740 -2.6480 -1.4808
 6357SOL     OW30529   2.384   2.725   5.902  0.0065 -0.2380  0.3664
 6357SOL    HW130530   2.321   2.687   5.841  1.8501 -0.2944 -1.4836
 6357SOL    HW230531   2.441   2.657   5.940  1.2381 -0.3402 -1.6506
 6358SOL     OW30532   3.292   0.597   5.039 -0.1080 -0.2640 -0.5496
 6358SOL    HW130533   3.361   0.545   4.998  1.7373  0.1695  1.9930
 6358SOL    HW230534   3.282   0.668   4.975  1.8351  0.2872 -0.2375
 6359SOL     OW30535   2.094   4.459   1.667 -0.6610 -1.1717  0.2243
 6359SOL    HW130536   2.070   4.467   1.760  0.4457 -1.2881  0.5179
 6359SOL    HW230537   2.175   4.408   1.677  0.2031 -0.4388 -3.0560
 6360SOL     OW30538   3.710   4.341   5.024 -0.7589  0.1176  0.2498
 6360SOL    HW130539   3.739   4.312   5.110  0.3380  0.3001 -0.0556
 6360SOL    HW230540   3.786   4.314   4.972 -0.6443  1.0850 -0.0815
 6361SOL     OW30541   1.850   2.863   4.863  0.5691 -0.0844  0.9631
 6361SOL    HW130542   1.907   2.925   4.909  0.0031  1.3658 -0.2910
 6361SOL    HW230543   1.924   2.821   4.819 -0.2243 -0.1440 -0.3058
 6362SOL     OW30544   4.629   0.542   4.148 -0.2639 -0.2134  0.0560
 6362SOL    HW130545   4.648   0.583   4.233 -0.6087 -1.1212  0.5761
 6362SOL    HW230546   4.702   0.481   4.142 -0.5422 -0.5957  0.6048
 6363SOL     OW30547   1.902   2.751   9.078 -0.2068  0.2319  0.7675
 6363SOL    HW130548   1.929   2.760   8.986  0.6252 -1.6887  0.8242
 6363SOL    HW230549   1.817   2.707   9.072  1.1545 -1.9118 -2.7637
 6364SOL     OW30550   2.154   4.186  16.155  0.0061  0.5687  0.1934
 6364SOL    HW130551   2.087   4.133  16.198  0.5947 -0.8491 -0.6496
 6364SOL    HW230552   2.230   4.175  16.212  1.5668  2.0550 -1.6127
 6365SOL     OW30553   0.521   4.380   9.466 -0.5051 -0.2247  0.0550
 6365SOL    HW130554   0.492   4.449   9.406  1.2620  0.6533  0.2394
 6365SOL    HW230555   0.613   4.364   9.447 -0.4350  0.9064 -0.5475
 6366SOL     OW30556   1.647   2.028   0.470 -0.2857 -0.2490  0.3786
 6366SOL    HW130557   1.675   2.067   0.387  0.2571  1.1575  1.2113
 6366SOL    HW230558   1.558   2.062   0.478 -0.3034 -0.1615 -0.2552
 6367SOL     OW30559   0.290   4.419  15.716  0.2601  0.1501  0.4210
 6367SOL    HW130560   0.253   4.480  15.780  1.5657  0.0827  1.2311
 6367SOL    HW230561   0.354   4.477  15.675 -1.4707  1.3141 -0.6842
 6368SOL     OW30562   2.471   4.605   9.020  0.3223 -0.7264 -0.7355
 6368SOL    HW130563   2.565   4.583   9.014  0.4826  0.1047 -1.3151
 6368SOL    HW230564   2.442   4.521   9.054  0.5332  0.0475  1.3346
 6369SOL     OW30565   3.881   1.202   3.359  0.1507  0.1029  0.7200
 6369SOL    HW130566   3.815   1.270   3.343  0.7945  0.6524  0.3803
 6369SOL    HW230567   3.892   1.157   3.275  1.5029  2.0353 -0.1120
 6370SOL     OW30568   1.813   4.057   5.973 -0.1569  0.2680 -0.3166
 6370SOL    HW130569   1.730   4.011   5.985  0.5420 -1.0467 -0.4295
 6370SOL    HW230570   1.840   4.038   5.883  2.1676 -0.0497  0.4472
 6371SOL     OW30571   4.494   4.596   3.995  0.4082  0.3345 -0.2382
 6371SOL    HW130572   4.459   4.549   3.919 -3.8742 -1.5132  2.9088
 6371SOL    HW230573   4.584   4.621   3.976  0.0491  2.0056  0.1962
 6372SOL     OW30574   0.113   1.632   2.143 -0.3667  0.1902 -0.1225
 6372SOL    HW130575   0.126   1.651   2.236  0.7177 -0.1489 -0.2073
 6372SOL    HW230576   0.029   1.676   2.131 -0.5300 -0.5008 -1.4533
 6373SOL     OW30577   3.508   3.932   4.311  0.8331  0.0742 -0.1599
 6373SOL    HW130578   3.554   3.960   4.390 -1.4198  0.6430  0.9482
 6373SOL    HW230579   3.521   4.010   4.256  0.0243  0.3201 -0.0097
 6374SOL     OW30580   4.525   4.443  11.674 -0.1371 -0.4665  0.4653
 6374SOL    HW130581   4.597   4.380  11.681  0.4375  0.0949 -0.3753
 6374SOL    HW230582   4.549   4.481  11.589 -1.2117  0.9895  0.8233
 6375SOL     OW30583   1.460   1.765   5.843  0.2907 -0.2263 -0.2018
 6375SOL    HW130584   1.486   1.731   5.757  1.2324  0.2613 -0.1092
 6375SOL    HW230585   1.398   1.835   5.821 -1.0548 -0.8570  1.5876
 6376SOL     OW30586   1.189   4.251  15.394  0.3884 -0.3698  0.0417
 6376SOL    HW130587   1.121   4.304  15.437  0.6016 -0.9179  1.0500
 6376SOL    HW230588   1.262   4.266  15.454  0.5351  1.5277 -0.5858
 6377SOL     OW30589   1.152   0.288   7.169 -0.1282  0.6614  0.0699
 6377SOL    HW130590   1.151   0.258   7.260 -3.3641  0.3183 -0.0547
 6377SOL    HW230591   1.220   0.232   7.132 -1.3185 -0.6179 -0.1504
 6378SOL     OW30592   4.572   4.328   9.268  0.0245 -1.0926  0.0541
 6378SOL    HW130593   4.541   4.343   9.178 -1.2638  1.6080  0.9563
 6378SOL    HW230594   4.629   4.404   9.278  0.1513 -1.0361 -1.0661
 6379SOL     OW30595   3.689   1.849   1.580 -0.1081 -0.5187 -0.3620
 6379SOL    HW130596   3.779   1.881   1.580  0.0303 -0.9387 -2.3168
 6379SOL    HW230597   3.691   1.779   1.645  0.6018 -1.0930 -1.0106
 6380SOL     OW30598   1.703   4.063   2.504 -0.4382 -0.8676  0.3636
 6380SOL    HW130599   1.636   4.116   2.547  0.5104 -1.2193  2.2498
 6380SOL    HW230600   1.782   4.067   2.557  1.8336  1.3711 -3.1775
 6381SOL     OW30601   0.686   4.025  13.055 -0.2966  0.1591 -0.3514
 6381SOL    HW130602   0.693   4.059  13.145 -1.4922 -0.3177 -0.0776
 6381SOL    HW230603   0.771   3.983  13.047 -0.7509 -0.2111 -3.1758
 6382SOL     OW30604   3.038   4.503   2.539  0.5760 -0.2218  0.0387
 6382SOL    HW130605   3.000   4.569   2.481 -1.1736 -0.1426  1.2829
 6382SOL    HW230606   3.105   4.561   2.574 -0.2929  0.8792 -0.1000
 6383SOL     OW30607   1.800   3.163   6.767  0.7379 -0.5835 -0.3027
 6383SOL    HW130608   1.886   3.131   6.795  1.1683  0.4130 -0.4534
 6383SOL    HW230609   1.826   3.221   6.695 -0.1214  0.5104  0.2736
 6384SOL     OW30610   3.720   2.499  16.196  0.2866  0.3768  0.3072
 6384SOL    HW130611   3.629   2.513  16.220 -1.3275 -2.2938 -4.2229
 6384SOL    HW230612   3.764   2.536  16.272  0.2818  0.3727  0.3119
 6385SOL     OW30613   3.367   1.402   5.778 -0.3411 -0.1933  0.1959
 6385SOL    HW130614   3.277   1.370   5.785 -1.2969  2.5130  0.3245
 6385SOL    HW230615   3.369   1.476   5.838  0.1053  1.2408 -1.5870
 6386SOL     OW30616   2.230   2.406   8.768  0.3011  0.4285 -0.1897
 6386SOL    HW130617   2.169   2.450   8.827  0.1721 -1.3691  1.0238
 6386SOL    HW230618   2.270   2.344   8.829  2.4369  1.6733 -0.3414
 6387SOL     OW30619   2.975   1.083  15.512 -0.0260 -0.0379  0.6683
 6387SOL    HW130620   2.892   1.044  15.484 -1.5177  1.9017  2.3233
 6387SOL    HW230621   2.950   1.171  15.540 -1.4074 -0.4760  0.8094
 6388SOL     OW30622   0.532   3.141  17.250 -0.2469  0.6045 -0.5211
 6388SOL    HW130623   0.473   3.146  17.175 -0.4257  1.4118 -0.3320
 6388SOL    HW230624   0.609   3.194  17.233  1.1355 -1.3140 -0.1844
 6389SOL     OW30625   1.945   4.546   7.402  0.4527 -0.8138 -0.6850
 6389SOL    HW130626   2.027   4.505   7.431 -0.2543 -1.3288  0.5762
 6389SOL    HW230627   1.954   4.533   7.307  3.8428  0.4332 -0.5282
 6390SOL     OW30628   1.818   2.016  17.302  0.5374 -0.3869  0.3457
 6390SOL    HW130629   1.901   1.973  17.324  0.0236 -0.1234  2.7936
 6390SOL    HW230630   1.818   2.079  17.374  0.4551  0.8142 -0.6989
 6391SOL     OW30631   4.688   1.840   9.514 -0.0660  0.2290 -0.3901
 6391SOL    HW130632   4.650   1.805   9.434  0.1020  0.4500 -0.5657
 6391SOL    HW230633   0.060   1.832   9.499 -0.1775  1.2243 -1.6398
 6392SOL     OW30634   1.585   2.727   1.766  0.7877  0.2819  0.4500
 6392SOL    HW130635   1.616   2.724   1.856 -1.5061  2.2170  1.3365
 6392SOL    HW230636   1.659   2.768   1.722  2.1144 -0.2005  2.2677
 6393SOL     OW30637   2.969   0.871   8.065 -0.9327  0.1282 -0.2421
 6393SOL    HW130638   3.056   0.832   8.083 -0.9922 -0.0011 -0.2319
 6393SOL    HW230639   2.939   0.806   8.002 -2.0892  0.2716  0.1751
 6394SOL     OW30640   0.734   0.655   4.537 -0.2692  0.0412 -0.1294
 6394SOL    HW130641   0.715   0.736   4.490 -2.6085 -0.5450 -0.1824
 6394SOL    HW230642   0.650   0.612   4.550  0.0969 -0.8306 -0.6641
 6395SOL     OW30643   3.769   3.105   8.549 -0.3122 -0.4739  0.4147
 6395SOL    HW130644   3.831   3.033   8.535 -1.9334 -1.7627 -0.0911
 6395SOL    HW230645   3.780   3.108   8.644 -1.6789  2.2966  0.4732
 6396SOL     OW30646   2.581   4.241  10.787 -0.1841  0.1531  0.3885
 6396SOL    HW130647   2.579   4.158  10.835 -1.0483 -0.4806 -0.7114
 6396SOL    HW230648   2.552   4.219  10.698  0.3287  0.8432  0.0545
 6397SOL     OW30649   3.247   4.096   9.120 -0.9696  0.9052  0.1269
 6397SOL    HW130650   3.259   4.033   9.191  1.2419  0.4484 -0.6447
 6397SOL    HW230651   3.277   4.040   9.049 -0.4627  1.5777 -0.1872
 6398SOL     OW30652   2.622   0.560   8.156  0.4858  0.2534  0.1493
 6398SOL    HW130653   2.648   0.492   8.218 -0.6195  0.2766  0.6520
 6398SOL    HW230654   2.639   0.637   8.209  0.3602  0.8196 -0.6268
 6399SOL     OW30655   2.313   4.114   2.926  0.4248  0.4554  0.7606
 6399SOL    HW130656   2.389   4.090   2.979  1.0880 -0.9976 -0.8450
 6399SOL    HW230657   2.242   4.119   2.990  0.3230 -0.4923  0.7141
 6400SOL     OW30658   2.747   0.695   0.246 -0.2087 -0.1710  0.3003
 6400SOL    HW130659   2.836   0.676   0.214  0.0999 -0.5846  1.3847
 6400SOL    HW230660   2.722   0.760   0.181 -1.7916 -0.8648  0.2203
 6401SOL     OW30661   1.471   3.657   1.262  0.3291  0.0004 -0.2494
 6401SOL    HW130662   1.412   3.601   1.313  1.6581 -0.8160  0.3777
 6401SOL    HW230663   1.448   3.745   1.292 -3.0822 -0.9780  0.0105
 6402SOL     OW30664   0.474   0.312  10.973  0.0786  0.4218 -0.3037
 6402SOL    HW130665   0.388   0.280  10.947  0.6580  0.0463 -1.7349
 6402SOL    HW230666   0.473   0.406  10.953 -0.2037  0.0233 -2.1599
 6403SOL     OW30667   0.299   1.140   5.429  0.2899 -0.3122  0.2898
 6403SOL    HW130668   0.387   1.109   5.406  0.5217  1.1208 -0.8070
 6403SOL    HW230669   0.271   1.063   5.478  0.0818 -1.1033 -1.0897
 6404SOL     OW30670   4.385   4.105   6.289 -0.1968  0.2415  0.2075
 6404SOL    HW130671   4.325   4.031   6.288 -2.5812  2.1527 -0.8507
 6404SOL    HW230672   4.340   4.164   6.349 -2.1041 -0.5117 -0.4725
 6405SOL     OW30673   3.495   0.947  17.420 -0.1216 -0.4654  0.1219
 6405SOL    HW130674   3.483   0.929  17.326  0.0914  1.6978 -0.3228
 6405SOL    HW230675   3.410   0.920  17.454  0.4881 -1.5436  0.7727
 6406SOL     OW30676   0.558   3.046   8.092 -0.3742 -0.1932 -0.3787
 6406SOL    HW130677   0.583   2.990   8.165 -2.4800  0.5174  0.9109
 6406SOL    HW230678   0.633   3.100   8.069 -1.4087  1.3891 -0.0793
 6407SOL     OW30679   0.042   1.977   5.788 -0.0378 -0.5174 -0.0252
 6407SOL    HW130680   0.082   1.900   5.748 -0.1282 -0.2467 -0.6434
 6407SOL    HW230681   4.708   1.936   5.854  0.7033 -1.9614 -0.3078
 6408SOL     OW30682   1.210   3.695   4.334  0.5659 -0.1289 -0.2095
 6408SOL    HW130683   1.257   3.775   4.311 -0.3779  0.3725 -0.3783
 6408SOL    HW230684   1.223   3.639   4.258  0.0072  1.3035 -1.3492
 6409SOL     OW30685   3.668   0.703   3.673  0.2436 -0.7563 -0.1435
 6409SOL    HW130686   3.658   0.756   3.594  0.3566 -1.4291 -0.6137
 6409SOL    HW230687   3.735   0.759   3.712 -0.8814 -0.5629  1.4940
 6410SOL     OW30688   4.573   0.710  14.915 -0.5374 -0.0665  0.3068
 6410SOL    HW130689   4.532   0.632  14.877 -0.0997  0.0007 -0.3119
 6410SOL    HW230690   4.498   0.770  14.910 -0.7780 -0.4696 -0.9855
 6411SOL     OW30691   2.198   4.267   1.000  0.0239 -0.3228  0.0490
 6411SOL    HW130692   2.163   4.225   1.079  0.8455 -0.4128  0.3610
 6411SOL    HW230693   2.118   4.310   0.969  0.8208  1.0138 -0.1510
 6412SOL     OW30694   2.301   4.028   9.877  0.0835 -0.4761  0.1249
 6412SOL    HW130695   2.368   3.968   9.908 -0.2353  0.2373  2.2072
 6412SOL    HW230696   2.277   3.978   9.800  0.2208 -0.6480  0.1944
 6413SOL     OW30697   2.823   1.785   0.265  0.1459 -0.3811 -0.7282
 6413SOL    HW130698   2.746   1.733   0.286 -1.7821  3.1493  1.0585
 6413SOL    HW230699   2.869   1.775   0.348 -0.3593  2.6447 -0.0723
 6414SOL     OW30700   1.147   2.932   5.789  0.0430  0.4547  0.0504
 6414SOL    HW130701   1.177   2.845   5.813  0.5730  1.1469  1.8519
 6414SOL    HW230702   1.186   2.956   5.705  3.6598  0.1031  1.6430
 6415SOL     OW30703   2.054   2.961  10.635  0.0090 -0.7068  0.1101
 6415SOL    HW130704   2.080   2.870  10.655 -0.2304 -0.7864  0.0556
 6415SOL    HW230705   2.131   3.012  10.662 -1.3221  1.2018  0.2764
 6416SOL     OW30706   0.373   3.889   7.119 -0.3046  0.2537  0.1617
 6416SOL    HW130707   0.299   3.880   7.179 -1.8353 -1.6624 -1.9790
 6416SOL    HW230708   0.370   3.975   7.078 -0.7284 -1.1067 -2.7052
 6417SOL     OW30709   2.434   0.474   6.032 -0.1973  0.0425  0.3428
 6417SOL    HW130710   2.410   0.567   6.032 -2.2981 -0.5021 -1.1634
 6417SOL    HW230711   2.496   0.479   5.959 -1.1646  3.7325 -0.2465
 6418SOL     OW30712   3.836   1.612   4.648  0.1202  0.1373  0.3073
 6418SOL    HW130713   3.828   1.663   4.567 -1.0875  0.8888  0.8902
 6418SOL    HW230714   3.921   1.574   4.626  1.7966  3.8220  0.2886
 6419SOL     OW30715   1.256   3.715   2.342 -0.8091  0.9109 -0.3009
 6419SOL    HW130716   1.283   3.724   2.434 -1.3090 -1.6458  0.1153
 6419SOL    HW230717   1.336   3.752   2.304 -0.4963 -0.6044 -1.1333
 6420SOL     OW30718   0.270   4.647   7.957  0.2136 -0.3300 -0.4917
 6420SOL    HW130719   0.338   4.662   7.892  0.2256  0.3300 -0.3267
 6420SOL    HW230720   0.261   0.017   7.980  0.3736 -0.4367 -0.0007
 6421SOL     OW30721   1.887   2.089  14.102 -0.2077  0.6395  0.7346
 6421SOL    HW130722   1.943   2.086  14.180  1.8884  4.5455 -0.6360
 6421SOL    HW230723   1.804   2.070  14.144 -0.1569 -2.3860 -0.5238
 6422SOL     OW30724   1.125   0.054   8.225 -0.2191 -0.4264 -0.1174
 6422SOL    HW130725   1.206   0.091   8.190 -0.5547  0.4558  0.0230
 6422SOL    HW230726   1.102   0.106   8.303  0.3900  0.2010 -0.3510
 6423SOL     OW30727   1.481   4.650   7.848 -0.1456 -0.3181  0.1870
 6423SOL    HW130728   1.401   4.606   7.874  0.2663 -0.6279  0.9349
 6423SOL    HW230729   1.526   4.644   7.932 -2.5165  2.3793  1.6262
 6424SOL     OW30730   3.153   4.010   7.224  0.0472  0.5306 -0.0859
 6424SOL    HW130731   3.165   4.005   7.319 -3.1562 -1.1890  0.2069
 6424SOL    HW230732   3.182   4.100   7.208 -1.1783  0.5672 -2.0615
 6425SOL     OW30733   1.891   2.272  11.943 -0.2323 -0.5259  0.2882
 6425SOL    HW130734   1.977   2.277  11.986 -0.1552  1.4370 -0.1019
 6425SOL    HW230735   1.899   2.341  11.877 -1.2395  1.2319  1.9960
 6426SOL     OW30736   1.909   0.620   4.122  0.2100 -0.0651 -0.1304
 6426SOL    HW130737   1.875   0.531   4.123  2.8486 -1.0744  0.8426
 6426SOL    HW230738   1.996   0.614   4.162  0.0518  1.8098  0.4868
 6427SOL     OW30739   1.664   1.902   6.692  0.2807 -0.0078  0.0316
 6427SOL    HW130740   1.588   1.911   6.634  0.9067  0.9990 -0.6404
 6427SOL    HW230741   1.631   1.841   6.758 -3.5828  1.7493 -0.2305
 6428SOL     OW30742   2.884   2.903   7.686  0.1961  0.2560 -0.3648
 6428SOL    HW130743   2.796   2.923   7.655 -1.5680 -3.6636  2.1764
 6428SOL    HW230744   2.870   2.856   7.768  0.5426  0.7846 -0.0001
 6429SOL     OW30745   1.769   1.811   0.557  0.9122  0.3238 -0.2424
 6429SOL    HW130746   1.730   1.894   0.529 -0.6762 -0.4393 -0.2541
 6429SOL    HW230747   1.808   1.774   0.478  0.3338 -0.2988 -0.2301
 6430SOL     OW30748   0.924   3.793   4.087 -0.3986 -0.3130 -0.2367
 6430SOL    HW130749   0.987   3.731   4.051  1.5991  0.6256  1.6104
 6430SOL    HW230750   0.955   3.883   4.073  2.7428 -1.2011  1.0191
 6431SOL     OW30751   2.332   2.706  13.587 -0.0232 -0.0698  0.1484
 6431SOL    HW130752   2.311   2.676  13.498  0.6016 -0.9658  0.3094
 6431SOL    HW230753   2.247   2.683  13.625 -0.2227  0.5076  0.0553
 6432SOL     OW30754   3.142   0.500   5.255 -0.7013  0.4649  0.3876
 6432SOL    HW130755   3.047   0.508   5.243 -0.7259  0.7050  0.7361
 6432SOL    HW230756   3.178   0.517   5.168 -0.1613 -0.9129  0.3501
 6433SOL     OW30757   3.095   3.596   3.700  0.4438 -0.0089 -0.0666
 6433SOL    HW130758   3.068   3.613   3.610  1.8217 -0.3623 -0.5450
 6433SOL    HW230759   3.102   3.684   3.736  0.7086  0.3275 -0.9626
 6434SOL     OW30760   2.982   4.466   4.819  0.2198 -0.1328  0.0878
 6434SOL    HW130761   2.972   4.560   4.810 -1.0227 -0.2165  0.7249
 6434SOL    HW230762   3.015   4.443   4.732  0.3767  2.9719 -0.6800
 6435SOL     OW30763   3.291   0.406   0.120  0.2310  0.0047 -0.0943
 6435SOL    HW130764   3.275   0.412   0.214  0.6224 -1.5001  0.0678
 6435SOL    HW230765   3.304   0.312   0.107  0.5709  0.2500 -1.5222
 6436SOL     OW30766   0.244   1.808   9.499 -0.3743 -0.2529  0.1440
 6436SOL    HW130767   0.282   1.760   9.425  3.7166  1.7849  0.8581
 6436SOL    HW230768   0.299   1.764   9.563 -0.2020 -0.4731 -0.1542
 6437SOL     OW30769   3.028   3.046  13.856 -0.2453  0.3252 -0.6105
 6437SOL    HW130770   2.995   2.958  13.874  0.7150  0.0922  0.0282
 6437SOL    HW230771   3.107   3.051  13.910 -1.1149 -1.2409  0.7798
 6438SOL     OW30772   3.493   3.934   8.714  1.0400 -0.0810 -0.8974
 6438SOL    HW130773   3.555   3.882   8.766  1.5852 -0.4443 -1.8873
 6438SOL    HW230774   3.495   3.883   8.633 -0.5289  1.5918 -1.9707
 6439SOL     OW30775   4.586   3.224   6.414 -0.0850 -1.0847 -0.2915
 6439SOL    HW130776   4.514   3.288   6.417 -0.6524 -1.7542  0.3880
 6439SOL    HW230777   4.658   3.286   6.420  0.7997 -2.1057 -0.5383
 6440SOL     OW30778   1.364   2.586   1.672 -0.0346  0.1696 -0.1537
 6440SOL    HW130779   1.417   2.510   1.648  0.2717 -0.2272  1.7298
 6440SOL    HW230780   1.431   2.652   1.689  0.6259 -0.5394 -0.0038
 6441SOL     OW30781   2.437   3.278   8.926  0.0237 -0.7221  0.2039
 6441SOL    HW130782   2.344   3.292   8.911  0.4080  2.1587  0.6027
 6441SOL    HW230783   2.434   3.274   9.022  1.3107 -0.2462  0.2709
 6442SOL     OW30784   1.101   2.835   9.036  0.0556  0.6493  0.3710
 6442SOL    HW130785   1.116   2.925   9.067 -1.2174  0.2122  2.2376
 6442SOL    HW230786   1.187   2.801   9.062 -0.2725 -1.0522 -0.7968
 6443SOL     OW30787   3.757   3.878   3.299  0.0856  0.2924 -0.4204
 6443SOL    HW130788   3.692   3.947   3.285  0.5803  0.2592 -2.7951
 6443SOL    HW230789   3.830   3.939   3.308 -0.7282  1.0377  1.0918
 6444SOL     OW30790   4.018   0.258   0.828 -0.9030 -0.1217 -0.5581
 6444SOL    HW130791   3.997   0.189   0.765  1.7263 -1.2904 -0.1732
 6444SOL    HW230792   4.031   0.207   0.908 -1.2778  0.5355 -0.0774
 6445SOL     OW30793   3.320   2.269   2.181  0.4953  0.3297  0.7015
 6445SOL    HW130794   3.266   2.269   2.102  3.0243  0.1565 -1.0195
 6445SOL    HW230795   3.272   2.324   2.243 -0.2433  0.8972 -0.3684
 6446SOL     OW30796   1.956   3.434   6.803 -0.2430  0.4547 -0.6426
 6446SOL    HW130797   1.917   3.410   6.719 -1.4138 -0.6225  0.2176
 6446SOL    HW230798   2.045   3.463   6.779 -0.3907 -0.0964 -1.8393
 6447SOL     OW30799   4.061   1.966   7.972 -0.2068  0.1768 -0.3205
 6447SOL    HW130800   3.997   1.928   7.911 -0.2328 -1.0417  0.4710
 6447SOL    HW230801   4.005   1.969   8.050 -1.2001  1.1438 -1.0793
 6448SOL     OW30802   4.558   0.599  12.621  0.1364 -0.1171 -0.5488
 6448SOL    HW130803   4.624   0.634  12.561  0.5154 -0.1296 -0.1420
 6448SOL    HW230804   4.587   0.508  12.629 -1.1111 -0.4447  0.2716
 6449SOL     OW30805   3.546   1.677   3.838 -0.3189 -0.2499 -0.8140
 6449SOL    HW130806   3.575   1.603   3.890 -0.3170  1.4505  1.5889
 6449SOL    HW230807   3.561   1.637   3.752 -1.9130 -0.9576 -0.7541
 6450SOL     OW30808   0.613   0.878  14.019  0.3910 -0.2263  0.1719
 6450SOL    HW130809   0.639   0.970  14.024  0.6630 -0.3517  1.0280
 6450SOL    HW230810   0.596   0.853  13.928  4.8211 -0.4175 -0.6087
 6451SOL     OW30811   0.204   0.766   4.632 -0.2035 -0.1007 -0.4749
 6451SOL    HW130812   0.142   0.814   4.686 -1.6711  0.2142 -2.4488
 6451SOL    HW230813   0.218   0.828   4.561  0.3663  2.5278  1.9318
 6452SOL     OW30814   3.793   4.606   5.022  0.4019 -0.2909  0.1988
 6452SOL    HW130815   3.872   4.589   5.073  0.1716  0.1883  0.7082
 6452SOL    HW230816   3.749   4.523   5.041  0.1039 -0.1722  0.0254
 6453SOL     OW30817   1.752   2.254   2.988  0.0841  0.1450  0.4086
 6453SOL    HW130818   1.820   2.314   3.018 -0.3894  1.5069 -1.2555
 6453SOL    HW230819   1.715   2.215   3.067  1.5021 -0.4133  0.7875
 6454SOL     OW30820   4.424   0.798   5.146 -0.0177 -0.0105  0.3717
 6454SOL    HW130821   4.490   0.866   5.130  2.1319 -1.5118  2.8810
 6454SOL    HW230822   4.338   0.838   5.140  0.9865  1.8053 -2.1174
 6455SOL     OW30823   2.059   3.384   4.372  0.1388  0.0086 -0.3506
 6455SOL    HW130824   2.069   3.422   4.284 -0.2690  2.0384  0.4861
 6455SOL    HW230825   1.980   3.335   4.350 -0.0454 -0.6977  1.9494
 6456SOL     OW30826   4.482   3.998   7.137  0.1195  0.0081 -0.1515
 6456SOL    HW130827   4.401   3.974   7.091 -0.4297 -0.2288  0.9267
 6456SOL    HW230828   4.458   4.012   7.229 -1.4820 -2.8207 -0.1410
 6457SOL     OW30829   1.211   3.954   3.329  0.0615  0.3190 -0.8687
 6457SOL    HW130830   1.261   3.881   3.291  0.2040  1.7848 -3.5287
 6457SOL    HW230831   1.286   4.012   3.345  0.5430 -0.1559 -1.3614
 6458SOL     OW30832   3.421   2.188   5.635 -0.3833  0.0917  0.0411
 6458SOL    HW130833   3.406   2.275   5.598  0.4448  0.2531  0.0649
 6458SOL    HW230834   3.485   2.161   5.570 -1.5886  0.4639 -1.2857
 6459SOL     OW30835   2.548   2.508   7.180  0.5197  0.1101  0.0015
 6459SOL    HW130836   2.556   2.426   7.131 -0.2885  0.0153  0.0388
 6459SOL    HW230837   2.588   2.576   7.126 -0.4528  1.4015  0.8919
 6460SOL     OW30838   4.343   3.766   6.632 -0.4175  0.1597 -0.0471
 6460SOL    HW130839   4.271   3.759   6.694 -1.2434  0.3390 -0.9860
 6460SOL    HW230840   4.407   3.824   6.675 -1.1314 -0.1282  1.4086
 6461SOL     OW30841   0.100   4.399   6.188  0.2864 -0.7394  0.2569
 6461SOL    HW130842   0.095   4.454   6.110  0.6583  0.4146  1.0471
 6461SOL    HW230843   0.031   4.437   6.242 -1.8820 -2.6805 -1.1505
 6462SOL     OW30844   3.914   0.643   8.988 -0.0087  0.8738 -0.1039
 6462SOL    HW130845   3.825   0.643   9.022 -0.5021 -0.5198 -1.3774
 6462SOL    HW230846   3.930   0.549   8.975  4.5578  1.5286  0.6613
 6463SOL     OW30847   0.861   1.893   2.612 -0.0958 -0.0680  0.2698
 6463SOL    HW130848   0.876   1.952   2.538  2.0565 -1.1098 -0.1379
 6463SOL    HW230849   0.934   1.833   2.593  0.5941  0.0614  2.4319
 6464SOL     OW30850   3.670   4.675   8.571  0.0847  0.0903 -0.7270
 6464SOL    HW130851   3.674   0.040   8.534 -0.3599  0.6970  0.6418
 6464SOL    HW230852   3.747   4.631   8.536 -0.6294 -1.2614 -0.6381
 6465SOL     OW30853   1.616   1.468  14.260  0.0830  0.5476  0.1731
 6465SOL    HW130854   1.629   1.562  14.247  2.8876  0.0938 -0.2096
 6465SOL    HW230855   1.549   1.456  14.192 -0.7981 -1.5991  1.4166
 6466SOL     OW30856   2.195   1.061   3.379 -0.4911  0.3709  0.0153
 6466SOL    HW130857   2.105   1.091   3.386 -0.5199  0.0546  1.0341
 6466SOL    HW230858   2.238   1.147   3.375  1.6310 -0.7332 -1.2995
 6467SOL     OW30859   2.207   1.285  11.713 -0.2543 -0.4442 -0.0216
 6467SOL    HW130860   2.245   1.315  11.631  0.2921 -1.1964 -0.0404
 6467SOL    HW230861   2.245   1.200  11.733  2.5018  0.2777 -2.2653
 6468SOL     OW30862   2.478   4.181   6.044 -0.4485 -0.3155 -0.1386
 6468SOL    HW130863   2.558   4.231   6.062  0.7823 -1.5843 -2.1248
 6468SOL    HW230864   2.430   4.240   5.986  1.6097  2.3483  0.8343
 6469SOL     OW30865   1.647   1.929  17.525  0.1193  0.5598  0.2403
 6469SOL    HW130866   1.602   2.012  17.505 -0.5382 -0.1840 -1.3678
 6469SOL    HW230867   1.573   1.888  17.570 -0.6099  0.2551 -1.2419
 6470SOL     OW30868   4.562   3.573   0.821  0.0767  0.1009 -0.5680
 6470SOL    HW130869   4.549   3.596   0.913 -0.5176 -2.4643 -0.0129
 6470SOL    HW230870   4.603   3.486   0.819 -0.5561 -0.2167  0.3199
 6471SOL     OW30871   2.677   3.333   1.595 -0.0358  0.5544 -0.0687
 6471SOL    HW130872   2.751   3.371   1.642 -0.1209  0.3720  0.2117
 6471SOL    HW230873   2.729   3.318   1.516  0.0021 -2.7271  0.5677
 6472SOL     OW30874   0.571   0.513   2.382  0.3355  0.4525  0.1750
 6472SOL    HW130875   0.496   0.557   2.420  0.8519  0.9039  0.6792
 6472SOL    HW230876   0.628   0.585   2.354 -2.8253  2.8428 -0.0251
 6473SOL     OW30877   3.374   0.150   8.597 -0.0944  0.0902 -0.2313
 6473SOL    HW130878   3.392   0.067   8.641 -0.0739 -0.7812 -1.8786
 6473SOL    HW230879   3.292   0.176   8.639 -0.0365 -0.9870  0.5631
 6474SOL     OW30880   4.029   0.188   0.111 -0.5940  0.3279  0.3008
 6474SOL    HW130881   3.995   0.266   0.068  1.7666  1.0245 -0.2994
 6474SOL    HW230882   4.101   0.168   0.051  0.8420  0.2361  2.0437
 6475SOL     OW30883   4.025   0.972   7.912 -0.0594 -0.0255  0.5618
 6475SOL    HW130884   3.944   0.926   7.891  0.6883 -1.7083  1.3274
 6475SOL    HW230885   4.087   0.899   7.916 -1.5911 -1.1861  3.2861
 6476SOL     OW30886   3.318   1.820   3.863  0.9714  0.0600 -0.4742
 6476SOL    HW130887   3.270   1.755   3.916  3.1634 -2.5644 -1.7002
 6476SOL    HW230888   3.404   1.778   3.869  0.0624 -1.3753  2.6327
 6477SOL     OW30889   4.412   2.589  10.672 -0.6077 -1.1738 -0.0717
 6477SOL    HW130890   4.377   2.535  10.743 -0.7642 -0.5334  0.3394
 6477SOL    HW230891   4.503   2.561  10.675 -0.2654 -0.0005  0.8117
 6478SOL     OW30892   1.298   4.220   9.585  0.0843 -0.2146 -0.2199
 6478SOL    HW130893   1.354   4.264   9.521 -0.4371  0.7694  0.0007
 6478SOL    HW230894   1.265   4.295   9.635  1.0082  0.9789 -1.4107
 6479SOL     OW30895   3.490   0.969   8.101  0.0437  0.0192  0.0162
 6479SOL    HW130896   3.496   1.064   8.110  1.1486  0.1209 -1.8341
 6479SOL    HW230897   3.396   0.952   8.105 -0.4455  2.6866  0.3006
 6480SOL     OW30898   1.087   2.500  17.037  0.0971 -0.4531  0.3981
 6480SOL    HW130899   0.992   2.491  17.024  0.2916 -0.2525 -1.1530
 6480SOL    HW230900   1.113   2.444  17.110  1.6377 -1.0448 -0.6066
 6481SOL     OW30901   0.477   0.636  14.382  0.1752  0.3926  0.0767
 6481SOL    HW130902   0.392   0.661  14.417  0.4971  0.6189  0.6947
 6481SOL    HW230903   0.532   0.649  14.459 -1.5847 -0.3057  1.4451
 6482SOL     OW30904   0.315   3.499   0.015  0.6951 -0.3350  0.8816
 6482SOL    HW130905   0.391   3.441   0.018 -1.3104 -3.0801 -1.3478
 6482SOL    HW230906   0.256   3.462   0.081 -1.4314  1.5022  0.0035
 6483SOL     OW30907   2.126   1.087   6.636 -0.4171  0.0405  0.1075
 6483SOL    HW130908   2.066   1.051   6.570 -2.2325 -1.3043  2.4527
 6483SOL    HW230909   2.075   1.158   6.675 -0.0251  1.1858 -1.4580
 6484SOL     OW30910   1.772   4.044  15.167  0.0842 -0.2170 -0.1008
 6484SOL    HW130911   1.703   4.070  15.227  1.4114  0.0762  1.3159
 6484SOL    HW230912   1.729   4.028  15.083  0.8457 -1.6595 -0.2126
 6485SOL     OW30913   0.032   0.866   1.098 -0.5469 -0.1089  0.5557
 6485SOL    HW130914   0.094   0.795   1.082 -1.5805 -0.3581 -2.3137
 6485SOL    HW230915   0.098   0.935   1.100 -2.2983  1.6401 -1.4231
 6486SOL     OW30916   2.921   4.268   8.426  0.2273  0.1602 -0.2446
 6486SOL    HW130917   2.944   4.204   8.493 -2.0812  0.6274  0.9862
 6486SOL    HW230918   2.878   4.210   8.363 -1.0968  2.4742 -1.4790
 6487SOL     OW30919   3.499   3.202   8.603  0.1861 -0.3916  0.2558
 6487SOL    HW130920   3.472   3.167   8.519  0.2769 -1.3232  0.6207
 6487SOL    HW230921   3.580   3.150   8.605  0.3060 -0.2767 -1.4424
 6488SOL     OW30922   1.684   1.641  10.682  0.1731 -0.2192  0.0533
 6488SOL    HW130923   1.610   1.604  10.633 -0.2310  1.9821 -0.9826
 6488SOL    HW230924   1.696   1.574  10.750 -1.3113  1.2350  1.7652
 6489SOL     OW30925   2.513   2.118  15.802  0.6173 -0.5519  0.1961
 6489SOL    HW130926   2.426   2.108  15.841  0.2789  1.6144 -0.0280
 6489SOL    HW230927   2.508   2.060  15.727  0.7122 -2.2471  1.4869
 6490SOL     OW30928   2.918   3.442   1.672  0.9282 -0.8801  0.8793
 6490SOL    HW130929   2.993   3.446   1.613  1.8285 -1.1526  2.0160
 6490SOL    HW230930   2.908   3.534   1.696 -1.7008 -0.4758 -1.8065
 6491SOL     OW30931   0.045   0.823   4.237  0.0449 -0.6250 -0.1150
 6491SOL    HW130932   0.093   0.811   4.155  1.5679  0.9288  0.5408
 6491SOL    HW230933   4.722   0.905   4.217  0.7545 -0.8778 -2.8673
 6492SOL     OW30934   4.524   2.690  16.058 -0.5866  0.5368  0.6774
 6492SOL    HW130935   4.514   2.651  16.145  0.3867  1.5490  1.2385
 6492SOL    HW230936   4.617   2.712  16.063  0.2233 -2.9695  0.9934
 6493SOL     OW30937   4.487   3.373   6.054 -0.4251  0.3166  0.6535
 6493SOL    HW130938   4.557   3.368   6.119  0.5392 -1.0297 -0.5036
 6493SOL    HW230939   4.544   3.370   5.978 -1.2771  0.0552  0.0340
 6494SOL     OW30940   1.668   3.191  10.488  0.7019 -0.6492  0.3824
 6494SOL    HW130941   1.723   3.120  10.522 -0.7721 -1.5686  0.8783
 6494SOL    HW230942   1.678   3.268  10.543 -1.2458 -0.2004  0.1320
 6495SOL     OW30943   1.905   1.850   3.839  0.0423 -0.0123  0.7182
 6495SOL    HW130944   1.841   1.781   3.853 -0.9303  0.8342  0.4601
 6495SOL    HW230945   1.986   1.822   3.880 -0.3188 -0.7214  0.9391
 6496SOL     OW30946   4.379   2.860   7.413 -0.6273  0.2726 -0.5716
 6496SOL    HW130947   4.365   2.931   7.350 -2.5755  1.6977  1.4596
 6496SOL    HW230948   4.316   2.802   7.371 -1.2464 -0.4259  1.3221
 6497SOL     OW30949   4.349   2.042  15.654  0.9745 -0.1082 -0.2059
 6497SOL    HW130950   4.390   2.118  15.696  0.5225  0.5364 -0.9282
 6497SOL    HW230951   4.337   2.071  15.564 -0.0618 -0.7940 -0.2952
 6498SOL     OW30952   1.555   1.942  11.677 -0.5036 -0.3563 -0.1162
 6498SOL    HW130953   1.618   2.003  11.715 -0.2672  0.6175 -2.0702
 6498SOL    HW230954   1.612   1.884  11.627 -0.4909 -2.2161  2.0090
 6499SOL     OW30955   4.574   0.960   6.686 -0.2613 -0.6768 -0.1031
 6499SOL    HW130956   4.494   0.913   6.662  0.1690 -0.1545 -2.5860
 6499SOL    HW230957   4.645   0.901   6.660 -0.1036 -0.0577 -1.0822
 6500SOL     OW30958   0.303   4.612  17.479 -0.1694 -0.1972  0.2648
 6500SOL    HW130959   0.219   4.566  17.477 -0.9105  1.2152 -0.9361
 6500SOL    HW230960   0.259   4.697  17.478 -0.3563 -0.2434  2.9877
 6501SOL     OW30961   1.400   1.068   2.442  0.4544  0.3458  0.5626
 6501SOL    HW130962   1.435   1.044   2.357  1.4165  1.9081  0.4968
 6501SOL    HW230963   1.376   1.158   2.418 -0.1745  0.3916  1.3554
 6502SOL     OW30964   2.081   0.842   6.323  0.3268 -0.5768  0.1081
 6502SOL    HW130965   2.145   0.912   6.336 -1.5383  1.0905  0.2559
 6502SOL    HW230966   2.017   0.892   6.273 -1.6043 -1.6965  1.4715
 6503SOL     OW30967   0.024   3.744   4.724 -0.2317 -0.0816  0.4613
 6503SOL    HW130968   0.086   3.789   4.781  1.1075  0.6790 -1.6201
 6503SOL    HW230969   0.023   3.813   4.658  1.8320  0.9605  1.5498
 6504SOL     OW30970   2.605   4.520  10.596  0.7550 -0.3952  0.5952
 6504SOL    HW130971   2.661   4.516  10.519 -0.7570 -1.9661 -0.4173
 6504SOL    HW230972   2.528   4.557  10.554  1.0161 -0.1862  0.2992
 6505SOL     OW30973   0.519   0.911   3.562  0.3281 -0.2102 -0.1119
 6505SOL    HW130974   0.468   0.830   3.557  0.5683 -0.3691  0.0157
 6505SOL    HW230975   0.541   0.906   3.655  0.2047  2.0888  0.0485
 6506SOL     OW30976   2.926   0.985   6.452 -0.2589 -0.1271 -0.2876
 6506SOL    HW130977   2.862   1.053   6.429 -0.4943 -0.2501 -0.0019
 6506SOL    HW230978   2.976   0.985   6.371 -0.6275 -0.5385 -0.5118
 6507SOL     OW30979   2.564   3.923   6.052 -0.0880 -0.4327 -0.1950
 6507SOL    HW130980   2.519   3.900   5.971 -1.9657 -1.1614  1.0439
 6507SOL    HW230981   2.527   4.011   6.060 -0.1429 -0.4523 -0.2407
 6508SOL     OW30982   1.883   3.163   3.862 -0.4567  0.3630  0.4423
 6508SOL    HW130983   1.847   3.215   3.934 -0.9643  2.7889 -1.5890
 6508SOL    HW230984   1.953   3.219   3.827  0.4412 -0.3177  1.1314
 6509SOL     OW30985   2.245   4.707   4.136  0.2527  0.1409 -0.1417
 6509SOL    HW130986   2.169   0.032   4.168 -0.3623  0.0775 -1.5155
 6509SOL    HW230987   2.317   0.034   4.174 -1.8621  2.0937  1.3111
 6510SOL     OW30988   1.311   2.470   9.364 -0.0375 -0.4172 -0.1615
 6510SOL    HW130989   1.258   2.494   9.288 -0.9616 -0.3587  0.5154
 6510SOL    HW230990   1.378   2.539   9.371  0.9775 -1.4538  0.2790
 6511SOL     OW30991   1.828   0.058   7.854 -0.3572 -0.1009  0.3727
 6511SOL    HW130992   1.909   0.089   7.814 -0.5446 -1.1409 -0.8226
 6511SOL    HW230993   1.863   4.700   7.892 -0.2404 -0.0737  0.3233
 6512SOL     OW30994   0.577   2.727   1.816 -0.2405 -0.3071  0.4607
 6512SOL    HW130995   0.617   2.758   1.735  0.8150  0.2029  1.1685
 6512SOL    HW230996   0.485   2.719   1.791  0.5776  1.0113 -2.9847
 6513SOL     OW30997   3.066   3.957  11.970  0.6906  0.0368  0.5362
 6513SOL    HW130998   3.104   3.921  12.050  1.0477 -0.3991  0.1748
 6513SOL    HW230999   2.983   3.911  11.958  1.1132 -0.6429  0.1962
 6514SOL     OW31000   3.769   3.110  15.395 -0.6750  0.4076  0.1669
 6514SOL    HW131001   3.717   3.164  15.336 -0.6856  0.8514  0.5784
 6514SOL    HW231002   3.727   3.024  15.381 -0.1154  0.8551 -4.1228
 6515SOL     OW31003   2.879   3.821   7.469 -0.1536 -0.4331  0.6895
 6515SOL    HW131004   2.961   3.802   7.515 -0.1639  1.0303  1.3053
 6515SOL    HW231005   2.924   3.856   7.392 -0.2724 -2.7822 -0.4643
 6516SOL     OW31006   1.067   1.490   7.501 -0.0921  0.2130  0.4203
 6516SOL    HW131007   1.128   1.444   7.558 -0.0689 -1.3009 -0.8152
 6516SOL    HW231008   1.118   1.571   7.491  1.5844 -0.7717  1.1219
 6517SOL     OW31009   3.057   3.440   8.682 -0.0018  0.2687  0.2377
 6517SOL    HW131010   3.137   3.417   8.635  0.9841  1.5603  1.2747
 6517SOL    HW231011   3.058   3.535   8.670  0.1052 -0.1081 -2.8483
 6518SOL     OW31012   3.076   4.411   1.997  0.3062 -0.0252  0.5294
 6518SOL    HW131013   3.010   4.443   2.059  1.0787 -0.0631  1.3604
 6518SOL    HW231014   3.042   4.466   1.926 -3.2587 -1.1160  1.4219
 6519SOL     OW31015   1.230   3.897  10.780 -0.1881  0.5844 -0.4573
 6519SOL    HW131016   1.296   3.944  10.831  0.5991 -0.3631 -0.5914
 6519SOL    HW231017   1.268   3.868  10.698  1.4464 -0.4667  0.6662
 6520SOL     OW31018   4.156   3.193  14.853 -0.4809 -0.5346  0.0373
 6520SOL    HW131019   4.247   3.201  14.826 -0.3893 -1.4033  0.1093
 6520SOL    HW231020   4.122   3.280  14.874 -1.5903 -0.9513 -0.0153
 6521SOL     OW31021   1.265   1.222  15.759 -0.8000  0.3217  0.0069
 6521SOL    HW131022   1.202   1.268  15.813 -1.9309 -0.4454 -0.6708
 6521SOL    HW231023   1.238   1.238  15.668  1.0330 -1.4792 -0.8526
 6522SOL     OW31024   0.132   3.645  11.919  0.2402  0.1016 -0.0199
 6522SOL    HW131025   0.069   3.706  11.957 -0.9435 -2.0604  1.4707
 6522SOL    HW231026   0.151   3.586  11.992 -3.6610  0.9399  1.6612
 6523SOL     OW31027   2.546   0.701   1.180  0.0999 -0.3894 -0.4377
 6523SOL    HW131028   2.468   0.719   1.233 -0.2062 -1.1935 -0.6228
 6523SOL    HW231029   2.528   0.621   1.130 -0.1935 -0.3323 -0.4211
 6524SOL     OW31030   1.557   1.943   1.193 -0.7261  0.4686  0.2252
 6524SOL    HW131031   1.478   1.898   1.163  0.6985 -0.2282 -2.5258
 6524SOL    HW231032   1.509   2.020   1.223 -1.4990  0.1134 -0.0961
 6525SOL     OW31033   3.492   2.342   0.320 -0.2757 -0.2344  0.5580
 6525SOL    HW131034   3.548   2.351   0.242 -1.2712  1.1583  0.0115
 6525SOL    HW231035   3.512   2.431   0.348  0.7011  0.1119 -1.2113
 6526SOL     OW31036   4.288   2.849  12.781 -0.3605  0.1595 -0.3587
 6526SOL    HW131037   4.239   2.850  12.698 -1.9805 -0.2579  0.5857
 6526SOL    HW231038   4.318   2.758  12.778 -0.7183  0.0309  0.0134
 6527SOL     OW31039   2.504   4.630   1.213  0.2791 -0.2967  0.0654
 6527SOL    HW131040   2.531   4.657   1.125 -0.8333  1.8298  0.3611
 6527SOL    HW231041   2.409   4.638   1.219  0.2895 -0.7638  0.8322
 6528SOL     OW31042   2.552   2.631   3.056 -0.2319 -0.2099 -0.3057
 6528SOL    HW131043   2.537   2.537   3.048  1.0900 -0.5381  0.9984
 6528SOL    HW231044   2.613   2.651   2.985  1.4015 -5.3337 -0.3376
 6529SOL     OW31045   3.018   2.072   7.788  0.2517 -0.2450 -0.1503
 6529SOL    HW131046   2.948   2.136   7.774 -0.4471 -1.3709 -1.8728
 6529SOL    HW231047   3.040   2.039   7.700  0.7339  1.6134 -0.7220
 6530SOL     OW31048   2.731   4.487   7.927 -0.3747  0.1244  0.3234
 6530SOL    HW131049   2.756   4.436   8.004 -2.1304 -1.8331 -0.3863
 6530SOL    HW231050   2.801   4.552   7.930  2.3164 -2.7493 -0.4762
 6531SOL     OW31051   1.520   3.404   8.496 -0.2950 -0.3177  0.4577
 6531SOL    HW131052   1.479   3.442   8.574  3.2183 -0.0995  2.1786
 6531SOL    HW231053   1.522   3.482   8.439 -0.2103 -1.1345 -0.6640
 6532SOL     OW31054   1.748   3.107   7.733 -0.2275  0.1093 -0.0694
 6532SOL    HW131055   1.797   3.167   7.677 -0.3145  1.0408  0.8564
 6532SOL    HW231056   1.799   3.107   7.813 -0.7042 -0.0794  0.2339
 6533SOL     OW31057   0.545   3.856   0.248 -0.1004 -0.3038  0.0990
 6533SOL    HW131058   0.526   3.870   0.341 -1.5023  0.7669 -0.3461
 6533SOL    HW231059   0.625   3.907   0.235 -0.3075  0.2958  1.1686
 6534SOL     OW31060   0.014   1.190   7.617  0.2815 -0.0299 -0.2013
 6534SOL    HW131061   4.651   1.210   7.656 -0.5093 -1.0854 -1.3847
 6534SOL    HW231062   4.700   1.205   7.530 -0.3968 -1.6970 -0.2107
 6535SOL     OW31063   3.303   1.463   8.395 -0.2922  0.0404 -0.1161
 6535SOL    HW131064   3.373   1.399   8.384 -0.1660  0.2046 -0.2614
 6535SOL    HW231065   3.241   1.421   8.336  2.0441 -3.4402 -0.0757
 6536SOL     OW31066   1.179   1.836   4.358  0.0287  0.0273  0.2028
 6536SOL    HW131067   1.126   1.761   4.385 -0.1058  0.6163  1.5652
 6536SOL    HW231068   1.123   1.878   4.293 -0.9683 -1.3534  0.1543
 6537SOL     OW31069   3.036   1.200  16.735 -0.1349 -0.4048  0.0768
 6537SOL    HW131070   3.103   1.214  16.801  1.0781  1.1913 -1.5014
 6537SOL    HW231071   3.073   1.243  16.658  0.7384  1.2918  1.4503
 6538SOL     OW31072   4.234   3.941  17.328 -0.5275  0.3197 -0.4304
 6538SOL    HW131073   4.246   3.896  17.244 -4.1449  2.2507 -1.9773
 6538SOL    HW231074   4.260   3.877  17.394  0.8089 -1.5650 -2.7405
 6539SOL     OW31075   0.341   2.985  10.733  0.5200 -0.1973  0.8021
 6539SOL    HW131076   0.432   2.958  10.735  0.2725 -1.1334 -1.2852
 6539SOL    HW231077   0.297   2.908  10.769  2.1365 -1.0572  0.9283
 6540SOL     OW31078   2.860   3.086   4.295 -0.2447 -0.5460 -0.0492
 6540SOL    HW131079   2.804   3.100   4.371 -0.7364 -0.4182 -0.4404
 6540SOL    HW231080   2.875   3.172   4.255 -0.1964 -0.4318  0.2131
 6541SOL     OW31081   2.676   1.348  10.511 -0.3005  0.0933  0.3750
 6541SOL    HW131082   2.638   1.332  10.598  1.0415  0.1775  0.9786
 6541SOL    HW231083   2.648   1.268  10.467 -1.8476 -0.1605  1.8182
 6542SOL     OW31084   4.701   1.909   5.418  0.0719 -0.2790 -0.0433
 6542SOL    HW131085   0.027   1.980   5.458  0.1645 -0.4101  0.0739
 6542SOL    HW231086   4.715   1.843   5.485 -0.7091  0.5650  0.9512
 6543SOL     OW31087   1.696   1.740   8.780 -0.1107 -0.1254 -0.5197
 6543SOL    HW131088   1.660   1.770   8.863 -1.6571 -2.6009 -0.2975
 6543SOL    HW231089   1.632   1.677   8.749  0.0013 -0.0454 -0.9109
 6544SOL     OW31090   4.088   2.833   0.935 -0.1528  0.5052 -0.0242
 6544SOL    HW131091   4.156   2.839   0.868  0.6130 -0.8723  0.6167
 6544SOL    HW231092   4.016   2.796   0.883  0.3414 -0.5052  0.0180
 6545SOL     OW31093   3.147   4.028   1.851 -0.7938  0.8377  0.2121
 6545SOL    HW131094   3.186   3.977   1.923 -1.5977  0.6358  0.5038
 6545SOL    HW231095   3.202   4.106   1.856 -1.6620  1.5036 -0.8421
 6546SOL     OW31096   3.386   1.479   2.306 -0.2307 -0.1797 -0.8016
 6546SOL    HW131097   3.457   1.529   2.268  0.8161 -0.6196  0.5877
 6546SOL    HW231098   3.353   1.428   2.232  0.0759 -2.2242  0.4824
 6547SOL     OW31099   2.123   1.274  10.830  0.0367 -0.1587  0.3762
 6547SOL    HW131100   2.054   1.293  10.767  2.1975 -1.3073 -2.3104
 6547SOL    HW231101   2.186   1.237  10.768 -0.1392 -1.8142  1.1654
 6548SOL     OW31102   3.439   2.826   6.021 -0.0670  0.2880 -0.2219
 6548SOL    HW131103   3.386   2.784   6.088  0.7199 -1.9574 -1.0038
 6548SOL    HW231104   3.448   2.758   5.954 -0.3974  0.2297 -0.2106
 6549SOL     OW31105   3.598   2.027   8.591 -0.0772 -0.2640  0.2748
 6549SOL    HW131106   3.511   1.988   8.589 -0.4023  0.5249 -0.8589
 6549SOL    HW231107   3.594   2.083   8.669  0.8661  1.0873 -0.6339
 6550SOL     OW31108   0.904   2.382   9.350 -0.1769 -0.2913  0.1461
 6550SOL    HW131109   0.887   2.319   9.280 -0.5503 -0.1265  0.0881
 6550SOL    HW231110   0.923   2.462   9.301  1.7715  0.1165  1.6091
 6551SOL     OW31111   4.017   4.093   3.040  0.2139  0.1614  0.3856
 6551SOL    HW131112   3.939   4.080   2.987  2.5406 -1.8264 -2.6086
 6551SOL    HW231113   4.014   4.188   3.050  0.1862  0.0015  1.9034
 6552SOL     OW31114   0.208   3.717   3.989  0.1213  0.0114 -0.1487
 6552SOL    HW131115   0.290   3.711   3.940  0.8452  3.0518  0.7102
 6552SOL    HW231116   0.235   3.707   4.080 -0.7926 -0.7805  0.0396
 6553SOL     OW31117   1.737   1.902   5.423  0.0012  0.2330 -0.0771
 6553SOL    HW131118   1.646   1.932   5.427 -0.1852  0.1168 -3.3578
 6553SOL    HW231119   1.764   1.939   5.339 -0.6370  2.3950  0.6656
 6554SOL     OW31120   0.022   0.684  12.461  0.0701 -0.4262  0.1845
 6554SOL    HW131121   0.060   0.608  12.418  1.5785  0.8762 -0.7882
 6554SOL    HW231122   0.066   0.756  12.417  0.3151 -0.7529 -0.1013
 6555SOL     OW31123   4.478   3.700   1.051 -0.0031 -0.0683 -0.2913
 6555SOL    HW131124   4.386   3.700   1.025  0.1815  1.2687 -0.9383
 6555SOL    HW231125   4.468   3.782   1.099 -2.7941 -1.2630  1.1651
 6556SOL     OW31126   1.598   3.751   2.476 -0.4969 -0.1694 -0.2234
 6556SOL    HW131127   1.588   3.843   2.449  0.6430 -0.6811 -2.4169
 6556SOL    HW231128   1.684   3.731   2.439 -0.0059  0.2465  0.7033
 6557SOL     OW31129   1.390   0.615   2.597 -0.1099  0.0826 -0.0300
 6557SOL    HW131130   1.386   0.674   2.521  0.7982  0.9398  0.5994
 6557SOL    HW231131   1.364   0.527   2.569 -0.0365  0.5101 -1.4600
 6558SOL     OW31132   2.174   1.315   4.216  0.3987 -0.7431 -0.3009
 6558SOL    HW131133   2.094   1.339   4.262  0.5760  0.5006 -0.6566
 6558SOL    HW231134   2.123   1.273   4.147 -0.0277  1.7799 -1.4971
 6559SOL     OW31135   3.076   2.202   7.425 -0.9988 -0.1940 -0.3859
 6559SOL    HW131136   3.057   2.133   7.490 -1.3462  0.4068  0.1468
 6559SOL    HW231137   3.077   2.280   7.480 -0.2786 -1.1030  0.9154
 6560SOL     OW31138   3.888   1.925   6.368  0.0368 -0.1178  0.5934
 6560SOL    HW131139   3.847   1.891   6.447 -2.8194  2.4570  0.2466
 6560SOL    HW231140   3.840   1.872   6.304 -1.7402  1.4173  0.6596
 6561SOL     OW31141   3.028   2.836  15.184 -0.5778  0.3800  0.0774
 6561SOL    HW131142   3.045   2.774  15.113 -0.7789  1.4726 -0.9221
 6561SOL    HW231143   3.009   2.778  15.257 -1.0631 -0.2201 -0.5334
 6562SOL     OW31144   4.321   0.425   9.776 -0.4379  0.6807  0.5533
 6562SOL    HW131145   4.346   0.516   9.761 -1.3434  0.7774 -0.3240
 6562SOL    HW231146   4.281   0.399   9.693  2.3730 -2.7999  0.2862
 6563SOL     OW31147   3.863   2.614   3.127  0.3823  0.3726 -0.2561
 6563SOL    HW131148   3.928   2.584   3.063  0.4136 -3.7661  1.7686
 6563SOL    HW231149   3.844   2.533   3.173 -1.5391 -0.1353 -1.9352
 6564SOL     OW31150   3.775   0.384   8.630  0.7587  0.1384  0.1121
 6564SOL    HW131151   3.755   0.319   8.563 -0.2049  0.9931 -0.4243
 6564SOL    HW231152   3.756   0.341   8.713  0.9852  0.7932  0.5085
 6565SOL     OW31153   1.668   2.123   3.647 -0.1664  0.8258  0.4747
 6565SOL    HW131154   1.673   2.206   3.694 -0.0132  0.4388  1.1518
 6565SOL    HW231155   1.619   2.062   3.702  2.5613 -1.4203  0.3996
 6566SOL     OW31156   1.842   3.349   6.559 -0.3144 -0.2704  0.6480
 6566SOL    HW131157   1.765   3.380   6.512  1.1090  1.7923 -0.3592
 6566SOL    HW231158   1.905   3.370   6.490 -0.5542 -0.8183  0.2662
 6567SOL     OW31159   2.600   0.618   3.383 -0.5286 -0.7827  0.2253
 6567SOL    HW131160   2.693   0.625   3.360 -1.2121  0.7594 -2.0549
 6567SOL    HW231161   2.578   0.697   3.433  1.0655 -0.7430  0.8673
 6568SOL     OW31162   4.612   2.013   4.213 -0.4285  0.4670 -0.1225
 6568SOL    HW131163   4.694   1.965   4.196 -0.6756 -0.4429  1.2571
 6568SOL    HW231164   4.623   2.041   4.304  1.3484  0.7510 -0.4170
 6569SOL     OW31165   2.167   3.103   8.571 -0.3263 -0.1570  0.1284
 6569SOL    HW131166   2.197   3.177   8.518 -0.6113 -0.6760 -0.7623
 6569SOL    HW231167   2.136   3.140   8.653 -1.8703  1.4835 -1.1955
 6570SOL     OW31168   3.037   4.589   5.127 -0.5410 -0.3171  0.3834
 6570SOL    HW131169   3.092   4.563   5.200 -0.7885 -1.2666  0.2340
 6570SOL    HW231170   3.033   4.506   5.078 -1.7869 -0.4877  0.7677
 6571SOL     OW31171   3.222   0.604   3.846  0.2840 -0.2556  0.0731
 6571SOL    HW131172   3.245   0.630   3.757  2.3878 -3.2735 -0.2967
 6571SOL    HW231173   3.283   0.657   3.898  1.3459  1.2846 -2.7529
 6572SOL     OW31174   1.992   2.085   4.367  0.1834 -0.2120  0.0728
 6572SOL    HW131175   2.036   2.002   4.350 -0.4523 -0.6376  0.4919
 6572SOL    HW231176   1.922   2.091   4.301 -0.3380 -1.1660  0.5575
 6573SOL     OW31177   3.159   2.848   8.112  0.0851  0.6980  0.4077
 6573SOL    HW131178   3.207   2.900   8.049 -1.3140  2.2683  0.6349
 6573SOL    HW231179   3.221   2.775   8.114  1.4849  1.8393 -1.6721
 6574SOL     OW31180   2.642   1.172   7.869  0.1744 -0.2136 -0.3940
 6574SOL    HW131181   2.561   1.140   7.908 -0.0419  1.5126  0.5695
 6574SOL    HW231182   2.621   1.203   7.780 -2.3479 -1.1371 -0.1033
 6575SOL     OW31183   3.183   3.388   9.377 -0.3690  0.0300  0.6312
 6575SOL    HW131184   3.155   3.296   9.378  0.4288 -0.2466 -3.3340
 6575SOL    HW231185   3.205   3.412   9.287 -2.2321 -1.0456 -0.1032
 6576SOL     OW31186   3.014   2.837   3.898 -0.6610 -0.2340  0.4827
 6576SOL    HW131187   2.971   2.907   3.848 -0.0646 -0.1872  0.0377
 6576SOL    HW231188   3.055   2.883   3.971  1.3678 -1.9476  0.3960
 6577SOL     OW31189   2.315   1.792   5.780  0.5537  0.4770  0.0880
 6577SOL    HW131190   2.392   1.761   5.732 -0.1240 -0.4515 -0.3936
 6577SOL    HW231191   2.253   1.721   5.765  3.4685 -2.0373  0.0082
 6578SOL     OW31192   3.499   2.201  11.157 -0.6043 -0.1892 -0.3348
 6578SOL    HW131193   3.496   2.108  11.177 -1.2295 -0.0538  0.1892
 6578SOL    HW231194   3.525   2.213  11.065  0.0229 -1.8167 -0.3669
 6579SOL     OW31195   2.072   0.730   3.470 -0.0116  0.6882  0.5236
 6579SOL    HW131196   2.054   0.722   3.376 -1.8598 -1.8498  1.0932
 6579SOL    HW231197   2.159   0.689   3.470 -1.1525 -1.7651 -0.9367
 6580SOL     OW31198   3.836   4.275   2.263  0.2828  0.5220 -0.6055
 6580SOL    HW131199   3.819   4.364   2.231  0.3407  1.2300  1.3643
 6580SOL    HW231200   3.754   4.226   2.258 -0.3418  1.4502  0.8179
 6581SOL     OW31201   2.797   0.670  10.464  0.4457 -0.0847  0.3989
 6581SOL    HW131202   2.837   0.583  10.470  2.4412  0.7433 -0.8453
 6581SOL    HW231203   2.714   0.639  10.426  0.9114  0.6223 -1.2027
 6582SOL     OW31204   1.878   0.687   2.360  0.6875  0.0401  0.3988
 6582SOL    HW131205   1.930   0.737   2.423 -0.4846 -0.6396  1.9326
 6582SOL    HW231206   1.827   0.764   2.335  0.1878 -0.8841 -1.3927
 6583SOL     OW31207   4.543   2.206   6.976 -0.0062 -0.0776  0.0388
 6583SOL    HW131208   4.532   2.297   7.004  2.6905 -0.4320  2.3521
 6583SOL    HW231209   4.502   2.204   6.890 -1.6578 -0.7465  0.8431
 6584SOL     OW31210   3.077   4.310  12.315  0.0203 -0.0038 -0.4369
 6584SOL    HW131211   3.000   4.353  12.350  1.1063  1.5684  0.0171
 6584SOL    HW231212   3.095   4.260  12.394 -0.7136 -2.2033 -1.6544
 6585SOL     OW31213   4.419   1.442   0.832 -0.5201 -0.3507  0.3501
 6585SOL    HW131214   4.386   1.525   0.866  1.2397  1.4640 -2.3700
 6585SOL    HW231215   4.389   1.374   0.893 -2.2947 -0.3941 -0.5565
 6586SOL     OW31216   2.441   4.548   2.345 -0.0080  0.0187 -0.3528
 6586SOL    HW131217   2.476   4.539   2.434  0.7224 -1.8434 -0.8387
 6586SOL    HW231218   2.446   4.644   2.345 -3.1975  0.1877  0.6871
 6587SOL     OW31219   0.700   2.871   7.742  0.2119 -0.3203  0.1546
 6587SOL    HW131220   0.764   2.821   7.791  0.5673  0.8329  0.8478
 6587SOL    HW231221   0.633   2.803   7.750  0.4263 -0.8096 -2.1518
 6588SOL     OW31222   2.885   0.935  12.695  0.5952  0.0603 -0.1667
 6588SOL    HW131223   2.820   0.925  12.626  1.3510  0.6337 -0.9594
 6588SOL    HW231224   2.861   0.862  12.752 -0.1909  1.2122  0.9771
 6589SOL     OW31225   2.486   2.785   4.017 -0.3848 -0.2966  0.3943
 6589SOL    HW131226   2.446   2.730   3.950  0.4584 -0.2827 -0.1202
 6589SOL    HW231227   2.510   2.870   3.980  2.3878 -1.4742 -0.5490
 6590SOL     OW31228   4.270   2.564   9.553 -0.0466 -0.2310 -0.2921
 6590SOL    HW131229   4.300   2.474   9.563  1.8197  0.3684 -0.5112
 6590SOL    HW231230   4.311   2.615   9.623  1.3982 -0.3493 -1.0431
 6591SOL     OW31231   3.003   3.663   6.387 -0.0799  0.2764  0.5736
 6591SOL    HW131232   2.923   3.702   6.423  0.1770 -0.6660  2.1733
 6591SOL    HW231233   3.001   3.664   6.292 -1.3214  0.5756  0.5977
 6592SOL     OW31234   4.570   1.053   8.982  0.5096  0.9564  0.3140
 6592SOL    HW131235   4.490   1.106   8.977 -0.3060 -0.5125 -2.0695
 6592SOL    HW231236   4.603   1.064   9.071 -2.2580 -1.8527  1.6572
 6593SOL     OW31237   2.549   4.184   3.530 -0.2813  0.7239 -0.0462
 6593SOL    HW131238   2.511   4.220   3.610  0.3416  3.4783 -1.0082
 6593SOL    HW231239   2.630   4.142   3.560 -0.1023  1.9180  1.1358
 6594SOL     OW31240   2.469   4.157  11.899  0.4942  0.2240  0.1192
 6594SOL    HW131241   2.494   4.250  11.896 -1.7820  0.9230  2.9227
 6594SOL    HW231242   2.554   4.114  11.902  1.0342  1.3314  0.6810
 6595SOL     OW31243   1.163   1.392  17.604 -0.2438  0.2065  0.2102
 6595SOL    HW131244   1.192   1.307  17.569  0.8112  0.4645  0.4417
 6595SOL    HW231245   1.092   1.415  17.545 -0.2625 -2.5838 -0.8738
 6596SOL     OW31246   0.075   4.619   8.887  0.3005 -0.3377 -0.3713
 6596SOL    HW131247   0.090   4.673   8.965 -0.3585  1.1958 -1.2896
 6596SOL    HW231248   0.070   4.529   8.918  0.9648 -0.1324  0.3367
 6597SOL     OW31249   3.771   2.314   7.911  0.3964  0.5976 -0.5670
 6597SOL    HW131250   3.755   2.222   7.889  2.3342 -0.5240  2.7874
 6597SOL    HW231251   3.785   2.303   8.005 -3.4829  0.2261 -0.0293
 6598SOL     OW31252   1.810   4.051  17.687 -0.6016 -0.1537 -0.0084
 6598SOL    HW131253   1.814   3.958   0.014  1.3829 -0.3700 -1.4117
 6598SOL    HW231254   1.869   4.091   0.059 -1.9426  1.7227  0.0687
 6599SOL     OW31255   0.141   3.572   4.521 -0.1861 -0.5002  0.2652
 6599SOL    HW131256   0.123   3.623   4.600 -0.9623  1.3171 -1.0919
 6599SOL    HW231257   0.127   3.485   4.558 -1.9123 -1.1731 -1.9437
 6600SOL     OW31258   2.627   4.266   1.946 -0.2351  0.4632  0.3257
 6600SOL    HW131259   2.712   4.222   1.941 -0.7616 -0.4706 -0.5111
 6600SOL    HW231260   2.598   4.217   2.023  1.5816 -0.9411  0.1213
 6601SOL     OW31261   1.049   2.039   2.152 -0.3618  0.0895 -0.1785
 6601SOL    HW131262   1.107   1.963   2.156 -0.5517 -0.0042  0.6971
 6601SOL    HW231263   1.038   2.042   2.057  1.0607  0.2985 -0.3387
 6602SOL     OW31264   4.040   3.873   4.885  0.1959 -0.0924 -0.6090
 6602SOL    HW131265   3.977   3.820   4.934  0.0024  0.6807 -0.0198
 6602SOL    HW231266   4.120   3.823   4.904 -0.9810 -1.5761  0.5488
 6603SOL     OW31267   1.469   2.526   3.940  0.1529 -0.2406  0.4591
 6603SOL    HW131268   1.388   2.543   3.891  0.3718 -1.7861 -0.4395
 6603SOL    HW231269   1.435   2.462   4.002 -2.0137 -0.4020 -0.9001
 6604SOL     OW31270   1.621   3.009  10.205 -0.1519  0.3298  0.6428
 6604SOL    HW131271   1.600   3.019  10.298 -1.5385  2.0921  0.1247
 6604SOL    HW231272   1.610   3.099  10.173  0.8176  0.2906  0.1766
 6605SOL     OW31273   0.376   2.867   3.369 -0.0779 -0.0088  0.1890
 6605SOL    HW131274   0.461   2.845   3.408 -0.0801 -0.7674 -0.2335
 6605SOL    HW231275   0.368   2.962   3.380 -0.0285 -0.0745  0.7968
 6606SOL     OW31276   4.679   2.971   2.900  0.4792  0.0037  0.8623
 6606SOL    HW131277   4.599   2.926   2.872  0.9841 -1.5704  1.9589
 6606SOL    HW231278   4.659   2.980   2.993 -3.4623 -1.1207  0.1296
 6607SOL     OW31279   3.837   3.219  15.107 -0.4462 -0.3928 -0.5451
 6607SOL    HW131280   3.793   3.143  15.144 -1.4447  1.7364  2.6014
 6607SOL    HW231281   3.774   3.258  15.047 -0.2525 -0.1773 -0.6115
 6608SOL     OW31282   0.368   1.309   2.644 -0.2268 -0.5461 -0.4408
 6608SOL    HW131283   0.407   1.235   2.691 -0.1427  0.0565  0.4389
 6608SOL    HW231284   0.402   1.296   2.556 -1.3649  2.6513 -1.3518
 6609SOL     OW31285   4.527   0.505   5.683 -0.5484 -0.1335  0.7144
 6609SOL    HW131286   4.484   0.451   5.617 -0.2942 -0.9849  1.2465
 6609SOL    HW231287   4.518   0.444   5.756 -1.0691 -0.5007  0.3423
 6610SOL     OW31288   0.077   4.221   8.571  0.2742 -0.1966 -0.7487
 6610SOL    HW131289   0.001   4.278   8.582  0.9110  0.3282  0.9121
 6610SOL    HW231290   0.069   4.220   8.476 -0.3460  2.4523 -0.7235
 6611SOL     OW31291   3.891   3.348   5.085  0.1951  0.4489  0.2664
 6611SOL    HW131292   3.839   3.417   5.044 -0.2390 -0.1071 -0.1224
 6611SOL    HW231293   3.872   3.358   5.178 -1.2360  0.8082 -0.0636
 6612SOL     OW31294   4.206   1.521   8.257 -0.6159  0.1759 -0.0267
 6612SOL    HW131295   4.158   1.452   8.304 -2.6294  0.1979 -2.0149
 6612SOL    HW231296   4.292   1.481   8.263 -0.8116 -0.3219 -0.4473
 6613SOL     OW31297   2.217   3.872   8.094 -0.5350 -0.1403  0.2916
 6613SOL    HW131298   2.296   3.833   8.057  0.1256  1.2819  0.2130
 6613SOL    HW231299   2.238   3.960   8.064  0.5537 -0.3188  0.5108
 6614SOL     OW31300   1.542   0.536   6.477 -0.2342 -0.0947  0.0547
 6614SOL    HW131301   1.566   0.610   6.421  0.3027  0.6050  1.2226
 6614SOL    HW231302   1.451   0.524   6.452 -0.6242  0.7278  1.1339
 6615SOL     OW31303   3.350   1.699  16.909  0.4152  0.1476  0.3936
 6615SOL    HW131304   3.312   1.773  16.861  0.0360  0.9734  1.9561
 6615SOL    HW231305   3.398   1.749  16.975 -0.9832  0.0262  1.5114
 6616SOL     OW31306   2.284   3.335   3.992 -0.6864 -0.4564 -0.1027
 6616SOL    HW131307   2.378   3.323   3.976 -0.8190  0.9857 -1.9922
 6616SOL    HW231308   2.236   3.264   3.950 -1.3364 -0.9146  1.4218
 6617SOL     OW31309   1.479   3.258   7.389  0.3412 -0.1616  0.3572
 6617SOL    HW131310   1.471   3.341   7.437 -0.2537  0.5252 -0.9207
 6617SOL    HW231311   1.451   3.203   7.462 -0.5207  0.1681  0.2755
 6618SOL     OW31312   0.336   1.913  16.134 -0.0753  0.0024  0.0990
 6618SOL    HW131313   0.244   1.903  16.157 -0.1075  0.8284  0.3112
 6618SOL    HW231314   0.373   1.830  16.164  1.6637  1.4783  2.0290
 6619SOL     OW31315   0.452   3.385  14.474  0.3158  0.3864 -0.2070
 6619SOL    HW131316   0.358   3.384  14.457  0.2786 -1.2084  0.1096
 6619SOL    HW231317   0.474   3.466  14.520  1.6963  0.4264 -0.9279
 6620SOL     OW31318   0.922   3.556   5.542  0.0490  0.4661 -0.4177
 6620SOL    HW131319   0.845   3.606   5.513 -0.6361 -1.3364 -1.7128
 6620SOL    HW231320   0.887   3.467   5.549  0.8545  0.3226  2.0196
 6621SOL     OW31321   2.720   3.532   3.691  0.3671 -0.0142  0.5553
 6621SOL    HW131322   2.694   3.447   3.656  1.2598 -1.0003  2.2979
 6621SOL    HW231323   2.787   3.512   3.756  2.0402 -0.5615 -1.3219
 6622SOL     OW31324   1.708   2.808   3.095  0.3491 -0.6075 -0.1938
 6622SOL    HW131325   1.750   2.775   3.015  2.5833 -2.9817  1.9845
 6622SOL    HW231326   1.653   2.740   3.133 -0.1281  0.4331  0.9717
 6623SOL     OW31327   0.096   0.779   2.754  0.3226 -0.1768  0.8410
 6623SOL    HW131328   0.052   0.826   2.683  0.0888 -1.1602  0.3466
 6623SOL    HW231329   0.162   0.730   2.705  0.0339  0.8201 -0.5497
 6624SOL     OW31330   1.040   3.175   1.857 -0.4092  0.4150 -0.5913
 6624SOL    HW131331   1.075   3.253   1.900  2.6730  0.0893 -2.5028
 6624SOL    HW231332   1.003   3.134   1.935 -0.8917 -0.0524 -1.0683
 6625SOL     OW31333   0.094   2.194  16.357 -0.0437  0.1104 -0.1366
 6625SOL    HW131334   0.143   2.127  16.404  1.2767  1.5203  0.4829
 6625SOL    HW231335   0.008   2.151  16.358 -0.4246  0.8693 -0.3799
 6626SOL     OW31336   0.690   1.524   3.800 -0.1442  0.0727  0.5131
 6626SOL    HW131337   0.659   1.609   3.832 -0.4048 -0.0229  0.5130
 6626SOL    HW231338   0.776   1.538   3.761  1.0168  0.6790  3.2713
 6627SOL     OW31339   0.746   4.121   3.165 -0.3779 -0.6899 -0.3849
 6627SOL    HW131340   0.837   4.089   3.164  0.0885  0.6471 -1.4623
 6627SOL    HW231341   0.758   4.208   3.126 -1.8756  0.6360  2.1142
 6628SOL     OW31342   0.624   1.016   9.444 -0.5835 -0.5957 -0.2929
 6628SOL    HW131343   0.663   1.072   9.376 -2.3476 -0.7648 -1.4500
 6628SOL    HW231344   0.605   0.947   9.381  1.6404 -1.4198 -0.0859
 6629SOL     OW31345   3.003   2.265  15.870  0.3880 -0.6261 -0.0166
 6629SOL    HW131346   3.011   2.338  15.808 -3.2846 -0.2563 -0.0359
 6629SOL    HW231347   2.940   2.309  15.927  0.5852 -0.1603 -0.1583
 6630SOL     OW31348   1.849   1.148   4.622  0.2963 -0.0748 -0.3645
 6630SOL    HW131349   1.874   1.065   4.581  2.6539  0.4579  0.0131
 6630SOL    HW231350   1.860   1.123   4.713 -1.6486  0.8113  0.1171
 6631SOL     OW31351   1.075   2.826  12.470 -0.8262 -0.0938  0.1234
 6631SOL    HW131352   1.102   2.854  12.558 -1.2495  1.0737 -0.1073
 6631SOL    HW231353   1.066   2.731  12.479  1.7835 -0.2458  0.9932
 6632SOL     OW31354   2.408   4.697   0.796  0.1675  0.2550  0.0911
 6632SOL    HW131355   2.493   4.704   0.841 -0.3189  2.6428  0.6463
 6632SOL    HW231356   2.391   0.063   0.765  0.0184  1.3926  3.3861
 6633SOL     OW31357   1.345   1.632   0.905  0.2995  0.0357  0.1754
 6633SOL    HW131358   1.438   1.654   0.907  0.0281  1.3973 -1.5542
 6633SOL    HW231359   1.327   1.672   0.820 -0.2018 -0.5967 -0.0215
 6634SOL     OW31360   2.062   3.233   4.790  0.2758 -0.0980 -0.3335
 6634SOL    HW131361   2.092   3.282   4.867 -1.1928  0.1171  0.1091
 6634SOL    HW231362   2.004   3.295   4.745  0.1066 -1.0925 -1.4876
 6635SOL     OW31363   1.185   2.306   8.237 -0.8272  0.1347 -0.0486
 6635SOL    HW131364   1.223   2.327   8.151 -0.1728 -0.3959  0.1108
 6635SOL    HW231365   1.255   2.334   8.296 -1.6220 -0.8707  1.3727
 6636SOL     OW31366   3.842   0.123   4.914  0.7257  0.0667 -0.0058
 6636SOL    HW131367   3.792   0.158   4.988 -1.4381 -0.3421 -1.2803
 6636SOL    HW231368   3.828   0.029   4.926  0.2978  0.1784  0.3536
 6637SOL     OW31369   3.653   4.547  17.402  0.7809 -0.2120  0.0558
 6637SOL    HW131370   3.706   4.600  17.460 -0.0759 -1.1144  1.6702
 6637SOL    HW231371   3.578   4.606  17.397  3.7615  3.5909  0.8958
 6638SOL     OW31372   2.478   0.527   0.620  0.1052 -0.1061  0.1236
 6638SOL    HW131373   2.388   0.555   0.604 -0.6159 -1.7284  1.2766
 6638SOL    HW231374   2.518   0.530   0.533  1.7799 -1.5395  0.8234
 6639SOL     OW31375   4.403   1.721   1.232  0.3525  0.3901 -0.1291
 6639SOL    HW131376   4.368   1.800   1.191 -0.9396 -0.3813 -0.5239
 6639SOL    HW231377   4.363   1.653   1.178  1.2047  1.9641 -2.7615
 6640SOL     OW31378   0.447   4.494   1.896  0.3511  0.4243 -0.1403
 6640SOL    HW131379   0.527   4.479   1.846  0.3228 -0.9632  0.2111
 6640SOL    HW231380   0.404   4.409   1.903 -1.6558  1.5111  0.8508
 6641SOL     OW31381   1.707   2.527   2.550  0.3274  0.3023 -0.5986
 6641SOL    HW131382   1.802   2.534   2.562  0.3133  3.3255 -2.0769
 6641SOL    HW231383   1.690   2.468   2.623  3.3032  1.1524  0.8234
 6642SOL     OW31384   0.751   3.516   9.022 -0.4857 -0.3321 -0.1027
 6642SOL    HW131385   0.751   3.447   9.088 -0.4438 -1.0923 -0.8959
 6642SOL    HW231386   0.756   3.600   9.068 -1.8767 -0.5868  0.5016
 6643SOL     OW31387   2.699   2.946  14.015 -0.0024  0.7065  0.0858
 6643SOL    HW131388   2.680   2.973  13.925  1.5789 -1.7849 -0.9779
 6643SOL    HW231389   2.686   2.852  14.007  0.7021  0.6797 -0.7841
 6644SOL     OW31390   1.987   3.444   8.693 -0.0975 -0.3668 -0.0168
 6644SOL    HW131391   1.926   3.370   8.679  0.9203 -1.3893  0.9976
 6644SOL    HW231392   1.965   3.501   8.620  1.6589  1.1535  0.6728
 6645SOL     OW31393   4.012   0.136   7.143 -1.2506  0.1420 -0.0501
 6645SOL    HW131394   4.020   0.231   7.155 -0.8940  0.1410 -0.2866
 6645SOL    HW231395   4.044   0.108   7.229  0.0885  0.2016 -0.5259
 6646SOL     OW31396   3.924   2.994   6.260 -0.0521  0.3078 -0.6360
 6646SOL    HW131397   3.851   2.971   6.202 -0.2940 -2.1870  0.6887
 6646SOL    HW231398   3.945   2.909   6.297 -0.1439  0.5370 -0.0543
 6647SOL     OW31399   4.610   2.105  12.890  0.3115 -0.2709 -0.3442
 6647SOL    HW131400   4.626   2.197  12.909  0.8020 -0.6414  1.0207
 6647SOL    HW231401   4.626   2.057  12.971 -2.4576 -0.9254 -0.1724
 6648SOL     OW31402   1.148   4.493   5.710  0.0069 -0.1731 -0.0720
 6648SOL    HW131403   1.136   4.490   5.615 -1.9677 -3.7716  0.2658
 6648SOL    HW231404   1.158   4.398   5.721 -1.5191  0.0529  3.1994
 6649SOL     OW31405   0.761   1.982   9.505 -0.3811  0.4074  0.0288
 6649SOL    HW131406   0.806   2.010   9.425 -0.4309  2.2039  0.6308
 6649SOL    HW231407   0.692   1.935   9.458 -2.8548  2.3516  1.6899
 6650SOL     OW31408   4.534   1.750  11.990 -0.3639  0.0802 -0.4670
 6650SOL    HW131409   4.519   1.815  11.922  0.2750 -0.2228 -0.8936
 6650SOL    HW231410   4.451   1.730  12.034 -0.8664 -0.2154 -1.5642
 6651SOL     OW31411   0.831   0.778   7.268 -0.1589 -0.4157  0.8161
 6651SOL    HW131412   0.874   0.812   7.346  0.9276 -0.1780  0.1214
 6651SOL    HW231413   0.889   0.703   7.249 -0.8370 -0.5416 -0.7635
 6652SOL     OW31414   4.164   4.443   2.313 -0.0867 -0.4704 -0.1352
 6652SOL    HW131415   4.111   4.365   2.326 -0.2333  0.0203  2.3344
 6652SOL    HW231416   4.238   4.440   2.374  0.6929 -2.5282 -1.2039
 6653SOL     OW31417   3.371   1.809  14.399 -0.2450 -0.3169  0.1714
 6653SOL    HW131418   3.303   1.784  14.461  1.0958 -0.5601  1.5568
 6653SOL    HW231419   3.402   1.884  14.450 -0.7097 -0.2363  0.3384
 6654SOL     OW31420   4.660   2.471   5.478  0.2077  0.4001 -0.0848
 6654SOL    HW131421   4.629   2.501   5.564 -0.3571 -2.9495  0.8799
 6654SOL    HW231422   4.675   2.379   5.501 -1.0709 -0.2158 -1.7118
 6655SOL     OW31423   4.349   4.173  17.300 -0.3672 -0.0407 -0.1468
 6655SOL    HW131424   4.298   4.247  17.266 -2.1042 -1.8999 -1.5987
 6655SOL    HW231425   4.289   4.099  17.290 -0.0579 -0.1900 -0.9321
 6656SOL     OW31426   3.078   3.705   2.097  0.4003 -0.0866 -0.0453
 6656SOL    HW131427   3.040   3.622   2.067  0.3941  0.7676 -2.3780
 6656SOL    HW231428   3.041   3.703   2.185 -1.7406  0.4546 -0.9391
 6657SOL     OW31429   4.170   2.441   0.986  0.8468 -0.1721 -0.6588
 6657SOL    HW131430   4.184   2.513   1.048  0.2221 -0.1786 -0.5149
 6657SOL    HW231431   4.124   2.379   1.043  1.0778 -0.6531 -0.9935
 6658SOL     OW31432   0.059   0.425  10.404 -0.0378 -0.4607 -0.7386
 6658SOL    HW131433   0.014   0.348  10.369 -0.9358  0.8783 -2.5635
 6658SOL    HW231434   0.137   0.419  10.349  0.2611  1.5724 -0.5326
 6659SOL     OW31435   1.308   3.280  10.233 -0.0564 -0.1417  0.4034
 6659SOL    HW131436   1.387   3.255  10.185 -1.5781  1.5088 -2.9492
 6659SOL    HW231437   1.239   3.229  10.189 -2.3714  3.1062  0.2516
 6660SOL     OW31438   2.308   4.029   0.885 -0.1956  0.2780  0.1794
 6660SOL    HW131439   2.247   4.098   0.912 -0.0597  0.5492 -0.2078
 6660SOL    HW231440   2.323   4.051   0.793 -0.7871 -1.2282 -0.2845
 6661SOL     OW31441   0.950   0.559   5.595 -0.0680  0.0920 -0.3862
 6661SOL    HW131442   0.951   0.647   5.632 -0.4624 -0.1077  0.0924
 6661SOL    HW231443   0.973   0.501   5.667  0.2761 -1.2259 -1.5451
 6662SOL     OW31444   3.961   2.350   2.859  0.6650 -0.5705 -0.7074
 6662SOL    HW131445   3.974   2.361   2.765  1.0361  3.7283 -0.1629
 6662SOL    HW231446   3.959   2.255   2.869  0.4628 -0.4413  0.4763
 6663SOL     OW31447   0.235   2.611  16.099  0.1221  0.1708 -0.1699
 6663SOL    HW131448   0.207   2.542  16.038 -1.7751  1.4909 -0.7961
 6663SOL    HW231449   0.304   2.569  16.150 -0.6673 -2.6219 -1.3779
 6664SOL     OW31450   4.232   2.851   6.702  0.0803 -0.3161 -0.4419
 6664SOL    HW131451   4.248   2.916   6.634 -0.6818 -1.0558 -1.3316
 6664SOL    HW231452   4.179   2.903   6.763  1.0198  1.0181 -0.7712
 6665SOL     OW31453   3.115   3.036  11.441  0.2991 -0.4683 -0.3967
 6665SOL    HW131454   3.082   2.955  11.480  2.0071 -1.0629 -0.1833
 6665SOL    HW231455   3.145   3.075  11.523 -1.9594  0.5600 -0.0620
 6666SOL     OW31456   1.811   0.046   7.463  0.1231 -0.5432  0.0133
 6666SOL    HW131457   1.732   0.010   7.504 -1.2239  3.0868  0.5807
 6666SOL    HW231458   1.861   4.692   7.437  1.9334  0.8490 -0.5705
 6667SOL     OW31459   2.505   3.799  10.281 -0.0020 -0.1043 -0.6835
 6667SOL    HW131460   2.419   3.826  10.313  0.9367  0.3817  1.3901
 6667SOL    HW231461   2.515   3.716  10.326 -2.4200  1.8796  3.4674
 6668SOL     OW31462   3.000   0.818   6.664  0.1158  0.2909  0.0369
 6668SOL    HW131463   3.019   0.884   6.731  0.4820 -0.3201  0.5349
 6668SOL    HW231464   2.968   0.867   6.589 -1.9905 -0.4132  0.4793
 6669SOL     OW31465   3.298   2.685   6.890 -0.0488 -0.8877  0.5908
 6669SOL    HW131466   3.289   2.622   6.819  5.3027  0.1956 -1.0949
 6669SOL    HW231467   3.319   2.625   6.962  0.5631 -0.3109  0.8992
 6670SOL     OW31468   1.301   0.431   6.845 -1.0761  0.0959 -0.1014
 6670SOL    HW131469   1.365   0.361   6.858 -1.4894  0.1458  2.1935
 6670SOL    HW231470   1.345   0.501   6.894 -0.5163 -0.3318  0.0118
 6671SOL     OW31471   1.587   4.061   1.552 -0.7049  0.7633  0.4275
 6671SOL    HW131472   1.665   4.011   1.527 -1.2317  0.9374 -1.5775
 6671SOL    HW231473   1.545   3.985   1.591  0.4426  1.5139  3.1746
 6672SOL     OW31474   4.321   3.147  16.576  0.0673 -0.8677  0.2224
 6672SOL    HW131475   4.322   3.057  16.610 -1.4661 -0.3208  1.7067
 6672SOL    HW231476   4.245   3.159  16.519  1.2758 -1.9679 -1.6303
 6673SOL     OW31477   1.679   1.703   9.683 -0.2118 -0.7427 -0.7499
 6673SOL    HW131478   1.591   1.724   9.714 -0.6844 -1.7264 -1.4402
 6673SOL    HW231479   1.722   1.739   9.760  1.1049 -2.8806 -0.5053
 6674SOL     OW31480   3.462   1.440  17.213 -0.1742  0.2599 -0.0649
 6674SOL    HW131481   3.458   1.360  17.266  1.5601 -1.8440 -3.1355
 6674SOL    HW231482   3.526   1.420  17.145 -0.4701  0.4157 -0.3859
 6675SOL     OW31483   4.445   0.970   6.969 -0.2466  0.1984  0.1475
 6675SOL    HW131484   4.480   0.964   6.880 -0.4153  0.6873  0.0477
 6675SOL    HW231485   4.375   1.035   6.962 -0.6553 -0.4402 -1.6580
 6676SOL     OW31486   1.152   3.785   6.756 -0.5026  0.3950  0.1143
 6676SOL    HW131487   1.062   3.757   6.773 -0.2048 -0.1235  0.8424
 6676SOL    HW231488   1.160   3.766   6.663  0.0752  0.6442  0.1126
 6677SOL     OW31489   4.381   2.556  15.357  0.1908  0.1329  0.1478
 6677SOL    HW131490   4.440   2.608  15.301  1.4945 -1.2286  0.2562
 6677SOL    HW231491   4.320   2.524  15.290 -0.5802  0.3987  0.7337
 6678SOL     OW31492   3.830   3.931   5.162 -0.2194  0.0670 -0.5601
 6678SOL    HW131493   3.875   3.852   5.194  1.3294  1.5565  0.9660
 6678SOL    HW231494   3.771   3.954   5.234 -0.7761  0.0143 -1.0063
 6679SOL     OW31495   2.155   4.470  15.835 -0.7181  0.1670 -0.1109
 6679SOL    HW131496   2.205   4.486  15.915  0.1454  1.1411 -0.8435
 6679SOL    HW231497   2.157   4.557  15.795 -0.9176  0.3836  0.3586
 6680SOL     OW31498   3.801   2.865   1.903  0.2724  0.7357  0.3432
 6680SOL    HW131499   3.741   2.814   1.849  1.6994  0.6979 -1.2138
 6680SOL    HW231500   3.814   2.797   1.970  1.7902  0.5349 -0.1672
 6681SOL     OW31501   0.389   1.280  14.706  0.7462 -0.0969  0.8548
 6681SOL    HW131502   0.399   1.330  14.625 -2.4866  1.1610  1.2390
 6681SOL    HW231503   0.471   1.300  14.751  0.5544  0.2163  1.0577
 6682SOL     OW31504   0.435   3.461   7.122  0.2573  0.3421  0.2256
 6682SOL    HW131505   0.443   3.550   7.155  1.0807 -0.0790  1.1558
 6682SOL    HW231506   0.409   3.482   7.032 -0.0129  2.4201  0.7999
 6683SOL     OW31507   4.447   3.878  14.509  0.2008 -0.8020 -0.3143
 6683SOL    HW131508   4.422   3.891  14.418 -1.0998 -1.9656 -0.1273
 6683SOL    HW231509   4.471   3.965  14.540 -0.1497 -0.6665 -0.4251
 6684SOL     OW31510   1.759   3.763   6.413 -0.1717 -0.3119 -0.1354
 6684SOL    HW131511   1.718   3.749   6.499  0.7975 -1.1235  0.1816
 6684SOL    HW231512   1.813   3.837   6.442 -0.4103 -0.2522  0.1600
 6685SOL     OW31513   2.669   2.778   4.342 -0.2900  0.1771 -0.5685
 6685SOL    HW131514   2.676   2.855   4.285  1.4031 -0.3772 -1.1180
 6685SOL    HW231515   2.717   2.716   4.287 -1.0460 -0.5264 -0.4358
 6686SOL     OW31516   4.540   0.065   6.902  0.3240  0.2084  0.1370
 6686SOL    HW131517   4.566   0.128   6.970 -2.9131  0.0777  1.5333
 6686SOL    HW231518   4.602   4.717   6.920  0.2206  0.3074  0.8835
 6687SOL     OW31519   4.711   2.463  10.388 -0.5708 -0.5212 -0.1699
 6687SOL    HW131520   4.662   2.514  10.452  1.0180  0.6900  0.0769
 6687SOL    HW231521   0.008   2.386  10.441  0.9129  0.2599  0.4073
 6688SOL     OW31522   0.380   4.048  13.211  0.2028  0.5015  0.3898
 6688SOL    HW131523   0.439   3.985  13.253 -0.1557 -0.7983 -1.0468
 6688SOL    HW231524   0.351   4.101  13.285 -2.1673  1.3706 -1.1509
 6689SOL     OW31525   1.717   1.342  16.575 -0.2063  0.0229  0.0056
 6689SOL    HW131526   1.776   1.302  16.511 -1.3039 -0.5410 -0.6591
 6689SOL    HW231527   1.761   1.330  16.659 -3.0237  2.3568  1.7849
 6690SOL     OW31528   3.636   0.521  13.884 -0.3684  0.6053  0.0140
 6690SOL    HW131529   3.679   0.537  13.968  1.7671  0.2109 -0.9796
 6690SOL    HW231530   3.704   0.567  13.833  0.2602 -1.7495 -1.2777
 6691SOL     OW31531   3.936   3.124   2.778  0.3038 -0.8428  0.0002
 6691SOL    HW131532   3.864   3.105   2.718 -1.3704 -0.7889  1.9933
 6691SOL    HW231533   4.010   3.115   2.717  0.9816  1.5316  0.4441
 6692SOL     OW31534   2.946   4.178  11.044  0.5497  0.0547 -0.1858
 6692SOL    HW131535   2.884   4.106  11.033  0.4324 -0.0542  1.1897
 6692SOL    HW231536   3.027   4.127  11.055  0.4231  0.0715  0.8150
 6693SOL     OW31537   3.629   3.435   6.370 -0.4167 -0.2130  0.1984
 6693SOL    HW131538   3.543   3.399   6.348 -1.2832  0.5176  2.3946
 6693SOL    HW231539   3.669   3.352   6.398  0.1373  0.1844  0.5793
 6694SOL     OW31540   0.694   1.131   8.229  0.0565 -0.1432 -0.1342
 6694SOL    HW131541   0.713   1.100   8.141  1.9171 -0.3325  0.3268
 6694SOL    HW231542   0.620   1.188   8.211  1.4415  1.9755  0.9394
 6695SOL     OW31543   0.921   0.082   5.185 -0.5947 -0.6291  0.1599
 6695SOL    HW131544   0.995   0.121   5.231 -2.1285  2.0592  0.3277
 6695SOL    HW231545   0.877   0.032   5.254 -0.1834 -0.6322  0.4194
 6696SOL     OW31546   1.439   0.457   7.508  0.2309  0.8710 -0.4526
 6696SOL    HW131547   1.421   0.470   7.415  1.6410  3.1259 -0.4157
 6696SOL    HW231548   1.485   0.540   7.523  0.4749  0.3412  1.6558
 6697SOL     OW31549   3.138   1.475  11.706  0.3367  0.1069  0.1445
 6697SOL    HW131550   3.206   1.428  11.755  1.4649  1.8345  0.2543
 6697SOL    HW231551   3.071   1.480  11.775  0.0484  0.4708 -0.1609
 6698SOL     OW31552   1.017   1.904  15.866 -0.3092 -0.0035 -0.5247
 6698SOL    HW131553   0.958   1.945  15.803  0.0825  1.0700 -0.1913
 6698SOL    HW231554   1.094   1.901  15.809  0.4536  1.2756  0.4369
 6699SOL     OW31555   2.814   0.519   5.522 -0.1634 -0.4303  0.2252
 6699SOL    HW131556   2.886   0.562   5.568 -0.7552  0.2998  0.4626
 6699SOL    HW231557   2.800   0.588   5.457 -1.4586 -1.5489 -0.6847
 6700SOL     OW31558   2.005   1.956   6.444 -0.4313  0.1150 -0.1499
 6700SOL    HW131559   1.946   1.888   6.411 -2.2152  1.7591 -0.4005
 6700SOL    HW231560   1.999   1.945   6.539  2.8745 -0.9045 -0.0617
 6701SOL     OW31561   2.232   1.924   6.712 -0.6077  0.4232  0.0518
 6701SOL    HW131562   2.138   1.911   6.724 -0.6816 -1.2947 -2.4939
 6701SOL    HW231563   2.226   2.014   6.680 -1.7985 -0.2414 -1.5880
 6702SOL     OW31564   1.966   2.300   0.154  0.2953  0.1617 -0.3267
 6702SOL    HW131565   1.940   2.357   0.082 -2.5643  1.9075  2.1218
 6702SOL    HW231566   2.059   2.324   0.150  0.1865  0.6937  0.3175
 6703SOL     OW31567   2.709   4.668   9.568  0.3167 -0.4383 -0.3899
 6703SOL    HW131568   2.639   4.617   9.528 -1.8336  0.4388  2.2278
 6703SOL    HW231569   2.780   4.661   9.505  1.8842 -1.5776  1.4594
 6704SOL     OW31570   0.391   0.471  16.134  0.0481 -0.4949 -0.0094
 6704SOL    HW131571   0.386   0.391  16.082  1.9997 -0.2212 -0.6158
 6704SOL    HW231572   0.433   0.430  16.208 -0.0131  3.5878  2.2701
 6705SOL     OW31573   4.335   0.200   8.306 -1.0007 -0.2642  0.1427
 6705SOL    HW131574   4.361   0.243   8.224 -0.3597  1.3512  1.2001
 6705SOL    HW231575   4.286   0.272   8.346 -1.5075 -0.7684  0.4353
 6706SOL     OW31576   4.674   0.487  12.987  0.5972  0.5245  0.0286
 6706SOL    HW131577   4.596   0.528  12.948  1.0177  0.5644 -0.7783
 6706SOL    HW231578   4.714   0.447  12.910 -0.2785  1.2115 -0.7787
 6707SOL     OW31579   2.522   0.079   7.650 -0.0736 -0.4293 -0.4440
 6707SOL    HW131580   2.561   0.035   7.574  1.1737  0.6225 -0.4171
 6707SOL    HW231581   2.605   0.115   7.683 -0.1137 -1.6371  1.0264
 6708SOL     OW31582   0.329   2.252   5.658  0.0338 -0.3255 -0.5143
 6708SOL    HW131583   0.295   2.332   5.617  0.6196  1.2589  2.0490
 6708SOL    HW231584   0.264   2.236   5.726  1.2442  1.2989  1.0309
 6709SOL     OW31585   2.238   0.211  14.772  0.2049  0.1670 -0.4200
 6709SOL    HW131586   2.237   0.204  14.867 -0.6483 -0.8813 -0.5027
 6709SOL    HW231587   2.237   0.118  14.748  0.7668 -0.2383  1.1138
 6710SOL     OW31588   4.009   1.063  10.944 -0.3001  0.0371  0.2398
 6710SOL    HW131589   4.051   1.146  10.921 -1.7561  1.4541  2.7747
 6710SOL    HW231590   4.018   1.057  11.039  0.9745 -0.8109  0.0701
 6711SOL     OW31591   2.814   2.275   0.121  0.5091 -0.4922 -0.2200
 6711SOL    HW131592   2.799   2.208   0.054 -1.2532 -0.7607  0.4488
 6711SOL    HW231593   2.777   2.356   0.088 -1.2666 -1.5643 -0.8577
 6712SOL     OW31594   1.482   1.272   2.240 -0.1342 -0.6009 -0.2282
 6712SOL    HW131595   1.393   1.293   2.269  0.4265  1.7011 -0.1504
 6712SOL    HW231596   1.490   1.339   2.173 -0.9306 -1.0322 -0.7453
 6713SOL     OW31597   3.709   1.431   5.127 -0.1284 -0.4033  0.0757
 6713SOL    HW131598   3.687   1.502   5.068  0.5420  0.9803  1.4959
 6713SOL    HW231599   3.684   1.473   5.209 -0.7128  0.5803 -0.6171
 6714SOL     OW31600   2.117   4.636   5.535  0.2873  0.0103  0.1660
 6714SOL    HW131601   2.174   4.583   5.480  3.0855  0.6089  2.4823
 6714SOL    HW231602   2.163   4.646   5.618  3.0831  0.4765 -1.4574
 6715SOL     OW31603   1.294   3.355  10.718  0.0884  0.1921 -0.2554
 6715SOL    HW131604   1.236   3.286  10.687  1.4784 -0.4633 -1.4038
 6715SOL    HW231605   1.325   3.311  10.797  1.4301  0.0810 -0.8264
 6716SOL     OW31606   0.380   1.144   4.809 -0.3791 -0.0952  0.5022
 6716SOL    HW131607   0.388   1.070   4.749  0.0655 -0.4502  0.9903
 6716SOL    HW231608   0.317   1.119   4.877 -1.3219  0.0772 -0.3197
 6717SOL     OW31609   1.795   2.813   1.077  0.1826 -0.4160  0.6003
 6717SOL    HW131610   1.757   2.900   1.069  0.5968 -0.4691 -1.8353
 6717SOL    HW231611   1.776   2.803   1.170  0.6613 -1.7216  0.5585
 6718SOL     OW31612   1.612   3.019   5.798  0.0207  0.0278 -0.0813
 6718SOL    HW131613   1.593   3.110   5.820  0.1230 -0.2617  1.2188
 6718SOL    HW231614   1.596   3.013   5.704  1.4945 -1.6946 -0.2313
 6719SOL     OW31615   0.235   2.848  17.166 -0.4423 -0.6239  0.1222
 6719SOL    HW131616   0.163   2.816  17.220 -1.0345 -0.9657 -0.8768
 6719SOL    HW231617   0.301   2.860  17.235 -0.3879 -0.9487  0.1269
 6720SOL     OW31618   0.129   1.338   4.325 -0.0630  0.2575  0.5148
 6720SOL    HW131619   0.166   1.254   4.299 -1.6899 -0.4657  0.5619
 6720SOL    HW231620   0.076   1.366   4.250 -2.1488 -2.6992  0.9096
 6721SOL     OW31621   1.890   4.309   3.433  0.0204 -0.1629  0.2342
 6721SOL    HW131622   1.867   4.244   3.366 -0.9244 -0.1842  0.5786
 6721SOL    HW231623   1.950   4.265   3.493  1.0488  1.8665  0.6986
 6722SOL     OW31624   2.160   1.680  11.646 -0.3665 -0.1258 -0.0742
 6722SOL    HW131625   2.239   1.655  11.597  0.6220 -0.6933  1.7930
 6722SOL    HW231626   2.101   1.606  11.661 -0.0610 -0.1989  0.7298
 6723SOL     OW31627   2.865   3.451   7.233  0.0799 -0.1869 -0.2064
 6723SOL    HW131628   2.916   3.510   7.177 -0.4117  1.0250  0.6163
 6723SOL    HW231629   2.933   3.393   7.268  1.6516  1.0659 -1.1782
 6724SOL     OW31630   2.813   4.254   5.311  0.1761  0.8424 -0.0495
 6724SOL    HW131631   2.894   4.233   5.265  0.5101  1.5004  0.2400
 6724SOL    HW231632   2.746   4.255   5.243 -0.1366  1.5278  0.2602
 6725SOL     OW31633   2.710   3.230  14.661 -0.0609  0.0521 -0.1307
 6725SOL    HW131634   2.789   3.281  14.674  0.3547 -0.4223 -0.7740
 6725SOL    HW231635   2.737   3.170  14.592 -0.7906 -0.7706  0.2931
 6726SOL     OW31636   0.796   1.893   8.199 -0.3642  0.4942  0.5549
 6726SOL    HW131637   0.837   1.823   8.148 -2.1267 -2.4994  3.2481
 6726SOL    HW231638   0.709   1.907   8.163  0.3529  3.7919  0.1257
 6727SOL     OW31639   0.630   2.124   3.034  0.3958 -0.2246  0.3144
 6727SOL    HW131640   0.549   2.075   3.026  0.5842 -0.0437 -2.5848
 6727SOL    HW231641   0.666   2.082   2.956 -0.3617 -1.0941  0.4358
 6728SOL     OW31642   3.512   0.485   8.216  0.0018 -0.2951 -0.3671
 6728SOL    HW131643   3.539   0.459   8.304  1.7500 -2.5245 -1.5702
 6728SOL    HW231644   3.448   0.417   8.195 -0.0651 -1.2734  2.8895
 6729SOL     OW31645   4.510   4.613  15.195 -0.2476 -0.5185  0.8496
 6729SOL    HW131646   4.445   4.600  15.264  2.3080 -0.3558  3.2523
 6729SOL    HW231647   4.588   4.579  15.239 -0.0484 -0.2916  0.6702
 6730SOL     OW31648   0.233   1.454   1.361 -0.4939  0.6349  0.6116
 6730SOL    HW131649   0.323   1.429   1.382  0.1620  1.8582 -0.7343
 6730SOL    HW231650   0.180   1.396   1.416  0.9068  0.9463  2.2869
 6731SOL     OW31651   3.691   2.505  15.361  0.0334 -0.0226 -0.5266
 6731SOL    HW131652   3.701   2.477  15.452 -2.2144  0.7588 -0.0437
 6731SOL    HW231653   3.596   2.493  15.356 -0.0239 -0.6782  2.2221
 6732SOL     OW31654   4.332   2.038   1.945  0.2028  0.0668 -0.1682
 6732SOL    HW131655   4.397   2.049   1.876  0.1285  0.7195 -0.1304
 6732SOL    HW231656   4.358   2.106   2.007 -0.3873  0.3831 -0.2610
 6733SOL     OW31657   1.735   1.197   1.744 -0.0630 -0.4163 -0.1411
 6733SOL    HW131658   1.705   1.242   1.824  2.0609 -0.0544  0.4528
 6733SOL    HW231659   1.671   1.223   1.678 -0.1966  1.2598  0.6375
 6734SOL     OW31660   2.349   3.882   3.867 -0.5547 -0.2686 -0.4329
 6734SOL    HW131661   2.414   3.951   3.860  0.6606 -1.3595  0.1215
 6734SOL    HW231662   2.381   3.836   3.944  0.6208  2.2399  0.5693
 6735SOL     OW31663   0.495   2.478   6.673 -0.2784 -0.4744 -0.2800
 6735SOL    HW131664   0.441   2.555   6.655 -0.9658 -0.7729  0.5173
 6735SOL    HW231665   0.533   2.507   6.756 -0.5431 -0.2107 -0.2524
 6736SOL     OW31666   0.274   0.896   5.499 -0.6541  0.4416  0.1003
 6736SOL    HW131667   0.334   0.822   5.509  0.2343  1.0033 -1.0363
 6736SOL    HW231668   0.196   0.842   5.513 -0.9306  1.1155  1.1710
 6737SOL     OW31669   3.198   4.054   5.950 -0.4155  0.7043  0.4130
 6737SOL    HW131670   3.164   4.067   6.038 -0.5468 -2.6236  0.8797
 6737SOL    HW231671   3.243   4.134   5.924 -0.1258  0.1286 -0.8489
 6738SOL     OW31672   2.253   0.781   5.252 -0.2494 -0.2991  0.1079
 6738SOL    HW131673   2.170   0.736   5.266 -0.3353 -0.0586  0.3573
 6738SOL    HW231674   2.270   0.749   5.163 -0.4297  0.6955 -0.2797
 6739SOL     OW31675   4.670   1.193   3.102  0.2734  0.4158  0.2246
 6739SOL    HW131676   4.705   1.271   3.146  1.1052 -0.0161  0.3294
 6739SOL    HW231677   4.595   1.168   3.156 -0.5557  0.0497 -1.0902
 6740SOL     OW31678   2.502   2.264   4.455  0.8186  0.4171  0.2742
 6740SOL    HW131679   2.565   2.212   4.504  0.6339  0.1259  0.1983
 6740SOL    HW231680   2.520   2.239   4.364  2.6875  0.5051  0.6108
 6741SOL     OW31681   1.201   1.021   6.362 -0.3439  0.1360 -0.5983
 6741SOL    HW131682   1.108   1.002   6.352  0.2820 -1.4142 -3.3699
 6741SOL    HW231683   1.237   0.942   6.322 -0.1710 -1.7077  3.2508
 6742SOL     OW31684   2.111   2.005   4.629 -0.0601  0.1529 -0.1291
 6742SOL    HW131685   2.135   1.991   4.538  0.0399  0.4106 -0.1416
 6742SOL    HW231686   2.027   1.958   4.629 -0.5557  1.0080  2.2013
 6743SOL     OW31687   0.225   3.926   9.078  0.0760 -0.0793 -0.2410
 6743SOL    HW131688   0.271   3.986   9.137 -0.3955  0.6191 -0.5834
 6743SOL    HW231689   0.194   3.867   9.147 -0.7043  0.2051 -0.3473
 6744SOL     OW31690   0.695   2.997   6.821  0.5745  0.6298  0.0304
 6744SOL    HW131691   0.687   2.903   6.808  1.5786  0.6085 -0.3936
 6744SOL    HW231692   0.658   3.000   6.910 -1.7553 -2.4325 -0.8421
 6745SOL     OW31693   1.328   2.699  12.506  0.2901  0.0322  0.7084
 6745SOL    HW131694   1.350   2.613  12.469  0.4498  1.5289 -2.7018
 6745SOL    HW231695   1.369   2.749  12.435 -0.7801 -2.0680 -1.4274
 6746SOL     OW31696   2.329   3.871   7.711  0.1724  0.1636 -0.2054
 6746SOL    HW131697   2.391   3.943   7.699 -0.1201  0.7065  1.5770
 6746SOL    HW231698   2.273   3.907   7.779  0.5374  0.9181 -0.3042
 6747SOL     OW31699   4.563   2.320   4.730 -0.2281  0.2803  0.0684
 6747SOL    HW131700   4.559   2.374   4.809 -1.6061  1.5778 -0.8950
 6747SOL    HW231701   4.496   2.366   4.679 -1.1365  0.3369  1.3069
 6748SOL     OW31702   0.849   3.290   3.363  0.4614 -0.0473 -0.2924
 6748SOL    HW131703   0.923   3.247   3.407  0.0782 -0.4057 -0.0022
 6748SOL    HW231704   0.802   3.333   3.434 -0.9161  1.4090 -2.0947
 6749SOL     OW31705   4.319   2.364   6.317 -0.3638  0.2452 -0.3919
 6749SOL    HW131706   4.238   2.372   6.266 -1.4598  2.1860  1.6290
 6749SOL    HW231707   4.339   2.273   6.297  0.2153  0.5412 -1.1385
 6750SOL     OW31708   3.034   0.596   1.385 -0.3459  0.1821 -0.1100
 6750SOL    HW131709   3.044   0.667   1.449 -3.0149  2.8145 -2.5880
 6750SOL    HW231710   2.939   0.594   1.372 -0.0368  1.3418 -2.5221
 6751SOL     OW31711   4.503   1.253  14.147 -0.5640 -0.1257 -0.4214
 6751SOL    HW131712   4.598   1.246  14.134 -0.7595  0.5494 -2.2965
 6751SOL    HW231713   4.476   1.313  14.077 -0.5978 -1.0724 -1.2261
 6752SOL     OW31714   3.550   0.853   5.190 -0.0165  0.5796 -0.1261
 6752SOL    HW131715   3.456   0.848   5.172 -0.2859  1.7133  1.0152
 6752SOL    HW231716   3.560   0.947   5.202 -1.0609  1.1119 -3.4653
 6753SOL     OW31717   3.760   1.257  12.505 -0.3897  0.4807  0.0687
 6753SOL    HW131718   3.691   1.293  12.450  0.1380 -0.1713 -1.0306
 6753SOL    HW231719   3.834   1.305  12.468 -1.1520  1.1819 -0.5397
 6754SOL     OW31720   4.513   4.257   7.033  0.0537  0.8498  0.4240
 6754SOL    HW131721   4.524   4.164   7.055 -1.0462  0.4700 -0.6579
 6754SOL    HW231722   4.592   4.286   7.079 -1.3799  2.0261  2.1631
 6755SOL     OW31723   2.322   1.389   2.605 -0.2042 -0.1447  0.3455
 6755SOL    HW131724   2.301   1.451   2.535  1.5597 -0.7309 -0.7045
 6755SOL    HW231725   2.321   1.445   2.683  0.0962 -1.1993  1.1171
 6756SOL     OW31726   3.607   3.284   3.361 -0.5148 -0.2776  0.4700
 6756SOL    HW131727   3.588   3.194   3.388  0.7286 -0.6309  0.1941
 6756SOL    HW231728   3.530   3.321   3.403 -0.7520  0.1943 -0.3797
 6757SOL     OW31729   2.261   3.207   8.226 -0.3332  0.5405 -0.3861
 6757SOL    HW131730   2.334   3.226   8.167 -0.0915 -1.4838 -0.7468
 6757SOL    HW231731   2.283   3.247   8.310  0.9300 -0.5030 -0.2201
 6758SOL     OW31732   4.147   1.164   5.506 -0.1671  0.4793 -0.1765
 6758SOL    HW131733   4.088   1.092   5.485 -0.6539  1.1795 -1.2286
 6758SOL    HW231734   4.102   1.241   5.470 -0.2251  0.3260 -0.4254
 6759SOL     OW31735   3.453   3.147   8.290  0.2432 -0.0745  0.1712
 6759SOL    HW131736   3.535   3.103   8.313 -0.0853  0.4819  2.3695
 6759SOL    HW231737   3.380   3.087   8.307 -0.0628  1.0173  2.7019
 6760SOL     OW31738   1.573   4.386  16.961  0.3900 -0.1493 -0.2549
 6760SOL    HW131739   1.535   4.319  16.904  3.2243 -1.2940 -0.7624
 6760SOL    HW231740   1.655   4.346  16.990  0.7975  1.5154  0.8818
 6761SOL     OW31741   2.147   0.583   5.808 -0.1249 -0.1915  0.1744
 6761SOL    HW131742   2.106   0.496   5.816 -0.6078  0.1806  1.7462
 6761SOL    HW231743   2.092   0.639   5.862 -0.6183  0.1485 -0.6758
 6762SOL     OW31744   1.388   3.761   6.248  0.2206  0.2368  0.0538
 6762SOL    HW131745   1.327   3.691   6.273  1.1465  0.3039  2.5958
 6762SOL    HW231746   1.432   3.736   6.167  1.8580  1.5877  0.5303
 6763SOL     OW31747   2.000   2.100  17.584  0.0635  0.5761 -0.2041
 6763SOL    HW131748   1.960   2.033  17.640  0.5634  0.4320 -0.0172
 6763SOL    HW231749   2.092   2.075  17.596 -0.5605 -1.0566  1.1312
 6764SOL     OW31750   2.300   3.204   2.581 -0.2689  0.1742  0.3706
 6764SOL    HW131751   2.386   3.163   2.589  0.9332  2.4655 -0.9055
 6764SOL    HW231752   2.322   3.237   2.494 -2.1146 -0.2090 -0.2473
 6765SOL     OW31753   2.384   1.205   8.178 -0.1926 -0.5452 -0.0283
 6765SOL    HW131754   2.409   1.120   8.214 -1.8914 -0.0849  2.2402
 6765SOL    HW231755   2.402   1.261   8.255  0.7373 -2.3828  1.0870
 6766SOL     OW31756   1.769   2.059   4.837  0.1168 -0.3430 -0.2157
 6766SOL    HW131757   1.718   1.997   4.786  0.2428 -0.0732 -0.6658
 6766SOL    HW231758   1.800   2.121   4.771 -0.1323  0.5463  0.5029
 6767SOL     OW31759   1.346   4.212   3.757  0.2147  0.5096 -0.5047
 6767SOL    HW131760   1.269   4.213   3.701  2.5234 -2.1997 -3.7113
 6767SOL    HW231761   1.300   4.217   3.841 -1.4732  1.1438 -1.4704
 6768SOL     OW31762   2.136   1.979   7.770  0.8420  0.4428  0.5426
 6768SOL    HW131763   2.122   2.073   7.782 -2.1350  0.1329 -0.4735
 6768SOL    HW231764   2.045   1.950   7.768  0.8884  0.2213  1.7463
 6769SOL     OW31765   0.549   0.713   7.362  0.4720  0.2392  0.5369
 6769SOL    HW131766   0.498   0.786   7.399 -0.3441  0.3928 -0.9168
 6769SOL    HW231767   0.632   0.756   7.342  1.7648 -2.1564  0.8702
 6770SOL     OW31768   3.332   3.846   6.694  0.2778 -0.4710  0.2360
 6770SOL    HW131769   3.354   3.763   6.652  2.4725  0.3023 -0.1482
 6770SOL    HW231770   3.237   3.848   6.689  0.3061  0.0608 -0.1245
 6771SOL     OW31771   0.327   3.522   7.595 -0.8113 -0.3511  0.0932
 6771SOL    HW131772   0.391   3.454   7.576  0.8749  1.0216  0.8259
 6771SOL    HW231773   0.340   3.575   7.517 -2.3206 -0.6377 -0.3604
 6772SOL     OW31774   4.105   1.999   8.355  0.0338  0.3488 -0.4073
 6772SOL    HW131775   4.185   1.962   8.317  0.0237 -0.3985  0.3068
 6772SOL    HW231776   4.136   2.020   8.443  0.5622 -1.6883 -0.1256
 6773SOL     OW31777   2.694   2.517  11.035  0.4604 -0.2062 -0.3594
 6773SOL    HW131778   2.671   2.433  11.073  0.7728 -0.8188 -1.5204
 6773SOL    HW231779   2.638   2.525  10.957  0.3638  1.8147 -0.0902
 6774SOL     OW31780   2.720   4.604   0.170  0.8883  0.0183  0.7011
 6774SOL    HW131781   2.672   4.604   0.087  2.7315  1.0828 -0.3624
 6774SOL    HW231782   2.763   4.519   0.170  0.5359 -0.1585  0.4961
 6775SOL     OW31783   3.872   2.516   0.309  0.1645  0.1328  0.2447
 6775SOL    HW131784   3.935   2.539   0.377  1.8966  0.1875 -1.3881
 6775SOL    HW231785   3.792   2.542   0.355  0.5583  0.8031  0.5419
 6776SOL     OW31786   3.376   1.797   1.329 -0.0766 -0.1387 -0.2507
 6776SOL    HW131787   3.331   1.816   1.412  0.0570 -0.0812 -0.1907
 6776SOL    HW231788   3.426   1.719   1.354 -0.8480 -0.6204 -0.2006
 6777SOL     OW31789   2.680   3.454   0.394 -0.0860  0.4213 -0.2400
 6777SOL    HW131790   2.714   3.366   0.406  0.1485  0.5728  0.2358
 6777SOL    HW231791   2.747   3.500   0.445 -0.7482  0.9345  0.1689
 6778SOL     OW31792   0.580   1.907   6.790 -0.5976 -0.1744  0.6943
 6778SOL    HW131793   0.649   1.922   6.725 -0.7568  1.0312  0.7971
 6778SOL    HW231794   0.504   1.952   6.753 -1.0520 -0.7825  0.8935
 6779SOL     OW31795   3.975   3.330   1.017 -0.0629  0.4547 -0.5194
 6779SOL    HW131796   3.880   3.345   1.016  0.2551  2.6636  0.5153
 6779SOL    HW231797   4.003   3.306   0.929 -1.0097  0.1022 -0.7190
 6780SOL     OW31798   2.927   1.883   6.915  0.4805  0.2493 -0.8634
 6780SOL    HW131799   2.937   1.814   6.849  0.6505  0.7088 -1.3191
 6780SOL    HW231800   3.017   1.876   6.946 -0.0755 -0.2207  0.6567
 6781SOL     OW31801   0.924   3.103  11.345  0.1855  0.0935  0.5286
 6781SOL    HW131802   0.922   3.179  11.402  1.4817 -0.6252  1.5367
 6781SOL    HW231803   0.974   3.137  11.270 -0.5822 -0.7438 -0.3715
 6782SOL     OW31804   3.010   2.851  11.620 -0.0720  0.1653  0.5803
 6782SOL    HW131805   2.987   2.759  11.610  0.3383  0.1609 -0.3602
 6782SOL    HW231806   2.927   2.883  11.653  0.1991  1.3866  0.0755
 6783SOL     OW31807   4.020   2.860   5.119  0.4446  0.4824 -0.1630
 6783SOL    HW131808   4.036   2.794   5.186 -0.7453 -0.3547 -0.6865
 6783SOL    HW231809   4.048   2.939   5.164 -1.6487  1.2499 -0.1934
 6784SOL     OW31810   1.061   2.382   1.563  0.5371 -0.0651 -0.1551
 6784SOL    HW131811   0.981   2.370   1.613  0.9010 -0.0535  0.4296
 6784SOL    HW231812   1.079   2.289   1.578  0.0964 -0.6990 -3.5221
 6785SOL     OW31813   3.531   1.921   5.046 -0.6420  0.1898 -0.0423
 6785SOL    HW131814   3.498   1.967   5.123  0.8732 -0.3611  0.9245
 6785SOL    HW231815   3.623   1.947   5.053 -0.7119  0.3226  0.3743
 6786SOL     OW31816   2.281   3.315   9.828  0.0793  0.6903  0.4889
 6786SOL    HW131817   2.326   3.377   9.886 -1.5456  0.7191  1.7069
 6786SOL    HW231818   2.191   3.348   9.825  0.3364  1.3505 -0.0799
 6787SOL     OW31819   3.142   1.410   7.306 -0.5402 -0.3884  0.0498
 6787SOL    HW131820   3.224   1.447   7.338 -1.0244  1.2694 -0.6372
 6787SOL    HW231821   3.107   1.489   7.266  1.7358  2.0305  2.9179
 6788SOL     OW31822   3.525   1.106  16.814  0.0179 -0.2272 -0.5986
 6788SOL    HW131823   3.471   1.029  16.829  4.1053 -3.4371 -2.6908
 6788SOL    HW231824   3.590   1.069  16.754 -0.5585 -0.5877 -1.0011
 6789SOL     OW31825   1.258   2.644   7.621 -0.1476  0.2473 -0.1009
 6789SOL    HW131826   1.288   2.681   7.537 -2.5013  0.2220 -0.9495
 6789SOL    HW231827   1.211   2.718   7.659  0.1021 -1.1974  2.9833
 6790SOL     OW31828   2.482   4.302   3.785 -0.4986 -0.3882 -0.1341
 6790SOL    HW131829   2.493   4.358   3.862  1.8073 -2.7662  1.2639
 6790SOL    HW231830   2.388   4.297   3.769 -0.4745  0.1778 -0.4565
 6791SOL     OW31831   3.687   3.949   4.921 -0.1972  0.1873 -0.6200
 6791SOL    HW131832   3.741   3.947   4.999  2.3111 -1.3114 -2.4032
 6791SOL    HW231833   3.638   3.869   4.938 -0.0614  0.1675 -0.3364
 6792SOL     OW31834   2.900   1.243   4.313 -0.0367 -0.0674 -0.2139
 6792SOL    HW131835   2.904   1.305   4.385 -2.0213 -0.7874  0.5086
 6792SOL    HW231836   2.991   1.212   4.307 -0.2216 -0.4265 -1.1914
 6793SOL     OW31837   1.159   2.562   4.673  0.0564  0.3206  0.0019
 6793SOL    HW131838   1.133   2.643   4.716  2.9069  0.7013  1.0345
 6793SOL    HW231839   1.231   2.548   4.735  0.8559  2.6447 -0.4067
 6794SOL     OW31840   0.208   2.663   8.515  0.3701 -0.8170 -0.0652
 6794SOL    HW131841   0.134   2.690   8.460  0.9532 -2.4360 -1.6326
 6794SOL    HW231842   0.266   2.739   8.506 -0.9447  0.3948  1.7823
 6795SOL     OW31843   3.656   0.300   2.838  0.6422 -0.2524 -0.7124
 6795SOL    HW131844   3.694   0.220   2.801 -1.3584 -2.2601  1.5532
 6795SOL    HW231845   3.732   0.328   2.889 -0.8980  2.0514  0.3229
 6796SOL     OW31846   0.187   1.139   8.514 -0.5026 -0.2908  0.3315
 6796SOL    HW131847   0.119   1.078   8.485 -0.5231 -0.5436  0.9091
 6796SOL    HW231848   0.151   1.175   8.595  2.1923  1.3699  0.8000
 6797SOL     OW31849   4.052   2.597   8.383  0.0845  0.6183 -0.2637
 6797SOL    HW131850   4.020   2.527   8.326 -1.1158 -1.3065  2.7912
 6797SOL    HW231851   4.069   2.552   8.466 -0.6494 -2.0256 -1.5453
 6798SOL     OW31852   0.793   3.131   7.859  0.1476 -0.3107  0.0707
 6798SOL    HW131853   0.759   3.056   7.812  1.4565  0.2626 -1.7911
 6798SOL    HW231854   0.829   3.174   7.781  0.9619  0.3064  0.7797
 6799SOL     OW31855   2.330   1.054  17.602 -0.5923 -0.4134 -0.6904
 6799SOL    HW131856   2.325   1.133  17.549  0.4722  1.3032  1.7796
 6799SOL    HW231857   2.303   1.107  17.677  0.3487  1.5271 -1.7266
 6800SOL     OW31858   3.801   2.270  11.200  0.6989 -0.1840  0.1977
 6800SOL    HW131859   3.780   2.184  11.163  0.3468  0.0661 -0.1803
 6800SOL    HW231860   3.715   2.289  11.237 -0.0581 -0.7684 -1.2304
 6801SOL     OW31861   1.895   1.492   0.117  0.7370 -0.5392  0.0008
 6801SOL    HW131862   1.876   1.409   0.073 -3.5761  0.8645 -0.7830
 6801SOL    HW231863   1.841   1.548   0.062  2.5399 -1.1636 -2.4058
 6802SOL     OW31864   2.764   4.541   2.676 -0.0326  0.5101 -0.2887
 6802SOL    HW131865   2.843   4.550   2.623  1.1947 -0.0684  1.4284
 6802SOL    HW231866   2.697   4.583   2.622 -0.2524  0.3491 -0.1416
 6803SOL     OW31867   2.219   0.171   8.205  0.4357 -0.2731 -0.2051
 6803SOL    HW131868   2.139   0.223   8.215 -0.4858 -1.9222  0.9040
 6803SOL    HW231869   2.275   0.247   8.188  1.7989 -1.3541 -0.5829
 6804SOL     OW31870   3.207   2.302  14.283 -0.5257  0.3297  0.4893
 6804SOL    HW131871   3.254   2.218  14.284  2.7108  2.1591  0.7408
 6804SOL    HW231872   3.264   2.352  14.225  0.7099 -1.2138  0.3603
 6805SOL     OW31873   3.382   2.099  14.231  0.2262 -0.0962 -0.0557
 6805SOL    HW131874   3.447   2.036  14.264  0.6250  0.9690  1.1810
 6805SOL    HW231875   3.390   2.097  14.136  0.0259  0.8528 -0.0904
 6806SOL     OW31876   3.054   3.237  14.989  0.6342  0.5202 -0.1355
 6806SOL    HW131877   3.002   3.199  15.060  2.4111 -0.5298  0.6073
 6806SOL    HW231878   3.124   3.281  15.037  0.6730 -0.2934  0.5352
 6807SOL     OW31879   1.218   1.282   2.341  0.2400  0.5821 -0.0874
 6807SOL    HW131880   1.201   1.340   2.416 -0.2754  1.1243 -0.6220
 6807SOL    HW231881   1.167   1.327   2.274  0.1406  0.9503  0.2305
 6808SOL     OW31882   4.047   4.623   3.741  0.0874 -0.3438  0.2522
 6808SOL    HW131883   4.075   4.672   3.818 -1.1913  3.2758 -1.5575
 6808SOL    HW231884   3.953   4.615   3.759  0.2312 -1.3581  0.5708
 6809SOL     OW31885   4.156   1.226  16.869 -1.0057  0.1536  0.0277
 6809SOL    HW131886   4.216   1.181  16.810 -0.0785 -0.6678  1.5733
 6809SOL    HW231887   4.205   1.307  16.881  1.1692 -1.6192  3.3194
 6810SOL     OW31888   4.089   2.359  15.556  0.1519 -0.8234 -0.1677
 6810SOL    HW131889   4.029   2.424  15.519  0.7219 -0.3841 -0.3162
 6810SOL    HW231890   4.166   2.415  15.560 -0.6037  0.1966  0.1711
 6811SOL     OW31891   4.715   1.488   7.486  0.0627  0.5051  0.1433
 6811SOL    HW131892   0.066   1.536   7.448  0.2127 -1.6897 -2.4028
 6811SOL    HW231893   0.001   1.404   7.442  0.4016  0.4889  0.2406
 6812SOL     OW31894   0.481   3.105  14.879 -0.0998  0.5165  0.4852
 6812SOL    HW131895   0.489   3.009  14.880  1.2523  0.6236 -0.4767
 6812SOL    HW231896   0.524   3.133  14.798 -0.9472  1.3630  0.3318
 6813SOL     OW31897   2.167   3.663   3.759 -0.6086  0.1997 -0.0921
 6813SOL    HW131898   2.224   3.625   3.692  0.4604 -1.4225  1.7537
 6813SOL    HW231899   2.218   3.739   3.785 -2.2614  0.8148  1.3359
 6814SOL     OW31900   2.744   0.715  17.539 -0.2975  0.1658 -0.0236
 6814SOL    HW131901   2.774   0.786  17.482 -1.6583  0.4021 -0.4574
 6814SOL    HW231902   2.649   0.713  17.527 -0.1539 -0.4368 -1.1272
 6815SOL     OW31903   4.678   3.976   1.034 -0.0546 -0.1119 -0.1396
 6815SOL    HW131904   0.017   4.023   1.090 -2.0046  0.8456  1.2058
 6815SOL    HW231905   4.604   3.956   1.090 -0.4944 -1.9705 -1.3910
 6816SOL     OW31906   4.130   0.195   2.693 -0.5182 -0.2637  0.2054
 6816SOL    HW131907   4.037   0.188   2.672 -0.4166 -0.8732 -0.0406
 6816SOL    HW231908   4.167   0.152   2.616 -0.6439 -0.9206  0.5067
 6817SOL     OW31909   1.777   0.364  12.813 -0.6348  0.5371  0.3015
 6817SOL    HW131910   1.834   0.405  12.878  0.6107  0.0248 -0.4616
 6817SOL    HW231911   1.707   0.428  12.801 -2.1034 -0.6215  2.6832
 6818SOL     OW31912   2.047   0.162   7.771  0.2745 -0.0357 -0.1398
 6818SOL    HW131913   2.129   0.119   7.796  1.4225  3.1443  1.6418
 6818SOL    HW231914   2.080   0.252   7.776  0.4446 -0.1329  0.5510
 6819SOL     OW31915   0.599   4.661   6.050  0.3967 -0.2020 -0.1505
 6819SOL    HW131916   0.656   4.660   6.127  0.8557 -0.9035 -0.5019
 6819SOL    HW231917   0.572   4.569   6.053  1.5645 -0.5653 -0.5533
 6820SOL     OW31918   3.869   2.240   4.791 -0.2494  0.4322  0.3850
 6820SOL    HW131919   3.909   2.295   4.723  1.6859  2.1867  2.9210
 6820SOL    HW231920   3.882   2.155   4.750  1.0222  0.9277 -0.2342
 6821SOL     OW31921   2.416   1.908  14.444 -0.6479  0.5004  0.0822
 6821SOL    HW131922   2.332   1.946  14.469 -0.2840 -0.0597  2.2146
 6821SOL    HW231923   2.410   1.893  14.350 -0.0004 -3.0951  0.5942
 6822SOL     OW31924   2.167   0.941   3.640  0.9453  0.0484 -0.3289
 6822SOL    HW131925   2.150   0.898   3.556 -1.5260 -0.6516  0.5235
 6822SOL    HW231926   2.140   1.031   3.625  1.2311  0.3180  0.8107
 6823SOL     OW31927   0.843   3.798  15.068 -0.1443  0.4944 -0.5800
 6823SOL    HW131928   0.839   3.758  14.981 -2.3220  2.2711 -1.3020
 6823SOL    HW231929   0.938   3.788  15.074 -0.1064  0.5698 -1.0467
 6824SOL     OW31930   3.735   4.229  10.257  0.2120  0.0403 -0.4065
 6824SOL    HW131931   3.739   4.323  10.272 -0.4914 -0.0235  0.1866
 6824SOL    HW231932   3.825   4.198  10.244 -0.1365 -1.1931  0.1241
 6825SOL     OW31933   2.326   4.711   8.789 -0.0253 -0.1009  1.2783
 6825SOL    HW131934   2.379   4.664   8.854 -1.1753 -2.1802  0.7155
 6825SOL    HW231935   2.374   0.070   8.802 -1.7129  0.6412  2.7639
 6826SOL     OW31936   1.056   2.073  11.261 -0.0466 -0.0444 -0.0293
 6826SOL    HW131937   1.103   2.121  11.329 -2.3605  0.6185  1.1254
 6826SOL    HW231938   1.030   2.147  11.207 -0.6564 -1.3606 -1.5327
 6827SOL     OW31939   4.198   4.083   6.520 -0.2703 -0.2799 -0.3111
 6827SOL    HW131940   4.129   4.037   6.567 -0.3005 -1.3084 -1.3503
 6827SOL    HW231941   4.252   4.005   6.503  2.0859  1.9501 -3.0333
 6828SOL     OW31942   3.102   1.472  13.447 -0.4636  0.5240  0.4046
 6828SOL    HW131943   3.146   1.388  13.460 -0.5918  0.3856 -0.0569
 6828SOL    HW231944   3.110   1.482  13.353 -0.3581 -1.0511  0.2518
 6829SOL     OW31945   4.004   1.022   6.103 -0.0236 -0.0095  0.2921
 6829SOL    HW131946   4.080   0.969   6.124 -0.2921 -1.2368 -1.8391
 6829SOL    HW231947   3.935   0.965   6.136  0.3262 -0.9404 -0.5963
 6830SOL     OW31948   1.854   1.630   0.358  0.3022 -0.4426  0.1974
 6830SOL    HW131949   1.796   1.675   0.297 -1.2810 -1.8116  0.6821
 6830SOL    HW231950   1.877   1.554   0.304 -1.2556 -0.2118 -0.8094
 6831SOL     OW31951   1.566   0.683   7.587 -0.3430  0.3788 -0.4039
 6831SOL    HW131952   1.616   0.634   7.652  1.3938 -1.3368 -3.0295
 6831SOL    HW231953   1.632   0.678   7.517  1.4655 -1.3070  1.4303
 6832SOL     OW31954   2.900   1.672   7.125  0.1812  0.0566 -0.2598
 6832SOL    HW131955   2.831   1.609   7.146  0.6293 -0.8178 -1.4438
 6832SOL    HW231956   2.852   1.731   7.066 -1.8669 -1.4848 -0.1299
 6833SOL     OW31957   0.942   3.056   3.136 -0.1230 -0.0064  0.1339
 6833SOL    HW131958   0.871   3.063   3.073  0.5515  0.9550 -0.5175
 6833SOL    HW231959   0.891   3.087   3.211 -2.0959  1.2123 -1.7151
 6834SOL     OW31960   0.490   1.251   5.744 -0.4725 -0.2463  0.2013
 6834SOL    HW131961   0.446   1.193   5.807  0.1008 -1.1650 -0.2532
 6834SOL    HW231962   0.562   1.283   5.797 -2.8870  3.1337  1.4548
 6835SOL     OW31963   4.448   3.925  10.391  0.0921 -0.0893  0.6849
 6835SOL    HW131964   4.442   3.887  10.479  0.9296 -1.7868  0.0149
 6835SOL    HW231965   4.507   3.862  10.349 -0.1389 -0.0554  0.3064
 6836SOL     OW31966   0.072   3.269   3.581 -0.5217 -0.0650  0.3195
 6836SOL    HW131967   0.081   3.236   3.492 -1.8689  0.2533  0.0677
 6836SOL    HW231968   0.142   3.333   3.569 -1.1842  1.0321  2.3020
 6837SOL     OW31969   4.672   2.340  13.032 -0.2953 -0.3056 -0.3806
 6837SOL    HW131970   4.618   2.403  13.080 -0.8235  0.8472 -2.4799
 6837SOL    HW231971   0.034   2.341  13.076 -0.2846 -3.2558 -0.3620
 6838SOL     OW31972   4.123   0.296   5.346 -0.2587 -0.1444  0.2025
 6838SOL    HW131973   4.148   0.307   5.255  0.6804 -0.1519  0.4596
 6838SOL    HW231974   4.131   0.202   5.362  0.6637 -0.0836  0.1000
 6839SOL     OW31975   1.046   0.610  16.645  0.2371 -0.3530 -0.6692
 6839SOL    HW131976   1.069   0.659  16.566 -0.1805 -1.0847 -1.2423
 6839SOL    HW231977   1.032   0.691  16.693  2.8947 -0.1704 -0.2180
 6840SOL     OW31978   2.033   1.868   7.444  0.2678  0.1746  0.5742
 6840SOL    HW131979   1.966   1.837   7.504 -1.6778  3.4484  0.1149
 6840SOL    HW231980   2.118   1.853   7.486  0.2123 -4.1479 -0.8443
 6841SOL     OW31981   0.955   3.781   3.317  0.0326  0.2798 -0.1420
 6841SOL    HW131982   0.961   3.754   3.226  0.5281 -0.0832  0.0021
 6841SOL    HW231983   1.001   3.863   3.301 -0.4940  0.9050  1.5132
 6842SOL     OW31984   2.607   1.161  11.251 -0.4625 -0.2693  0.5962
 6842SOL    HW131985   2.605   1.235  11.190 -1.2037 -1.3069 -0.6501
 6842SOL    HW231986   2.547   1.104  11.203 -0.4684  0.5755 -0.4030
 6843SOL     OW31987   0.589   0.189  13.951  0.4175 -0.1400 -0.0859
 6843SOL    HW131988   0.647   0.257  13.916 -0.6576 -0.0957 -1.7651
 6843SOL    HW231989   0.581   0.118  13.888 -2.4587  0.6424 -0.5861
 6844SOL     OW31990   0.075   0.627   3.025  0.0080 -0.4190  0.3630
 6844SOL    HW131991   0.077   0.638   2.930  1.8840  0.2023  0.4719
 6844SOL    HW231992   0.009   0.692   3.048 -0.1349 -0.0969 -1.0027
 6845SOL     OW31993   2.539   4.600  10.310 -0.2486 -0.4423 -0.3189
 6845SOL    HW131994   2.467   4.617  10.371  0.5071 -0.3620  0.5574
 6845SOL    HW231995   2.503   4.636  10.229 -2.0727 -2.1822 -0.2858
 6846SOL     OW31996   2.862   3.655   5.861  0.4066 -0.1243  0.0284
 6846SOL    HW131997   2.821   3.707   5.792  2.0845 -1.1324 -1.7158
 6846SOL    HW231998   2.816   3.684   5.940 -0.4634  0.1443 -0.5786
 6847SOL     OW31999   2.720   2.897  15.019 -0.1959  0.3743  0.4461
 6847SOL    HW132000   2.766   2.953  14.957 -0.5424 -1.4140 -1.4499
 6847SOL    HW232001   2.752   2.811  14.991  2.8735  1.4472  0.7479
 6848SOL     OW32002   4.578   3.102  12.942 -0.2275 -0.4446 -0.1823
 6848SOL    HW132003   4.541   3.167  12.882 -0.2507 -0.5751 -0.3111
 6848SOL    HW232004   4.671   3.092  12.922  0.4945  1.2384  2.3007
 6849SOL     OW32005   3.550   3.766   4.575  0.3064  0.1164  0.2211
 6849SOL    HW132006   3.562   3.672   4.584 -1.1388 -0.1954 -0.9654
 6849SOL    HW232007   3.626   3.793   4.524  0.0667  0.8512  0.2529
 6850SOL     OW32008   3.307   1.568   6.221 -0.2264  0.0389 -0.3022
 6850SOL    HW132009   3.331   1.603   6.307 -2.0017 -0.5336  0.4316
 6850SOL    HW232010   3.391   1.575   6.175 -0.6459 -3.1864 -1.5719
 6851SOL     OW32011   3.962   0.051   1.014 -0.4782  0.0026 -0.5115
 6851SOL    HW132012   3.878   0.011   1.036  0.3482 -0.8578  1.0313
 6851SOL    HW232013   4.029   4.706   1.007  1.3012  1.5204  1.9346
 6852SOL     OW32014   1.224   1.504   5.593  0.3627 -0.1041  0.9824
 6852SOL    HW132015   1.142   1.463   5.620  0.4913 -1.1746 -0.2752
 6852SOL    HW232016   1.189   1.588   5.622 -1.7429 -0.4183 -0.6051
 6853SOL     OW32017   4.244   1.850  12.085  0.0813  0.1325 -0.0677
 6853SOL    HW132018   4.172   1.905  12.114 -0.3990  0.0328 -1.0521
 6853SOL    HW232019   4.290   1.914  12.031 -0.5894  1.4237  0.9062
 6854SOL     OW32020   3.140   3.511   0.188  0.8591 -0.8415 -0.0418
 6854SOL    HW132021   3.230   3.481   0.173  1.9851  2.0720  0.9214
 6854SOL    HW232022   3.105   3.559   0.113 -0.5876  0.2945  1.3637
 6855SOL     OW32023   1.161   3.222  11.433  0.4883 -0.1627 -0.3321
 6855SOL    HW132024   1.118   3.161  11.494 -0.2255  0.2717 -0.3973
 6855SOL    HW232025   1.206   3.275  11.498  1.0122 -0.2220 -0.6479
 6856SOL     OW32026   1.555   4.464   3.535 -0.6668  0.3576  0.6178
 6856SOL    HW132027   1.605   4.508   3.604  0.7910  2.2874 -1.6269
 6856SOL    HW232028   1.491   4.534   3.520  0.3521  0.9138 -1.2431
 6857SOL     OW32029   4.429   3.040   6.934 -0.3894  0.2233  0.1594
 6857SOL    HW132030   4.438   3.114   6.872  2.3173  1.0467  1.5465
 6857SOL    HW232031   4.517   3.004   6.934 -0.0376  1.1042  0.6184
 6858SOL     OW32032   2.086   0.159   6.539 -0.2224 -0.0179 -0.5140
 6858SOL    HW132033   2.123   0.184   6.454 -2.0485  0.8507 -1.0696
 6858SOL    HW232034   2.080   0.242   6.587 -0.4709  0.9068 -2.1183
 6859SOL     OW32035   1.988   2.410  13.535  0.6345  0.5472  0.3553
 6859SOL    HW132036   1.930   2.336  13.517  0.1742  1.3599 -1.4594
 6859SOL    HW232037   1.968   2.420  13.628 -0.4948 -1.6204  0.3414
 6860SOL     OW32038   0.821   0.482   2.601 -0.5262  0.0097  0.2796
 6860SOL    HW132039   0.836   0.468   2.507  1.8822 -0.1813  0.7017
 6860SOL    HW232040   0.758   0.412   2.614  1.1708 -1.5778 -0.0361
 6861SOL     OW32041   1.025   2.731  13.578  0.3043  0.2968 -0.3576
 6861SOL    HW132042   1.001   2.791  13.507 -1.0482  1.1467  0.8291
 6861SOL    HW232043   1.057   2.799  13.637 -0.6679 -0.7057  1.3213
 6862SOL     OW32044   2.638   2.366   2.243 -0.1330 -0.2990  0.6752
 6862SOL    HW132045   2.594   2.284   2.264 -1.0059  0.7870  3.0962
 6862SOL    HW232046   2.696   2.382   2.318 -2.4652 -0.5842  2.5276
 6863SOL     OW32047   0.820   1.139   5.735 -0.3759  0.4675  0.7190
 6863SOL    HW132048   0.892   1.156   5.675  0.9067 -2.1584  1.5370
 6863SOL    HW232049   0.825   1.044   5.728 -0.8578  0.5812 -1.1784
 6864SOL     OW32050   3.775   2.581   7.629 -0.6140 -0.3057 -0.3849
 6864SOL    HW132051   3.744   2.599   7.718 -2.7929  1.3902 -1.4971
 6864SOL    HW232052   3.865   2.607   7.649 -0.0959 -2.2788 -0.2298
 6865SOL     OW32053   3.163   1.704   5.973 -0.8177 -0.0103 -0.0701
 6865SOL    HW132054   3.197   1.698   6.062 -1.2427 -1.7311 -0.0199
 6865SOL    HW232055   3.117   1.620   5.979 -0.7526  0.0376  1.0597
 6866SOL     OW32056   3.166   4.675   1.529  0.4417  0.3960  0.5144
 6866SOL    HW132057   3.201   4.639   1.611 -0.0735 -3.3057 -0.8490
 6866SOL    HW232058   3.083   4.627   1.540 -0.1011  1.1189 -0.4104
 6867SOL     OW32059   1.636   3.830   0.359 -0.7342  0.2647 -0.4622
 6867SOL    HW132060   1.682   3.754   0.322 -0.0798  0.3861  0.0936
 6867SOL    HW232061   1.703   3.886   0.397 -1.0598 -0.2400  0.8529
 6868SOL     OW32062   2.018   4.424  14.643 -0.0780 -0.0834  0.8468
 6868SOL    HW132063   2.076   4.350  14.624  0.5560  0.5385  0.3638
 6868SOL    HW232064   1.932   4.383  14.637 -0.2968  0.2480  1.6652
 6869SOL     OW32065   1.466   4.149   6.249 -0.3217 -0.3081 -0.2194
 6869SOL    HW132066   1.386   4.194   6.277 -0.7066 -0.2344 -1.4276
 6869SOL    HW232067   1.428   4.061   6.239 -1.6314 -0.0710  2.5178
 6870SOL     OW32068   0.593   2.574   3.385  0.6062  0.0450  0.0925
 6870SOL    HW132069   0.643   2.493   3.380 -0.4529 -0.5618 -0.5927
 6870SOL    HW232070   0.626   2.617   3.464  0.8309  1.6717 -0.8738
 6871SOL     OW32071   3.744   4.105   0.702  0.2116  0.3442 -0.2878
 6871SOL    HW132072   3.728   4.013   0.681 -1.7851  0.6369  0.0012
 6871SOL    HW232073   3.662   4.151   0.691  0.1500  0.1446 -0.6756
 6872SOL     OW32074   0.520   0.362  14.432  0.6232 -0.0726 -0.3940
 6872SOL    HW132075   0.504   0.357  14.338 -0.6668 -2.1439 -0.0694
 6872SOL    HW232076   0.540   0.455  14.432 -3.5812  0.8069  2.2401
 6873SOL     OW32077   2.667   1.208  12.141 -0.5075  0.2231  0.5080
 6873SOL    HW132078   2.680   1.132  12.085  0.0754  0.0973  0.8101
 6873SOL    HW232079   2.743   1.188  12.195 -1.1907 -1.1010  0.9924
 6874SOL     OW32080   4.011   1.212   3.907  0.1642  0.1346  0.5764
 6874SOL    HW132081   4.063   1.134   3.888 -1.4669 -0.9823  0.7087
 6874SOL    HW232082   3.996   1.243   3.817  2.4355 -0.0139  0.1347
 6875SOL     OW32083   3.269   2.910   2.170  0.2021 -0.3273  0.2095
 6875SOL    HW132084   3.255   2.960   2.251 -0.2244 -1.6631  0.9541
 6875SOL    HW232085   3.227   2.974   2.113  0.7723  1.7463  2.0865
 6876SOL     OW32086   3.969   0.175   4.694  0.1425 -0.4414 -0.4910
 6876SOL    HW132087   3.915   0.169   4.772 -0.6302 -1.7691 -1.1302
 6876SOL    HW232088   3.940   0.098   4.645  1.6111 -0.9944 -0.4674
 6877SOL     OW32089   2.233   0.665   7.291 -0.5791  0.2571 -0.4932
 6877SOL    HW132090   2.146   0.634   7.316 -0.7195  0.7123 -0.4248
 6877SOL    HW232091   2.220   0.759   7.303 -0.0637  0.3408 -0.5888
 6878SOL     OW32092   2.894   0.519   2.231  0.3999 -0.1603  0.2296
 6878SOL    HW132093   2.897   0.509   2.136 -0.0724  1.5986  0.0222
 6878SOL    HW232094   2.814   0.470   2.250 -0.7388  1.0832 -1.3054
 6879SOL     OW32095   0.060   3.240   2.879 -0.1065 -0.2128 -0.1877
 6879SOL    HW132096   0.065   3.280   2.793 -1.1571  3.1790  1.3224
 6879SOL    HW232097   0.017   3.154   2.878 -0.5732  0.0015  1.0744
 6880SOL     OW32098   0.272   0.023  12.054  0.2672 -0.8215 -0.5598
 6880SOL    HW132099   0.239   4.709  12.135 -2.7980 -0.5332 -1.6699
 6880SOL    HW232100   0.359   4.706  12.060  0.2128 -1.1983 -2.2028
 6881SOL     OW32101   1.128   1.540   1.032 -0.1209  0.0920 -0.4243
 6881SOL    HW132102   1.215   1.575   1.017 -0.1756  0.2806 -0.2991
 6881SOL    HW232103   1.084   1.620   1.061 -0.2393 -0.1057 -0.0558
 6882SOL     OW32104   2.031   2.650   7.006 -0.2579 -0.1685  0.3434
 6882SOL    HW132105   2.101   2.585   6.993  0.7395  1.1057 -0.5907
 6882SOL    HW232106   2.061   2.724   6.953  2.0279 -1.9834 -0.9022
 6883SOL     OW32107   2.280   1.119  12.868 -0.4958  0.3787  0.0743
 6883SOL    HW132108   2.309   1.028  12.878  0.5866  0.9082  1.6545
 6883SOL    HW232109   2.186   1.112  12.854 -0.7522  1.4739  1.2692
 6884SOL     OW32110   1.711   0.380   5.891 -0.7812 -0.0031  0.0393
 6884SOL    HW132111   1.791   0.329   5.877 -0.5069  0.6316 -0.6815
 6884SOL    HW232112   1.685   0.398   5.801  1.7059  3.2639 -0.0035
 6885SOL     OW32113   2.977   2.786   6.045  0.1894 -0.1517  0.4997
 6885SOL    HW132114   2.885   2.808   6.054 -0.0397 -1.1909  0.7076
 6885SOL    HW232115   3.032   2.842   6.100 -0.1484 -1.1848  1.8864
 6886SOL     OW32116   1.129   0.933   3.268  0.1936  0.1548 -0.4424
 6886SOL    HW132117   1.150   0.863   3.205 -0.5970  0.5778 -1.1648
 6886SOL    HW232118   1.162   1.010   3.222  0.5285 -0.8373 -1.8841
 6887SOL     OW32119   2.643   4.164   9.704  0.9400  0.3765 -0.0800
 6887SOL    HW132120   2.571   4.219   9.737  0.9299  1.5361 -2.0052
 6887SOL    HW232121   2.600   4.112   9.636  1.5949 -1.2406  0.7638
 6888SOL     OW32122   3.914   4.618   7.762 -0.3163 -0.5186 -0.5157
 6888SOL    HW132123   3.886   4.694   7.814 -0.2885 -0.9634  0.1433
 6888SOL    HW232124   3.873   4.546   7.810 -0.8119  0.2486  0.2103
 6889SOL     OW32125   2.566   2.952   9.616  0.2397  0.5133 -0.2922
 6889SOL    HW132126   2.530   2.930   9.702 -2.3017  1.9746 -0.9694
 6889SOL    HW232127   2.522   2.884   9.564 -1.8419  0.9926  0.8146
 6890SOL     OW32128   3.870   3.478   3.145 -0.1070  0.8330 -0.1591
 6890SOL    HW132129   3.917   3.471   3.062  0.9569  0.5654  0.4635
 6890SOL    HW232130   3.797   3.537   3.125  0.0513  1.2276  0.4526
 6891SOL     OW32131   2.465   2.887   7.270  0.6251 -0.2324 -0.4190
 6891SOL    HW132132   2.435   2.962   7.219 -3.0398 -0.4761  1.3840
 6891SOL    HW232133   2.530   2.852   7.208  0.1891 -2.7669  0.5428
 6892SOL     OW32134   4.622   2.544  15.167  0.2693  0.0261  0.0103
 6892SOL    HW132135   4.648   2.565  15.256  1.0392  1.2868 -0.5207
 6892SOL    HW232136   4.620   2.630  15.124 -1.4993 -1.3314 -2.6272
 6893SOL     OW32137   2.272   1.123  16.016 -0.2869  0.5254  0.0312
 6893SOL    HW132138   2.236   1.087  15.935  0.1816 -0.4526  0.2629
 6893SOL    HW232139   2.255   1.217  16.019 -0.4878  0.4568  1.3091
 6894SOL     OW32140   3.384   1.877   0.232 -0.6481 -0.8525 -0.0943
 6894SOL    HW132141   3.405   1.954   0.286 -0.8433 -1.7363  1.2367
 6894SOL    HW232142   3.401   1.807   0.295 -1.0985 -2.2280 -1.5009
 6895SOL     OW32143   2.896   3.245   1.863 -0.4969  0.2579 -0.2406
 6895SOL    HW132144   2.899   3.307   1.790 -1.0862  0.5962  0.0292
 6895SOL    HW232145   2.922   3.290   1.943 -1.3764 -1.5764  1.0732
 6896SOL     OW32146   4.485   4.323  14.478  0.4575  0.4155 -0.0066
 6896SOL    HW132147   4.460   4.346  14.568 -0.9712  0.1998 -0.3481
 6896SOL    HW232148   4.490   4.229  14.492  2.1086  0.4560 -0.3781
 6897SOL     OW32149   4.088   3.609   7.135 -0.5268 -0.1168  0.6599
 6897SOL    HW132150   4.177   3.577   7.121  0.6968  1.8601  4.1430
 6897SOL    HW232151   4.097   3.691   7.183 -0.7435  0.2784  0.0291
 6898SOL     OW32152   2.813   3.453   2.510  0.1508  0.1748  0.0669
 6898SOL    HW132153   2.742   3.414   2.460  1.2403 -0.2794 -1.1403
 6898SOL    HW232154   2.870   3.468   2.434  0.9364 -3.5515 -0.0414
 6899SOL     OW32155   4.636   2.699   4.839 -0.3348 -0.3063 -0.4226
 6899SOL    HW132156   4.606   2.612   4.816 -0.5772 -0.8814  2.1568
 6899SOL    HW232157   4.550   2.729   4.868  0.5844  1.8308  0.1116
 6900SOL     OW32158   1.748   0.437   1.846 -0.2108  0.2137  0.5200
 6900SOL    HW132159   1.795   0.430   1.763 -0.5150 -1.7836  0.5317
 6900SOL    HW232160   1.812   0.473   1.907 -1.3267 -2.2524  3.1236
 6901SOL     OW32161   0.859   4.491   5.754  0.4293 -0.2858 -0.1223
 6901SOL    HW132162   0.950   4.521   5.756  0.6638 -0.8167 -2.1950
 6901SOL    HW232163   0.814   4.573   5.775 -0.9522 -0.2680 -3.0926
 6902SOL     OW32164   0.140   0.139   7.316  0.0904  0.1739  0.5041
 6902SOL    HW132165   0.160   0.106   7.403 -0.2580 -1.1760  0.0752
 6902SOL    HW232166   0.220   0.182   7.286 -1.0647  2.0079  0.0308
 6903SOL     OW32167   0.024   3.395   5.471  0.2183 -0.0377 -0.6699
 6903SOL    HW132168   0.016   3.301   5.453 -1.7123 -0.0517  0.2463
 6903SOL    HW232169   0.110   3.399   5.514 -0.7518 -0.5080  1.3223
 6904SOL     OW32170   1.173   1.353   5.290  0.0013  0.3833 -0.0512
 6904SOL    HW132171   1.232   1.356   5.215 -0.2465  0.3429 -0.2440
 6904SOL    HW232172   1.225   1.404   5.353  0.7797  0.6645 -0.9240
 6905SOL     OW32173   4.637   1.130  12.827  0.5982 -0.4130  0.4718
 6905SOL    HW132174   4.664   1.125  12.919  0.9756  1.3113  0.4434
 6905SOL    HW232175   4.549   1.095  12.837  0.8102 -0.5795  1.7492
 6906SOL     OW32176   3.468   0.370  14.995  0.0059 -0.1309  0.6773
 6906SOL    HW132177   3.526   0.410  14.930  0.5558 -1.7513  0.1920
 6906SOL    HW232178   3.382   0.400  14.964  1.4137  1.3962 -1.7494
 6907SOL     OW32179   4.386   2.152   7.745  0.6502 -0.0875 -0.1207
 6907SOL    HW132180   4.430   2.070   7.767 -0.5736 -1.3517 -2.4451
 6907SOL    HW232181   4.449   2.193   7.686  0.8813 -2.4843 -1.5265
 6908SOL     OW32182   0.641   2.277   0.455 -0.0749 -0.5114  0.2973
 6908SOL    HW132183   0.644   2.187   0.488 -1.9104 -1.5569 -2.3592
 6908SOL    HW232184   0.714   2.280   0.392  0.3382  0.0597  0.8027
 6909SOL     OW32185   0.357   1.132   3.500  1.3028  0.0534  0.1733
 6909SOL    HW132186   0.410   1.208   3.525  0.3625  0.9467 -0.5030
 6909SOL    HW232187   0.421   1.062   3.510  0.8412 -0.3106  0.5475
 6910SOL     OW32188   3.377   4.195   7.090  0.3546 -0.2805 -0.4886
 6910SOL    HW132189   3.394   4.138   7.014 -0.0024 -0.5409 -0.3771
 6910SOL    HW232190   3.323   4.260   7.045 -1.7960 -0.2641  2.1278
 6911SOL     OW32191   1.766   3.507   0.557 -0.0917  0.2716 -0.4044
 6911SOL    HW132192   1.843   3.553   0.525 -0.4285  2.4953  1.9516
 6911SOL    HW232193   1.766   3.539   0.647 -2.0829  0.5086 -0.4759
 6912SOL     OW32194   1.037   1.674   0.609 -0.0889  0.3963 -0.2859
 6912SOL    HW132195   0.982   1.745   0.577 -1.0531  0.6694  1.9721
 6912SOL    HW232196   1.092   1.722   0.670  1.4515  1.3856 -2.4341
 6913SOL     OW32197   0.247   1.830   8.167  0.6221  0.3342  0.2378
 6913SOL    HW132198   0.223   1.841   8.075  1.6499  0.4944 -0.0191
 6913SOL    HW232199   0.163   1.853   8.206  1.1134 -1.5351  2.4602
 6914SOL     OW32200   0.159   0.689   7.712 -0.0392 -0.2014 -0.1173
 6914SOL    HW132201   0.120   0.767   7.670  3.0510  2.6814  2.3961
 6914SOL    HW232202   0.122   0.699   7.800  0.6750  0.3072  0.1193
 6915SOL     OW32203   3.677   3.954   9.212 -0.4945  0.1158 -0.3543
 6915SOL    HW132204   3.690   4.046   9.234  1.4523 -0.6508  1.8355
 6915SOL    HW232205   3.601   3.924   9.261 -1.0070  0.7285 -0.7946
 6916SOL     OW32206   4.514   0.241   3.903  0.1026 -0.5382 -0.6114
 6916SOL    HW132207   4.569   0.226   3.980 -0.1148  1.7716  0.0038
 6916SOL    HW232208   4.554   0.188   3.835  0.2803  0.6928 -1.4712
 6917SOL     OW32209   1.479   0.481   9.982 -0.5723 -0.2316  0.6274
 6917SOL    HW132210   1.508   0.567   9.951 -1.2971 -0.0954  0.3289
 6917SOL    HW232211   1.554   0.459  10.037  0.5038  0.2734 -0.6141
 6918SOL     OW32212   1.234   3.833  12.151  0.3372 -0.2197 -0.0612
 6918SOL    HW132213   1.150   3.874  12.169 -0.0835 -1.0317 -0.2176
 6918SOL    HW232214   1.213   3.748  12.113  0.9169  0.0185 -0.9340
 6919SOL     OW32215   2.364   4.142   5.608 -0.4110  0.3326  0.6343
 6919SOL    HW132216   2.378   4.210   5.542  1.5283 -1.1132 -0.4387
 6919SOL    HW232217   2.444   4.094   5.588  1.7537  3.3354  1.9139
 6920SOL     OW32218   2.397   2.303   8.990 -0.3558  0.0964 -0.0557
 6920SOL    HW132219   2.401   2.210   8.968  2.2549  0.2497 -0.1872
 6920SOL    HW232220   2.352   2.305   9.074 -1.3368 -0.9224 -0.5579
 6921SOL     OW32221   0.788   1.446   1.984 -0.4132 -0.6362  0.4718
 6921SOL    HW132222   0.833   1.367   1.958 -0.4772  0.0734 -1.7635
 6921SOL    HW232223   0.839   1.511   1.935 -1.4470 -0.3680 -0.2366
 6922SOL     OW32224   2.068   2.239   9.422 -0.4595  0.1095 -0.2365
 6922SOL    HW132225   2.142   2.242   9.482 -1.2681  1.1770  0.7066
 6922SOL    HW232226   2.035   2.329   9.419 -1.1898 -0.1543 -0.2421
 6923SOL     OW32227   1.170   0.428   4.647  0.0463 -0.4876 -0.1410
 6923SOL    HW132228   1.093   0.481   4.626  1.9417  2.5802  0.5980
 6923SOL    HW232229   1.181   0.366   4.575 -1.0075 -0.6357 -0.1646
 6924SOL     OW32230   3.710   1.685   7.082 -0.0638 -0.0165  0.0788
 6924SOL    HW132231   3.736   1.597   7.109 -0.0635 -0.2523 -0.6857
 6924SOL    HW232232   3.794   1.729   7.063 -1.1408  1.4970 -1.2040
 6925SOL     OW32233   2.484   4.708   6.976  0.3225 -0.1537  0.4562
 6925SOL    HW132234   2.573   4.672   6.974  0.8963  1.4056 -1.0596
 6925SOL    HW232235   2.467   4.713   7.071 -1.7455  0.3595  0.0652
 6926SOL     OW32236   3.942   0.923   9.018 -0.2674 -0.3248  0.0526
 6926SOL    HW132237   3.970   0.835   9.043  1.4493 -0.3966 -2.1252
 6926SOL    HW232238   4.024   0.972   9.007  0.4237 -1.7614 -1.1448
 6927SOL     OW32239   4.052   4.428   6.732 -0.3568  0.2540 -0.4515
 6927SOL    HW132240   4.119   4.361   6.715 -0.8489 -0.0712 -1.1173
 6927SOL    HW232241   4.075   4.443   6.823  2.0058  0.0588 -0.9991
 6928SOL     OW32242   4.178   4.711  12.894 -0.1227 -0.0373 -0.1936
 6928SOL    HW132243   4.223   0.007  12.976 -0.3549 -1.0840  0.1795
 6928SOL    HW232244   4.128   0.070  12.893  2.4352  1.5185  0.7263
 6929SOL     OW32245   1.168   0.418   8.139 -0.1832 -0.3425 -0.0412
 6929SOL    HW132246   1.216   0.336   8.134 -1.2609 -0.9901  0.4354
 6929SOL    HW232247   1.180   0.460   8.224  1.4471 -4.1675  1.5827
 6930SOL     OW32248   4.226   3.096   8.189  0.0176 -0.3361  0.2006
 6930SOL    HW132249   4.248   3.010   8.226  1.0763  0.2167  0.8421
 6930SOL    HW232250   4.178   3.065   8.113  0.0715  0.4006 -0.1321
 6931SOL     OW32251   3.867   4.345   7.345  0.3142  0.3670  0.5177
 6931SOL    HW132252   3.796   4.297   7.302  0.2785 -0.1921  1.2075
 6931SOL    HW232253   3.824   4.424   7.377  3.0442  0.4738  3.9157
 6932SOL     OW32254   1.618   1.452  13.860  0.4097  0.0075 -0.0441
 6932SOL    HW132255   1.680   1.526  13.851  0.8084 -0.1455  1.4547
 6932SOL    HW232256   1.585   1.476  13.947 -2.9910  0.1260 -1.3750
 6933SOL     OW32257   0.287   2.886   0.529 -0.4042 -0.1237  0.3691
 6933SOL    HW132258   0.371   2.846   0.551  0.6657  1.6905 -0.3947
 6933SOL    HW232259   0.306   2.970   0.572  0.4585  0.4640 -1.1479
 6934SOL     OW32260   1.018   3.767   7.851  0.2397  0.7383 -0.1462
 6934SOL    HW132261   0.954   3.838   7.852 -0.6146 -0.0182  0.9563
 6934SOL    HW232262   1.095   3.819   7.871 -0.4100  0.9404  1.8254
 6935SOL     OW32263   2.741   2.227  17.113  0.2689 -0.6361  0.5473
 6935SOL    HW132264   2.765   2.238  17.021 -0.5623  1.1646  0.5558
 6935SOL    HW232265   2.666   2.168  17.099 -1.2718  1.4123  0.1099
 6936SOL     OW32266   1.602   3.032   5.135 -0.0101  0.5766  0.2397
 6936SOL    HW132267   1.667   3.098   5.110  0.3015  0.1859  0.0324
 6936SOL    HW232268   1.650   2.962   5.179  1.1882  1.2413 -0.0044
 6937SOL     OW32269   1.098   4.527  10.865  0.4351 -0.0785 -0.0923
 6937SOL    HW132270   1.083   4.445  10.913  0.1591 -1.3539 -2.3334
 6937SOL    HW232271   1.178   4.506  10.818  0.7844 -2.0079  1.3686
 6938SOL     OW32272   3.314   4.013  10.904  0.1467 -0.0823 -0.0773
 6938SOL    HW132273   3.282   4.097  10.870 -3.1925 -0.3265  2.4633
 6938SOL    HW232274   3.244   3.998  10.966  0.0297 -0.0873 -0.2113
 6939SOL     OW32275   4.446   3.941   7.870  0.4437  0.2250 -0.7983
 6939SOL    HW132276   4.383   3.870   7.881  0.1765  0.6340  0.3268
 6939SOL    HW232277   4.437   3.990   7.952 -0.2328  0.2288 -0.8789
 6940SOL     OW32278   4.362   1.826   9.736 -0.4387  0.3157 -0.2422
 6940SOL    HW132279   4.374   1.918   9.760 -2.0226  0.2531  0.7768
 6940SOL    HW232280   4.315   1.841   9.654 -3.1183 -0.9535  1.0695
 6941SOL     OW32281   0.567   2.499   2.608  0.3503 -0.2109  0.0037
 6941SOL    HW132282   0.476   2.512   2.637  0.3911 -2.6357  1.2041
 6941SOL    HW232283   0.605   2.586   2.621  0.3672  0.0078 -1.5462
 6942SOL     OW32284   0.508   2.823  15.851  0.6262  0.3742 -0.2541
 6942SOL    HW132285   0.548   2.875  15.921  2.1523 -3.7282  1.9055
 6942SOL    HW232286   0.465   2.905  15.825 -0.1140  0.5633  1.5320
 6943SOL     OW32287   3.531   3.255   2.042 -0.3974  0.2648  0.0020
 6943SOL    HW132288   3.538   3.186   2.108  2.5766 -1.6093 -2.2633
 6943SOL    HW232289   3.551   3.212   1.959 -2.7924  2.4057 -1.6902
 6944SOL     OW32290   0.728   0.139   4.674 -0.3397  0.2606  0.2417
 6944SOL    HW132291   0.746   0.108   4.763 -0.1846 -0.2343  0.0382
 6944SOL    HW232292   0.771   0.225   4.674  0.1871 -0.0064 -2.9734
 6945SOL     OW32293   0.657   1.073   9.016  0.0452  0.1040  0.5431
 6945SOL    HW132294   0.665   1.102   8.926  0.5942  1.8909  1.1710
 6945SOL    HW232295   0.661   0.978   9.011 -2.0737 -0.0578  1.6148
 6946SOL     OW32296   1.351   0.017   5.152  0.1390 -0.2667 -0.4931
 6946SOL    HW132297   1.259   4.716   5.138  0.1226  0.0411 -0.8997
 6946SOL    HW232298   1.379   0.014   5.061  0.7150 -2.1505 -0.2482
 6947SOL     OW32299   1.836   3.743   2.364 -0.1046  0.2450 -0.7952
 6947SOL    HW132300   1.893   3.693   2.305 -1.2369  0.5594 -2.1432
 6947SOL    HW232301   1.885   3.822   2.384  0.7333 -0.0874 -1.5132
 6948SOL     OW32302   3.898   3.358   2.580  0.3416 -0.2953 -0.2608
 6948SOL    HW132303   3.930   3.439   2.620  0.3692 -0.9232  1.0029
 6948SOL    HW232304   3.806   3.355   2.609  0.0389 -0.3857 -1.2304
 6949SOL     OW32305   3.926   4.593   9.096 -0.6197  0.7079  0.4366
 6949SOL    HW132306   3.856   4.601   9.032 -1.3685 -0.5265  1.1243
 6949SOL    HW232307   3.953   4.685   9.100  1.6180  0.0462  0.8481
 6950SOL     OW32308   4.279   0.761  14.976  0.2197  0.2232  0.2749
 6950SOL    HW132309   4.186   0.780  14.961  0.6684  2.6475  0.6198
 6950SOL    HW232310   4.263   0.744  15.069 -0.0102 -1.1047  0.0024
 6951SOL     OW32311   2.327   3.930  10.991 -0.3363  0.0775  0.4511
 6951SOL    HW132312   2.302   3.904  11.080  0.4016 -0.7596  0.4116
 6951SOL    HW232313   2.286   4.016  10.992  0.7916  0.6194  0.0444
 6952SOL     OW32314   0.006   2.641  15.392  0.0693 -0.3808  0.0651
 6952SOL    HW132315   4.718   2.560  15.443 -0.7764 -0.0107  0.4762
 6952SOL    HW232316   0.095   2.659  15.420 -0.8687  2.9606  0.8358
 6953SOL     OW32317   0.874   1.845  10.198 -0.2149 -0.0607  0.4591
 6953SOL    HW132318   0.855   1.867  10.107  1.6344 -1.8613 -0.3470
 6953SOL    HW232319   0.942   1.779  10.187  1.1072  1.3909 -0.0889
 6954SOL     OW32320   2.392   2.972   6.672 -0.1595  0.0851 -0.1950
 6954SOL    HW132321   2.448   3.041   6.707 -0.1799 -0.0193  0.0451
 6954SOL    HW232322   2.345   3.018   6.602  3.7411  2.0397 -1.5022
 6955SOL     OW32323   2.088   4.272  16.534 -0.4103 -0.1852 -0.0111
 6955SOL    HW132324   2.062   4.358  16.567  0.7093 -1.1914  3.4375
 6955SOL    HW232325   2.096   4.214  16.609  0.0152 -0.6081 -0.3852
 6956SOL     OW32326   4.177   2.292  13.056 -0.3944 -0.4941  0.6678
 6956SOL    HW132327   4.094   2.253  13.085 -0.5692 -0.0086  0.8195
 6956SOL    HW232328   4.166   2.385  13.073  0.6274 -0.0290 -1.2293
 6957SOL     OW32329   1.781   3.579   6.195 -0.0340 -0.4213 -0.1898
 6957SOL    HW132330   1.696   3.604   6.157 -0.1134  1.7929  1.3906
 6957SOL    HW232331   1.800   3.652   6.254  0.8335 -1.6582  1.0617
 6958SOL     OW32332   1.062   1.384   8.531  0.7962 -0.0323  0.1239
 6958SOL    HW132333   1.087   1.292   8.529 -2.0650 -0.8226  1.8129
 6958SOL    HW232334   0.975   1.371   8.494  0.8447 -2.3167  0.8256
 6959SOL     OW32335   3.281   0.228  15.148  0.3620 -0.1957 -0.4518
 6959SOL    HW132336   3.248   0.285  15.217 -1.4744 -2.5804  0.6483
 6959SOL    HW232337   3.353   0.283  15.117  0.9942 -1.1561 -0.6775
 6960SOL     OW32338   1.925   4.686   6.406  0.9916  0.2679  0.1417
 6960SOL    HW132339   1.950   0.018   6.481  0.8032 -0.8344  1.0089
 6960SOL    HW232340   1.831   4.672   6.407  1.4281 -2.6902  0.6947
 6961SOL     OW32341   3.592   3.877  14.567  0.0426  0.5833  0.4350
 6961SOL    HW132342   3.626   3.870  14.478  1.6168  1.0558  0.9965
 6961SOL    HW232343   3.507   3.911  14.539 -0.6678  0.0087  1.9082
 6962SOL     OW32344   3.312   4.400   3.750  0.2695  0.2201  0.3471
 6962SOL    HW132345   3.314   4.317   3.701 -0.9897  0.6984 -0.4994
 6962SOL    HW232346   3.292   4.450   3.672  1.7717  1.3023  0.6697
 6963SOL     OW32347   1.529   0.687  14.269  0.0839 -0.0995 -0.6606
 6963SOL    HW132348   1.514   0.674  14.175 -1.1215 -0.9527 -0.3580
 6963SOL    HW232349   1.445   0.730  14.286 -0.5190 -1.5502  0.0818
 6964SOL     OW32350   2.558   4.088   7.406  0.6328 -0.5371 -0.2959
 6964SOL    HW132351   2.619   4.144   7.453  2.2704 -1.6294 -1.1207
 6964SOL    HW232352   2.581   4.112   7.316 -1.0538  0.1214 -0.5455
 6965SOL     OW32353   0.554   3.129   9.328  0.0454 -0.1591 -0.1899
 6965SOL    HW132354   0.522   3.117   9.418  0.1288 -0.6419 -0.2268
 6965SOL    HW232355   0.643   3.094   9.336  0.3618  1.4242  3.7514
 6966SOL     OW32356   2.350   2.244  10.403 -0.2282  0.1819  0.0342
 6966SOL    HW132357   2.388   2.289  10.479  1.9657 -2.6966  0.5920
 6966SOL    HW232358   2.329   2.321  10.349 -0.7547  1.5092  2.1167
 6967SOL     OW32359   3.641   3.943   7.619 -0.2814  0.4056  0.2948
 6967SOL    HW132360   3.567   3.910   7.567  0.9987 -0.9559 -0.6678
 6967SOL    HW232361   3.712   3.953   7.556  0.8197  1.7721  1.7585
 6968SOL     OW32362   1.795   2.671   3.375 -0.2317 -0.1666  0.4180
 6968SOL    HW132363   1.725   2.729   3.406 -0.4552  0.1981 -0.7430
 6968SOL    HW232364   1.745   2.592   3.355 -0.4978  0.7454 -2.6174
 6969SOL     OW32365   1.287   0.549   6.381  0.1002 -0.5603 -0.2387
 6969SOL    HW132366   1.258   0.625   6.331  0.4375  0.5899  1.3264
 6969SOL    HW232367   1.254   0.570   6.469  2.0648  0.2287  0.2903
 6970SOL     OW32368   0.600   1.350   6.485 -0.5669  0.2359 -0.2055
 6970SOL    HW132369   0.625   1.419   6.424  0.3909  0.2590  0.2138
 6970SOL    HW232370   0.654   1.383   6.556  1.8898 -1.8485 -1.1071
 6971SOL     OW32371   0.444   1.005   4.592 -0.3004 -0.5471 -0.0219
 6971SOL    HW132372   0.518   0.965   4.545 -0.3240 -1.3781  0.6584
 6971SOL    HW232373   0.368   0.969   4.546  0.2547  0.6023 -1.8624
 6972SOL     OW32374   0.514   1.476  11.781  0.1355 -0.0828 -0.2173
 6972SOL    HW132375   0.464   1.439  11.708 -1.4469 -0.5394  1.0815
 6972SOL    HW232376   0.591   1.512  11.738  0.7322 -0.7828  0.2722
 6973SOL     OW32377   3.667   0.379   3.553  0.4730 -0.2000  0.2436
 6973SOL    HW132378   3.640   0.366   3.462 -0.0897 -0.3928  0.4379
 6973SOL    HW232379   3.698   0.470   3.558 -3.0036  1.0299 -0.4131
 6974SOL     OW32380   3.223   2.462   2.808 -0.1341  0.3088  0.4077
 6974SOL    HW132381   3.259   2.382   2.771 -1.5517 -0.3754  0.5119
 6974SOL    HW232382   3.208   2.506   2.725  1.0959 -0.9654 -0.4733
 6975SOL     OW32383   2.744   1.354   4.615  0.2601  0.0763 -0.3968
 6975SOL    HW132384   2.746   1.370   4.710 -2.7967  2.4874 -0.7430
 6975SOL    HW232385   2.835   1.358   4.584 -0.2121 -1.0400 -1.8947
 6976SOL     OW32386   1.131   3.190   4.794  0.4673  0.5801  0.0542
 6976SOL    HW132387   1.122   3.211   4.887 -1.4230  1.1723 -0.2772
 6976SOL    HW232388   1.214   3.231   4.767  1.9605 -2.5536 -0.1304
 6977SOL     OW32389   1.468   1.115   2.838 -0.3559  0.0032 -0.6355
 6977SOL    HW132390   1.510   1.029   2.841  0.9326  0.6240 -0.4729
 6977SOL    HW232391   1.386   1.093   2.794 -1.4330 -1.0046  1.8582
 6978SOL     OW32392   0.590   2.604   1.411  0.0563  0.3607 -0.1882
 6978SOL    HW132393   0.544   2.580   1.330 -1.6673  1.2671  0.5275
 6978SOL    HW232394   0.557   2.540   1.474  1.2678 -0.2051 -0.1263
 6979SOL     OW32395   2.858   1.735   4.299  0.4332  0.0622  0.8646
 6979SOL    HW132396   2.946   1.724   4.336  0.7381 -0.1376  0.0856
 6979SOL    HW232397   2.803   1.706   4.372 -1.8290  1.4376 -0.3218
 6980SOL     OW32398   4.199   4.275   7.198 -0.2937 -0.0703  0.4697
 6980SOL    HW132399   4.228   4.275   7.289  2.3786 -0.3820 -0.3862
 6980SOL    HW232400   4.128   4.211   7.204 -1.4732  1.2535  0.6696
 6981SOL     OW32401   4.296   1.525  13.087  0.6668 -0.4341 -0.0993
 6981SOL    HW132402   4.308   1.430  13.079 -0.6003 -0.5483 -0.6844
 6981SOL    HW232403   4.301   1.530  13.182 -0.0431 -2.3755  0.0426
 6982SOL     OW32404   0.094   1.483   8.675  0.0658 -0.0910 -0.1062
 6982SOL    HW132405   0.150   1.525   8.740  0.3430  0.4001 -0.6533
 6982SOL    HW232406   0.083   1.396   8.715 -1.2194 -0.5098 -1.3503
 6983SOL     OW32407   4.411   1.294  15.994 -0.4637  0.1268  0.4129
 6983SOL    HW132408   4.462   1.361  15.947  0.1285  0.0373  0.9257
 6983SOL    HW232409   4.390   1.343  16.073 -0.4984  0.8833 -0.0576
 6984SOL     OW32410   4.220   4.535   7.142 -0.2541 -0.2641  0.1282
 6984SOL    HW132411   4.129   4.555   7.118  0.3141  0.3884 -1.4849
 6984SOL    HW232412   4.218   4.446   7.176 -2.1924 -0.3555 -0.2195
 6985SOL     OW32413   0.897   2.319   6.252 -0.2996  0.3872 -0.3715
 6985SOL    HW132414   0.991   2.339   6.260 -0.5531  1.6985 -0.6816
 6985SOL    HW232415   0.861   2.355   6.333 -0.9178  0.9994 -0.9287
 6986SOL     OW32416   3.971   2.100   2.963  0.2682  0.3828 -0.4474
 6986SOL    HW132417   4.013   2.127   3.045 -1.9644  5.3129 -0.9358
 6986SOL    HW232418   4.013   2.014   2.960  0.6952  0.6242 -1.4914
 6987SOL     OW32419   3.317   1.497   7.653  0.3015 -0.0978 -0.2824
 6987SOL    HW132420   3.352   1.480   7.566  0.2818  0.4265 -0.3947
 6987SOL    HW232421   3.289   1.588   7.661 -2.3530 -0.8455 -0.9585
 6988SOL     OW32422   4.549   1.281   2.242  0.2220 -0.3618 -0.0305
 6988SOL    HW132423   4.609   1.329   2.299 -0.3487  1.9738 -1.4170
 6988SOL    HW232424   4.503   1.358   2.211  0.0596 -0.4910 -0.1075
 6989SOL     OW32425   4.618   1.155  11.904 -0.3229  0.1948 -0.3325
 6989SOL    HW132426   4.625   1.127  11.996 -2.2980  1.1422  0.1158
 6989SOL    HW232427   4.550   1.220  11.921  1.5392  1.9347  0.4459
 6990SOL     OW32428   4.330   0.088   1.861 -0.0336 -0.8703  0.4418
 6990SOL    HW132429   4.309   0.146   1.787  0.8584  0.0644  0.9027
 6990SOL    HW232430   4.409   0.133   1.893 -0.1172  0.3379 -1.0067
 6991SOL     OW32431   2.941   1.694   8.269 -0.3083 -0.1116  0.2918
 6991SOL    HW132432   2.935   1.637   8.346 -2.9285 -1.2288 -0.7432
 6991SOL    HW232433   2.994   1.649   8.204 -2.4767 -2.2923  0.0291
 6992SOL     OW32434   2.820   0.190   6.662 -0.1610  0.0803  0.0749
 6992SOL    HW132435   2.827   0.203   6.568 -1.6092  0.9708  0.0917
 6992SOL    HW232436   2.906   0.148   6.665 -0.1815 -0.1309 -2.1177
 6993SOL     OW32437   0.385   1.974   7.108  0.2290  0.1509 -0.3433
 6993SOL    HW132438   0.394   2.068   7.095 -0.8719  0.2174 -0.5966
 6993SOL    HW232439   0.437   1.948   7.185  0.4223 -0.0439 -0.5402
 6994SOL     OW32440   1.766   0.393   4.272  0.6713 -0.1337 -0.7056
 6994SOL    HW132441   1.841   0.392   4.331  1.2706 -1.7027 -1.4935
 6994SOL    HW232442   1.704   0.446   4.323 -0.0099 -2.6628  1.0828
 6995SOL     OW32443   3.474   1.160   3.614  0.4797  0.0727 -0.0157
 6995SOL    HW132444   3.428   1.242   3.633 -1.8327 -0.6261 -2.6281
 6995SOL    HW232445   3.447   1.108   3.689 -0.2726 -0.4233 -0.6234
 6996SOL     OW32446   4.496   0.883  15.363 -0.3367  0.0499  0.0293
 6996SOL    HW132447   4.517   0.810  15.305  1.3469 -1.0031  1.9657
 6996SOL    HW232448   4.484   0.824  15.437  1.8497 -0.2134  0.1808
 6997SOL     OW32449   0.853   4.694   6.183  0.4093 -0.2887  0.5805
 6997SOL    HW132450   0.892   4.640   6.251 -1.4325 -2.8149 -0.3647
 6997SOL    HW232451   0.907   4.673   6.106  2.3418 -1.0835  2.1621
 6998SOL     OW32452   1.030   3.522   4.815 -0.2548 -0.2851 -0.2467
 6998SOL    HW132453   1.122   3.536   4.836 -0.3322  0.0765 -0.1560
 6998SOL    HW232454   1.024   3.587   4.745 -1.6585  0.0907  0.2238
 6999SOL     OW32455   0.721   0.221   4.075 -0.1848 -0.4764 -0.3412
 6999SOL    HW132456   0.680   0.156   4.131  1.1733 -1.2413 -0.2334
 6999SOL    HW232457   0.813   0.207   4.095  0.1192  1.8695 -0.0857
 7000SOL     OW32458   2.995   1.517   3.596  0.5267 -0.4730 -0.1536
 7000SOL    HW132459   2.973   1.430   3.564 -0.3881 -1.1164  2.2147
 7000SOL    HW232460   3.035   1.503   3.682  1.2036  0.7051 -0.2759
 7001SOL     OW32461   3.788   2.310  10.473  0.3332  0.0685 -0.5051
 7001SOL    HW132462   3.706   2.325  10.427 -0.0682 -0.3446  0.0769
 7001SOL    HW232463   3.846   2.386  10.459  0.3131  0.2127  0.1872
 7002SOL     OW32464   2.386   4.035   4.559 -0.1787 -0.4776 -0.1702
 7002SOL    HW132465   2.346   4.049   4.645 -1.0917  0.4161 -0.7472
 7002SOL    HW232466   2.449   4.107   4.559 -1.4335  0.6271 -0.5656
 7003SOL     OW32467   4.598   4.182  13.572  0.5809 -0.3042  0.0695
 7003SOL    HW132468   4.635   4.142  13.493  1.5220  1.6513 -0.4790
 7003SOL    HW232469   4.676   4.236  13.583 -0.2659  0.6992  1.2574
 7004SOL     OW32470   0.456   0.621   4.585  0.4238 -0.0212 -0.4861
 7004SOL    HW132471   0.391   0.686   4.612  1.2366  1.3134 -1.7491
 7004SOL    HW232472   0.405   0.540   4.594 -1.9205  1.5285  0.0897
 7005SOL     OW32473   4.631   2.183   5.202 -0.0814  0.2656  0.0528
 7005SOL    HW132474   4.537   2.184   5.182  0.0716  0.6220 -0.6592
 7005SOL    HW232475   4.649   2.273   5.175  1.4483 -0.3791 -1.0529
 7006SOL     OW32476   4.406   2.651   6.614  0.4123  0.0535  0.5080
 7006SOL    HW132477   4.332   2.706   6.638  0.2724 -0.2283  0.7145
 7006SOL    HW232478   4.467   2.694   6.674 -1.0829 -0.6342  2.4770
 7007SOL     OW32479   1.324   3.811  14.706 -0.4092  0.6921  0.2702
 7007SOL    HW132480   1.252   3.829  14.766 -0.5502  2.3200 -0.3921
 7007SOL    HW232481   1.319   3.715  14.702 -1.0166  0.7794 -1.0009
 7008SOL     OW32482   1.832   3.123   9.160  0.0536 -0.4512 -0.2431
 7008SOL    HW132483   1.886   3.138   9.082 -0.6764  1.3054 -0.4036
 7008SOL    HW232484   1.840   3.208   9.203 -0.0559 -2.1187  3.0550
 7009SOL     OW32485   3.346   3.483   2.781 -0.1936  0.3825  0.4763
 7009SOL    HW132486   3.330   3.418   2.850  0.8585 -0.4782 -0.0767
 7009SOL    HW232487   3.433   3.513   2.809  0.6905 -0.9580 -0.8172
 7010SOL     OW32488   4.670   3.823   2.408  0.0074  0.3480  0.5259
 7010SOL    HW132489   4.580   3.793   2.399  0.6870 -1.6444  0.4889
 7010SOL    HW232490   4.706   3.736   2.424  3.2568  1.5103 -0.4745
 7011SOL     OW32491   3.445   4.046   6.872  0.3352 -0.5212  0.4429
 7011SOL    HW132492   3.538   4.050   6.851  0.1759 -1.1691 -0.3881
 7011SOL    HW232493   3.418   3.977   6.812 -1.3736  0.4747  0.0774
 7012SOL     OW32494   0.737   2.798   2.017  0.0296  0.2593 -0.5941
 7012SOL    HW132495   0.683   2.876   2.033 -0.4932 -0.4542  1.1070
 7012SOL    HW232496   0.682   2.751   1.955  1.3773 -0.7007 -1.0638
 7013SOL     OW32497   3.197   4.270   8.044  0.0171  0.0229  0.6260
 7013SOL    HW132498   3.136   4.229   7.984 -1.5096 -2.0921  3.6251
 7013SOL    HW232499   3.215   4.200   8.107 -0.2415 -0.6485 -0.0475
 7014SOL     OW32500   0.791   2.983   3.662  0.5985  0.2107  0.3262
 7014SOL    HW132501   0.839   2.906   3.693 -2.0953 -0.9455  1.6236
 7014SOL    HW232502   0.708   2.967   3.708  0.9849 -0.5986  0.7512
 7015SOL     OW32503   2.595   1.598   0.347 -0.6508 -0.8678 -1.0248
 7015SOL    HW132504   2.506   1.602   0.383 -0.3471  1.3282 -0.5001
 7015SOL    HW232505   2.587   1.607   0.252 -0.8662  1.3936 -0.8092
 7016SOL     OW32506   1.629   3.617  12.916  0.3944  0.1889 -0.1295
 7016SOL    HW132507   1.633   3.637  12.823 -0.5231 -2.0353 -0.6462
 7016SOL    HW232508   1.536   3.619  12.938  0.3172  4.8254 -0.7466
 7017SOL     OW32509   2.136   1.808   3.057 -0.5083 -0.4312 -0.3063
 7017SOL    HW132510   2.159   1.735   3.114  2.2207  0.0273 -0.7938
 7017SOL    HW232511   2.204   1.868   3.085 -0.6324 -0.5791  0.2987
 7018SOL     OW32512   3.288   4.423   7.860  0.3795  0.4353 -0.2903
 7018SOL    HW132513   3.339   4.498   7.890 -1.0006  1.8042 -1.3793
 7018SOL    HW232514   3.251   4.381   7.937 -0.5872  1.9017  0.0529
 7019SOL     OW32515   4.602   1.080   3.677  0.1433  0.2090 -0.2697
 7019SOL    HW132516   4.603   0.984   3.683  0.2624  0.2690  0.6192
 7019SOL    HW232517   4.602   1.076   3.581 -1.0509 -1.8874 -0.1942
 7020SOL     OW32518   1.962   0.621   1.935  0.2360 -0.5106  0.3631
 7020SOL    HW132519   1.913   0.696   1.900 -2.1525 -1.5837  1.4219
 7020SOL    HW232520   2.045   0.663   1.955  0.7669 -1.3354 -0.1274
 7021SOL     OW32521   3.738   0.518   6.673  0.0907  0.1858 -0.4620
 7021SOL    HW132522   3.692   0.451   6.724  1.8799 -0.1193  0.7565
 7021SOL    HW232523   3.728   0.487   6.583 -1.5131  3.0666 -1.2472
 7022SOL     OW32524   3.836   3.090  16.498 -0.3826  0.5244 -0.8988
 7022SOL    HW132525   3.779   3.034  16.445  0.7612 -0.2791 -1.2764
 7022SOL    HW232526   3.803   3.093  16.588 -1.0458  0.0180 -1.1300
 7023SOL     OW32527   1.973   4.019  10.827 -0.2864 -0.2330 -0.2280
 7023SOL    HW132528   1.903   4.014  10.763 -0.3334 -0.4458 -0.1571
 7023SOL    HW232529   2.018   4.101  10.807  1.3225 -0.8101  0.9706
 7024SOL     OW32530   4.516   0.129   6.614  0.6081 -0.0237 -0.6322
 7024SOL    HW132531   4.506   0.139   6.709 -0.9104 -0.5787 -0.7324
 7024SOL    HW232532   4.552   0.041   6.609  1.5771  0.3159  0.4716
 7025SOL     OW32533   3.000   0.695   6.292  0.1246  0.0835  0.0831
 7025SOL    HW132534   3.008   0.790   6.293  1.0169 -0.0074  1.2502
 7025SOL    HW232535   2.979   0.679   6.200  1.5193  1.7018 -0.5130
 7026SOL     OW32536   2.178   1.786   2.330 -0.5692  0.4615 -0.0869
 7026SOL    HW132537   2.248   1.840   2.295  1.0476  0.0253  2.5001
 7026SOL    HW232538   2.154   1.839   2.407  0.1466  0.5432  0.0777
 7027SOL     OW32539   2.680   1.986   9.385 -0.2367  0.1118  0.3366
 7027SOL    HW132540   2.753   2.039   9.353 -1.9444  0.8644 -2.3391
 7027SOL    HW232541   2.636   1.973   9.301  0.5851 -0.2401 -0.0439
 7028SOL     OW32542   0.262   1.774   5.753 -0.3817  0.1668  0.1492
 7028SOL    HW132543   0.244   1.739   5.666 -2.0942  0.7637  0.2640
 7028SOL    HW232544   0.238   1.705   5.815  1.2986 -1.5621 -1.1382
 7029SOL     OW32545   3.767   3.878   4.489  0.0367  0.2880 -0.0868
 7029SOL    HW132546   3.817   3.892   4.409  0.0961 -0.7433 -0.2291
 7029SOL    HW232547   3.822   3.894   4.566  1.3867 -1.8926 -0.5957
 7030SOL     OW32548   1.764   4.576  14.490  0.2475  0.1325 -0.2750
 7030SOL    HW132549   1.820   4.634  14.542 -0.3184  1.2469 -0.9209
 7030SOL    HW232550   1.763   4.612  14.402  1.3079 -2.1534 -1.2385
 7031SOL     OW32551   3.335   1.442   5.464  0.1339 -0.2908 -0.4988
 7031SOL    HW132552   3.289   1.359   5.449 -2.3605  0.9062  0.6177
 7031SOL    HW232553   3.331   1.446   5.560  0.9824 -3.1655 -0.3349
 7032SOL     OW32554   2.295   3.398   5.387  0.7311  0.2626  0.2727
 7032SOL    HW132555   2.263   3.323   5.436  0.6896 -0.0920 -0.3034
 7032SOL    HW232556   2.364   3.410   5.453  1.4257 -0.1689 -0.3828
 7033SOL     OW32557   4.390   3.933   4.765  0.1371  0.2108  0.1212
 7033SOL    HW132558   4.338   3.975   4.696 -0.4506  1.1573  1.1412
 7033SOL    HW232559   4.367   3.841   4.753 -0.4192  0.7817 -3.2892
 7034SOL     OW32560   3.978   0.029   0.327  0.0424  0.3992 -0.1598
 7034SOL    HW132561   4.005   0.096   0.265 -0.4651 -0.3937 -1.2351
 7034SOL    HW232562   4.064   4.711   0.337 -0.6825 -1.3713 -0.9866
 7035SOL     OW32563   0.341   2.391   8.827  0.3041  0.0767 -0.4638
 7035SOL    HW132564   0.274   2.363   8.889  0.5944  1.0601  0.2840
 7035SOL    HW232565   0.348   2.484   8.849  2.1843  0.0910 -1.1539
 7036SOL     OW32566   4.196   0.448   9.533 -0.2681 -0.0348 -0.5214
 7036SOL    HW132567   4.111   0.418   9.500  0.3965 -1.3626 -1.0334
 7036SOL    HW232568   4.207   0.516   9.468 -2.5856  1.1732  0.3358
 7037SOL     OW32569   2.812   2.170   5.561 -0.1241 -0.2595 -0.1235
 7037SOL    HW132570   2.788   2.152   5.470  4.0297 -0.2068 -1.2162
 7037SOL    HW232571   2.774   2.104   5.619 -1.4064 -0.1019 -0.7934
 7038SOL     OW32572   4.006   2.505  11.936 -0.1508 -0.2186  0.7133
 7038SOL    HW132573   3.972   2.415  11.937 -0.3203 -0.1688 -0.7097
 7038SOL    HW232574   4.037   2.505  11.845  1.0409  0.4091  1.1306
 7039SOL     OW32575   3.726   4.035   4.032 -1.0926 -0.1762 -0.4591
 7039SOL    HW132576   3.657   4.092   3.998 -3.1499 -2.0578  0.4780
 7039SOL    HW232577   3.781   4.026   3.954 -0.5429 -1.9312  0.1212
 7040SOL     OW32578   2.626   1.276  17.557  0.1937 -0.2588 -0.1629
 7040SOL    HW132579   2.564   1.261  17.486  0.6328  0.8066 -0.7791
 7040SOL    HW232580   2.704   1.228  17.529 -1.1886 -1.6162 -1.6586
 7041SOL     OW32581   0.752   1.456  11.618  0.7096  0.1576  0.3696
 7041SOL    HW132582   0.819   1.394  11.592 -2.3776 -2.0896 -2.1873
 7041SOL    HW232583   0.794   1.541  11.603  1.3304 -0.4057 -1.0306
 7042SOL     OW32584   4.674   2.621   4.410 -0.1529  0.0425  0.6247
 7042SOL    HW132585   4.604   2.599   4.348  0.2761  1.3007 -0.3204
 7042SOL    HW232586   4.650   2.696   4.463  0.8602  0.7391  0.1020
 7043SOL     OW32587   2.645   3.848   7.587 -0.2094 -0.1266  0.2602
 7043SOL    HW132588   2.612   3.913   7.524 -0.2546 -0.5681 -0.1644
 7043SOL    HW232589   2.737   3.849   7.561 -0.8191  2.2260 -1.8131
 7044SOL     OW32590   2.993   4.128  15.686 -0.7058  0.7049  0.5252
 7044SOL    HW132591   2.939   4.081  15.750 -0.1426  0.7685  1.0484
 7044SOL    HW232592   2.935   4.201  15.665  0.1915  0.6638 -2.1271
 7045SOL     OW32593   1.530   2.948   4.686  0.0008 -0.5234  0.2453
 7045SOL    HW132594   1.470   2.886   4.643  0.6145  0.4917 -2.0597
 7045SOL    HW232595   1.611   2.927   4.639  1.0083 -0.2873  1.8921
 7046SOL     OW32596   2.959   3.873  16.618  0.1123  0.0563  0.2815
 7046SOL    HW132597   2.905   3.800  16.590 -1.2448  1.5162 -0.9025
 7046SOL    HW232598   3.010   3.882  16.538 -0.4308  3.0117  0.2560
 7047SOL     OW32599   4.223   3.836   1.048  0.1801  0.2885 -0.0436
 7047SOL    HW132600   4.212   3.931   1.055 -0.3358  0.1516  0.9834
 7047SOL    HW232601   4.133   3.804   1.055  1.3843 -3.4028 -1.5373
 7048SOL     OW32602   4.402   3.440   8.218  0.1262  0.3074 -0.1879
 7048SOL    HW132603   4.455   3.491   8.156  1.4493 -0.7117  0.1223
 7048SOL    HW232604   4.475   3.399   8.264 -0.9860 -0.8513  0.5262
 7049SOL     OW32605   4.343   1.785  10.166  0.3432  0.4287 -0.1235
 7049SOL    HW132606   4.391   1.860  10.129  1.6198  0.8847  2.4620
 7049SOL    HW232607   4.253   1.805  10.144 -0.3936 -2.5815  0.1620
 7050SOL     OW32608   0.469   2.939   6.090 -0.6921 -0.2744  0.4306
 7050SOL    HW132609   0.561   2.957   6.071 -1.0505 -2.0305 -2.9493
 7050SOL    HW232610   0.483   2.846   6.108  3.0434  0.2065 -0.0032
 7051SOL     OW32611   0.002   3.386   1.548  0.3506  0.8911 -0.4424
 7051SOL    HW132612   4.659   3.324   1.516  0.2332  1.6856 -1.7282
 7051SOL    HW232613   0.080   3.330   1.550  1.1172  1.8587 -3.1653
 7052SOL     OW32614   0.838   1.162  17.206  0.8933  0.6637  0.5361
 7052SOL    HW132615   0.764   1.174  17.267  1.4083  0.5879  1.1782
 7052SOL    HW232616   0.870   1.252  17.199 -2.4304  1.7585 -0.5315
 7053SOL     OW32617   2.551   3.961  11.640 -0.4632 -0.3091 -0.0613
 7053SOL    HW132618   2.632   3.918  11.670 -0.1416  0.5898  0.3452
 7053SOL    HW232619   2.546   3.924  11.552 -0.9954 -0.8556  0.1985
 7054SOL     OW32620   0.748   2.399   3.072 -0.6754 -0.3705  0.5445
 7054SOL    HW132621   0.663   2.441   3.062  0.2000  1.6045  1.5372
 7054SOL    HW232622   0.725   2.310   3.046 -0.8382 -0.1692  0.0039
 7055SOL     OW32623   3.737   3.940   2.331 -0.2474  0.5887 -0.2700
 7055SOL    HW132624   3.724   3.854   2.292 -1.1335  0.3201  0.6159
 7055SOL    HW232625   3.832   3.942   2.338 -0.2071  0.1996 -0.6997
 7056SOL     OW32626   1.349   3.953   8.731 -0.7745 -0.1020  0.0132
 7056SOL    HW132627   1.384   3.937   8.644 -0.7278  3.8231 -0.7244
 7056SOL    HW232628   1.280   3.888   8.736 -2.5593  1.7600 -0.3775
 7057SOL     OW32629   1.614   1.638   6.235  0.4022  0.3841 -0.1139
 7057SOL    HW132630   1.581   1.719   6.272  0.0748  0.3625 -0.3543
 7057SOL    HW232631   1.658   1.607   6.314  1.1562 -0.9596 -1.0608
 7058SOL     OW32632   1.762   4.046   4.118  0.5971  0.2694 -0.2243
 7058SOL    HW132633   1.819   3.969   4.113 -1.3554 -1.0528 -2.1649
 7058SOL    HW232634   1.773   4.073   4.209  1.1066 -0.9760  0.0842
 7059SOL     OW32635   1.194   0.897   8.456 -0.0075 -0.0454  0.3085
 7059SOL    HW132636   1.211   0.984   8.493  2.2191  0.9113 -2.9902
 7059SOL    HW232637   1.211   0.840   8.531  3.5803 -1.3037 -1.4835
 7060SOL     OW32638   2.156   2.837   6.769  0.6707  0.5542 -0.1259
 7060SOL    HW132639   2.244   2.859   6.740  0.4037 -0.7755 -1.9195
 7060SOL    HW232640   2.121   2.784   6.698  3.4828 -0.8401 -0.4580
 7061SOL     OW32641   1.332   1.752   3.777  0.2116 -0.3255  0.0346
 7061SOL    HW132642   1.301   1.769   3.866 -3.3265  1.5105 -1.4937
 7061SOL    HW232643   1.346   1.659   3.791  0.8083 -0.1546  0.5821
 7062SOL     OW32644   2.881   2.673   9.599  0.4092  0.2848 -0.2682
 7062SOL    HW132645   2.800   2.633   9.567  0.0817  0.4742  0.3344
 7062SOL    HW232646   2.911   2.598   9.651  0.6162  0.3323 -0.3184
 7063SOL     OW32647   0.243   2.661   5.208  0.0547 -0.1386 -0.0743
 7063SOL    HW132648   0.237   2.669   5.113 -0.9897 -0.4144 -0.0266
 7063SOL    HW232649   0.153   2.674   5.237  0.0888 -0.2559  0.0800
 7064SOL     OW32650   2.642   4.221   0.311 -0.2448  0.1988  0.7394
 7064SOL    HW132651   2.634   4.126   0.308  1.2763 -0.0061  3.4677
 7064SOL    HW232652   2.707   4.235   0.379 -0.6665  1.6442  0.8491
 7065SOL     OW32653   1.656   0.174   7.307 -0.0926  0.6294 -0.4942
 7065SOL    HW132654   1.648   0.108   7.238  1.0731  0.1684 -0.1920
 7065SOL    HW232655   1.709   0.127   7.370 -1.4155 -0.6898 -0.3529
 7066SOL     OW32656   4.498   3.208   2.178  0.5275  0.1246 -0.9017
 7066SOL    HW132657   4.556   3.270   2.134  2.1718  0.6328  1.9907
 7066SOL    HW232658   4.558   3.134   2.181  3.0085  2.1521 -0.2014
 7067SOL     OW32659   2.639   4.523   1.869  0.1141  0.3795  0.2800
 7067SOL    HW132660   2.614   4.448   1.923  0.6467 -1.1007 -1.5389
 7067SOL    HW232661   2.734   4.516   1.863  0.0098  0.3511 -1.2580
 7068SOL     OW32662   0.421   2.357  15.666 -0.3887  0.1623  0.6561
 7068SOL    HW132663   0.461   2.333  15.750  0.0500  0.0289  0.4108
 7068SOL    HW232664   0.409   2.451  15.670 -0.1217  0.2562 -1.1092
 7069SOL     OW32665   4.348   2.682   4.529  0.2436 -0.5044  0.4867
 7069SOL    HW132666   4.435   2.721   4.522  0.4541 -0.6138  2.4720
 7069SOL    HW232667   4.369   2.591   4.510 -1.9749 -0.4951 -2.1750
 7070SOL     OW32668   3.553   4.172  10.040  0.3982  0.1769 -0.7215
 7070SOL    HW132669   3.466   4.183  10.077  0.8101  0.1973  0.2674
 7070SOL    HW232670   3.609   4.194  10.115 -0.7472  2.1315 -0.4691
 7071SOL     OW32671   1.863   3.884   3.579  0.0496 -0.2481  0.6729
 7071SOL    HW132672   1.911   3.968   3.582  0.7265 -0.5653 -1.2048
 7071SOL    HW232673   1.826   3.880   3.667  0.4470  0.0032  0.8527
 7072SOL     OW32674   0.537   4.205   0.693 -0.0149  0.2300 -0.6523
 7072SOL    HW132675   0.458   4.239   0.651 -0.5076 -0.1497 -0.0531
 7072SOL    HW232676   0.498   4.183   0.778  0.7065  0.3550 -0.2951
 7073SOL     OW32677   1.507   3.964   4.619  0.3903  0.1448 -0.2344
 7073SOL    HW132678   1.476   3.935   4.534  0.4033  1.3031 -0.6333
 7073SOL    HW232679   1.494   4.059   4.616  0.3799  0.1338 -0.5047
 7074SOL     OW32680   3.183   3.377  11.034 -0.6586  0.1785 -0.0814
 7074SOL    HW132681   3.172   3.326  11.115  3.1590 -0.8066 -0.2042
 7074SOL    HW232682   3.106   3.434  11.044  1.0777  2.3631  0.8738
 7075SOL     OW32683   3.177   0.785  17.667 -0.0425  0.3022 -0.6834
 7075SOL    HW132684   3.158   0.858  17.608  0.1597  1.5484  0.7961
 7075SOL    HW232685   3.248   0.747  17.615 -0.3033  0.9270 -1.5065
 7076SOL     OW32686   0.416   0.063   6.369  0.8070  0.0912  0.0031
 7076SOL    HW132687   0.325   0.092   6.376  1.5128  2.6114 -1.0436
 7076SOL    HW232688   0.403   0.030   6.280 -0.4647  1.2646 -0.2565
 7077SOL     OW32689   0.523   3.969   5.039 -0.2673  0.0066 -0.6335
 7077SOL    HW132690   0.480   3.908   5.099 -0.1176 -1.4667 -2.0279
 7077SOL    HW232691   0.541   3.906   4.969 -1.0439  0.3070 -1.1145
 7078SOL     OW32692   0.071   1.992   6.470  0.1578  0.2398 -0.4799
 7078SOL    HW132693   0.024   1.951   6.543  1.0871  1.4239  0.7841
 7078SOL    HW232694   0.077   2.076   6.514 -0.4713 -0.5030  1.0392
 7079SOL     OW32695   3.657   2.317   7.580 -0.4141  0.5545 -0.1613
 7079SOL    HW132696   3.595   2.315   7.653  0.9346 -1.1180  0.9692
 7079SOL    HW232697   3.707   2.390   7.616  1.1947 -0.6311  0.0042
 7080SOL     OW32698   2.007   3.122   6.541  0.2221 -0.0733 -0.1990
 7080SOL    HW132699   1.938   3.065   6.506 -0.4543  0.3763  0.4096
 7080SOL    HW232700   1.964   3.204   6.516  1.1089  1.1530  2.3198
 7081SOL     OW32701   0.778   1.926  15.450  0.7497 -0.1252 -0.0566
 7081SOL    HW132702   0.851   1.885  15.404  1.3625 -0.0537  0.8475
 7081SOL    HW232703   0.831   1.975  15.513 -2.5652  2.8849  0.3935
 7082SOL     OW32704   2.261   2.188   5.911  0.1575 -0.2924 -0.3210
 7082SOL    HW132705   2.234   2.102   5.942 -2.7621  1.6596  2.5412
 7082SOL    HW232706   2.207   2.201   5.833 -1.6309 -3.0210  0.4739
 7083SOL     OW32707   2.334   1.960   9.395  0.0105  0.3437 -0.1136
 7083SOL    HW132708   2.396   1.914   9.338  0.0956 -0.9598  1.0607
 7083SOL    HW232709   2.352   1.919   9.479  0.4609 -2.5518 -1.6468
 7084SOL     OW32710   1.970   0.451   1.593 -0.0750  0.1953  0.0830
 7084SOL    HW132711   1.920   0.390   1.539  2.1249 -3.0027  1.6433
 7084SOL    HW232712   2.053   0.406   1.577 -0.4126 -0.9137  1.4156
 7085SOL     OW32713   3.973   3.136   2.458  0.1203 -0.6208 -0.1311
 7085SOL    HW132714   3.940   3.212   2.505  1.4866 -0.5937  0.7945
 7085SOL    HW232715   4.010   3.183   2.383  2.1301  0.8864  1.7957
 7086SOL     OW32716   2.021   2.975  13.849  0.0644  0.3565  0.5405
 7086SOL    HW132717   2.051   2.904  13.906 -1.0010 -0.7443 -0.2683
 7086SOL    HW232718   1.926   2.984  13.856  0.0531 -0.3574  1.2798
 7087SOL     OW32719   0.636   1.867   3.578 -0.5780  0.0500  0.0045
 7087SOL    HW132720   0.724   1.841   3.606 -0.3766 -1.3180 -1.8570
 7087SOL    HW232721   0.611   1.945   3.626 -0.3039 -0.9109  1.7032
 7088SOL     OW32722   1.263   1.628  17.471  0.9089 -0.3322  0.3124
 7088SOL    HW132723   1.215   1.704  17.505 -0.8718 -1.4737  0.3727
 7088SOL    HW232724   1.248   1.570  17.546 -1.7831  0.4743  0.3961
 7089SOL     OW32725   0.883   0.079   2.779  0.5332 -0.0903 -0.1486
 7089SOL    HW132726   0.909   0.108   2.692  0.2971  1.7726  0.3873
 7089SOL    HW232727   0.809   0.136   2.803  1.3129  0.5847  0.6814
 7090SOL     OW32728   3.653   4.153   4.732  0.5829  1.2320  0.6830
 7090SOL    HW132729   3.707   4.089   4.780  2.0150  2.6098  0.8858
 7090SOL    HW232730   3.717   4.218   4.704  1.3005  0.5263  0.6655
 7091SOL     OW32731   3.457   4.226   6.066 -0.3395 -0.2466 -0.3342
 7091SOL    HW132732   3.532   4.280   6.093  0.1615 -0.9467 -0.3243
 7091SOL    HW232733   3.399   4.269   6.129  1.2440  0.8703  0.3669
 7092SOL     OW32734   4.190   3.088   2.630 -0.0889  0.5377  0.0209
 7092SOL    HW132735   4.185   2.992   2.631 -0.0943  0.5410  0.3653
 7092SOL    HW232736   4.152   3.105   2.544  0.8217 -0.4360 -0.5772
 7093SOL     OW32737   3.098   1.208   3.310 -0.0799 -0.3341  0.9991
 7093SOL    HW132738   3.006   1.194   3.331 -0.7532  0.9925 -0.9991
 7093SOL    HW232739   3.121   1.260   3.387 -2.0346 -0.6754  1.8176
 7094SOL     OW32740   1.703   2.949   3.453 -0.0692 -0.2686  0.1769
 7094SOL    HW132741   1.698   2.959   3.548 -1.4776  0.3184  0.0412
 7094SOL    HW232742   1.613   2.918   3.439 -0.8458  0.9853  2.4714
 7095SOL     OW32743   1.842   2.690   2.900 -0.1632 -0.1101  0.4758
 7095SOL    HW132744   1.933   2.686   2.871 -0.5912  4.7846 -1.7042
 7095SOL    HW232745   1.826   2.609   2.948 -0.0518 -0.3944  0.0368
 7096SOL     OW32746   0.349   3.928   6.718  0.7626 -0.1717 -0.2988
 7096SOL    HW132747   0.423   3.875   6.688  2.4081  0.4469  2.6149
 7096SOL    HW232748   0.315   3.959   6.634  0.8620 -1.0584 -0.6615
 7097SOL     OW32749   1.791   4.369   5.885  0.1496  0.5464 -0.2054
 7097SOL    HW132750   1.781   4.287   5.934  0.4117  0.3953 -0.4012
 7097SOL    HW232751   1.788   4.335   5.795  0.1749  3.5457 -1.3269
 7098SOL     OW32752   0.293   2.189   8.623 -0.1493 -0.5952 -0.1995
 7098SOL    HW132753   0.261   2.226   8.540 -0.9912  1.5963  1.0809
 7098SOL    HW232754   0.318   2.269   8.670 -0.8026  0.2439 -1.2898
 7099SOL     OW32755   4.462   3.684   5.648  0.1136  0.3828  0.2486
 7099SOL    HW132756   4.509   3.743   5.706  1.7144 -0.9544  0.3145
 7099SOL    HW232757   4.374   3.686   5.686 -0.4145  2.1359 -1.0563
 7100SOL     OW32758   3.376   2.214   2.733  0.2155  0.2123 -0.4200
 7100SOL    HW132759   3.454   2.173   2.696 -0.5745 -1.4435 -0.2315
 7100SOL    HW232760   3.376   2.193   2.826 -0.8772 -0.3827 -0.5591
 7101SOL     OW32761   1.693   0.498  14.045  0.1341 -0.1438 -0.1191
 7101SOL    HW132762   1.737   0.456  13.971  0.2198  1.3717 -0.9442
 7101SOL    HW232763   1.610   0.520  14.002  0.2809 -1.8554 -1.2773
 7102SOL     OW32764   4.370   1.388  11.654  0.5595 -0.3891  0.4178
 7102SOL    HW132765   4.413   1.361  11.573 -0.2147  0.4381 -0.2759
 7102SOL    HW232766   4.276   1.372  11.644  0.6396 -0.3326 -0.4729
 7103SOL     OW32767   3.987   3.497  10.813 -0.1241  0.1370 -0.0499
 7103SOL    HW132768   3.969   3.414  10.770  0.4243  1.1957 -2.2878
 7103SOL    HW232769   4.045   3.544  10.754 -0.2225 -0.1364 -0.3603
 7104SOL     OW32770   1.911   4.314   5.000 -0.1057 -0.2837  0.7702
 7104SOL    HW132771   1.844   4.256   5.035  1.7205  0.3335  5.2018
 7104SOL    HW232772   1.891   4.390   5.055  0.3537 -0.2410  0.8751
 7105SOL     OW32773   2.343   0.694  15.383 -0.3991  0.0453  0.2707
 7105SOL    HW132774   2.416   0.739  15.340  0.2176 -0.0354  1.2397
 7105SOL    HW232775   2.324   0.631  15.314 -1.2684 -1.6322  2.0658
 7106SOL     OW32776   2.742   4.591   6.948  0.6683 -0.1196  0.1647
 7106SOL    HW132777   2.757   4.521   6.885  0.4972  0.2495 -0.2951
 7106SOL    HW232778   2.826   4.588   6.993  0.6716 -0.2148  0.1527
 7107SOL     OW32779   3.052   2.455   7.847  0.2465  0.6237  0.0366
 7107SOL    HW132780   3.131   2.412   7.881  1.2832  1.6016 -1.1199
 7107SOL    HW232781   2.987   2.393   7.879 -0.1144  0.5315 -0.8764
 7108SOL     OW32782   3.410   1.568   4.637  0.3663 -0.7144 -0.4448
 7108SOL    HW132783   3.332   1.622   4.647  0.0173 -1.6642  1.8078
 7108SOL    HW232784   3.443   1.599   4.552 -0.7561 -0.4596 -0.7860
 7109SOL     OW32785   3.778   0.755   0.538 -0.1575 -0.3308  0.3014
 7109SOL    HW132786   3.821   0.697   0.475  1.9401 -0.6866  2.0751
 7109SOL    HW232787   3.818   0.841   0.524 -0.5442 -0.2575 -0.3334
 7110SOL     OW32788   3.105   0.838  15.847 -0.0057 -0.5421 -0.6459
 7110SOL    HW132789   3.043   0.774  15.881  2.0373 -1.7389  0.8589
 7110SOL    HW232790   3.139   0.868  15.931 -1.3138  1.0837 -0.7133
 7111SOL     OW32791   1.237   3.342  13.325  0.6234 -0.2526 -0.1703
 7111SOL    HW132792   1.181   3.322  13.400  1.1986  1.5585  0.7581
 7111SOL    HW232793   1.313   3.376  13.373  0.9760 -0.9143 -0.2627
 7112SOL     OW32794   0.689   4.254   4.666 -0.0577 -0.2308  0.1846
 7112SOL    HW132795   0.667   4.290   4.752  0.2534 -1.5686  0.8248
 7112SOL    HW232796   0.712   4.163   4.684 -0.2447 -0.1701  0.7199
 7113SOL     OW32797   3.036   0.482  15.619  0.2198  0.3168 -0.4498
 7113SOL    HW132798   3.034   0.457  15.711 -1.3044 -0.1892 -0.6085
 7113SOL    HW232799   3.105   0.548  15.623 -0.4373  1.1171 -2.1601
 7114SOL     OW32800   3.862   0.082   2.896  0.0965 -0.1696 -0.0129
 7114SOL    HW132801   3.935   0.032   2.932 -1.9527 -0.5558  3.6068
 7114SOL    HW232802   3.873   0.080   2.801 -1.1958  2.7622 -0.2289
 7115SOL     OW32803   3.758   2.043   7.842  0.3500  0.2122 -0.3328
 7115SOL    HW132804   3.708   2.027   7.762 -1.8335  1.4999  0.7672
 7115SOL    HW232805   3.787   1.956   7.869 -0.7878  0.5948  2.1356
 7116SOL     OW32806   0.408   1.021   8.372 -0.1963 -0.5698  0.6610
 7116SOL    HW132807   0.356   1.059   8.443 -1.5335  1.5395 -1.4398
 7116SOL    HW232808   0.381   1.081   8.302 -1.4056  0.0323  1.6250
 7117SOL     OW32809   4.631   0.548   2.460  0.6758  0.3884  0.0576
 7117SOL    HW132810   4.712   0.598   2.471  0.3045  1.0096  0.0144
 7117SOL    HW232811   4.622   0.550   2.365 -0.7451  0.2451  0.1882
 7118SOL     OW32812   4.503   1.654   3.099 -0.4513  0.5345  0.4328
 7118SOL    HW132813   4.423   1.610   3.128  0.9704 -0.5229  2.7572
 7118SOL    HW232814   4.512   1.623   3.009  0.4806 -0.0109  0.7126
 7119SOL     OW32815   4.636   4.586  17.288 -0.4483 -0.2223  0.0602
 7119SOL    HW132816   4.689   4.562  17.365  1.2417 -1.0600 -1.3644
 7119SOL    HW232817   4.564   4.524  17.292 -0.4287 -0.1815  1.0732
 7120SOL     OW32818   4.102   3.067   7.934 -0.0760 -0.3251  0.1538
 7120SOL    HW132819   4.084   3.038   7.845  1.1940  1.0946 -0.5771
 7120SOL    HW232820   4.118   3.160   7.918  1.5797 -0.3460  1.7010
 7121SOL     OW32821   1.709   4.231   6.913  0.0471 -0.0587 -0.0569
 7121SOL    HW132822   1.709   4.156   6.854  4.8038 -0.2196  0.1633
 7121SOL    HW232823   1.782   4.201   6.968 -0.8203 -1.3408  0.4038
 7122SOL     OW32824   1.019   2.535   3.754  0.1126  0.0393 -0.0414
 7122SOL    HW132825   1.031   2.526   3.659 -1.4782  1.5291 -0.3892
 7122SOL    HW232826   0.976   2.452   3.776 -1.4602  0.3850 -1.7772
 7123SOL     OW32827   0.522   3.839   7.949 -0.2887 -0.0934  0.2801
 7123SOL    HW132828   0.466   3.793   7.885  0.7035  0.2573 -0.8368
 7123SOL    HW232829   0.543   3.924   7.910 -0.0477 -0.6681 -0.8326
 7124SOL     OW32830   1.588   1.148   7.968  0.1006  0.4755 -0.2379
 7124SOL    HW132831   1.642   1.218   7.931  0.1558  0.4575 -0.1917
 7124SOL    HW232832   1.587   1.186   8.056 -0.9242 -2.1369  0.8883
 7125SOL     OW32833   4.654   4.509   5.430 -0.8108  0.1242  0.3018
 7125SOL    HW132834   4.612   4.582   5.475 -0.0844  1.3957 -1.0905
 7125SOL    HW232835   4.631   4.534   5.341  2.7921 -0.8054 -0.8697
 7126SOL     OW32836   4.482   1.935  12.734  0.0939 -0.4068 -0.8337
 7126SOL    HW132837   4.501   1.986  12.812 -1.5068  0.2214 -0.8545
 7126SOL    HW232838   4.516   1.994  12.667 -2.4493  0.0316 -1.7453
 7127SOL     OW32839   4.545   1.861   8.458 -0.2032  0.2437  0.2337
 7127SOL    HW132840   4.524   1.898   8.544 -1.0234  0.4829 -0.0694
 7127SOL    HW232841   4.459   1.841   8.421  1.1450 -1.3898 -2.0356
 7128SOL     OW32842   1.558   1.974   8.182  0.1769  0.0453  0.6067
 7128SOL    HW132843   1.546   1.935   8.268  1.8712 -2.1788 -0.1518
 7128SOL    HW232844   1.533   2.065   8.194 -2.2385 -0.7285  1.4323
 7129SOL     OW32845   1.898   0.904   6.950 -0.0079 -0.1470 -0.2558
 7129SOL    HW132846   1.837   0.892   6.877 -0.4173 -0.0655  0.0728
 7129SOL    HW232847   1.950   0.824   6.948 -0.9936 -0.8135  0.7800
 7130SOL     OW32848   0.442   2.648  10.038 -0.5221  0.0960 -0.2242
 7130SOL    HW132849   0.377   2.711  10.067 -0.8905 -0.1758 -0.4648
 7130SOL    HW232850   0.477   2.685   9.957  2.6507 -1.1282  0.5499
 7131SOL     OW32851   3.403   3.364   3.031  0.0863  0.2314 -0.7378
 7131SOL    HW132852   3.404   3.285   3.086  0.4543 -0.8135 -2.2234
 7131SOL    HW232853   3.309   3.378   3.024 -0.0254 -0.9100 -1.5399
 7132SOL     OW32854   0.097   0.818   5.922  0.4311  0.1391 -0.0303
 7132SOL    HW132855   0.082   0.883   5.991  0.9815 -0.4417  0.6406
 7132SOL    HW232856   0.018   0.765   5.933  0.8332 -0.5180 -0.3318
 7133SOL     OW32857   3.895   3.370  13.010 -0.1697 -0.1756 -0.2552
 7133SOL    HW132858   3.892   3.384  12.915 -4.1924  0.9947  0.0566
 7133SOL    HW232859   3.801   3.379  13.027  0.3234  1.6889  1.4926
 7134SOL     OW32860   4.321   4.354   6.617  0.5264  0.4370 -0.4926
 7134SOL    HW132861   4.264   4.289   6.576 -1.1569  1.2828  0.5031
 7134SOL    HW232862   4.391   4.297   6.649  0.0815  0.2507  0.1484
 7135SOL     OW32863   1.774   1.574   3.525  0.1406 -0.5287  0.0923
 7135SOL    HW132864   1.698   1.617   3.487  0.8647 -1.0637 -1.9835
 7135SOL    HW232865   1.778   1.610   3.613  3.5358 -0.3699 -0.1238
 7136SOL     OW32866   4.709   1.184  13.703 -0.1480  0.2660 -0.5359
 7136SOL    HW132867   4.618   1.197  13.730 -0.2987 -0.1848 -0.8213
 7136SOL    HW232868   0.003   1.278  13.707 -0.0806  0.3197 -2.3476
 7137SOL     OW32869   1.407   3.565   2.566  0.2452  0.1116  0.3307
 7137SOL    HW132870   1.444   3.570   2.654  1.0723  4.0231 -0.2240
 7137SOL    HW232871   1.467   3.627   2.524 -2.4057  0.4537 -2.9408
 7138SOL     OW32872   0.424   3.842   2.914 -0.2155 -0.4414  0.2828
 7138SOL    HW132873   0.366   3.915   2.933  0.5676 -0.5746  3.2034
 7138SOL    HW232874   0.504   3.893   2.905  0.0936 -0.8787  0.5481
 7139SOL     OW32875   0.170   4.403   7.877  0.6514  0.2532 -0.2485
 7139SOL    HW132876   0.208   4.470   7.934 -0.0245  0.4109  0.0155
 7139SOL    HW232877   0.075   4.416   7.882  0.4235 -1.4909 -0.1433
 7140SOL     OW32878   2.803   0.549  13.871 -0.1645  0.0932  0.0945
 7140SOL    HW132879   2.796   0.605  13.793 -1.3372  2.6807  2.0722
 7140SOL    HW232880   2.897   0.541  13.886  0.4474 -0.4281 -4.0172
 7141SOL     OW32881   1.476   0.486   1.913 -0.3846  0.5514  0.0739
 7141SOL    HW132882   1.422   0.442   1.847  0.5260 -1.1650  0.4562
 7141SOL    HW232883   1.566   0.465   1.889 -0.8049 -0.4887 -0.5680
 7142SOL     OW32884   0.522   2.533   0.943 -0.2680 -0.5744  0.0920
 7142SOL    HW132885   0.599   2.489   0.979  0.1803 -0.0298 -0.1987
 7142SOL    HW232886   0.466   2.540   1.020 -0.8612 -1.2985 -0.2722
 7143SOL     OW32887   3.932   1.683   5.703  0.3910 -0.2324 -0.0429
 7143SOL    HW132888   3.901   1.595   5.724 -3.6496  1.2169  0.2214
 7143SOL    HW232889   3.928   1.723   5.790 -1.0472 -0.0515 -0.1809
 7144SOL     OW32890   2.441   1.120  11.671  0.3707  0.6402 -0.3243
 7144SOL    HW132891   2.481   1.034  11.656 -3.6540 -0.9190 -2.0838
 7144SOL    HW232892   2.505   1.179  11.631 -0.8926  1.5456 -1.0092
 7145SOL     OW32893   1.932   2.345   7.251  0.6220  0.3870  1.0135
 7145SOL    HW132894   1.972   2.432   7.260  0.8490  0.4708 -0.7697
 7145SOL    HW232895   1.936   2.304   7.337  1.7586  0.1654  0.8540
 7146SOL     OW32896   0.930   1.148   8.834 -0.6844  0.2634 -0.1925
 7146SOL    HW132897   0.946   1.239   8.859  0.4619 -0.1444  0.5388
 7146SOL    HW232898   0.835   1.154   8.824 -1.0512 -2.1574  2.0341
 7147SOL     OW32899   0.118   4.511   4.846  0.8378  0.2855  0.2374
 7147SOL    HW132900   0.171   4.433   4.830  0.1949 -0.4033  1.4186
 7147SOL    HW232901   0.038   4.479   4.888  0.3300  0.6652 -0.4341
 7148SOL     OW32902   3.362   0.742  13.782 -0.0888 -0.4729  0.0323
 7148SOL    HW132903   3.314   0.712  13.706  2.0938 -0.1575 -1.4762
 7148SOL    HW232904   3.436   0.789  13.744 -0.8272  0.7424  0.0823
 7149SOL     OW32905   3.265   2.643   3.020 -0.0465  0.5861  0.1027
 7149SOL    HW132906   3.238   2.596   2.941  2.0509 -2.7611  1.3733
 7149SOL    HW232907   3.344   2.689   2.991  0.5713 -0.2832  0.4208
 7150SOL     OW32908   4.057   0.753   2.829 -0.0117 -0.6499 -0.2790
 7150SOL    HW132909   4.036   0.676   2.882  0.1033 -0.6596 -0.2474
 7150SOL    HW232910   4.077   0.703   2.751  3.0708  0.4325 -0.1969
 7151SOL     OW32911   2.544   4.260  13.158 -0.3416  0.0055  0.0686
 7151SOL    HW132912   2.568   4.168  13.146  0.7778  0.2719  0.2016
 7151SOL    HW232913   2.567   4.298  13.073 -2.0127  2.6993  0.8149
 7152SOL     OW32914   0.327   2.049   4.124  0.1251  0.4225  0.2100
 7152SOL    HW132915   0.266   2.003   4.066 -0.4288 -1.3484  2.2250
 7152SOL    HW232916   0.328   2.000   4.206  0.0700  0.3276  0.1543
 7153SOL     OW32917   0.703   1.577   3.012 -0.0093 -0.1718  0.0183
 7153SOL    HW132918   0.729   1.509   3.073 -0.3856  0.5827  1.0165
 7153SOL    HW232919   0.631   1.539   2.963  1.9072 -0.2487 -2.7589
 7154SOL     OW32920   2.651   2.239  17.368  0.9287 -0.0925  0.3327
 7154SOL    HW132921   2.695   2.223  17.285  1.7601 -1.4696  1.0225
 7154SOL    HW232922   2.628   2.332  17.367  0.1573 -0.3042 -1.7174
 7155SOL     OW32923   3.643   3.831   8.118 -0.4701  0.4117 -0.2824
 7155SOL    HW132924   3.736   3.836   8.143 -0.6506 -0.7983  0.5955
 7155SOL    HW232925   3.649   3.864   8.029  1.4418 -0.5917 -0.5360
 7156SOL     OW32926   2.523   0.875  12.289  0.0855 -0.2230 -0.0332
 7156SOL    HW132927   2.437   0.912  12.267  0.7424  0.4592 -1.4697
 7156SOL    HW232928   2.572   0.874  12.207 -0.2668  3.8501 -0.3025
 7157SOL     OW32929   3.538   1.043   5.463  0.5638  0.2620  0.2403
 7157SOL    HW132930   3.523   1.112   5.527 -0.3880  0.0564  0.2442
 7157SOL    HW232931   3.576   1.090   5.389 -0.1922  1.8868  0.8966
 7158SOL     OW32932   1.462   4.241   7.708  0.3468 -0.3241  0.1390
 7158SOL    HW132933   1.541   4.202   7.670  2.2940  2.5277  1.2670
 7158SOL    HW232934   1.406   4.239   7.630  1.3101  1.3432 -0.5821
 7159SOL     OW32935   1.507   3.420   8.171  0.8565 -0.1270  0.2565
 7159SOL    HW132936   1.419   3.400   8.205  0.3590 -0.5667 -1.3227
 7159SOL    HW232937   1.543   3.461   8.249  2.4604 -2.2241  0.6207
 7160SOL     OW32938   1.952   2.439  11.721 -0.0872 -0.2222  0.3866
 7160SOL    HW132939   1.945   2.366  11.659  0.2795  1.3658 -1.5090
 7160SOL    HW232940   1.908   2.505  11.667  0.3798 -0.6906 -0.5575
 7161SOL     OW32941   1.180   2.611  16.389 -0.1549 -0.3635 -0.2350
 7161SOL    HW132942   1.211   2.699  16.411 -1.5574 -0.2131  1.2226
 7161SOL    HW232943   1.248   2.558  16.430 -1.0572  0.2568  2.0955
 7162SOL     OW32944   1.801   0.280   1.481  0.5103  0.4421 -0.0585
 7162SOL    HW132945   1.712   0.309   1.461  0.4467 -0.0903 -0.5533
 7162SOL    HW232946   1.805   0.247   1.391  1.4159 -1.9120  0.8550
 7163SOL     OW32947   3.031   3.779  17.372  0.1238 -0.8702 -0.0379
 7163SOL    HW132948   2.965   3.825  17.319 -0.0459 -1.1053 -0.0303
 7163SOL    HW232949   3.084   3.733  17.307 -0.1080 -0.3724 -0.5825
 7164SOL     OW32950   4.485   1.687   2.401  0.4610  0.3504  0.1410
 7164SOL    HW132951   4.453   1.662   2.315 -0.4571  1.3659  0.1861
 7164SOL    HW232952   4.450   1.619   2.460 -1.5825  0.2107 -1.2315
 7165SOL     OW32953   3.161   2.976  17.347 -0.1169 -0.3418 -0.3944
 7165SOL    HW132954   3.071   2.997  17.373 -0.0078  0.9063 -1.0301
 7165SOL    HW232955   3.209   3.017  17.418 -1.2361  1.5844 -0.7465
 7166SOL     OW32956   1.376   4.409   0.684  0.1118 -0.3829  0.0834
 7166SOL    HW132957   1.416   4.322   0.692 -0.1981 -0.3986  1.4444
 7166SOL    HW232958   1.284   4.385   0.672 -0.1324  1.5484 -1.9080
 7167SOL     OW32959   1.052   2.607   0.906  0.2923 -0.2730 -0.4169
 7167SOL    HW132960   1.078   2.515   0.894  1.7615  0.3810 -2.3235
 7167SOL    HW232961   0.958   2.598   0.890  0.0509 -0.5526  1.1242
 7168SOL     OW32962   4.141   1.040   2.330  0.1697 -0.7165  0.2706
 7168SOL    HW132963   4.138   1.114   2.269  0.3229 -1.4905 -0.6826
 7168SOL    HW232964   4.234   1.016   2.333  0.7366  1.2021 -1.7285
 7169SOL     OW32965   2.811   4.087   7.121  0.3764 -0.0620 -0.3633
 7169SOL    HW132966   2.843   4.142   7.050  1.3038  0.3333  0.3610
 7169SOL    HW232967   2.878   4.113   7.184  0.6297  0.1366 -0.7119
 7170SOL     OW32968   3.051   1.497   0.156 -0.4853 -0.0908 -0.1923
 7170SOL    HW132969   2.964   1.467   0.182 -0.0131 -2.7596 -1.7806
 7170SOL    HW232970   3.080   1.554   0.228  0.0059 -0.6166  0.0266
 7171SOL     OW32971   4.644   2.939   8.073  0.1699  0.0124 -0.1844
 7171SOL    HW132972   0.009   2.961   8.106  0.7674 -0.6016 -1.3317
 7171SOL    HW232973   4.591   3.007   8.114 -1.4634 -1.4749  0.1770
 7172SOL     OW32974   3.331   4.657  11.549 -0.3879  0.6352  0.2328
 7172SOL    HW132975   3.262   4.641  11.484 -0.5046 -1.3606  0.8283
 7172SOL    HW232976   3.388   4.719  11.504 -0.1305 -0.4728 -0.9998
 7173SOL     OW32977   0.319   3.743   3.193  0.4008 -0.7687  0.2047
 7173SOL    HW132978   0.373   3.813   3.232  0.1637 -0.0337 -0.7752
 7173SOL    HW232979   0.321   3.757   3.099 -2.1555 -0.5072  0.1829
 7174SOL     OW32980   0.322   2.389  16.484 -0.0969 -0.4471 -0.3271
 7174SOL    HW132981   0.260   2.318  16.502 -0.7741 -0.0910 -1.2268
 7174SOL    HW232982   0.406   2.346  16.496  0.2257  1.0629  2.9290
 7175SOL     OW32983   2.335   2.385   3.838  0.0613 -0.9176 -0.2594
 7175SOL    HW132984   2.273   2.332   3.888 -0.5733 -0.1706 -0.2485
 7175SOL    HW232985   2.417   2.365   3.883 -0.9651  1.6136  2.6646
 7176SOL     OW32986   4.207   2.677  16.376 -0.2240  0.0343  0.1750
 7176SOL    HW132987   4.133   2.661  16.318 -1.3897 -1.4687  2.0863
 7176SOL    HW232988   4.169   2.637  16.454  1.0972 -2.0895 -0.2726
 7177SOL     OW32989   1.742   2.907   1.616 -0.3197 -0.1988  0.1848
 7177SOL    HW132990   1.781   2.953   1.541  0.7524  0.4382  1.1262
 7177SOL    HW232991   1.654   2.941   1.601 -1.2229 -2.4516  0.4683
 7178SOL     OW32992   4.704   0.982   9.764 -0.0510 -0.7754 -0.4210
 7178SOL    HW132993   4.696   0.971   9.670  1.1325 -2.0664 -0.3630
 7178SOL    HW232994   0.038   0.911   9.793  1.7385  0.0664 -1.8942
 7179SOL     OW32995   3.211   1.419   4.702 -0.5880  0.4580  0.2704
 7179SOL    HW132996   3.177   1.461   4.781 -3.5086  0.7594 -1.1595
 7179SOL    HW232997   3.294   1.466   4.693  1.2328 -2.5111  1.1649
 7180SOL     OW32998   0.180   2.083  14.983 -0.2365  0.4320  0.3731
 7180SOL    HW132999   0.245   2.140  15.023 -1.1355  2.0351 -0.4316
 7180SOL    HW233000   0.101   2.132  15.007  0.3990  0.6065  2.0615
 7181SOL     OW33001   2.296   1.405   2.162 -0.2820  0.3472 -0.0376
 7181SOL    HW133002   2.305   1.351   2.083 -0.4095 -0.0837  0.2425
 7181SOL    HW233003   2.317   1.342   2.231 -0.0462  1.7002  1.1228
 7182SOL     OW33004   0.119   3.452  13.894 -0.2575 -0.2964  0.5865
 7182SOL    HW133005   0.084   3.388  13.831 -0.0367  3.5735 -3.4788
 7182SOL    HW233006   0.206   3.478  13.863 -0.6137  1.0350  0.6762
 7183SOL     OW33007   4.622   2.913   3.325  0.1819 -0.3795 -0.6664
 7183SOL    HW133008   4.710   2.906   3.288  0.0870  2.5823 -1.4794
 7183SOL    HW233009   4.594   2.823   3.337 -1.9749  0.5930  1.6894
 7184SOL     OW33010   3.659   3.500   2.629  0.1492  0.0933  0.6265
 7184SOL    HW133011   3.647   3.508   2.723 -2.1371 -0.4486  0.3812
 7184SOL    HW233012   3.683   3.588   2.601 -2.0749  0.5850  0.2668
 7185SOL     OW33013   1.472   2.356   6.769 -0.1623 -0.9339 -0.7801
 7185SOL    HW133014   1.467   2.341   6.674 -0.8913 -0.6509 -0.7881
 7185SOL    HW233015   1.507   2.279   6.814 -1.0555 -0.5266  0.6166
 7186SOL     OW33016   0.453   3.920   2.384 -0.0979 -0.5284 -1.0157
 7186SOL    HW133017   0.476   3.909   2.291 -0.5108 -1.9378 -0.9499
 7186SOL    HW233018   0.408   4.003   2.365  0.7526  0.3724  0.9101
 7187SOL     OW33019   0.633   2.508   8.908  0.4263  0.2809  0.4384
 7187SOL    HW133020   0.549   2.546   8.886  1.2954  1.6301 -0.5721
 7187SOL    HW233021   0.686   2.584   8.886 -1.3163  1.2511 -0.3279
 7188SOL     OW33022   0.730   4.034   6.570 -0.0716 -0.0920 -0.6584
 7188SOL    HW133023   0.708   4.116   6.614  0.9482  0.4917 -1.2567
 7188SOL    HW233024   0.735   4.061   6.479 -0.1644  0.1472 -0.5942
 7189SOL     OW33025   4.555   2.059  10.856 -0.2906 -0.3675 -0.3928
 7189SOL    HW133026   4.472   2.018  10.830 -0.2129 -0.6136 -0.2583
 7189SOL    HW233027   4.602   2.075  10.774  1.4124 -2.6982  0.1402
 7190SOL     OW33028   0.935   0.845   7.547 -0.2532 -0.1766  0.5003
 7190SOL    HW133029   1.013   0.802   7.583 -0.9848 -2.1087 -0.1787
 7190SOL    HW233030   0.894   0.877   7.627 -1.9599  0.4929 -0.6450
 7191SOL     OW33031   3.137   0.852   2.442  0.4738  0.4114 -0.0808
 7191SOL    HW133032   3.172   0.894   2.521  1.3317  0.8307 -0.6736
 7191SOL    HW233033   3.074   0.788   2.475  1.8762 -0.5721  0.7166
 7192SOL     OW33034   3.166   4.314  15.532  0.6888 -0.0945  0.2216
 7192SOL    HW133035   3.104   4.257  15.579  3.0305 -1.0262  2.1621
 7192SOL    HW233036   3.199   4.256  15.463  0.2398 -0.7600  0.5626
 7193SOL     OW33037   2.284   1.010   6.356  0.4284 -0.1870 -0.2626
 7193SOL    HW133038   2.291   1.066   6.434 -0.0683 -0.7577  0.1891
 7193SOL    HW233039   2.361   1.039   6.308 -0.0298  1.5133  0.0063
 7194SOL     OW33040   4.484   4.186   2.407  0.4496 -0.2755  0.4520
 7194SOL    HW133041   4.462   4.110   2.354  0.7025 -0.5868  0.7869
 7194SOL    HW233042   4.580   4.179   2.409  0.5513  0.7164 -1.6297
 7195SOL     OW33043   0.354   2.905   2.142 -0.6578  0.6114  0.2843
 7195SOL    HW133044   0.350   2.920   2.236  1.4519 -1.3303  0.6643
 7195SOL    HW233045   0.410   2.981   2.123  0.3868 -0.7559 -2.1034
 7196SOL     OW33046   3.854   0.818   3.377 -0.4196  0.4772 -0.1440
 7196SOL    HW133047   3.941   0.844   3.408 -0.5407  1.1749 -0.3851
 7196SOL    HW233048   3.868   0.728   3.347  0.0801  1.1549 -1.9414
 7197SOL     OW33049   2.797   3.008   3.090  1.0533  0.0306  0.6466
 7197SOL    HW133050   2.858   2.966   3.150 -0.4137 -2.3918  0.4022
 7197SOL    HW233051   2.821   2.940   3.027 -1.7586  0.2504 -0.6437
 7198SOL     OW33052   0.417   2.007  13.625  0.5392 -0.4712 -0.6136
 7198SOL    HW133053   0.480   2.079  13.624 -0.5196  0.4237 -1.9414
 7198SOL    HW233054   0.430   1.980  13.534  1.6522  0.1502 -0.6446
 7199SOL     OW33055   0.573   0.090   7.992 -0.2047 -0.4136 -0.1021
 7199SOL    HW133056   0.663   0.102   8.024 -0.4095 -1.6944  0.9298
 7199SOL    HW233057   0.541   0.034   8.062 -2.5586  0.4687 -0.4809
 7200SOL     OW33058   0.282   1.351  14.232  0.0788 -0.2198  0.2601
 7200SOL    HW133059   0.287   1.445  14.215 -0.0428  0.0414  1.6603
 7200SOL    HW233060   0.349   1.348  14.301 -2.7678 -0.0882  3.0304
 7201SOL     OW33061   1.932   1.487  10.995 -0.1717  0.1978  0.2680
 7201SOL    HW133062   1.974   1.439  10.923 -0.0784 -2.9090  2.4151
 7201SOL    HW233063   1.952   1.573  10.959 -1.8035  0.7653  0.7285
 7202SOL     OW33064   4.682   0.074   5.537  0.4578  0.1908 -0.4392
 7202SOL    HW133065   4.629   0.034   5.468 -1.3800  1.6779  0.0993
 7202SOL    HW233066   0.044   0.097   5.496  0.4481  1.6892  0.3544
 7203SOL     OW33067   2.448   3.653   1.137  0.0757  0.3605  0.7737
 7203SOL    HW133068   2.363   3.639   1.096  1.0126 -0.4721 -0.8990
 7203SOL    HW233069   2.494   3.703   1.070  1.0662  0.4588  1.5207
 7204SOL     OW33070   0.352   3.049   9.155  0.4526 -0.2856 -0.5393
 7204SOL    HW133071   0.425   3.076   9.099 -1.2064  2.6648 -1.2786
 7204SOL    HW233072   0.395   3.090   9.229  2.2842  1.4941 -2.5944
 7205SOL     OW33073   3.926   2.252  12.386  0.3561  0.2432  0.3359
 7205SOL    HW133074   3.847   2.200  12.399  1.2100 -0.4354  2.6962
 7205SOL    HW233075   3.895   2.342  12.374  1.0543  0.5382  0.7638
 7206SOL     OW33076   0.700   2.010  13.242  0.1501  0.0039 -0.2390
 7206SOL    HW133077   0.736   1.922  13.252 -0.9526 -0.0190  3.2768
 7206SOL    HW233078   0.785   2.055  13.249 -1.3097  2.2546  2.7546
 7207SOL     OW33079   3.496   3.217   4.848 -0.5492 -0.4735 -0.8152
 7207SOL    HW133080   3.520   3.309   4.838 -0.5157 -0.1586  2.4617
 7207SOL    HW233081   3.482   3.182   4.759  1.4047 -0.3579 -1.1684
 7208SOL     OW33082   1.980   3.608   0.780  0.3119 -0.1134  0.0632
 7208SOL    HW133083   2.056   3.664   0.794 -1.3367  2.1338  0.0165
 7208SOL    HW233084   1.997   3.566   0.695  0.6315 -0.0328  0.0849
 7209SOL     OW33085   2.457   3.582   5.850  0.1155 -0.0688  0.2647
 7209SOL    HW133086   2.525   3.614   5.909  0.0656 -0.9621  0.8052
 7209SOL    HW233087   2.400   3.528   5.905  1.1301 -2.8926 -1.4451
 7210SOL     OW33088   0.088   3.078  12.788  0.2568  0.5456 -0.3404
 7210SOL    HW133089   0.109   3.027  12.710  0.4057  0.0641  0.0168
 7210SOL    HW233090   0.174   3.102  12.822  0.4654  1.8169 -1.7977
 7211SOL     OW33091   4.466   4.431   2.220 -0.1269 -0.3688 -0.8309
 7211SOL    HW133092   4.497   4.358   2.168  0.8844 -1.9725  2.0200
 7211SOL    HW233093   4.440   4.376   2.293 -0.4948  0.5444 -0.2697
 7212SOL     OW33094   3.527   3.717   4.995  0.3114  0.0422 -0.0738
 7212SOL    HW133095   3.481   3.764   4.926  1.2067  0.9471 -0.0572
 7212SOL    HW233096   3.471   3.746   5.067  0.2451  1.8994 -0.8810
 7213SOL     OW33097   0.364   0.413   9.085  0.2892 -0.0135  0.4577
 7213SOL    HW133098   0.434   0.394   9.023  0.4953  4.1754 -0.6323
 7213SOL    HW233099   0.413   0.458   9.154  1.6904 -2.9003  1.3228
 7214SOL     OW33100   3.935   0.015  10.889  0.1325 -0.3802  0.4927
 7214SOL    HW133101   3.899   0.096  10.852 -2.4653 -1.2008  1.2821
 7214SOL    HW233102   3.971   0.055  10.968  1.9803 -1.5634  0.2679
 7215SOL     OW33103   2.160   0.337   3.359 -0.1104  0.2470  0.0267
 7215SOL    HW133104   2.154   0.241   3.355 -2.0528  0.3932 -0.6313
 7215SOL    HW233105   2.144   0.356   3.266  1.7481 -1.0625 -0.5556
 7216SOL     OW33106   3.140   2.213   3.457  0.1509  0.1124 -0.2962
 7216SOL    HW133107   3.123   2.293   3.507 -0.5910  0.4752 -1.1330
 7216SOL    HW233108   3.071   2.222   3.391  0.0005 -0.2151 -0.1861
 7217SOL     OW33109   1.207   0.710  12.972  0.0439  0.1636 -0.7448
 7217SOL    HW133110   1.197   0.716  13.067  1.0914 -0.9183 -0.5736
 7217SOL    HW233111   1.302   0.708  12.963  0.1023  0.3173 -0.1075
 7218SOL     OW33112   3.305   3.182   3.201  0.1570  0.4970  0.1635
 7218SOL    HW133113   3.267   3.111   3.149 -0.3968 -0.1581  1.4436
 7218SOL    HW233114   3.338   3.131   3.275  0.0497  0.6314  0.3034
 7219SOL     OW33115   2.902   0.452   4.093 -0.2231  0.1734  0.2845
 7219SOL    HW133116   2.940   0.429   4.008 -0.2550  3.0385 -0.4830
 7219SOL    HW233117   2.832   0.388   4.103  1.2149 -1.4525 -0.0112
 7220SOL     OW33118   4.107   0.187   4.177  0.3847 -0.5786  0.0976
 7220SOL    HW133119   4.167   0.241   4.229  0.9404 -2.1519  1.1037
 7220SOL    HW233120   4.169   0.133   4.128 -0.1234 -1.7733  0.7581
 7221SOL     OW33121   3.463   3.193   4.582 -0.4099 -0.0050 -0.5234
 7221SOL    HW133122   3.540   3.241   4.550  0.1566  0.2603  1.2320
 7221SOL    HW233123   3.392   3.240   4.540  0.3860  0.1245 -1.7404
 7222SOL     OW33124   4.137   1.003  13.076 -0.7178  0.2827 -0.4776
 7222SOL    HW133125   4.084   0.923  13.080 -3.5765  2.1738 -0.7712
 7222SOL    HW233126   4.135   1.039  13.164 -1.1128  0.1233 -0.4210
 7223SOL     OW33127   2.915   0.976   5.930 -0.3739  0.1667 -0.2645
 7223SOL    HW133128   2.959   1.001   5.849  0.1445 -0.1248 -0.0722
 7223SOL    HW233129   2.838   0.930   5.896  0.1119 -1.0347  0.2514
 7224SOL     OW33130   4.395   1.357   3.362 -0.0946  0.3215  0.5984
 7224SOL    HW133131   4.361   1.403   3.286  2.0984 -0.6426 -0.9865
 7224SOL    HW233132   4.372   1.418   3.433  0.0089 -0.3572  1.2195
 7225SOL     OW33133   1.326   3.922   3.915 -0.0414 -0.1721  0.1368
 7225SOL    HW133134   1.239   3.958   3.933  0.7568  1.9079 -0.0953
 7225SOL    HW233135   1.374   3.986   3.968 -0.7509 -1.1031  1.8971
 7226SOL     OW33136   0.197   3.693   4.279 -0.7330 -0.0195  0.3730
 7226SOL    HW133137   0.262   3.757   4.309 -0.2189 -0.1217 -0.4965
 7226SOL    HW233138   0.177   3.645   4.359 -2.0999  0.8082  0.5209
 7227SOL     OW33139   2.530   3.979   9.518  0.6487  0.6487 -0.0068
 7227SOL    HW133140   2.549   3.887   9.503  0.9338  0.3517  2.1577
 7227SOL    HW233141   2.434   3.971   9.514  0.7172  0.9575 -2.1405
 7228SOL     OW33142   2.020   4.229   2.354 -0.3417 -0.0663 -0.0413
 7228SOL    HW133143   2.002   4.138   2.378  0.7526 -0.8642 -2.2295
 7228SOL    HW233144   1.951   4.274   2.403  0.1082 -1.8627  2.2319
 7229SOL     OW33145   0.152   2.229  15.686  0.5240  0.5067  0.2087
 7229SOL    HW133146   0.178   2.158  15.745  2.1784 -0.7985 -2.0668
 7229SOL    HW233147   0.243   2.257  15.675 -0.0572  1.7506 -1.4483
 7230SOL     OW33148   0.373   2.320   7.760  0.1401  0.2907  0.3467
 7230SOL    HW133149   0.322   2.259   7.708  2.8838 -1.8423  0.1471
 7230SOL    HW233150   0.407   2.266   7.832 -0.8293  0.1512  0.6956
 7231SOL     OW33151   2.420   2.567  15.286  0.0106 -0.3269  0.2293
 7231SOL    HW133152   2.378   2.609  15.361  2.3790  2.5833 -0.0583
 7231SOL    HW233153   2.359   2.602  15.220  0.2434 -2.5437 -1.1569
 7232SOL     OW33154   0.742   0.145  10.626 -0.2402 -1.0898 -0.1599
 7232SOL    HW133155   0.817   0.135  10.685  1.0379 -1.5491 -1.8752
 7232SOL    HW233156   0.683   0.086  10.673 -0.7215  0.2033  0.8513
 7233SOL     OW33157   2.664   0.861   2.544  0.3474  0.3703 -0.4903
 7233SOL    HW133158   2.743   0.884   2.594 -1.4493  0.6922  2.1901
 7233SOL    HW233159   2.697   0.817   2.466 -2.2805  0.5432 -1.6880
 7234SOL     OW33160   3.713   0.238  10.900  0.1484  0.4342 -0.1775
 7234SOL    HW133161   3.689   0.330  10.894 -0.8751  0.0175 -2.5627
 7234SOL    HW233162   3.771   0.224  10.825  2.0763  3.1211  0.8045
 7235SOL     OW33163   4.099   0.863  12.750  0.4715 -0.2695 -0.0338
 7235SOL    HW133164   4.185   0.821  12.741 -0.5840 -2.6261  1.0117
 7235SOL    HW233165   4.045   0.809  12.807 -0.1471 -0.4633 -0.7985
 7236SOL     OW33166   3.363   1.368  11.832 -0.2254 -0.7654 -0.2405
 7236SOL    HW133167   3.387   1.435  11.895 -0.2101 -1.4361  0.4580
 7236SOL    HW233168   3.403   1.298  11.883  1.6813  0.2964 -0.2585
 7237SOL     OW33169   0.075   4.652   7.048 -0.1270  0.4935 -0.1373
 7237SOL    HW133170   0.033   0.008   7.083  1.0860  1.1729 -0.2077
 7237SOL    HW233171   0.167   4.677   7.050 -0.8316  3.1035  0.1013
 7238SOL     OW33172   2.627   1.616   0.071 -0.2296 -0.4051 -0.2207
 7238SOL    HW133173   2.692   1.587   0.007  0.2256  0.7139 -0.2520
 7238SOL    HW233174   2.622   1.711   0.076 -0.5373 -0.4958  1.4363
 7239SOL     OW33175   1.934   1.070   7.785 -0.5073  0.2202 -0.6738
 7239SOL    HW133176   1.959   1.092   7.875 -1.1613  0.1036 -0.4596
 7239SOL    HW233177   1.962   0.979   7.796 -1.7116 -0.1734 -0.8369
 7240SOL     OW33178   1.186   0.144   3.022  0.4370 -0.1496  0.3591
 7240SOL    HW133179   1.097   0.119   3.045 -0.4929  2.4816 -0.3553
 7240SOL    HW233180   1.176   0.160   2.928  3.3546  1.4283  0.2931
 7241SOL     OW33181   2.530   0.123   9.174 -1.4348  0.3060 -0.5233
 7241SOL    HW133182   2.536   0.051   9.111  0.3874 -0.2549  0.3145
 7241SOL    HW233183   2.439   0.111   9.204 -1.3683 -0.6182 -0.6651
 7242SOL     OW33184   0.371   0.339   6.117  0.2514  0.5755 -0.2207
 7242SOL    HW133185   0.388   0.380   6.032 -1.2842  2.5720  0.4240
 7242SOL    HW233186   0.342   0.251   6.096 -0.9832  0.3948  2.2026
 7243SOL     OW33187   2.546   1.431  12.056  0.1797  0.1608  0.1483
 7243SOL    HW133188   2.553   1.425  11.961  2.4321 -2.1126  0.4995
 7243SOL    HW233189   2.588   1.349  12.080  2.3255  0.5868 -2.1204
 7244SOL     OW33190   2.772   3.882  14.682  0.3014 -0.3565 -0.4868
 7244SOL    HW133191   2.831   3.928  14.742  1.0293  0.2933 -1.6981
 7244SOL    HW233192   2.791   3.936  14.606  1.0006  1.2803  0.8568
 7245SOL     OW33193   1.921   1.322  10.651  0.0625  0.0803 -0.3860
 7245SOL    HW133194   1.948   1.367  10.571 -3.7031  0.0418 -1.6973
 7245SOL    HW233195   1.830   1.294  10.638 -1.0521  4.5023 -2.0955
 7246SOL     OW33196   2.787   1.618   6.345 -0.3348 -0.2080  0.0343
 7246SOL    HW133197   2.713   1.676   6.333  0.1277  0.4880  0.5555
 7246SOL    HW233198   2.846   1.682   6.385  0.4652  0.3674 -2.1053
 7247SOL     OW33199   1.400   2.214   1.499  0.0471 -0.3409 -0.1069
 7247SOL    HW133200   1.310   2.182   1.505 -0.3691  0.8885  0.2262
 7247SOL    HW233201   1.417   2.180   1.412  2.7153  0.5960  0.0636
 7248SOL     OW33202   0.642   3.399   0.305  0.0100  0.1183 -0.1032
 7248SOL    HW133203   0.727   3.371   0.270  0.7919 -0.7902  2.5382
 7248SOL    HW233204   0.622   3.480   0.259  1.2646  0.4312 -0.1048
 7249SOL     OW33205   1.827   3.128   1.790  0.4015  0.8794  0.3219
 7249SOL    HW133206   1.881   3.189   1.739 -0.5116  1.8309  0.4731
 7249SOL    HW233207   1.832   3.056   1.728  2.0068 -1.5969  3.3720
 7250SOL     OW33208   1.018   3.552   8.321  0.1567 -0.3686 -0.3679
 7250SOL    HW133209   1.066   3.499   8.384 -0.4233 -0.1497  0.2616
 7250SOL    HW233210   1.080   3.599   8.264  0.1794 -1.1318 -0.9688
 7251SOL     OW33211   2.559   2.997  16.138 -0.2958 -0.2183 -0.2149
 7251SOL    HW133212   2.623   2.984  16.208 -0.2941 -1.0105 -0.3675
 7251SOL    HW233213   2.480   3.021  16.186  0.4562  0.2576  0.7915
 7252SOL     OW33214   4.091   4.164  11.043  0.2072 -0.4585  0.4845
 7252SOL    HW133215   4.141   4.162  11.124  0.0193  2.3352  0.6421
 7252SOL    HW233216   4.048   4.079  11.057 -0.3847 -0.3187 -0.4548
 7253SOL     OW33217   0.396   4.053  12.280  0.0754  0.5021  0.1366
 7253SOL    HW133218   0.398   4.148  12.263  0.1196  0.4416 -0.2042
 7253SOL    HW233219   0.375   4.022  12.192  0.1507 -1.2587  0.7447
 7254SOL     OW33220   1.949   1.299   2.833 -0.0567 -0.0196  0.2583
 7254SOL    HW133221   1.999   1.261   2.761 -2.2150  0.9797 -1.7584
 7254SOL    HW233222   1.985   1.258   2.912 -1.7259 -0.5619  0.7544
 7255SOL     OW33223   1.089   0.899  10.822 -0.3642  0.4009  0.1290
 7255SOL    HW133224   1.165   0.901  10.879 -0.1270 -1.0113 -0.1509
 7255SOL    HW233225   1.016   0.912  10.883  0.5482 -0.1784  1.3407
 7256SOL     OW33226   1.876   1.952   7.760 -0.0659 -0.3071 -0.1517
 7256SOL    HW133227   1.812   1.934   7.829 -1.0882  1.0120 -0.7629
 7256SOL    HW233228   1.827   2.001   7.694  1.6199  1.6737  0.0900
 7257SOL     OW33229   3.869   2.746   5.927 -0.0641  0.2166 -0.0560
 7257SOL    HW133230   3.858   2.658   5.890 -3.5086  1.2633 -1.5698
 7257SOL    HW233231   3.804   2.756   5.996 -0.3100  0.0449 -0.2607
 7258SOL     OW33232   1.679   4.188   5.096 -0.5409 -0.9124 -0.4455
 7258SOL    HW133233   1.680   4.092   5.089 -0.2147 -0.8254 -1.5733
 7258SOL    HW233234   1.701   4.196   5.188  1.9434  0.0166 -1.1076
 7259SOL     OW33235   0.675   3.876   4.438 -0.3896 -0.1672 -0.2314
 7259SOL    HW133236   0.754   3.844   4.395 -0.4500 -1.2330  0.4415
 7259SOL    HW233237   0.704   3.922   4.517  0.1167  3.3171 -2.4813
 7260SOL     OW33238   3.626   0.606   5.810  0.0911  0.0364 -0.1948
 7260SOL    HW133239   3.543   0.578   5.772 -2.1071  2.6731  2.6614
 7260SOL    HW233240   3.601   0.687   5.855 -0.7782  0.3642 -1.2773
 7261SOL     OW33241   3.926   3.361   5.750  0.2129 -0.0621  0.4753
 7261SOL    HW133242   3.992   3.363   5.819  0.7471 -1.6234  0.0005
 7261SOL    HW233243   3.842   3.388   5.787  1.0935  3.6279 -0.1967
 7262SOL     OW33244   2.516   3.308   4.307 -0.2804 -0.1243 -0.3420
 7262SOL    HW133245   2.545   3.312   4.216 -2.7712  0.9416 -1.1120
 7262SOL    HW233246   2.517   3.213   4.319  0.0851 -0.2809 -1.5408
 7263SOL     OW33247   2.733   3.828   8.793 -0.5368  0.0309  0.0169
 7263SOL    HW133248   2.737   3.852   8.886 -0.9660  1.5723 -0.3675
 7263SOL    HW233249   2.828   3.815   8.785 -0.7801 -1.3381 -0.6958
 7264SOL     OW33250   1.462   2.805   4.211  0.3779 -0.3730  0.1061
 7264SOL    HW133251   1.529   2.870   4.191  1.9960 -1.4322  1.9849
 7264SOL    HW233252   1.447   2.771   4.123 -3.2667  0.6000  0.3783
 7265SOL     OW33253   3.997   4.175   2.453 -0.2842 -0.2239  0.7229
 7265SOL    HW133254   3.938   4.187   2.378  0.5521  1.4827  0.3435
 7265SOL    HW233255   4.054   4.106   2.419  1.8049  1.5698  0.5750
 7266SOL     OW33256   0.847   1.349   2.303 -0.5867 -0.0729  0.2810
 7266SOL    HW133257   0.855   1.444   2.312  4.1280 -0.5322  0.9616
 7266SOL    HW233258   0.800   1.317   2.381 -0.9328  1.7081  0.8086
 7267SOL     OW33259   1.440   1.417  14.945  0.6145  0.0160  0.0779
 7267SOL    HW133260   1.451   1.328  14.913 -0.7444  0.0719 -0.5034
 7267SOL    HW233261   1.472   1.474  14.875 -0.0545 -2.8198 -2.5083
 7268SOL     OW33262   2.437   2.897   8.379  0.1160 -0.3504  0.2208
 7268SOL    HW133263   2.501   2.884   8.449 -1.0873  0.9314  1.5779
 7268SOL    HW233264   2.364   2.854   8.424 -0.9581 -0.8409 -1.9976
 7269SOL     OW33265   2.968   0.370   8.483  0.0596 -0.0656 -0.4277
 7269SOL    HW133266   2.920   0.288   8.480 -0.9055  0.4558  0.8673
 7269SOL    HW233267   2.900   0.429   8.517  1.4986  1.1074  0.4453
 7270SOL     OW33268   4.021   4.716   6.199 -0.4591 -0.2602 -0.0973
 7270SOL    HW133269   3.969   4.677   6.128 -1.0614 -1.5944  1.0631
 7270SOL    HW233270   4.104   4.672   6.181 -1.2602 -2.3772  1.3312
 7271SOL     OW33271   4.487   2.037   3.881  0.2174  0.3458 -0.4858
 7271SOL    HW133272   4.549   1.987   3.828 -0.1996 -1.3298  0.6009
 7271SOL    HW233273   4.535   2.034   3.964  0.5228 -0.6698 -0.6934
 7272SOL     OW33274   1.871   1.183   9.665  0.3287 -0.6869 -0.2487
 7272SOL    HW133275   1.928   1.237   9.610 -1.2690  2.2412  0.9931
 7272SOL    HW233276   1.785   1.221   9.646  0.2903  0.3841  2.0151
 7273SOL     OW33277   3.777   2.290   8.204  0.0317  0.3703  0.3080
 7273SOL    HW133278   3.734   2.254   8.281 -1.3247 -0.4278 -0.8403
 7273SOL    HW233279   3.851   2.230   8.202  0.8521  1.4113 -1.0000
 7274SOL     OW33280   2.650   1.866  15.937  0.3136 -0.2320  0.2414
 7274SOL    HW133281   2.645   1.857  16.033 -1.7381 -1.0951  0.0694
 7274SOL    HW233282   2.607   1.951  15.929  0.0457 -0.6340 -2.4061
 7275SOL     OW33283   1.055   0.349   6.925 -0.1722  0.2179 -0.4629
 7275SOL    HW133284   1.138   0.380   6.888  0.0028  1.1949  0.7319
 7275SOL    HW233285   1.082   0.336   7.016 -0.6314 -3.9523 -0.9545
 7276SOL     OW33286   2.027   2.008   5.117 -0.6013  0.6656  0.3552
 7276SOL    HW133287   2.059   1.987   5.205  0.4790 -0.1561 -0.2360
 7276SOL    HW233288   1.943   2.049   5.139 -1.4594  0.0919 -1.7910
 7277SOL     OW33289   2.009   4.695  14.584  0.1978  0.3409 -0.1480
 7277SOL    HW133290   2.006   4.602  14.609 -0.9933  0.1301 -1.0552
 7277SOL    HW233291   2.082   4.692  14.522  0.4319 -1.2418  0.2067
 7278SOL     OW33292   1.347   2.005   7.589 -0.1281  0.3062  0.3029
 7278SOL    HW133293   1.404   2.081   7.592  0.4172 -0.1330  1.4457
 7278SOL    HW233294   1.407   1.931   7.581  0.2644  0.6082  0.4642
 7279SOL     OW33295   0.838   2.671   2.332  0.5039 -0.2030 -0.4494
 7279SOL    HW133296   0.903   2.681   2.402 -0.1931 -1.0354  0.3268
 7279SOL    HW233297   0.784   2.746   2.358  1.5816  0.6165 -0.6039
 7280SOL     OW33298   3.449   0.127   6.871 -0.0157  0.2698  0.6414
 7280SOL    HW133299   3.532   0.113   6.825 -0.5919 -1.1224  0.0163
 7280SOL    HW233300   3.445   0.221   6.858 -2.3993  0.0617 -0.1691
 7281SOL     OW33301   1.369   2.263   5.301 -0.0006  0.3334  0.1488
 7281SOL    HW133302   1.441   2.321   5.328 -1.6702  1.0950  3.0482
 7281SOL    HW233303   1.333   2.304   5.222 -1.1299 -2.3223 -0.6990
 7282SOL     OW33304   2.727   3.576   9.305  0.9955  0.3655  0.4169
 7282SOL    HW133305   2.799   3.540   9.357  0.8573  1.1706  1.1599
 7282SOL    HW233306   2.696   3.646   9.362 -0.4962  0.8910 -1.0409
 7283SOL     OW33307   0.031   4.592   0.069  0.1452 -0.3289  0.0758
 7283SOL    HW133308   0.098   4.655   0.094  1.4049 -1.3458 -0.7878
 7283SOL    HW233309   4.697   4.606   0.145  1.6118 -1.8351  1.4163
 7284SOL     OW33310   4.007   2.865   7.714 -0.4653 -0.5310 -0.1225
 7284SOL    HW133311   3.975   2.819   7.792 -0.7233  1.2181  0.7974
 7284SOL    HW233312   3.934   2.905   7.667  0.4205  1.2972  0.0547
 7285SOL     OW33313   0.320   1.650   5.511 -0.2242 -0.0087  0.3037
 7285SOL    HW133314   0.345   1.559   5.523 -0.2256  0.1033  1.1386
 7285SOL    HW233315   0.270   1.644   5.429  0.0091  3.3856 -0.1224
 7286SOL     OW33316   3.393   3.675   2.522  0.5156  0.1386  0.1640
 7286SOL    HW133317   3.357   3.610   2.582  1.7226 -1.8865 -1.3555
 7286SOL    HW233318   3.477   3.646   2.488  0.8339  0.7654  0.4013
 7287SOL     OW33319   0.350   0.806  13.802 -0.4580 -0.2141  0.8670
 7287SOL    HW133320   0.429   0.752  13.810 -0.7354 -1.0196 -1.8516
 7287SOL    HW233321   0.300   0.786  13.881 -2.3126 -1.4021 -0.6280
 7288SOL     OW33322   2.617   0.095   8.835 -0.3368  0.2605  0.4669
 7288SOL    HW133323   2.673   0.021   8.860  0.1519  1.0401  1.6714
 7288SOL    HW233324   2.663   0.169   8.874 -0.1846 -0.4502  1.6335
 7289SOL     OW33325   4.034   1.880   4.436 -0.1481 -0.4988  0.1449
 7289SOL    HW133326   4.031   1.923   4.351 -3.4185  0.7222  0.8770
 7289SOL    HW233327   3.968   1.813   4.419 -0.7394 -0.1299  0.9546
 7290SOL     OW33328   0.080   1.225  17.439  0.0236 -0.4997  0.9213
 7290SOL    HW133329   0.060   1.266  17.523  0.1547  2.7870 -0.6179
 7290SOL    HW233330   0.121   1.298  17.391  3.5056 -1.3591  2.5457
 7291SOL     OW33331   0.910   1.832   5.539  0.6219  0.5942  0.2146
 7291SOL    HW133332   0.841   1.829   5.472 -0.8605  0.5498  1.7616
 7291SOL    HW233333   0.864   1.822   5.622  0.0154  1.5919  0.0019
 7292SOL     OW33334   1.268   1.124   7.748  0.7405  0.4202  0.2283
 7292SOL    HW133335   1.343   1.067   7.766  0.4386 -0.0167  0.1038
 7292SOL    HW233336   1.216   1.050   7.717  0.4041  0.9356 -0.4444
 7293SOL     OW33337   2.489   2.032   3.537 -0.0837  0.4026 -0.8926
 7293SOL    HW133338   2.398   2.035   3.567 -0.1928  0.0424 -1.1933
 7293SOL    HW233339   2.537   2.038   3.619  0.6817  0.8767 -1.3686
 7294SOL     OW33340   1.693   3.578   5.066  0.3310 -0.1414 -0.2566
 7294SOL    HW133341   1.656   3.491   5.083 -0.9624  1.0135  2.7347
 7294SOL    HW233342   1.628   3.600   4.998 -1.7528 -3.5714  0.5913
 7295SOL     OW33343   0.418   4.208   4.942  0.1214  0.1706  0.1712
 7295SOL    HW133344   0.475   4.283   4.959  1.4582 -1.2325  2.0108
 7295SOL    HW233345   0.446   4.145   5.009 -1.5216 -1.9789 -1.1707
 7296SOL     OW33346   4.147   3.655  17.143  0.1480 -0.3788 -0.2167
 7296SOL    HW133347   4.234   3.632  17.112 -0.0884  0.4294 -1.4663
 7296SOL    HW233348   4.124   3.735  17.096 -0.3292 -0.5356 -0.2538
 7297SOL     OW33349   4.651   1.437  13.373 -0.3793  0.4238 -0.3648
 7297SOL    HW133350   4.608   1.355  13.396 -0.5208  0.2297 -1.3397
 7297SOL    HW233351   4.690   1.417  13.288 -2.4475 -1.2251 -0.9309
 7298SOL     OW33352   3.226   1.963   2.777  0.1347  0.2461  0.1720
 7298SOL    HW133353   3.195   1.988   2.864  1.5144  0.4359  0.6054
 7298SOL    HW233354   3.199   2.034   2.719 -1.8306 -0.5829  0.0468
 7299SOL     OW33355   2.742   3.627   9.032  0.1208 -0.0078 -0.3987
 7299SOL    HW133356   2.761   3.720   9.035 -0.2574  0.0253  1.0855
 7299SOL    HW233357   2.708   3.609   9.120  0.9089  0.5460  0.0220
 7300SOL     OW33358   3.107   4.014   1.459 -0.2382 -0.6364  0.5646
 7300SOL    HW133359   3.142   3.966   1.384 -1.3914 -1.7681  0.7495
 7300SOL    HW233360   3.104   4.099   1.415 -0.2548  0.0197  1.8194
 7301SOL     OW33361   3.647   0.462  16.938  0.3832  0.1731  0.6008
 7301SOL    HW133362   3.610   0.433  16.854  1.4251  0.2724  0.1129
 7301SOL    HW233363   3.604   0.547  16.951 -0.6570 -0.5780  2.1074
 7302SOL     OW33364   4.688   0.267  15.443  0.0566 -1.2386 -0.0319
 7302SOL    HW133365   4.594   0.254  15.454  0.2844 -0.6396  2.5300
 7302SOL    HW233366   4.703   0.256  15.349 -3.4499 -0.0890 -0.7143
 7303SOL     OW33367   1.576   3.026   7.269 -0.5311 -0.1205  0.0317
 7303SOL    HW133368   1.578   2.983   7.354 -1.8135 -1.1020 -0.4404
 7303SOL    HW233369   1.536   3.107   7.301  0.1976  0.0108  0.6077
 7304SOL     OW33370   0.725   1.872   5.351 -0.4132  0.1592  0.0506
 7304SOL    HW133371   0.676   1.790   5.363 -1.3181  0.9300  1.5634
 7304SOL    HW233372   0.697   1.884   5.261  0.5690 -1.7850 -0.5185
 7305SOL     OW33373   3.207   0.028   6.965 -0.2686  0.0607  0.1029
 7305SOL    HW133374   3.229   4.663   6.931  1.2023  0.2035  0.7034
 7305SOL    HW233375   3.289   0.075   6.948 -0.0924 -0.4104 -0.3682
 7306SOL     OW33376   3.894   3.175  13.265 -0.3469 -0.0391 -0.4860
 7306SOL    HW133377   3.923   3.219  13.185  1.6892  3.4612  2.1079
 7306SOL    HW233378   3.906   3.249  13.325 -0.9672  0.2155 -0.6775
 7307SOL     OW33379   0.683   3.661   4.062 -0.2595  0.5171  0.4586
 7307SOL    HW133380   0.662   3.666   3.969  0.8790 -1.7409  0.0739
 7307SOL    HW233381   0.778   3.674   4.071 -0.1245  1.3654 -2.3609
 7308SOL     OW33382   0.074   1.229   2.584 -0.3918 -0.2964  0.2066
 7308SOL    HW133383   0.128   1.154   2.559 -0.3686 -0.0694 -0.4195
 7308SOL    HW233384   0.150   1.284   2.605 -0.9347  0.4584  0.1979
 7309SOL     OW33385   0.719   2.544   4.275  0.6216 -0.4846  0.3962
 7309SOL    HW133386   0.641   2.599   4.266  0.0236 -1.3049  0.5916
 7309SOL    HW233387   0.704   2.511   4.364 -2.6706  2.4551  0.9305
 7310SOL     OW33388   3.028   4.457   7.716  0.4489  0.4477  0.2164
 7310SOL    HW133389   3.124   4.453   7.718  0.4347  0.3073  0.6755
 7310SOL    HW233390   3.006   4.502   7.798  1.2449  0.9451  0.1618
 7311SOL     OW33391   1.509   1.346  17.429 -0.5669  0.4791  0.0730
 7311SOL    HW133392   1.578   1.282  17.448  1.0154  1.8688 -0.9188
 7311SOL    HW233393   1.491   1.402  17.504 -0.7169  0.6730 -0.1051
 7312SOL     OW33394   0.768   3.259  14.126 -0.0268 -1.0097  0.2576
 7312SOL    HW133395   0.749   3.222  14.213 -0.8068 -0.4125  0.3519
 7312SOL    HW233396   0.682   3.269  14.084 -0.1780 -3.7258 -0.0577
 7313SOL     OW33397   0.887   1.168   7.398  0.2092  0.0751 -0.5389
 7313SOL    HW133398   0.810   1.161   7.455 -0.2965 -0.1980 -1.2446
 7313SOL    HW233399   0.960   1.129   7.444 -0.4008  1.2309  1.4322
 7314SOL     OW33400   3.386   4.611   5.952 -0.4163  0.2005  0.0274
 7314SOL    HW133401   3.379   4.664   6.031 -1.0664  1.5710 -0.9599
 7314SOL    HW233402   3.295   4.605   5.921 -0.1671  0.9932 -0.8614
 7315SOL     OW33403   4.502   3.475   2.616 -0.0710  0.7827  0.1193
 7315SOL    HW133404   4.487   3.560   2.575  0.9560 -0.8169 -3.6444
 7315SOL    HW233405   4.475   3.415   2.546  2.8007  3.0751 -2.9671
 7316SOL     OW33406   2.568   2.997  14.643 -0.3082 -0.6422  0.0057
 7316SOL    HW133407   2.583   3.087  14.672  0.1151 -0.4975 -0.6747
 7316SOL    HW233408   2.658   2.966  14.638 -0.5857 -1.3740 -0.3317
 7317SOL     OW33409   4.519   2.474   9.851 -0.0623 -0.2849 -0.4660
 7317SOL    HW133410   4.473   2.550   9.815  0.5927 -0.3751 -1.4719
 7317SOL    HW233411   4.551   2.429   9.773 -0.5511 -1.2092 -0.1464
 7318SOL     OW33412   1.790   4.026   6.745  0.2986  0.0466  0.8200
 7318SOL    HW133413   1.728   3.961   6.711  1.9040 -0.2367 -1.5556
 7318SOL    HW233414   1.852   3.959   6.775  0.9548 -0.1337 -0.9518
 7319SOL     OW33415   4.362   1.104  10.328 -0.4559 -0.1655 -0.2579
 7319SOL    HW133416   4.297   1.043  10.294 -0.3948 -1.4139  1.8937
 7319SOL    HW233417   4.390   1.046  10.398  0.8389  0.5198 -0.2154
 7320SOL     OW33418   0.463   3.944   5.764 -0.2254 -0.1152  0.1410
 7320SOL    HW133419   0.430   4.023   5.806 -2.5887 -0.8699 -0.2722
 7320SOL    HW233420   0.396   3.876   5.776 -0.2363 -0.2091 -0.4428
 7321SOL     OW33421   1.340   2.817   7.026 -0.1575 -0.1061 -0.0687
 7321SOL    HW133422   1.423   2.774   7.005 -0.8721 -2.0720  1.0989
 7321SOL    HW233423   1.351   2.909   7.001  0.0625 -0.2488 -0.4920
 7322SOL     OW33424   0.475   2.313  14.852 -0.0552 -0.1908  0.7810
 7322SOL    HW133425   0.523   2.259  14.789 -0.3537 -1.2021  1.4228
 7322SOL    HW233426   0.467   2.254  14.927  0.3827 -1.0179  0.1816
 7323SOL     OW33427   1.365   1.396   8.879 -0.1168  0.4809 -0.2165
 7323SOL    HW133428   1.437   1.438   8.927  0.3796  1.0972 -1.4975
 7323SOL    HW233429   1.293   1.414   8.940 -0.5052  2.4576 -1.2612
 7324SOL     OW33430   2.436   3.499   3.186  0.5993  0.6665 -0.0775
 7324SOL    HW133431   2.401   3.499   3.097  0.1179 -2.5033  0.1202
 7324SOL    HW233432   2.404   3.413   3.212  1.6985  0.7324  1.5102
 7325SOL     OW33433   3.007   2.893   5.796  0.9892 -0.0879 -0.4339
 7325SOL    HW133434   2.964   2.842   5.865  0.5176 -0.3623 -0.9264
 7325SOL    HW233435   3.025   2.966   5.855  0.7905  1.5681 -2.4004
 7326SOL     OW33436   2.141   1.794   7.187  0.2388  0.2675  0.0786
 7326SOL    HW133437   2.122   1.855   7.116 -0.8864 -0.6717 -0.4456
 7326SOL    HW233438   2.080   1.816   7.257  0.3498 -1.1721  0.6334
 7327SOL     OW33439   3.471   2.487   6.967  0.0393  0.3488 -0.0498
 7327SOL    HW133440   3.498   2.412   7.020  3.1824  0.0588 -2.0252
 7327SOL    HW233441   3.443   2.441   6.888 -1.5030  1.6882 -0.2881
 7328SOL     OW33442   0.372   2.281   0.285 -0.1780  0.5438  0.0205
 7328SOL    HW133443   0.429   2.305   0.212  0.1105 -2.4699 -0.7418
 7328SOL    HW233444   0.411   2.198   0.315 -0.4199  0.9571  1.4866
 7329SOL     OW33445   3.084   3.267   1.060  0.0966 -0.9809 -0.0103
 7329SOL    HW133446   3.132   3.184   1.058 -0.5118 -1.3587  1.3553
 7329SOL    HW233447   3.056   3.272   1.151  0.3986  1.1043 -0.0462
 7330SOL     OW33448   3.718   2.429   2.363 -0.2103  0.5711  0.6255
 7330SOL    HW133449   3.653   2.444   2.294  1.1166 -0.1219 -0.7632
 7330SOL    HW233450   3.758   2.516   2.370 -1.2677  0.9101  2.3732
 7331SOL     OW33451   4.282   4.571   6.446  0.4163 -0.8806 -0.0635
 7331SOL    HW133452   4.310   4.503   6.506  1.8142  1.6421  2.1331
 7331SOL    HW233453   4.194   4.596   6.476 -0.7262  0.3235 -4.3724
 7332SOL     OW33454   2.737   0.778  15.045 -0.1038  0.3034  0.2797
 7332SOL    HW133455   2.699   0.713  15.103 -0.4810 -0.7474 -1.1561
 7332SOL    HW233456   2.781   0.826  15.116 -1.4526 -0.0080  1.3336
 7333SOL     OW33457   2.547   2.737  13.766 -0.6420  0.3366  0.0752
 7333SOL    HW133458   2.498   2.726  13.685  0.9431  4.3614 -1.4109
 7333SOL    HW233459   2.498   2.799  13.820  0.9052  1.5259  0.1047
 7334SOL     OW33460   0.918   2.471   1.892 -0.5811  0.3127  0.0788
 7334SOL    HW133461   0.935   2.518   1.974 -0.8948 -0.5924  0.6557
 7334SOL    HW233462   1.005   2.431   1.889 -1.6867 -2.1076  0.1430
 7335SOL     OW33463   2.341   3.476   1.970  0.1466 -0.2870 -0.6881
 7335SOL    HW133464   2.270   3.418   1.945 -1.3597  1.4638 -0.4322
 7335SOL    HW233465   2.293   3.559   1.967  0.3147 -0.1975 -0.8781
 7336SOL     OW33466   0.694   3.916  12.123  0.5857  0.0203  0.2620
 7336SOL    HW133467   0.683   4.011  12.114  1.6356  0.1663  0.5663
 7336SOL    HW233468   0.674   3.906  12.216  0.4492  1.4757  0.3844
 7337SOL     OW33469   0.640   4.699  16.447 -0.1836  0.0845  0.6082
 7337SOL    HW133470   0.592   4.653  16.516 -1.6083 -0.8565 -1.0061
 7337SOL    HW233471   0.669   0.050  16.501  1.9297 -1.8212  2.1061
 7338SOL     OW33472   2.350   4.669   8.158  0.2696  0.4060  0.1716
 7338SOL    HW133473   2.303   0.030   8.162  2.1431  1.4240  0.8917
 7338SOL    HW233474   2.407   4.673   8.082 -0.9043  0.0435 -0.7323
 7339SOL     OW33475   4.365   3.825   6.368  0.0797 -0.2605  0.2186
 7339SOL    HW133476   4.357   3.800   6.460  0.7121  1.4641  0.7591
 7339SOL    HW233477   4.396   3.750   6.318  0.9366  2.4235 -3.2806
 7340SOL     OW33478   1.460   3.927   5.914 -0.2341  0.0554 -0.2563
 7340SOL    HW133479   1.410   3.870   5.855  1.3961  0.0233 -1.5822
 7340SOL    HW233480   1.473   4.013   5.875  2.4703 -0.6886 -0.9833
 7341SOL     OW33481   0.786   3.852  12.656 -0.0609 -0.3981 -0.5659
 7341SOL    HW133482   0.790   3.762  12.689 -1.9523 -0.5142 -0.6558
 7341SOL    HW233483   0.863   3.862  12.600  0.8136  0.3819  0.7827
 7342SOL     OW33484   2.989   4.147   4.412 -0.2014 -0.0560 -0.7265
 7342SOL    HW133485   2.984   4.062   4.454 -2.2800  1.1864  1.5374
 7342SOL    HW233486   2.922   4.142   4.343 -0.5934  0.1517 -0.3647
 7343SOL     OW33487   1.106   4.429   0.688  0.1421 -0.0342 -0.2535
 7343SOL    HW133488   1.111   4.500   0.623  0.2637  1.2146  1.1208
 7343SOL    HW233489   1.073   4.484   0.759  0.6859 -0.4067  0.2864
 7344SOL     OW33490   2.976   4.079   8.638  0.1008 -0.0153 -0.3339
 7344SOL    HW133491   3.021   4.111   8.716  1.0113 -0.8942 -0.5012
 7344SOL    HW233492   2.885   4.079   8.670  0.8608 -0.5634  1.8313
 7345SOL     OW33493   3.187   0.231  15.720 -0.1536  0.0136  0.1751
 7345SOL    HW133494   3.191   0.301  15.786  0.1037 -2.2894  2.6126
 7345SOL    HW233495   3.218   0.157  15.772  0.2348 -0.4455 -0.7101
 7346SOL     OW33496   0.088   1.615   3.070  0.1391 -0.0833 -0.1090
 7346SOL    HW133497   0.082   1.521   3.057  0.0201  0.0515 -1.0581
 7346SOL    HW233498   4.721   1.639   3.093  0.8515  1.2969  1.2710
 7347SOL     OW33499   0.738   0.351   0.107 -0.2180 -0.4891 -0.1014
 7347SOL    HW133500   0.826   0.378   0.132 -1.1187  1.2121  1.2155
 7347SOL    HW233501   0.740   0.255   0.098  1.4493 -0.3652 -1.0205
 7348SOL     OW33502   4.665   2.562  16.903 -0.4543 -0.5908 -0.8524
 7348SOL    HW133503   0.014   2.537  16.962 -2.2642 -1.5140  0.9410
 7348SOL    HW233504   4.622   2.634  16.949  2.6293 -0.2051  1.4478
 7349SOL     OW33505   3.307   3.720   6.935  0.2339  0.0563 -0.3332
 7349SOL    HW133506   3.402   3.735   6.931  0.0754  0.9724 -0.7348
 7349SOL    HW233507   3.287   3.755   6.848 -0.3438  0.6205  0.0194
 7350SOL     OW33508   1.418   2.827   0.054 -0.7050  0.5829 -0.3076
 7350SOL    HW133509   1.503   2.827   0.010 -1.6465  1.6451 -2.1295
 7350SOL    HW233510   1.417   2.916   0.089 -2.3828  0.0111  1.1116
 7351SOL     OW33511   0.653   1.109  11.429  0.1764 -0.2005  0.1964
 7351SOL    HW133512   0.680   1.201  11.435 -1.7577  0.3143  0.7747
 7351SOL    HW233513   0.596   1.091  11.503 -0.9266  0.5071 -0.4953
 7352SOL     OW33514   4.601   1.149   3.383  0.3903  0.3351  0.1451
 7352SOL    HW133515   4.664   1.204   3.430  1.8693 -0.7399 -0.6009
 7352SOL    HW233516   4.530   1.213   3.374 -0.5467 -0.3911  2.2427
 7353SOL     OW33517   4.201   1.056   9.027  0.6734  0.1373 -0.3169
 7353SOL    HW133518   4.230   1.097   8.945 -0.1176 -1.2325 -1.2929
 7353SOL    HW233519   4.289   1.050   9.065  0.0122 -2.2017  0.8397
 7354SOL     OW33520   1.664   1.674   8.435  0.1389  0.0400 -0.2258
 7354SOL    HW133521   1.620   1.759   8.439  1.2620  0.4733  3.0837
 7354SOL    HW233522   1.633   1.636   8.517  0.5415 -0.7133 -0.4258
 7355SOL     OW33523   1.192   0.550  12.514  0.2959  0.1512  0.3496
 7355SOL    HW133524   1.150   0.628  12.552  0.2982 -0.2156  1.1039
 7355SOL    HW233525   1.217   0.579  12.427 -1.9675  1.9537  0.2916
 7356SOL     OW33526   2.398   3.777   3.551  0.7449 -0.3529  0.1380
 7356SOL    HW133527   2.478   3.800   3.505  2.1588  0.1946  2.8729
 7356SOL    HW233528   2.418   3.687   3.578  0.0909 -0.6981 -0.5085
 7357SOL     OW33529   0.286   2.439   1.895 -0.0217  0.2046 -0.2902
 7357SOL    HW133530   0.348   2.366   1.900 -1.6899 -1.2394 -0.4957
 7357SOL    HW233531   0.314   2.490   1.971 -2.5845 -0.1923  0.9008
 7358SOL     OW33532   4.261   3.232   2.049 -0.7237 -0.7065 -0.2494
 7358SOL    HW133533   4.209   3.153   2.065  0.0895 -1.0956  0.4690
 7358SOL    HW233534   4.342   3.208   2.095 -1.8158 -0.3497  1.8742
 7359SOL     OW33535   2.870   3.111   3.940 -0.3553 -0.1369  0.2998
 7359SOL    HW133536   2.891   3.142   4.028 -0.7415 -0.7689  0.6078
 7359SOL    HW233537   2.900   3.183   3.884  1.1466 -0.2264  0.9904
 7360SOL     OW33538   1.271   2.379   2.601 -0.0994  0.0892  0.8023
 7360SOL    HW133539   1.277   2.310   2.535 -0.4761  0.0386  0.8177
 7360SOL    HW233540   1.216   2.335   2.666 -0.0892 -0.9157  0.1256
 7361SOL     OW33541   1.371   0.332   5.155 -0.2656 -0.2338  0.5995
 7361SOL    HW133542   1.381   0.336   5.060 -2.8774 -1.9226  0.2497
 7361SOL    HW233543   1.367   0.238   5.172 -0.3480 -0.4727 -0.7438
 7362SOL     OW33544   2.882   2.811   7.949 -0.3494  0.0968  0.3839
 7362SOL    HW133545   2.840   2.894   7.970 -2.5090 -0.3202 -2.2050
 7362SOL    HW233546   2.946   2.817   8.019  0.4769  2.3663 -0.5622
 7363SOL     OW33547   0.868   1.313   6.983 -0.1486  0.2092  0.1056
 7363SOL    HW133548   0.921   1.364   6.923 -0.7176  1.4021  0.6259
 7363SOL    HW233549   0.816   1.270   6.916 -0.2937 -0.4722  0.6476
 7364SOL     OW33550   3.466   4.679   8.355  0.4992 -0.1339 -0.1724
 7364SOL    HW133551   3.556   4.692   8.326 -0.3111  3.9857 -0.7962
 7364SOL    HW233552   3.473   4.616   8.427 -2.2099 -0.4158 -0.1509
 7365SOL     OW33553   3.147   3.458   8.333  0.4159  0.2561  0.6455
 7365SOL    HW133554   3.201   3.448   8.254 -0.6201  3.1395 -0.4291
 7365SOL    HW233555   3.100   3.375   8.329 -1.1313  1.1068  0.9428
 7366SOL     OW33556   2.307   3.187   7.222 -0.3558  0.0551 -0.3636
 7366SOL    HW133557   2.282   3.241   7.147 -2.6659 -2.2947 -1.2942
 7366SOL    HW233558   2.399   3.161   7.221 -1.0665 -2.5912  0.7541
 7367SOL     OW33559   0.723   3.882   5.779 -0.2939 -0.3617  0.2279
 7367SOL    HW133560   0.629   3.896   5.765 -0.4678  1.0894  2.7984
 7367SOL    HW233561   0.726   3.789   5.756 -0.8205  0.1654 -1.9948
 7368SOL     OW33562   4.517   1.817   1.451  0.2711  0.0402  0.1151
 7368SOL    HW133563   4.492   1.776   1.369  4.3128 -1.9857 -0.1356
 7368SOL    HW233564   4.586   1.759   1.482 -0.5688 -2.1155 -2.0703
 7369SOL     OW33565   1.855   3.301  10.953 -0.4804 -0.2622 -0.4167
 7369SOL    HW133566   1.760   3.287  10.953 -0.4013 -0.8012  0.3061
 7369SOL    HW233567   1.883   3.252  11.031 -0.8659 -0.7132 -0.5634
 7370SOL     OW33568   2.645   1.888   6.759  0.2643  0.0248  0.2585
 7370SOL    HW133569   2.734   1.910   6.788 -0.4047 -0.2226  2.5344
 7370SOL    HW233570   2.652   1.933   6.675 -1.4474 -1.1144 -0.4806
 7371SOL     OW33571   2.734   2.110  17.608 -0.2498  0.2506  0.0080
 7371SOL    HW133572   2.824   2.109  17.574 -0.4648  0.4891 -0.5705
 7371SOL    HW233573   2.689   2.137  17.528 -1.4837 -2.0012 -0.0515
 7372SOL     OW33574   2.113   4.455   9.036  0.4923 -0.1232 -0.5904
 7372SOL    HW133575   2.165   4.438   9.114 -1.0145 -1.6226  0.0970
 7372SOL    HW233576   2.180   4.442   8.970 -0.8141 -1.3760 -1.6722
 7373SOL     OW33577   4.668   0.021   2.859  0.0079 -0.0959  0.0908
 7373SOL    HW133578   4.591   0.001   2.807 -0.7024 -0.2579  1.1979
 7373SOL    HW233579   4.661   0.112   2.887 -1.7802 -0.3139  0.3201
 7374SOL     OW33580   4.019   3.355   4.662  0.8510  0.3778 -0.0595
 7374SOL    HW133581   3.950   3.290   4.676  1.5361 -0.1730  0.7439
 7374SOL    HW233582   4.005   3.382   4.571 -1.1172  1.7918  0.6574
 7375SOL     OW33583   3.557   3.633   6.634 -0.0451 -0.1503 -0.3355
 7375SOL    HW133584   3.650   3.638   6.615 -0.0303  2.0393  0.2724
 7375SOL    HW233585   3.520   3.685   6.562 -0.3586 -0.8970 -0.7094
 7376SOL     OW33586   4.245   3.640   3.098  0.2121  0.5540 -0.1014
 7376SOL    HW133587   4.224   3.733   3.105 -2.4792 -0.1398  1.2174
 7376SOL    HW233588   4.238   3.620   3.005  2.6217 -1.7847  0.2279
 7377SOL     OW33589   2.494   1.129   6.175  0.0909 -0.4237 -0.9065
 7377SOL    HW133590   2.447   1.065   6.122  1.5375 -1.2975 -1.1332
 7377SOL    HW233591   2.580   1.112   6.137  0.6373 -1.2553  0.7066
 7378SOL     OW33592   0.229   0.275   0.215 -0.2246 -0.8744  0.0963
 7378SOL    HW133593   0.216   0.321   0.298 -1.9736 -1.2547  0.0296
 7378SOL    HW233594   0.154   0.310   0.168 -0.2339 -0.1776  0.6336
 7379SOL     OW33595   1.597   1.910   4.644 -0.4169 -0.3051  0.0330
 7379SOL    HW133596   1.553   1.967   4.580 -1.1312 -0.0298  0.7713
 7379SOL    HW233597   1.525   1.856   4.676 -2.4041  0.6231 -2.7999
 7380SOL     OW33598   2.058   2.750   4.716 -0.1499 -0.4418 -0.6752
 7380SOL    HW133599   2.130   2.687   4.710  0.1271 -0.1022 -0.9237
 7380SOL    HW233600   2.031   2.755   4.624  1.1560 -0.3592 -1.0591
 7381SOL     OW33601   1.030   2.851  14.352  0.1729 -0.1583  0.0268
 7381SOL    HW133602   1.079   2.841  14.433  1.6520  0.3504 -0.8048
 7381SOL    HW233603   0.941   2.845  14.387 -0.1958 -0.8358 -1.0377
 7382SOL     OW33604   2.181   3.730   4.252  0.2093 -0.4157 -0.1045
 7382SOL    HW133605   2.257   3.788   4.257  0.1641 -0.4388  0.7925
 7382SOL    HW233606   2.201   3.688   4.336 -0.4569  0.1679  0.3536
 7383SOL     OW33607   3.933   3.564   2.301  0.0242  0.1248 -0.2838
 7383SOL    HW133608   3.867   3.497   2.280  0.0400  0.0145  0.0195
 7383SOL    HW233609   3.871   3.629   2.268  0.5366  1.1649  0.8014
 7384SOL     OW33610   3.336   0.933   3.828 -0.1507  0.1385 -0.0907
 7384SOL    HW133611   3.369   0.903   3.913 -2.1321 -0.6943  0.3934
 7384SOL    HW233612   3.240   0.934   3.833 -0.1375 -0.5227  0.2647
 7385SOL     OW33613   1.978   3.267   2.458 -0.4073 -0.3289  0.0766
 7385SOL    HW133614   2.029   3.287   2.380  1.8456 -2.8514  0.8847
 7385SOL    HW233615   1.891   3.303   2.441 -0.1629 -0.8150 -2.2028
 7386SOL     OW33616   4.190   1.388   2.251  0.3736  0.0608  0.2866
 7386SOL    HW133617   4.139   1.377   2.331 -0.3620 -0.3945 -0.2523
 7386SOL    HW233618   4.135   1.341   2.189  2.8629 -0.6172 -1.4373
 7387SOL     OW33619   4.395   1.005  14.817 -0.3260  0.1905 -0.2275
 7387SOL    HW133620   4.408   0.921  14.772 -2.4697 -1.0752  1.5051
 7387SOL    HW233621   4.469   1.047  14.775  0.6194 -2.7279 -1.4990
 7388SOL     OW33622   1.177   1.260   0.735 -0.1230  0.9748  0.0173
 7388SOL    HW133623   1.264   1.289   0.709  0.5391 -1.0046  0.0344
 7388SOL    HW233624   1.129   1.342   0.749 -2.6289 -0.4925  0.1564
 7389SOL     OW33625   0.038   1.469   7.892  0.5091  0.9265 -0.6402
 7389SOL    HW133626   4.699   1.522   7.943  0.2119 -0.0638  0.0159
 7389SOL    HW233627   0.044   1.529   7.817 -1.9016  0.8146 -0.9267
 7390SOL     OW33628   4.682   2.250   0.598  0.2608 -0.3718 -0.5298
 7390SOL    HW133629   0.050   2.224   0.611  0.3734  0.3843  0.2293
 7390SOL    HW233630   4.630   2.170   0.605  2.1585 -1.5913 -0.6902
 7391SOL     OW33631   3.603   1.256   3.280  0.0030 -0.3093  0.2782
 7391SOL    HW133632   3.633   1.343   3.253  0.0911 -0.1710  0.8247
 7391SOL    HW233633   3.543   1.278   3.352  0.7024  1.0563  0.4617
 7392SOL     OW33634   0.719   3.260   9.635  0.1975  0.8042 -0.4093
 7392SOL    HW133635   0.644   3.224   9.587  0.6023 -0.0467 -0.4096
 7392SOL    HW233636   0.787   3.194   9.620  0.2186  0.7871 -0.2388
 7393SOL     OW33637   3.965   2.903   9.245 -0.3092 -0.2709 -0.2460
 7393SOL    HW133638   4.021   2.834   9.280  0.3939 -0.8206 -2.4633
 7393SOL    HW233639   3.887   2.881   9.296 -0.7663  0.0456 -0.8122
 7394SOL     OW33640   2.933   1.166   8.426  0.3495  0.2249  0.1036
 7394SOL    HW133641   2.959   1.214   8.348 -0.5745  0.5407 -0.0119
 7394SOL    HW233642   2.999   1.205   8.483 -0.1062  2.6580 -1.0465
 7395SOL     OW33643   2.308   4.463  16.073 -0.1774  0.5014  0.1775
 7395SOL    HW133644   2.359   4.509  16.139 -0.1766 -0.4264  0.8081
 7395SOL    HW233645   2.279   4.386  16.121 -0.3798  0.2695 -0.3158
 7396SOL     OW33646   4.225   2.882  13.114  0.7653  0.0973 -0.2737
 7396SOL    HW133647   4.156   2.838  13.164 -0.5571 -0.8826 -2.9493
 7396SOL    HW233648   4.171   2.959  13.094 -0.1636  0.4217  3.3556
 7397SOL     OW33649   3.196   4.322   6.494 -0.1637 -0.2686  0.5828
 7397SOL    HW133650   3.141   4.396   6.524 -0.7854 -1.1168  1.5511
 7397SOL    HW233651   3.129   4.254   6.485 -0.4452 -0.1856  2.0208
 7398SOL     OW33652   3.185   1.359   3.101  0.0222  0.6202  0.3853
 7398SOL    HW133653   3.236   1.429   3.141  1.3547 -0.2247  0.1775
 7398SOL    HW233654   3.160   1.299   3.171  1.2079  2.6824  2.5585
 7399SOL     OW33655   2.111   3.120  13.615 -0.3571  0.7103 -0.2627
 7399SOL    HW133656   2.033   3.086  13.572 -0.7775 -1.0094  1.8878
 7399SOL    HW233657   2.096   3.101  13.707 -0.0316  0.1855 -0.3145
 7400SOL     OW33658   4.202   3.678   5.757 -0.0153  0.2117 -0.1872
 7400SOL    HW133659   4.194   3.602   5.700  0.7744  2.0342 -2.7594
 7400SOL    HW233660   4.167   3.751   5.707 -1.4671  0.4180  1.1319
 7401SOL     OW33661   4.625   2.827   4.579 -0.0413  0.3622 -0.0465
 7401SOL    HW133662   4.634   2.923   4.579 -0.4034  0.4023  2.1213
 7401SOL    HW233663   4.668   2.808   4.662  0.9346 -1.0062 -0.8561
 7402SOL     OW33664   0.708   0.377  10.069 -0.3999 -0.0688 -0.1282
 7402SOL    HW133665   0.799   0.397  10.050  0.3684 -2.6642  0.8781
 7402SOL    HW233666   0.674   0.455  10.113 -0.5843  0.9323 -2.0604
 7403SOL     OW33667   2.322   0.416   7.210  0.2987 -0.0512  0.4762
 7403SOL    HW133668   2.284   0.490   7.258  1.1775 -1.2629  3.0454
 7403SOL    HW233669   2.283   0.342   7.257  1.4412 -1.2042 -0.4036
 7404SOL     OW33670   0.222   1.710   7.905  0.2581  0.3794  0.3489
 7404SOL    HW133671   0.175   1.712   7.822 -1.9990 -2.5085  1.5069
 7404SOL    HW233672   0.188   1.637   7.958 -1.2250  1.3400  0.7172
 7405SOL     OW33673   1.385   2.766   9.147 -0.1920 -0.4569 -0.7340
 7405SOL    HW133674   1.421   2.702   9.208 -0.7011  0.2819  0.3403
 7405SOL    HW233675   1.453   2.831   9.133  0.2682 -0.6593  0.5261
 7406SOL     OW33676   4.553   1.160   9.895  0.1133 -0.5020 -0.3321
 7406SOL    HW133677   4.605   1.093   9.851  0.2523 -0.7085  0.1490
 7406SOL    HW233678   4.626   1.221   9.897  0.4933 -0.9912  0.5175
 7407SOL     OW33679   2.882   0.564   1.733 -0.5731 -0.8019 -0.0715
 7407SOL    HW133680   2.860   0.529   1.647 -0.8505 -0.6495 -0.0640
 7407SOL    HW233681   2.945   0.630   1.705  0.4770 -0.7341  2.4792
 7408SOL     OW33682   1.364   4.232   8.723  0.0624 -0.6866  0.0498
 7408SOL    HW133683   1.430   4.243   8.791 -3.0292 -0.1004  2.9437
 7408SOL    HW233684   1.347   4.138   8.727 -1.8445 -0.4330 -1.9315
 7409SOL     OW33685   0.355   4.651   8.654 -0.0381  0.1693 -0.3470
 7409SOL    HW133686   0.352   4.676   8.746  0.9011 -2.6219  0.4396
 7409SOL    HW233687   0.263   4.665   8.629 -0.0637  0.1494 -0.2650
 7410SOL     OW33688   1.194   3.129   2.086 -0.3381 -0.0529 -0.0712
 7410SOL    HW133689   1.121   3.099   2.140  0.1939  0.6466  1.0352
 7410SOL    HW233690   1.264   3.104   2.146  0.4721  1.9569 -0.1758
 7411SOL     OW33691   1.244   1.922   5.045 -0.4474 -0.2734 -0.2582
 7411SOL    HW133692   1.164   1.874   5.068  0.0323 -0.4069  1.0753
 7411SOL    HW233693   1.200   2.002   5.015 -2.2182 -1.4598 -0.8403
 7412SOL     OW33694   3.023   0.085   9.094 -0.4508 -0.6011 -0.6513
 7412SOL    HW133695   3.079   0.130   9.158 -1.6276  1.4754 -1.0610
 7412SOL    HW233696   3.058   4.722   9.116  0.1625  0.0662  0.9667
 7413SOL     OW33697   2.433   4.526   9.742  0.1129 -0.2366  0.5063
 7413SOL    HW133698   2.443   4.502   9.650 -2.5849  2.2801 -0.4480
 7413SOL    HW233699   2.453   4.446   9.790 -1.0946 -1.0851 -0.4157
 7414SOL     OW33700   0.692   3.333   2.079 -0.4291  0.1672 -0.4118
 7414SOL    HW133701   0.718   3.405   2.022  1.3018  0.8122  1.1759
 7414SOL    HW233702   0.597   3.331   2.071 -0.2702 -0.1857 -2.2837
 7415SOL     OW33703   2.886   0.088   0.287  0.0954 -0.5387 -0.5655
 7415SOL    HW133704   2.835   0.170   0.290  1.5868  0.2974  2.2822
 7415SOL    HW233705   2.833   0.040   0.223  1.2082  1.0324 -2.6722
 7416SOL     OW33706   2.078   3.778   5.081  0.1626  0.0629  0.1157
 7416SOL    HW133707   2.162   3.754   5.120  3.0737 -0.6440 -6.6409
 7416SOL    HW233708   2.044   3.697   5.042  2.1675 -0.3537 -0.7794
 7417SOL     OW33709   3.645   0.807   4.859 -0.6713  0.0867 -0.3768
 7417SOL    HW133710   3.639   0.902   4.872  0.3458  0.5963 -3.5101
 7417SOL    HW233711   3.564   0.791   4.809 -1.5830  0.9794  0.8175
 7418SOL     OW33712   4.368   2.800   1.374 -0.0190 -0.0193  0.0631
 7418SOL    HW133713   4.403   2.737   1.311 -0.9476 -0.8282  0.3585
 7418SOL    HW233714   4.370   2.884   1.327 -0.6447 -0.3189 -0.5043
 7419SOL     OW33715   3.127   0.358   1.519  0.2790 -0.1817  0.0502
 7419SOL    HW133716   3.113   0.441   1.473  2.2256  1.2368  2.0247
 7419SOL    HW233717   3.062   0.299   1.481 -0.0753 -0.0831  0.5014
 7420SOL     OW33718   2.222   0.849  14.087  0.2887 -0.4878  0.2417
 7420SOL    HW133719   2.316   0.867  14.097 -0.4415  2.0358  2.5383
 7420SOL    HW233720   2.220   0.853  13.992 -0.8134  0.7236  0.3147
 7421SOL     OW33721   2.606   0.005   4.885 -0.1878 -0.1536 -0.1849
 7421SOL    HW133722   2.649   0.091   4.892  2.3366 -1.4385 -0.0792
 7421SOL    HW233723   2.516   0.019   4.855 -1.1723 -3.1352  1.4078
 7422SOL     OW33724   0.855   2.902   9.080  0.7129  0.6260  0.3740
 7422SOL    HW133725   0.841   2.976   9.021 -1.6168  0.7166  1.0687
 7422SOL    HW233726   0.946   2.891   9.051  0.3646  0.0140 -0.4882
 7423SOL     OW33727   0.487   3.437   4.438 -0.2719  0.1070  0.3431
 7423SOL    HW133728   0.507   3.472   4.351 -0.7424 -2.7103 -0.8828
 7423SOL    HW233729   0.573   3.424   4.479 -0.5793  1.2976  1.3782
 7424SOL     OW33730   0.097   2.232   6.982 -0.7321  0.9403  0.0118
 7424SOL    HW133731   0.111   2.154   6.929 -0.4721  2.2327 -1.8227
 7424SOL    HW233732   0.001   2.232   6.979 -0.6990 -1.5959 -1.3281
 7425SOL     OW33733   3.759   0.628   0.193 -0.0440  0.1186  1.0940
 7425SOL    HW133734   3.770   0.721   0.174 -1.0002 -0.1169 -0.5994
 7425SOL    HW233735   3.830   0.607   0.254  0.4939  0.3267  0.5386
 7426SOL     OW33736   4.048   2.433   8.600 -0.0970 -0.2212  0.1876
 7426SOL    HW133737   4.118   2.375   8.571 -0.3116 -0.9528  1.1502
 7426SOL    HW233738   4.093   2.467   8.677 -0.2401  0.5578 -0.0735
 7427SOL     OW33739   0.450   3.495   8.521  0.3146  0.0149  0.3042
 7427SOL    HW133740   0.403   3.464   8.443  2.2291 -1.2949 -0.3130
 7427SOL    HW233741   0.501   3.568   8.484  0.1316 -0.1216 -0.2208
 7428SOL     OW33742   4.274   0.115   4.940 -0.0967  0.5182 -0.2403
 7428SOL    HW133743   4.269   0.124   4.845  2.4801 -1.1421 -0.5164
 7428SOL    HW233744   4.191   0.153   4.969 -0.1022  1.1303 -1.0908
 7429SOL     OW33745   2.469   2.141   5.363  0.0167 -0.1448 -0.4027
 7429SOL    HW133746   2.471   2.126   5.458 -2.4689  3.5219  0.2306
 7429SOL    HW233747   2.563   2.127   5.354  0.4984  3.8677 -1.4934
 7430SOL     OW33748   2.939   2.372   3.997 -0.0059 -0.3162 -0.5290
 7430SOL    HW133749   2.922   2.452   3.946 -0.7621 -3.0038 -4.4976
 7430SOL    HW233750   3.016   2.333   3.956  0.3901  0.1820 -0.2470
 7431SOL     OW33751   1.245   0.860   2.922  0.5581  0.2792 -0.0593
 7431SOL    HW133752   1.340   0.863   2.935  0.8426  0.9005 -2.2642
 7431SOL    HW233753   1.242   0.794   2.991 -0.1963 -1.8727 -2.1647
 7432SOL     OW33754   0.890   3.101   4.040  0.1260  0.0177 -0.1587
 7432SOL    HW133755   0.916   3.081   4.130 -2.2486  0.8310  0.7006
 7432SOL    HW233756   0.975   3.090   3.997  0.1625 -1.3192  0.2682
 7433SOL     OW33757   0.538   3.850  16.209 -0.5338  0.0287 -0.6779
 7433SOL    HW133758   0.478   3.923  16.194 -0.3754  0.3355  0.1915
 7433SOL    HW233759   0.583   3.895  16.280 -1.0456  1.1549 -1.0548
 7434SOL     OW33760   2.533   0.464  11.498 -0.0925 -0.8632  0.3659
 7434SOL    HW133761   2.523   0.523  11.423 -0.4167  0.4969  1.4751
 7434SOL    HW233762   2.520   0.521  11.574 -0.2465 -0.4289  0.0149
 7435SOL     OW33763   2.293   3.336   8.451 -0.5196  0.4971  0.0620
 7435SOL    HW133764   2.270   3.428   8.452  0.4627  0.7538 -0.2159
 7435SOL    HW233765   2.358   3.334   8.522 -2.2550  2.0070  1.6914
 7436SOL     OW33766   2.263   1.766  16.760  0.7038  0.0415  0.6433
 7436SOL    HW133767   2.301   1.685  16.725  0.7710 -0.2612  1.4275
 7436SOL    HW233768   2.173   1.737  16.774 -0.2133  3.0751  0.9844
 7437SOL     OW33769   0.785   2.599   7.206  0.5397 -0.1127 -0.2611
 7437SOL    HW133770   0.800   2.540   7.279  0.2642 -0.0400 -0.1450
 7437SOL    HW233771   0.809   2.540   7.135 -0.2201 -3.0694  1.9362
 7438SOL     OW33772   1.649   2.639   9.038 -0.1856  0.5332 -0.5206
 7438SOL    HW133773   1.649   2.575   8.967 -1.0153 -2.5865  2.2980
 7438SOL    HW233774   1.560   2.672   9.023 -0.1034  0.0833 -1.9978
 7439SOL     OW33775   2.082   1.075   7.073  0.3863  0.3846  0.0924
 7439SOL    HW133776   2.167   1.039   7.049  1.2689  1.4602  1.6030
 7439SOL    HW233777   2.018   1.023   7.023  0.5041  1.0185 -0.7119
 7440SOL     OW33778   4.195   3.309   7.275  0.0362  0.0175 -0.1073
 7440SOL    HW133779   4.102   3.329   7.289  0.3319  3.3127 -2.9025
 7440SOL    HW233780   4.193   3.327   7.181  1.6579 -2.0255 -0.5257
 7441SOL     OW33781   2.702   2.663  13.974  0.2598 -0.0264  0.0013
 7441SOL    HW133782   2.654   2.690  13.896  0.0686  0.0091  0.1321
 7441SOL    HW233783   2.693   2.568  13.972 -1.3860  0.0889  1.9948
 7442SOL     OW33784   4.620   3.507   0.074  0.2089 -0.1195  0.3124
 7442SOL    HW133785   4.634   3.601   0.085  1.3716 -0.1307 -1.0811
 7442SOL    HW233786   4.626   3.498  17.672 -0.8415 -0.3772  0.2715
 7443SOL     OW33787   3.904   3.963   3.836  0.5319  0.3495 -0.6609
 7443SOL    HW133788   3.947   3.889   3.793  0.7622 -0.8717  1.6972
 7443SOL    HW233789   3.829   3.973   3.777 -2.3011  1.9256  3.2059
 7444SOL     OW33790   3.840   0.765   7.828  0.0545  0.6855 -0.0413
 7444SOL    HW133791   3.762   0.733   7.783  0.2262  3.6713 -2.4039
 7444SOL    HW233792   3.797   0.837   7.873 -0.4590  1.6236 -2.0682
 7445SOL     OW33793   2.792   4.233   1.489 -0.8776 -0.3644 -0.4113
 7445SOL    HW133794   2.856   4.227   1.559 -0.0761 -1.0664 -1.2059
 7445SOL    HW233795   2.708   4.226   1.535  0.0101 -2.0499  0.8966
 7446SOL     OW33796   3.096   1.698   4.380 -0.0763  0.3561  0.0940
 7446SOL    HW133797   3.147   1.666   4.306  0.6173 -1.4178  1.3319
 7446SOL    HW233798   3.140   1.778   4.411 -0.0152  0.5437 -0.4849
 7447SOL     OW33799   1.786   1.767   2.576 -0.3659  0.9126  0.0025
 7447SOL    HW133800   1.820   1.686   2.613  1.0491  1.3392 -0.3581
 7447SOL    HW233801   1.859   1.827   2.560  1.5196 -1.0981  1.1930
 7448SOL     OW33802   0.670   1.026  13.231 -0.0629 -0.4333 -0.0735
 7448SOL    HW133803   0.729   0.953  13.211 -1.0788 -0.9458 -1.1881
 7448SOL    HW233804   0.721   1.056  13.306 -1.2548  0.3101  0.4421
 7449SOL     OW33805   2.254   2.545  12.212  0.2924 -0.2918 -0.0729
 7449SOL    HW133806   2.249   2.639  12.231  2.5546  0.1184 -1.5418
 7449SOL    HW233807   2.346   2.543  12.185 -0.2085  1.9219 -1.9264
 7450SOL     OW33808   3.393   3.793   5.852  0.3651  0.3092 -0.0737
 7450SOL    HW133809   3.303   3.820   5.835 -0.4093 -2.6297 -0.6241
 7450SOL    HW233810   3.412   3.827   5.940 -2.3639  0.4576  0.4450
 7451SOL     OW33811   2.666   0.149  17.011 -0.0059 -0.3372  0.1153
 7451SOL    HW133812   2.658   0.113  16.922 -0.2735 -1.1557  0.4681
 7451SOL    HW233813   2.642   0.071  17.061 -1.2795  0.3661  0.5965
 7452SOL     OW33814   1.349   0.882   7.062 -0.3612  0.5384 -0.8962
 7452SOL    HW133815   1.289   0.864   7.134  0.1013 -3.3929 -1.5166
 7452SOL    HW233816   1.321   0.972   7.048 -0.3151  1.0780  2.3080
 7453SOL     OW33817   1.949   0.045   3.795 -0.2965 -0.0349 -0.2962
 7453SOL    HW133818   1.906   4.710   3.858 -0.1926 -1.2860 -1.3713
 7453SOL    HW233819   1.897   0.023   3.717 -1.9308 -0.6444  0.9414
 7454SOL     OW33820   1.493   2.106  11.253 -0.1217 -0.2144 -0.6015
 7454SOL    HW133821   1.428   2.119  11.322  0.8621  1.1647  0.0595
 7454SOL    HW233822   1.433   2.112  11.179  0.9170 -0.5804 -1.4788
 7455SOL     OW33823   1.860   0.337  13.881  0.5026 -0.0329 -0.9585
 7455SOL    HW133824   1.866   0.245  13.907 -1.0083  0.4039  0.8921
 7455SOL    HW233825   1.890   0.324  13.791  0.8135  1.1083 -1.0137
 7456SOL     OW33826   4.620   3.631   1.610 -0.4156 -0.2213 -0.1313
 7456SOL    HW133827   4.543   3.586   1.645 -0.3978 -1.7134 -2.0358
 7456SOL    HW233828   4.671   3.550   1.609 -0.7020 -0.4104  0.3908
 7457SOL     OW33829   1.083   0.766  16.416 -0.3409  0.4275 -0.0026
 7457SOL    HW133830   1.173   0.761  16.385 -0.3187  0.1152  0.1224
 7457SOL    HW233831   1.021   0.719  16.360  1.0218 -0.3782 -0.8214
 7458SOL     OW33832   1.334   4.334   6.040 -0.1323 -0.0889  0.7017
 7458SOL    HW133833   1.257   4.281   6.061 -0.8934  1.0898  0.8825
 7458SOL    HW233834   1.361   4.363   6.127  0.6968  0.3708  0.2952
 7459SOL     OW33835   0.344   1.194  13.999  0.0336 -0.3122  0.2632
 7459SOL    HW133836   0.294   1.230  14.072 -1.4227 -0.5305 -0.6087
 7459SOL    HW233837   0.379   1.277  13.967 -1.3978  0.1870 -0.0186
 7460SOL     OW33838   2.396   1.480   5.043  0.3247  0.5196  0.6790
 7460SOL    HW133839   2.380   1.386   5.037 -0.8049  0.6148  2.2057
 7460SOL    HW233840   2.486   1.480   5.077  0.5288  0.7211  0.1298
 7461SOL     OW33841   2.455   2.727   0.712 -0.0868  0.0773 -0.6708
 7461SOL    HW133842   2.368   2.730   0.670 -0.0393 -3.2649 -1.0003
 7461SOL    HW233843   2.488   2.658   0.654 -0.1515 -1.4080  1.0624
 7462SOL     OW33844   0.058   0.442  12.320  0.0494 -0.0006  0.1250
 7462SOL    HW133845   0.141   0.397  12.309  0.2966  0.1551  1.4362
 7462SOL    HW233846   0.012   0.375  12.371 -0.9143  1.1322  0.7611
 7463SOL     OW33847   3.558   4.510   4.836 -0.3207 -0.0671  0.3650
 7463SOL    HW133848   3.638   4.482   4.880 -0.4119 -0.7861  0.0783
 7463SOL    HW233849   3.541   4.600   4.863  1.5222  0.9342 -1.8321
 7464SOL     OW33850   1.644   4.360   0.883  0.3557 -0.2903  0.3673
 7464SOL    HW133851   1.582   4.415   0.930  0.6481  0.3272  0.0434
 7464SOL    HW233852   1.589   4.293   0.843 -0.9653  0.8241  0.3153
 7465SOL     OW33853   0.796   3.598   7.315  0.3971 -0.2301  0.6050
 7465SOL    HW133854   0.771   3.620   7.405  0.2454  0.0852  0.4851
 7465SOL    HW233855   0.721   3.640   7.274  0.1918 -1.0517  0.1399
 7466SOL     OW33856   1.120   0.174   5.322  0.5480  0.4999  0.2482
 7466SOL    HW133857   1.182   0.198   5.391  0.2563 -0.0800  0.7077
 7466SOL    HW233858   1.076   0.256   5.302 -0.2147  0.3048  1.1484
 7467SOL     OW33859   1.430   2.747   4.478  0.1742 -0.2170  0.0179
 7467SOL    HW133860   1.445   2.764   4.385  3.4948 -0.2756  0.5241
 7467SOL    HW233861   1.348   2.701   4.465 -0.6678  1.8975 -2.0786
 7468SOL     OW33862   3.896   2.267  11.902 -0.6905  0.2414 -0.1489
 7468SOL    HW133863   3.803   2.251  11.883 -0.5071 -1.2539  0.2181
 7468SOL    HW233864   3.934   2.179  11.899 -1.1911 -0.0175  1.0156
 7469SOL     OW33865   4.169   3.595   8.176  0.1350  0.2837  0.1597
 7469SOL    HW133866   4.109   3.544   8.231 -0.5802 -0.2233 -1.0924
 7469SOL    HW233867   4.254   3.567   8.210 -0.2930 -0.2032  0.8330
 7470SOL     OW33868   1.893   3.667   1.505  0.6234 -0.3727 -0.0936
 7470SOL    HW133869   1.830   3.641   1.438  0.4407  0.0527 -0.0879
 7470SOL    HW233870   1.968   3.608   1.492  0.6023 -1.1223  3.1860
 7471SOL     OW33871   3.440   2.273   4.333 -0.6805 -0.2272  0.3809
 7471SOL    HW133872   3.480   2.305   4.252  0.4677 -0.1719  0.9564
 7471SOL    HW233873   3.423   2.360   4.368  1.8903 -0.1558  1.4677
 7472SOL     OW33874   2.226   1.291  12.647 -0.4424 -0.1156  0.7130
 7472SOL    HW133875   2.232   1.239  12.727 -1.1510  0.5068  1.1686
 7472SOL    HW233876   2.312   1.333  12.641  0.1466 -1.2650  1.0900
 7473SOL     OW33877   4.518   3.042   9.234 -0.0204 -0.1570  0.1745
 7473SOL    HW133878   4.466   2.986   9.178 -0.7530 -0.3864  1.0875
 7473SOL    HW233879   4.608   3.033   9.201 -0.2339  1.0611 -0.7369
 7474SOL     OW33880   2.585   3.604  10.529 -0.8108 -0.5649 -0.1833
 7474SOL    HW133881   2.640   3.553  10.470  1.7561  1.9033  0.1022
 7474SOL    HW233882   2.636   3.684  10.545 -0.5756 -0.1068 -3.3792
 7475SOL     OW33883   3.512   0.855   3.238 -0.0391  0.0279  0.1981
 7475SOL    HW133884   3.550   0.900   3.313  2.2798 -0.5750 -0.6147
 7475SOL    HW233885   3.421   0.870   3.265 -0.7135 -2.5383 -0.6328
 7476SOL     OW33886   4.600   3.164   9.660  0.8309 -0.1980  0.1436
 7476SOL    HW133887   4.597   3.184   9.566  0.3845  1.1084  0.4376
 7476SOL    HW233888   4.506   3.160   9.682  0.8441 -0.7454  0.1104
 7477SOL     OW33889   1.733   3.336   1.944  0.4729 -0.0915 -0.2051
 7477SOL    HW133890   1.758   3.247   1.918 -2.2654 -1.1407  0.8048
 7477SOL    HW233891   1.678   3.357   1.869 -1.4026 -0.2221  1.1383
 7478SOL     OW33892   0.184   0.987   4.469  0.4022  0.2017  0.1093
 7478SOL    HW133893   0.135   1.060   4.505 -0.5641 -0.2129 -0.3755
 7478SOL    HW233894   0.193   1.011   4.376 -0.8131 -1.6982 -0.5098
 7479SOL     OW33895   2.133   2.029   0.982 -0.0547  0.1856  0.7464
 7479SOL    HW133896   2.122   2.124   0.985 -0.0266  0.2510 -1.1452
 7479SOL    HW233897   2.226   2.020   1.002 -0.2403 -1.0625  1.0688
 7480SOL     OW33898   3.480   1.593   4.389 -0.1602 -0.1250 -0.0448
 7480SOL    HW133899   3.463   1.523   4.327 -0.5531  0.1878 -0.2912
 7480SOL    HW233900   3.472   1.665   4.327  0.8338  1.5289  1.7300
 7481SOL     OW33901   3.452   4.226   7.701  0.0350  0.1939  0.0490
 7481SOL    HW133902   3.526   4.286   7.708 -2.3938  3.1418  0.0397
 7481SOL    HW233903   3.387   4.257   7.764 -1.5086  0.8655 -1.8944
 7482SOL     OW33904   1.333   1.192   1.055  0.3450 -0.6375 -0.0392
 7482SOL    HW133905   1.280   1.116   1.032 -2.7866  1.8335 -0.9879
 7482SOL    HW233906   1.275   1.261   1.087  1.0655  0.4716 -1.1012
 7483SOL     OW33907   2.665   3.976   1.666  0.3464  0.6072 -0.1966
 7483SOL    HW133908   2.647   3.919   1.740  1.4500 -1.1659 -1.2811
 7483SOL    HW233909   2.723   3.923   1.611  0.0292  0.3609 -0.2856
 7484SOL     OW33910   3.052   3.041   4.997  0.5110  0.2559  0.0539
 7484SOL    HW133911   3.010   3.127   4.991  2.2470  0.9868 -1.3982
 7484SOL    HW233912   3.143   3.071   5.001  0.8585 -1.1905  3.5290
 7485SOL     OW33913   2.854   3.913   1.447  0.0010  0.5836  0.0000
 7485SOL    HW133914   2.881   3.859   1.373  0.9773 -0.7588  1.3288
 7485SOL    HW233915   2.927   3.973   1.462 -0.0998  1.6350 -3.8719
 7486SOL     OW33916   1.491   0.926   8.131  0.0770  0.2483  0.0129
 7486SOL    HW133917   1.503   1.013   8.095  3.5492  0.0650  0.7515
 7486SOL    HW233918   1.395   0.928   8.136 -0.0281 -0.6384 -1.5084
 7487SOL     OW33919   3.586   4.483   4.545  0.2054 -0.1571  0.3812
 7487SOL    HW133920   3.508   4.430   4.525 -0.7948  1.3958  0.1693
 7487SOL    HW233921   3.590   4.487   4.640  2.1276  0.9872  0.2386
 7488SOL     OW33922   4.669   0.294   2.911 -0.3182 -0.4455  0.7212
 7488SOL    HW133923   4.578   0.324   2.911  0.7992  2.8976 -0.8700
 7488SOL    HW233924   4.720   0.375   2.924  3.5536 -2.6675 -0.5310
 7489SOL     OW33925   4.609   2.392   9.246  0.4178  0.0343 -0.1331
 7489SOL    HW133926   4.517   2.402   9.220 -0.1174  1.8662  2.4388
 7489SOL    HW233927   4.633   2.468   9.300  0.6598  0.0455 -0.2589
 7490SOL     OW33928   3.452   1.439   7.403  0.0133 -0.5548 -0.3455
 7490SOL    HW133929   3.521   1.425   7.339 -1.4039  1.0841 -2.2415
 7490SOL    HW233930   3.483   1.368   7.459  0.9909 -0.1727 -0.4033
 7491SOL     OW33931   0.308   1.620   3.989  0.2989 -0.0346 -0.0754
 7491SOL    HW133932   0.268   1.535   4.006  0.2230 -0.4155 -2.1129
 7491SOL    HW233933   0.401   1.602   4.004  0.1699 -1.5659 -1.0738
 7492SOL     OW33934   1.487   2.012   5.466 -0.4787  0.2474 -0.1136
 7492SOL    HW133935   1.478   2.069   5.542 -1.8666 -0.5365  0.3079
 7492SOL    HW233936   1.447   2.074   5.406  0.4224 -1.1660 -2.2038
 7493SOL     OW33937   2.676   4.526   3.199 -0.4539  0.3307 -0.2087
 7493SOL    HW133938   2.695   4.494   3.111  1.5796 -0.4717  0.5087
 7493SOL    HW233939   2.608   4.462   3.219  0.9382 -0.3429  2.2930
 7494SOL     OW33940   1.210   2.119   6.354  0.2865 -0.3454 -0.0863
 7494SOL    HW133941   1.242   2.086   6.270 -1.2764  0.8750 -1.1613
 7494SOL    HW233942   1.187   2.210   6.337  0.7969 -0.5706 -1.9415
 7495SOL     OW33943   3.353   4.007   5.609 -0.0848 -0.7728 -0.6426
 7495SOL    HW133944   3.301   4.058   5.547  0.0586  0.6660  0.4157
 7495SOL    HW233945   3.355   4.072   5.679 -2.2248 -1.3482 -0.0512
 7496SOL     OW33946   3.063   2.911   4.391  0.1336  0.8434  0.2813
 7496SOL    HW133947   3.030   2.995   4.358 -1.1859  1.0680  2.1697
 7496SOL    HW233948   3.009   2.906   4.470  0.5072  1.1206  0.5567
 7497SOL     OW33949   0.506   1.038   6.805  0.2228  0.4372  0.0322
 7497SOL    HW133950   0.588   1.087   6.800  0.9287 -0.7918 -0.6059
 7497SOL    HW233951   0.510   1.004   6.895  0.7604 -2.6642 -1.1755
 7498SOL     OW33952   2.157   2.643   3.919 -0.4242  0.1558 -0.3610
 7498SOL    HW133953   2.146   2.602   4.005 -1.1135 -2.1539 -1.5252
 7498SOL    HW233954   2.068   2.630   3.885 -0.7054  0.4308  0.2722
 7499SOL     OW33955   0.187   3.026   8.692  0.2291 -0.0132  0.0970
 7499SOL    HW133956   0.101   2.987   8.679  0.4116  0.5743 -2.9165
 7499SOL    HW233957   0.184   3.116   8.659  1.3161 -0.9927 -2.7445
 7500SOL     OW33958   0.695   3.384  17.180 -0.0656  0.4168 -0.4445
 7500SOL    HW133959   0.625   3.443  17.208 -0.8881 -0.9803  0.4712
 7500SOL    HW233960   0.687   3.384  17.084 -0.2612 -1.2612 -0.4305
 7501SOL     OW33961   2.535   2.929   3.132  0.4214  0.1020  0.4022
 7501SOL    HW133962   2.496   2.943   3.045  0.9733 -1.6290 -0.1313
 7501SOL    HW233963   2.623   2.966   3.126  0.3715  0.5154  2.3422
 7502SOL     OW33964   0.065   4.173   3.784 -0.1850  0.4266  0.0959
 7502SOL    HW133965   0.129   4.210   3.724  0.8882 -0.4678  0.6950
 7502SOL    HW233966   0.089   4.219   3.865 -1.2905  0.8159  0.2025
 7503SOL     OW33967   3.006   2.119   6.333 -0.2043 -0.7625  0.1060
 7503SOL    HW133968   3.084   2.124   6.278  1.5535  0.0261  2.7239
 7503SOL    HW233969   2.997   2.210   6.361 -0.2614 -0.7412  0.0192
 7504SOL     OW33970   1.603   1.508   2.575  0.4885  0.1669  0.2573
 7504SOL    HW133971   1.658   1.438   2.610  2.2468  1.4858  0.1029
 7504SOL    HW233972   1.660   1.584   2.562  3.0287 -1.2094  3.3507
 7505SOL     OW33973   1.737   4.012  16.147  0.3402  0.8280  0.2989
 7505SOL    HW133974   1.805   3.973  16.202 -0.1557  1.7009  1.5469
 7505SOL    HW233975   1.663   4.011  16.208  0.7561 -0.9286  0.7554
 7506SOL     OW33976   2.290   0.311   9.497 -0.4941 -0.3708  0.3876
 7506SOL    HW133977   2.386   0.313   9.499 -0.5783  3.2973 -0.7321
 7506SOL    HW233978   2.273   0.278   9.409  0.0834  0.3528  0.0106
 7507SOL     OW33979   3.114   0.700  16.524 -0.1877 -0.1717  0.0439
 7507SOL    HW133980   3.090   0.779  16.572  0.2783  0.4493 -0.7386
 7507SOL    HW233981   3.199   0.679  16.561 -0.2792  0.5808  0.6763
 7508SOL     OW33982   4.716   3.001   5.048 -0.1569  0.1238  0.2476
 7508SOL    HW133983   4.658   3.028   4.977  0.6892 -0.0542 -0.5102
 7508SOL    HW233984   0.069   2.978   4.995  0.2442  4.5928 -1.1280
 7509SOL     OW33985   0.170   1.959   0.032  0.4400 -0.0294 -0.2501
 7509SOL    HW133986   0.175   2.039   0.085 -1.5644  0.4559 -0.7702
 7509SOL    HW233987   0.106   1.913   0.087  1.7268 -1.5270 -0.0332
 7510SOL     OW33988   3.205   2.479  14.871  0.1527 -0.2327 -0.0827
 7510SOL    HW133989   3.143   2.541  14.833  0.7430 -0.7054 -1.8194
 7510SOL    HW233990   3.276   2.499  14.809 -1.3349  1.5036 -1.2192
 7511SOL     OW33991   3.677   0.302  17.196 -0.2234 -0.4734  0.1731
 7511SOL    HW133992   3.679   0.344  17.282  0.4561 -0.6531  0.2446
 7511SOL    HW233993   3.621   0.366  17.152 -0.2827  1.3015  2.8486
 7512SOL     OW33994   4.440   2.298   8.351  0.4061  0.4254 -0.4648
 7512SOL    HW133995   4.406   2.373   8.302  1.3593  1.4404  0.4446
 7512SOL    HW233996   4.516   2.337   8.393 -0.1321  0.3461  0.5855
 7513SOL     OW33997   0.211   0.252   5.826 -0.1690  0.1996  0.1680
 7513SOL    HW133998   0.297   0.236   5.864  1.2427  1.4673 -2.5453
 7513SOL    HW233999   0.241   0.284   5.741 -0.0042  1.9407  0.8766
 7514SOL     OW34000   2.209   0.863   1.842 -0.2813  0.3568  0.2462
 7514SOL    HW134001   2.168   0.839   1.759  0.5609  1.1821 -0.4071
 7514SOL    HW234002   2.299   0.877   1.812  0.2571 -0.2660  1.5495
 7515SOL     OW34003   0.670   2.216   2.357 -0.3202  0.8361 -0.1843
 7515SOL    HW134004   0.629   2.301   2.340  1.4126  1.6342 -0.4453
 7515SOL    HW234005   0.739   2.215   2.291  1.4035 -0.6176  1.6292
 7516SOL     OW34006   1.522   2.852  12.677  0.3596  0.1551 -0.5675
 7516SOL    HW134007   1.440   2.810  12.699 -0.2735  1.1333 -1.0440
 7516SOL    HW234008   1.569   2.773  12.652  1.0936  0.7028 -0.9298
 7517SOL     OW34009   3.768   0.204  14.957  0.3504  0.7131  0.1067
 7517SOL    HW134010   3.855   0.180  14.926 -0.5016  0.1955 -1.8232
 7517SOL    HW234011   3.766   0.137  15.025  0.8128  1.3216  0.7291
 7518SOL     OW34012   3.325   3.346   8.135  0.2616 -0.2477 -0.5827
 7518SOL    HW134013   3.348   3.258   8.163  2.0182  0.4823  0.2315
 7518SOL    HW234014   3.289   3.333   8.047  1.1678 -1.5927 -0.7418
 7519SOL     OW34015   3.077   1.072  17.069 -0.0363 -0.0165 -0.4486
 7519SOL    HW134016   3.119   1.136  17.013  1.0838  1.3507  1.9503
 7519SOL    HW234017   3.117   0.990  17.040  0.9728  0.1763  0.4044
 7520SOL     OW34018   0.641   0.583   8.927  0.3970 -0.1693 -0.1900
 7520SOL    HW134019   0.595   0.522   8.869 -0.9451  0.6925 -0.0399
 7520SOL    HW234020   0.715   0.603   8.870  0.0955  1.2360 -0.0952
 7521SOL     OW34021   1.527   0.546  13.784  0.2860 -0.1111 -0.3600
 7521SOL    HW134022   1.489   0.487  13.849 -1.5445  2.3422  0.8021
 7521SOL    HW234023   1.556   0.477  13.725  0.5406 -0.6208  0.3666
 7522SOL     OW34024   0.039   4.502  17.513  0.1779 -0.2145 -0.1140
 7522SOL    HW134025   4.721   4.421  17.544 -2.4162  0.7365 -1.0301
 7522SOL    HW234026   0.057   4.541  17.599  0.6629 -2.1994  0.6750
 7523SOL     OW34027   2.330   1.291   3.329 -0.5726  0.4845 -0.5107
 7523SOL    HW134028   2.245   1.319   3.294  0.0890  0.7528 -1.9164
 7523SOL    HW234029   2.373   1.376   3.319 -0.1836  0.0374 -2.7624
 7524SOL     OW34030   0.963   3.800   7.393 -0.0528  0.7842 -0.4283
 7524SOL    HW134031   0.946   3.730   7.456 -1.1958  0.3158 -1.2722
 7524SOL    HW234032   0.920   3.756   7.320  1.8881  0.7869 -1.5799
 7525SOL     OW34033   3.986   1.611  17.068 -0.2162 -0.0055  0.2228
 7525SOL    HW134034   4.005   1.628  16.975 -1.8643 -1.7623 -0.4141
 7525SOL    HW234035   3.973   1.517  17.071  0.0139  0.0041  1.3002
 7526SOL     OW34036   0.331   0.236  15.958 -0.3180  0.2997  0.2392
 7526SOL    HW134037   0.388   0.175  15.912 -0.5595  0.2628 -0.0078
 7526SOL    HW234038   0.340   0.303  15.891  1.5476 -0.7412 -0.5801
 7527SOL     OW34039   2.088   3.813  10.064 -0.1647 -0.4139  0.2441
 7527SOL    HW134040   2.063   3.735  10.015 -0.8679 -0.0928  0.0943
 7527SOL    HW234041   2.133   3.783  10.143 -0.3639  0.4820  0.7024
 7528SOL     OW34042   0.054   1.237  12.229  0.0593 -0.2409  0.1691
 7528SOL    HW134043   0.125   1.184  12.193  1.2008  0.7084  1.0273
 7528SOL    HW234044   0.085   1.296  12.297  1.1107 -0.3261 -0.2370
 7529SOL     OW34045   0.136   4.096  17.083 -0.0266  0.2243  0.0815
 7529SOL    HW134046   0.070   4.065  17.021 -0.0734 -2.8078  1.6847
 7529SOL    HW234047   0.216   4.104  17.030 -0.0684 -0.3498 -0.0668
 7530SOL     OW34048   2.892   0.159   6.089 -0.1164 -0.5650 -0.2102
 7530SOL    HW134049   2.919   0.086   6.145 -0.2614 -0.4051  0.0705
 7530SOL    HW234050   2.932   0.226   6.145  1.2122  0.4218 -2.3757
 7531SOL     OW34051   4.308   2.595  13.048 -0.7520  0.0933 -0.1098
 7531SOL    HW134052   4.332   2.676  13.092 -0.0219 -0.0426 -0.2541
 7531SOL    HW234053   4.233   2.569  13.101  0.9392  1.1586  2.8140
 7532SOL     OW34054   4.306   2.172   5.247 -0.1951  0.4916  0.2868
 7532SOL    HW134055   4.313   2.167   5.152  2.5320  2.3908  0.3688
 7532SOL    HW234056   4.220   2.132   5.258  0.8375 -1.7140  0.2955
 7533SOL     OW34057   4.109   3.732  12.535  0.1446 -0.2065  0.1257
 7533SOL    HW134058   4.080   3.735  12.444 -1.0094  2.9661  0.5805
 7533SOL    HW234059   4.184   3.673  12.537  0.4715  0.2527  1.3402
 7534SOL     OW34060   3.291   2.613   5.043  0.3366  0.2971  0.0039
 7534SOL    HW134061   3.373   2.661   5.039  0.8405 -0.6927 -1.2521
 7534SOL    HW234062   3.233   2.687   5.024  1.8199  1.4668  0.1052
 7535SOL     OW34063   2.199   3.475   6.017 -0.2050 -0.0135  0.0346
 7535SOL    HW134064   2.153   3.458   5.936  1.0325  1.3857 -0.9684
 7535SOL    HW234065   2.193   3.386   6.053 -0.4188 -0.1107 -0.2448
 7536SOL     OW34066   0.087   1.965   2.772 -0.2859 -0.1177 -0.1681
 7536SOL    HW134067   4.717   1.979   2.791 -0.2287 -1.9300  1.3665
 7536SOL    HW234068   0.124   1.915   2.845  1.0526  1.0750 -0.0248
 7537SOL     OW34069   2.057   4.453   0.666  0.1706 -0.3547  0.0923
 7537SOL    HW134070   2.081   4.437   0.757  0.4000 -1.3275 -0.1314
 7537SOL    HW234071   2.145   4.459   0.630 -0.7109 -0.2443 -2.1125
 7538SOL     OW34072   2.872   2.278   2.450  0.4423  0.1772  0.5364
 7538SOL    HW134073   2.799   2.265   2.511  0.4632  0.3546  0.5987
 7538SOL    HW234074   2.918   2.350   2.492  0.6252  0.0614  0.5308
 7539SOL     OW34075   4.017   1.958   2.573 -0.0452 -0.0439 -0.4739
 7539SOL    HW134076   4.091   1.977   2.516  0.1926  1.0409  0.1938
 7539SOL    HW234077   3.996   2.048   2.596 -0.1063  0.1718 -1.3600
 7540SOL     OW34078   1.798   2.605   3.638 -0.3803  0.0417 -0.4692
 7540SOL    HW134079   1.841   2.642   3.560  2.1595  0.6437  1.2016
 7540SOL    HW234080   1.714   2.635   3.605 -1.3513 -0.7736  1.2797
 7541SOL     OW34081   2.268   1.568   7.448 -0.0853 -0.5567 -0.0529
 7541SOL    HW134082   2.204   1.512   7.404 -0.1100 -0.1334 -0.5522
 7541SOL    HW234083   2.314   1.493   7.487 -1.0490 -0.9576  0.3193
 7542SOL     OW34084   0.024   2.821   9.571  0.6126  0.1694  0.6022
 7542SOL    HW134085   0.009   2.862   9.657  1.1857  0.0143  0.7764
 7542SOL    HW234086   0.076   2.892   9.536 -0.6702  0.9147  0.2077
 7543SOL     OW34087   2.839   1.819   5.153  1.0089  0.7021  0.2596
 7543SOL    HW134088   2.922   1.821   5.201  2.0804 -1.1649 -1.4952
 7543SOL    HW234089   2.874   1.843   5.067  1.2107 -3.1289 -0.7424
 7544SOL     OW34090   3.044   0.622   3.453  0.0286 -0.4074 -0.4826
 7544SOL    HW134091   3.105   0.667   3.512  2.6171 -1.2205 -2.5487
 7544SOL    HW234092   3.079   0.533   3.456 -0.0398 -0.4391 -0.6799
 7545SOL     OW34093   4.014   0.095   1.886 -0.2864  0.5896 -0.5169
 7545SOL    HW134094   3.934   0.087   1.835 -1.5226 -1.6100  1.7290
 7545SOL    HW234095   4.038   0.180   1.849  1.8490 -0.4969 -1.6943
 7546SOL     OW34096   3.949   0.361   7.858 -0.5857 -0.3293 -0.0084
 7546SOL    HW134097   3.969   0.448   7.823 -0.8878  1.0051  3.0789
 7546SOL    HW234098   3.964   0.370   7.952  1.8895 -1.8493 -0.2778
 7547SOL     OW34099   3.862   3.349   6.679  0.2276  0.0335  0.0531
 7547SOL    HW134100   3.890   3.372   6.591 -1.8233 -1.0857 -0.8981
 7547SOL    HW234101   3.818   3.267   6.656 -0.4322  0.5965 -0.7159
 7548SOL     OW34102   0.941   0.728   1.235 -0.3621 -0.2869 -0.4391
 7548SOL    HW134103   0.870   0.663   1.234 -0.2056 -0.4585 -0.4408
 7548SOL    HW234104   1.021   0.695   1.195 -0.8120 -1.9248  0.0132
 7549SOL     OW34105   1.537   3.762   9.333 -0.2335  0.2200  0.1373
 7549SOL    HW134106   1.451   3.805   9.329 -0.0251  0.7058  0.9224
 7549SOL    HW234107   1.574   3.816   9.403  0.6127 -0.2709  0.0699
 7550SOL     OW34108   3.087   3.599   7.199 -0.4451 -0.4168  0.5191
 7550SOL    HW134109   3.146   3.537   7.155 -0.0530 -0.2691  0.8397
 7550SOL    HW234110   3.095   3.578   7.292 -1.8984 -0.7354  0.5733
 7551SOL     OW34111   4.448   2.598   6.353 -0.3127  0.1468  0.0819
 7551SOL    HW134112   4.432   2.607   6.447 -1.6334 -2.9773  0.1604
 7551SOL    HW234113   4.421   2.506   6.354  1.4658 -0.3911 -0.2198
 7552SOL     OW34114   2.639   3.447   8.455 -0.1743 -0.0242 -0.5199
 7552SOL    HW134115   2.712   3.413   8.506 -0.2536 -0.6236 -0.8081
 7552SOL    HW234116   2.580   3.442   8.530 -0.7575  4.7417 -0.6465
 7553SOL     OW34117   1.399   1.064   3.635  0.7087 -0.4489 -0.1453
 7553SOL    HW134118   1.310   1.100   3.643  1.3573  0.8197  1.3026
 7553SOL    HW234119   1.390   0.969   3.623 -0.2312 -0.5144  1.0372
 7554SOL     OW34120   0.820   0.800   2.014  0.4837 -0.0259  0.2761
 7554SOL    HW134121   0.867   0.793   2.097 -0.2240  0.6819  0.7440
 7554SOL    HW234122   0.818   0.896   2.011 -0.9591 -0.0903 -0.7871
 7555SOL     OW34123   1.129   2.277  16.711  0.2035  0.1423  0.3148
 7555SOL    HW134124   1.148   2.191  16.672  1.3985  0.9567 -0.8966
 7555SOL    HW234125   1.209   2.325  16.691  0.5802 -0.1143  1.2322
 7556SOL     OW34126   1.623   3.199  17.472 -0.1892  0.3138 -0.3833
 7556SOL    HW134127   1.543   3.179  17.423  1.0647 -1.0498 -1.8708
 7556SOL    HW234128   1.605   3.164  17.560  0.2784  1.6630  0.2550
 7557SOL     OW34129   2.960   1.064   6.796 -0.3016 -0.5136 -0.1450
 7557SOL    HW134130   2.962   1.075   6.891 -1.5558 -0.0652 -0.1743
 7557SOL    HW234131   2.867   1.067   6.775  0.2760  0.0600 -2.6533
 7558SOL     OW34132   2.641   3.079   7.556  0.0336  0.2961  0.4630
 7558SOL    HW134133   2.690   3.069   7.474 -0.6425  2.8022 -0.2522
 7558SOL    HW234134   2.581   3.005   7.553 -0.4650  0.7274 -0.1270
 7559SOL     OW34135   4.578   2.986   6.585  0.1817 -0.1370 -0.2768
 7559SOL    HW134136   4.583   2.935   6.504 -1.8364  0.0296 -0.5118
 7559SOL    HW234137   4.583   3.073   6.545  1.5074 -0.6001 -1.1140
 7560SOL     OW34138   3.057   3.566   6.660  0.0522 -0.2859 -0.3066
 7560SOL    HW134139   3.048   3.559   6.565 -2.1849  0.5042 -0.1471
 7560SOL    HW234140   2.980   3.515   6.686 -0.7822  1.8313  1.3514
 7561SOL     OW34141   2.959   3.678  14.907 -0.5408 -0.7431  0.0190
 7561SOL    HW134142   3.005   3.654  14.826  0.4936  0.3939  0.2638
 7561SOL    HW234143   2.949   3.773  14.900 -2.9095 -0.9198  1.0392
 7562SOL     OW34144   2.447   0.173   0.391 -0.1736 -0.3713  0.2293
 7562SOL    HW134145   2.539   0.193   0.372 -0.7243  0.7377 -1.2691
 7562SOL    HW234146   2.437   0.092   0.341  1.6517  1.2440 -2.7937
 7563SOL     OW34147   0.112   2.621   3.498  0.3460 -0.0886 -0.6339
 7563SOL    HW134148   0.166   2.611   3.577 -2.1808 -0.6719  1.0248
 7563SOL    HW234149   0.043   2.561   3.526 -0.3249  1.6027  1.3013
 7564SOL     OW34150   3.573   3.817   5.635  0.1699  0.3388 -0.1203
 7564SOL    HW134151   3.524   3.791   5.557 -0.9007 -0.8718  0.9662
 7564SOL    HW234152   3.503   3.836   5.697 -0.8226  1.4556 -1.5854
 7565SOL     OW34153   2.304   3.075   9.379  0.5669  0.1290  0.2393
 7565SOL    HW134154   2.291   3.092   9.473 -2.5712  3.1514 -0.7245
 7565SOL    HW234155   2.325   2.982   9.374  2.4063  0.6492 -1.2922
 7566SOL     OW34156   0.366   0.923   7.990 -0.0631  0.2921  0.4280
 7566SOL    HW134157   0.441   0.904   8.046  0.7993  1.3848 -0.3539
 7566SOL    HW234158   0.358   1.019   7.985 -0.1495  0.3826  2.1898
 7567SOL     OW34159   2.670   3.690   6.800 -0.2502  0.5750 -0.8274
 7567SOL    HW134160   2.604   3.696   6.869  1.6707 -1.0545  1.1512
 7567SOL    HW234161   2.737   3.745   6.840 -0.1662  0.1781 -0.4223
 7568SOL     OW34162   2.911   3.294   6.054  0.0925 -0.3731  0.0503
 7568SOL    HW134163   2.985   3.267   6.000  0.2743 -2.1848  1.2002
 7568SOL    HW234164   2.954   3.342   6.125 -0.4606 -2.9279  2.1041
 7569SOL     OW34165   0.794   2.717   1.114  0.2110  0.1400  0.3671
 7569SOL    HW134166   0.763   2.720   1.023 -1.3616 -1.4907  0.8524
 7569SOL    HW234167   0.876   2.767   1.113  0.9318 -1.0330  1.7644
 7570SOL     OW34168   3.050   1.827   7.987  0.2058  0.5557 -0.3471
 7570SOL    HW134169   3.048   1.862   7.898 -0.0395 -0.5530 -0.7759
 7570SOL    HW234170   2.997   1.892   8.034  0.6462  0.1519  0.7279
 7571SOL     OW34171   0.717   1.297   7.936  0.7174  0.6658 -0.4613
 7571SOL    HW134172   0.754   1.298   7.847  1.1938 -0.0710 -0.2763
 7571SOL    HW234173   0.718   1.203   7.954 -4.1076  0.6243 -0.3967
 7572SOL     OW34174   0.325   0.069   1.736 -0.0136 -0.3614  0.2138
 7572SOL    HW134175   0.346   0.162   1.736  0.7347 -0.5317 -0.6306
 7572SOL    HW234176   0.402   0.042   1.787  2.1592  0.8749 -2.4190
 7573SOL     OW34177   4.545   3.145   5.799 -0.7949  0.1150 -0.1600
 7573SOL    HW134178   4.609   3.132   5.869 -0.3708  0.5768 -0.4615
 7573SOL    HW234179   4.561   3.238   5.781  1.6535 -0.2052  0.4130
 7574SOL     OW34180   2.210   0.911   2.955 -0.1771  0.4536  0.0662
 7574SOL    HW134181   2.289   0.860   2.977  0.3110  1.6398  1.0906
 7574SOL    HW234182   2.229   0.997   2.994  1.2676  0.2500 -0.1627
 7575SOL     OW34183   0.341   1.952   3.492  0.4035  0.3964 -0.5487
 7575SOL    HW134184   0.363   2.039   3.459  0.4720  0.2367 -0.9212
 7575SOL    HW234185   0.425   1.910   3.475 -0.0125  0.3696 -2.5035
 7576SOL     OW34186   3.983   4.410  11.065  0.4380  0.0411 -0.1875
 7576SOL    HW134187   3.997   4.318  11.088  1.4663  1.0001  3.0285
 7576SOL    HW234188   4.024   4.455  11.139  0.0612 -1.0597  0.6877
 7577SOL     OW34189   1.979   3.260  13.939 -0.0195  0.2093 -0.4721
 7577SOL    HW134190   1.966   3.168  13.915  0.5060  0.3860 -1.4656
 7577SOL    HW234191   1.987   3.302  13.853 -0.2244  0.7587 -0.2248
 7578SOL     OW34192   2.225   1.556   0.926 -0.8033  0.6076  0.3925
 7578SOL    HW134193   2.235   1.567   0.832 -0.3033  2.4804  0.6610
 7578SOL    HW234194   2.164   1.625   0.951  0.1108  1.2262  0.9426
 7579SOL     OW34195   0.678   4.433   3.940 -0.3996 -0.1042  0.1187
 7579SOL    HW134196   0.610   4.368   3.922  0.3874 -1.0732  0.7107
 7579SOL    HW234197   0.713   4.452   3.852  2.4077  2.9372  1.8990
 7580SOL     OW34198   3.509   1.921  11.152 -0.4846  0.1177 -0.2286
 7580SOL    HW134199   3.478   1.857  11.217  1.6327 -0.5329  0.1338
 7580SOL    HW234200   3.435   1.914  11.092  0.4007  2.0303 -1.5510
 7581SOL     OW34201   2.493   0.086   2.714 -0.0727  0.7922  0.7726
 7581SOL    HW134202   2.430   0.112   2.781 -1.9119 -1.3734 -0.1169
 7581SOL    HW234203   2.482   0.162   2.657  1.6420  0.0642 -0.5422
 7582SOL     OW34204   1.816   0.408   7.238 -0.1785  0.4000 -0.2965
 7582SOL    HW134205   1.813   0.387   7.145  2.3355  1.9197 -0.7365
 7582SOL    HW234206   1.793   0.323   7.274  2.3887 -0.2520 -0.1471
 7583SOL     OW34207   4.664   3.136   0.136  0.6130 -0.5297  0.3460
 7583SOL    HW134208   4.581   3.148   0.183  1.1151  1.3808  0.7586
 7583SOL    HW234209   4.649   3.083   0.058 -0.4015 -1.5164  1.2107
 7584SOL     OW34210   4.670   1.597   4.254  0.0720  0.2111  0.1396
 7584SOL    HW134211   0.007   1.671   4.242 -1.2293  1.2601  0.1021
 7584SOL    HW234212   4.584   1.640   4.250 -0.2676 -0.6538 -1.8324
 7585SOL     OW34213   0.986   1.941   8.390  0.2435  0.0002 -0.0141
 7585SOL    HW134214   0.929   1.935   8.313  1.7552 -1.5450 -1.0147
 7585SOL    HW234215   1.005   1.849   8.405 -0.7831 -0.2399 -0.2000
 7586SOL     OW34216   1.170   4.329   4.686  0.3190 -0.0786  0.5478
 7586SOL    HW134217   1.265   4.318   4.681  0.5942  2.9156 -0.8111
 7586SOL    HW234218   1.147   4.259   4.747 -0.1516 -0.2680  0.1499
 7587SOL     OW34219   0.322   4.528   2.149  0.1766  0.1685  0.1789
 7587SOL    HW134220   0.393   4.535   2.086  0.3216 -0.3272  0.2839
 7587SOL    HW234221   0.293   4.441   2.120  0.0984  0.5196 -0.7895
 7588SOL     OW34222   4.519   0.053   4.675  0.6521  0.2542 -0.1786
 7588SOL    HW134223   4.425   0.041   4.684  0.3971  1.8488 -0.8239
 7588SOL    HW234224   4.524   0.148   4.672 -1.9101  0.4230  1.8421
 7589SOL     OW34225   0.289   1.072  13.738 -0.3429 -0.6497 -0.3979
 7589SOL    HW134226   0.310   0.980  13.754  2.4950  0.1510  0.3909
 7589SOL    HW234227   0.295   1.112  13.825  0.9405 -1.0784 -0.2974
 7590SOL     OW34228   1.184   3.101   8.052 -0.2113 -0.2839 -0.5838
 7590SOL    HW134229   1.180   3.162   7.979 -2.0158 -0.3254 -0.5056
 7590SOL    HW234230   1.130   3.026   8.028 -1.2617 -0.6503  2.8754
 7591SOL     OW34231   3.389   4.530  14.436 -0.1553  0.0579  0.3800
 7591SOL    HW134232   3.423   4.598  14.494 -0.6605  1.2877 -0.7808
 7591SOL    HW234233   3.296   4.546  14.423 -0.8366 -1.7758  2.8678
 7592SOL     OW34234   4.520   4.573   3.582  0.2672  0.3411  0.7564
 7592SOL    HW134235   4.440   4.540   3.624 -1.2003  2.4125 -0.4393
 7592SOL    HW234236   4.585   4.527   3.636  0.1457  0.0630  0.6673
 7593SOL     OW34237   1.579   1.981   2.798  0.0924  0.0699  0.0371
 7593SOL    HW134238   1.655   2.007   2.746 -0.2416 -2.0268 -1.5169
 7593SOL    HW234239   1.578   1.886   2.800  0.6771  0.1406  2.6302
 7594SOL     OW34240   0.609   3.075  17.615  0.0761 -0.0142  0.0388
 7594SOL    HW134241   0.523   3.041  17.640  0.3140 -1.2639 -0.8355
 7594SOL    HW234242   0.582   3.166  17.630 -2.1781 -0.9851  1.9463
 7595SOL     OW34243   0.821   4.285   9.364 -0.3525 -0.4733  0.1936
 7595SOL    HW134244   0.866   4.366   9.340 -0.6565 -0.5472 -0.6309
 7595SOL    HW234245   0.885   4.216   9.348 -0.3003  0.1131 -2.1544
 7596SOL     OW34246   3.206   0.459   2.533 -0.0472  0.4472 -0.3652
 7596SOL    HW134247   3.159   0.539   2.508 -1.2217  0.0289  0.5025
 7596SOL    HW234248   3.257   0.445   2.453 -0.9083 -1.3893 -0.5920
 7597SOL     OW34249   4.024   1.635  10.781 -0.6499 -0.5307  0.1168
 7597SOL    HW134250   4.051   1.704  10.720 -1.0561 -0.1421  0.3737
 7597SOL    HW234251   4.075   1.655  10.860 -2.2176  1.5336  0.6123
 7598SOL     OW34252   0.728   2.411   1.641 -0.1109 -0.3676  0.1769
 7598SOL    HW134253   0.761   2.497   1.668  0.7237 -1.0021  1.2065
 7598SOL    HW234254   0.640   2.446   1.629  0.4487  0.5983 -1.1550
 7599SOL     OW34255   1.915   4.534   9.714  0.0733 -0.2360  0.4661
 7599SOL    HW134256   1.866   4.475   9.771  0.5301 -0.0942  1.0091
 7599SOL    HW234257   1.934   4.607   9.773  0.0896  0.0891  0.0576
 7600SOL     OW34258   0.997   1.644   2.227 -0.1452 -0.2007  0.1898
 7600SOL    HW134259   1.059   1.715   2.208  0.2054 -0.5309  0.1086
 7600SOL    HW234260   0.909   1.680   2.213 -0.0553  1.3090  3.4061
 7601SOL     OW34261   2.688   3.312   2.306  0.4982 -0.5393 -0.0927
 7601SOL    HW134262   2.599   3.277   2.299  0.2319  0.1712 -0.2786
 7601SOL    HW234263   2.720   3.307   2.216 -0.4593 -0.8728 -0.4180
 7602SOL     OW34264   1.604   0.113   2.976  0.1170 -0.1788  0.6011
 7602SOL    HW134265   1.696   0.094   2.957  0.0982 -0.0448  0.3832
 7602SOL    HW234266   1.562   0.039   2.933  0.1130 -0.1062  0.4799
 7603SOL     OW34267   0.410   0.228   2.576 -0.5450  0.2176  0.4086
 7603SOL    HW134268   0.445   0.146   2.542  0.5099  1.1122 -0.6386
 7603SOL    HW234269   0.489   0.280   2.558 -1.5512  1.1794 -1.1799
 7604SOL     OW34270   4.183   2.371   6.027 -0.4738 -0.5866  0.2123
 7604SOL    HW134271   4.242   2.314   5.980  1.6680  0.7340  1.3020
 7604SOL    HW234272   4.204   2.457   5.990 -1.1463 -0.2882  0.5105
 7605SOL     OW34273   0.120   0.422  13.194  0.4169 -0.0087 -0.5812
 7605SOL    HW134274   0.111   0.510  13.231  0.0560 -0.0493 -0.5697
 7605SOL    HW234275   0.050   0.425  13.129  1.2100  0.2572 -1.4337
 7606SOL     OW34276   2.060   0.285  10.235  0.6355 -0.4251 -0.3025
 7606SOL    HW134277   2.003   0.361  10.220  0.6966 -0.3431 -0.1170
 7606SOL    HW234278   2.028   0.228  10.165  0.3864 -1.4159  0.6214
 7607SOL     OW34279   3.245   0.039   7.724 -0.0623 -0.2343 -0.3008
 7607SOL    HW134280   3.175   0.050   7.659 -1.7965 -0.3141  1.5619
 7607SOL    HW234281   3.223   0.120   7.769  1.6732 -0.0315  0.1515
 7608SOL     OW34282   2.495   2.529  10.860 -0.4062 -0.7295 -0.4028
 7608SOL    HW134283   2.433   2.485  10.918 -0.1620 -0.2839  0.1994
 7608SOL    HW234284   2.437   2.564  10.792  0.5241  1.4344 -0.1003
 7609SOL     OW34285   3.198   1.815  12.016 -0.3565  0.0299 -0.7740
 7609SOL    HW134286   3.198   1.878  11.944  0.6297  1.8416  0.8293
 7609SOL    HW234287   3.114   1.842  12.053 -0.8512 -2.5632  0.0509
 7610SOL     OW34288   0.001   3.485   3.890  0.4486  0.2261 -0.1199
 7610SOL    HW134289   4.668   3.498   3.967 -1.8682  0.6604 -1.8462
 7610SOL    HW234290   0.037   3.573   3.887 -1.6278  1.1150  0.7880
 7611SOL     OW34291   4.124   0.919   4.285  0.2595  0.5278  0.4807
 7611SOL    HW134292   4.071   0.842   4.265  2.5934 -0.8513 -0.5413
 7611SOL    HW234293   4.189   0.873   4.337  0.9050  0.7928 -0.0811
 7612SOL     OW34294   1.778   1.485   6.108  0.1782 -0.2547 -0.2419
 7612SOL    HW134295   1.842   1.472   6.178  0.5567  0.7143 -0.4068
 7612SOL    HW234296   1.713   1.539   6.155  2.4329  1.1617  1.2484
 7613SOL     OW34297   2.944   1.308   8.936  0.2722 -0.5022  0.0188
 7613SOL    HW134298   2.931   1.213   8.934 -1.5964 -0.1956 -2.1411
 7613SOL    HW234299   2.857   1.343   8.955  0.0148 -1.0041 -0.2327
 7614SOL     OW34300   2.008   0.170   1.875 -0.0806  0.1839 -0.2896
 7614SOL    HW134301   1.914   0.178   1.855 -0.5179 -1.4600  1.0593
 7614SOL    HW234302   2.006   0.079   1.906  3.1018 -0.5912 -2.4034
 7615SOL     OW34303   1.998   1.725  11.421  0.3386 -0.1713  0.1652
 7615SOL    HW134304   2.066   1.710  11.487 -0.8288  0.0319  1.4181
 7615SOL    HW234305   2.041   1.743  11.338 -3.8303 -2.3574 -2.4688
 7616SOL     OW34306   4.264   2.301   7.172 -0.0810  0.0402  0.1845
 7616SOL    HW134307   4.309   2.335   7.095 -1.8775  1.3349 -0.3254
 7616SOL    HW234308   4.339   2.267   7.219  0.3368  0.3514 -0.2585
 7617SOL     OW34309   0.143   0.010   6.384  0.3347  0.2545  0.3771
 7617SOL    HW134310   0.058   4.704   6.416 -0.3632  2.0286  0.1049
 7617SOL    HW234311   0.142   4.697   6.295 -0.5613  0.2082  0.4123
 7618SOL     OW34312   3.501   1.119  10.255  0.0807  0.3100  0.4494
 7618SOL    HW134313   3.481   1.139  10.163 -2.7838 -2.4915  0.4796
 7618SOL    HW234314   3.460   1.033  10.253 -0.5913  0.6849 -1.9425
 7619SOL     OW34315   2.633   3.490   2.890  0.0998 -0.0389 -0.1246
 7619SOL    HW134316   2.612   3.550   2.961  3.6436  1.2469 -0.1414
 7619SOL    HW234317   2.572   3.510   2.819 -1.8814 -1.9566  1.0470
 7620SOL     OW34318   0.081   2.381   4.439 -0.0247 -0.3944 -0.4648
 7620SOL    HW134319   0.168   2.410   4.467 -0.6289 -1.1486  2.1991
 7620SOL    HW234320   0.030   2.457   4.466  0.9326 -0.0593  0.3806
 7621SOL     OW34321   3.274   2.198   5.327 -0.1026  0.2540 -0.1537
 7621SOL    HW134322   3.326   2.273   5.296 -0.0721 -0.1184 -1.0012
 7621SOL    HW234323   3.219   2.232   5.398  0.3999  0.1722  0.2766
 7622SOL     OW34324   2.334   2.590   2.260 -0.3350 -0.0511  0.3496
 7622SOL    HW134325   2.333   2.552   2.347 -1.7963 -0.9511 -0.0595
 7622SOL    HW234326   2.249   2.633   2.264 -0.3563  0.1805 -2.2659
 7623SOL     OW34327   0.381   4.638   4.471 -0.5169 -0.0571 -0.2210
 7623SOL    HW134328   0.347   4.634   4.381  2.0199  0.1543 -1.1799
 7623SOL    HW234329   0.393   4.544   4.488  2.4880  0.5131  0.6678
 7624SOL     OW34330   0.367   4.715  15.614 -0.0150  0.4775 -0.6266
 7624SOL    HW134331   0.417   0.005  15.694 -2.9005  1.6688  1.0040
 7624SOL    HW234332   0.384   0.076  15.571  1.8778  0.6120  0.3704
 7625SOL     OW34333   0.186   1.998  13.242 -0.1653  0.1873  0.0247
 7625SOL    HW134334   0.260   1.952  13.280 -1.4194 -0.8325  1.2121
 7625SOL    HW234335   0.152   2.053  13.312 -0.6110 -1.4409  1.0888
 7626SOL     OW34336   2.452   4.098   6.649  0.5089  0.5771 -0.3430
 7626SOL    HW134337   2.454   4.182   6.604  0.2109  0.6354 -0.2482
 7626SOL    HW234338   2.536   4.056   6.631  0.5251  0.2177  0.5824
 7627SOL     OW34339   1.485   1.838   9.847 -0.2751 -0.0720  0.4603
 7627SOL    HW134340   1.457   1.929   9.847  1.4665  0.4521  0.5351
 7627SOL    HW234341   1.399   1.798   9.836 -2.1254  4.0852 -0.1319
 7628SOL     OW34342   4.293   1.009   7.384 -0.1394  0.2234 -0.4512
 7628SOL    HW134343   4.226   1.049   7.441  0.3955  0.3922  0.0563
 7628SOL    HW234344   4.246   0.934   7.346 -0.5041  1.0118 -1.5638
 7629SOL     OW34345   2.849   2.635  11.242 -0.0210 -0.0699 -0.0915
 7629SOL    HW134346   2.802   2.601  11.166  0.3003 -2.4106  0.7695
 7629SOL    HW234347   2.941   2.609  11.229  1.2736  3.6496  1.5829
 7630SOL     OW34348   0.598   0.287   6.400  0.3201 -0.2327  0.1530
 7630SOL    HW134349   0.659   0.257   6.333 -0.0511  0.5136 -0.5097
 7630SOL    HW234350   0.516   0.245   6.373  0.1837  0.5248 -0.5960
 7631SOL     OW34351   2.894   1.724  17.279  0.5284  0.1569 -0.3602
 7631SOL    HW134352   2.907   1.813  17.246 -1.6020  1.5365  2.4544
 7631SOL    HW234353   2.976   1.716  17.328 -0.0549 -2.1186  0.2211
 7632SOL     OW34354   0.651   0.618   7.676  0.1942  0.2663  0.5585
 7632SOL    HW134355   0.724   0.589   7.731  1.8081  1.0867 -1.1519
 7632SOL    HW234356   0.585   0.631   7.745  0.0408 -1.4383  0.7256
 7633SOL     OW34357   2.365   1.902   9.695 -0.1456 -0.4390  0.3552
 7633SOL    HW134358   2.460   1.892   9.703  0.0351  1.1132  0.1276
 7633SOL    HW234359   2.355   1.984   9.743 -3.2440 -1.2197  1.1030
 7634SOL     OW34360   3.468   3.927   2.803  0.3323 -0.7021 -0.3087
 7634SOL    HW134361   3.515   3.981   2.741 -0.2506  0.0364 -0.1024
 7634SOL    HW234362   3.535   3.915   2.870 -0.1723 -0.6361  0.2140
 7635SOL     OW34363   1.535   0.166   8.723 -0.1136  0.4047  0.1339
 7635SOL    HW134364   1.559   0.246   8.677 -0.5957  0.9387  0.8172
 7635SOL    HW234365   1.469   0.122   8.670 -1.4132  0.4213  1.7275
 7636SOL     OW34366   2.800   0.146   8.509  0.0671 -0.0919 -0.5825
 7636SOL    HW134367   2.705   0.160   8.506 -0.2675 -2.4383 -0.6137
 7636SOL    HW234368   2.816   0.140   8.603  0.6560  1.1468 -0.6029
 7637SOL     OW34369   3.808   0.046  17.626  0.1801  0.1018 -0.2065
 7637SOL    HW134370   3.875   0.030  17.560  0.1717 -1.2201  0.1098
 7637SOL    HW234371   3.731   0.083  17.582  0.2441  0.2205 -0.2164
 7638SOL     OW34372   3.477   2.792   2.929 -0.0618  0.3809 -0.5830
 7638SOL    HW134373   3.565   2.768   2.900  0.6215  0.9555  1.0927
 7638SOL    HW234374   3.450   2.846   2.854  0.4290  1.7367  0.2398
 7639SOL     OW34375   2.850   0.392  14.286  0.0913 -0.5804 -0.5117
 7639SOL    HW134376   2.806   0.425  14.363 -0.4726 -3.2052  0.2917
 7639SOL    HW234377   2.781   0.430  14.232  0.9648  0.0516 -1.1837
 7640SOL     OW34378   2.540   3.309   7.426  0.1230  0.1476  0.1003
 7640SOL    HW134379   2.604   3.259   7.477  0.5302 -0.3215 -0.8714
 7640SOL    HW234380   2.472   3.317   7.493 -0.3601  0.9127 -0.4815
 7641SOL     OW34381   3.983   3.475  17.307  0.4126 -0.0808 -0.0074
 7641SOL    HW134382   3.998   3.506  17.396 -1.7518  1.3392 -0.1327
 7641SOL    HW234383   4.032   3.537  17.252  0.8621 -2.6877 -2.5514
 7642SOL     OW34384   1.760   3.751   5.265 -0.0235 -0.6479 -0.2861
 7642SOL    HW134385   1.681   3.804   5.259  0.3881  0.3727  3.2897
 7642SOL    HW234386   1.745   3.692   5.192 -0.6838 -0.7518 -0.0621
 7643SOL     OW34387   3.277   3.623   8.731  0.2278  0.1494  0.1391
 7643SOL    HW134388   3.260   3.689   8.663 -1.3943  1.6616  2.0030
 7643SOL    HW234389   3.284   3.537   8.689  0.1300  0.0649  0.2960
 7644SOL     OW34390   3.549   3.011   5.616 -0.0330  0.0845  0.0572
 7644SOL    HW134391   3.504   2.934   5.582 -0.5036  0.1204  0.5873
 7644SOL    HW234392   3.640   2.985   5.628  0.0047  0.8467  1.5089
 7645SOL     OW34393   1.498   1.898   9.035  0.7978 -0.2648 -0.1650
 7645SOL    HW134394   1.557   1.963   9.073  1.3920  1.0129 -3.2753
 7645SOL    HW234395   1.425   1.945   8.993 -1.0924 -0.6673  2.6837
 7646SOL     OW34396   4.292   4.535   7.729  0.2856 -0.0067 -0.1677
 7646SOL    HW134397   4.310   4.476   7.803 -2.5823  0.0017  0.5338
 7646SOL    HW234398   4.246   4.476   7.669  1.8631 -1.3345 -0.0672
 7647SOL     OW34399   0.106   3.465  13.281 -0.1717 -0.1478  0.8777
 7647SOL    HW134400   0.046   3.425  13.345  0.7929 -2.2983  0.4527
 7647SOL    HW234401   0.146   3.384  13.249  0.2257 -0.1817  1.4583
 7648SOL     OW34402   4.561   4.222   8.049 -0.1010 -0.4421  0.1420
 7648SOL    HW134403   4.642   4.173   8.059  0.0317  0.1156  1.9073
 7648SOL    HW234404   4.508   4.190   8.122  0.5956  0.8896  1.2323
 7649SOL     OW34405   4.066   2.933   5.936  0.3842 -0.1246  0.9900
 7649SOL    HW134406   4.120   2.915   6.013  0.7167 -2.6771  0.1556
 7649SOL    HW234407   4.008   2.857   5.937 -0.2091  0.2930 -1.9005
 7650SOL     OW34408   1.898   3.565   8.470 -0.5738  0.0773 -0.1938
 7650SOL    HW134409   1.887   3.537   8.379 -1.9703  0.9461 -0.2915
 7650SOL    HW234410   1.809   3.570   8.506 -0.3886  3.5110 -0.2325
 7651SOL     OW34411   4.151   3.586   1.920 -0.0661  0.4218  0.4655
 7651SOL    HW134412   4.136   3.619   1.832 -1.9703 -2.1317 -0.1749
 7651SOL    HW234413   4.098   3.506   1.920  0.2696  0.1735  2.7954
 7652SOL     OW34414   3.064   0.850   4.441 -0.1830 -0.6617  0.4417
 7652SOL    HW134415   3.129   0.911   4.406 -0.4352 -0.1538  0.8474
 7652SOL    HW234416   3.005   0.827   4.370 -1.9297  1.1895  1.2804
 7653SOL     OW34417   4.022   4.383   7.562  0.5606  0.4788 -0.4004
 7653SOL    HW134418   3.962   4.370   7.488 -2.3421  3.6943  1.4018
 7653SOL    HW234419   4.104   4.341   7.534  0.3424 -1.7361  2.2762
 7654SOL     OW34420   1.106   3.640   6.485  0.2278 -0.5844  0.1616
 7654SOL    HW134421   1.155   3.589   6.420 -1.2554 -1.2714 -0.4126
 7654SOL    HW234422   1.048   3.688   6.427 -0.0855  0.4187  1.3018
 7655SOL     OW34423   3.253   0.824   3.247  1.4192  0.0697 -0.2200
 7655SOL    HW134424   3.242   0.883   3.321 -1.4290 -1.5070  0.5983
 7655SOL    HW234425   3.184   0.851   3.186 -0.3749 -1.5568  1.0923
 7656SOL     OW34426   0.317   0.569   2.496 -0.1377 -0.0207 -0.2995
 7656SOL    HW134427   0.303   0.527   2.411  1.0954  1.8504 -1.4286
 7656SOL    HW234428   0.271   0.651   2.482  2.0771  0.8631 -2.5282
 7657SOL     OW34429   0.682   4.578   7.744 -0.2168 -0.2849 -0.0229
 7657SOL    HW134430   0.759   4.628   7.716 -0.3857  0.5217  0.9656
 7657SOL    HW234431   0.627   4.646   7.784  1.6013  0.7873  0.6505
 7658SOL     OW34432   0.290   4.062   4.760  0.1092  0.6535 -0.0549
 7658SOL    HW134433   0.262   3.973   4.782 -1.3675  1.0552 -0.2565
 7658SOL    HW234434   0.347   4.098   4.827 -1.7259 -1.6497  2.7348
 7659SOL     OW34435   0.898   1.094   2.514 -0.4821 -0.2105 -0.0647
 7659SOL    HW134436   0.881   1.076   2.422 -0.4221  2.3798 -0.5952
 7659SOL    HW234437   0.916   1.004   2.541  2.6807 -0.1477 -2.0671
 7660SOL     OW34438   3.878   3.959   0.158 -0.0663  0.3592 -0.4151
 7660SOL    HW134439   3.922   4.040   0.133  0.9849 -0.8548 -2.4845
 7660SOL    HW234440   3.863   3.964   0.253  0.0964 -0.4934 -0.3464
 7661SOL     OW34441   3.044   2.536  15.731  0.6925 -0.5643  0.2050
 7661SOL    HW134442   3.011   2.595  15.799  0.9638  0.1298 -0.2623
 7661SOL    HW234443   3.072   2.605  15.671 -2.2619  0.5525  0.1024
 7662SOL     OW34444   4.009   3.609   2.596 -0.0210 -0.2345 -0.5597
 7662SOL    HW134445   4.090   3.653   2.570  0.6483 -0.6547  0.7644
 7662SOL    HW234446   3.978   3.583   2.510  0.5093 -0.3821 -0.7071
 7663SOL     OW34447   2.488   0.382   5.150  0.1233 -0.5537  0.0312
 7663SOL    HW134448   2.522   0.409   5.236  0.6069 -1.0930  0.0081
 7663SOL    HW234449   2.523   0.293   5.147 -0.8061 -0.9929  1.5653
 7664SOL     OW34450   3.743   0.911   8.701  0.4090 -0.1064 -0.2726
 7664SOL    HW134451   3.721   0.846   8.634  0.1777  1.2905 -1.5587
 7664SOL    HW234452   3.815   0.874   8.752 -0.8199  0.5106  1.8962
 7665SOL     OW34453   3.741   3.411   2.147 -0.5902 -0.1454  0.5146
 7665SOL    HW134454   3.680   3.485   2.151  1.0277  1.1428  1.1364
 7665SOL    HW234455   3.678   3.343   2.124 -3.0296  2.2585 -0.0640
 7666SOL     OW34456   0.392   4.194  10.573 -0.3626 -0.0282  0.0389
 7666SOL    HW134457   0.354   4.131  10.512 -0.5901 -0.7222  0.9009
 7666SOL    HW234458   0.368   4.272  10.522 -0.2210 -1.9449 -2.9159
 7667SOL     OW34459   3.196   1.999   0.491  0.2373 -0.0730  0.2385
 7667SOL    HW134460   3.280   2.039   0.468  0.4515  0.2238  1.5278
 7667SOL    HW234461   3.212   1.954   0.574  2.8875  0.2539 -0.0889
 7668SOL     OW34462   1.008   1.688  15.632  0.0233 -0.3461  0.1451
 7668SOL    HW134463   0.935   1.738  15.669 -0.0246 -1.9407  2.2368
 7668SOL    HW234464   1.087   1.734  15.660 -0.5853 -0.7012  2.5212
 7669SOL     OW34465   3.372   3.929   2.431 -0.5416  0.5137 -0.2801
 7669SOL    HW134466   3.350   3.847   2.475 -2.2053  1.4219  0.6062
 7669SOL    HW234467   3.443   3.952   2.491 -1.5408  1.1713  0.6660
 7670SOL     OW34468   0.687   2.447   4.518  0.2628  0.0250 -0.2362
 7670SOL    HW134469   0.671   2.480   4.606  2.6938 -2.7247  1.2281
 7670SOL    HW234470   0.738   2.368   4.535 -1.3412 -1.1425 -0.9002
 7671SOL     OW34471   4.417   1.335  11.916  0.2346 -0.3617  0.0266
 7671SOL    HW134472   4.416   1.391  11.838  0.2207 -1.7306 -0.9470
 7671SOL    HW234473   4.407   1.399  11.986 -0.8107 -0.6540  0.1384
 7672SOL     OW34474   4.491   2.912  17.232 -0.0372 -0.0107 -0.2586
 7672SOL    HW134475   4.495   2.981  17.298  2.6605  1.2342 -1.6969
 7672SOL    HW234476   4.547   2.951  17.164 -2.4750 -1.3514 -3.0739
 7673SOL     OW34477   0.656   2.221  13.845  0.4056 -0.0310  0.0736
 7673SOL    HW134478   0.671   2.186  13.757  2.2239  0.5490  0.1595
 7673SOL    HW234479   0.561   2.214  13.853  0.4077  0.7228  0.7275
 7674SOL     OW34480   1.221   1.315  12.205 -0.1509  0.4663  0.1993
 7674SOL    HW134481   1.267   1.231  12.199 -2.0813 -0.6347  1.0960
 7674SOL    HW234482   1.295   1.374  12.220 -1.5516  2.4763 -0.9232
 7675SOL     OW34483   4.403   3.001   8.953  0.0850  0.2549  0.0539
 7675SOL    HW134484   4.490   3.014   8.915  0.0253  0.6017  0.0339
 7675SOL    HW234485   4.373   2.926   8.901 -1.2718 -0.2672  1.5916
 7676SOL     OW34486   2.136   4.341   2.129  0.1000 -0.1720  0.0314
 7676SOL    HW134487   2.143   4.260   2.079  1.3759  0.9435 -1.5920
 7676SOL    HW234488   2.076   4.311   2.198  0.0835  0.0951  0.1335
 7677SOL     OW34489   2.112   1.624   7.918 -0.2644  0.0153 -0.0887
 7677SOL    HW134490   2.177   1.673   7.867  1.4548  0.9247  2.9978
 7677SOL    HW234491   2.152   1.538   7.931  0.5033  0.8056  2.6202
 7678SOL     OW34492   1.691   3.922   8.955  0.6954 -0.6940  0.2287
 7678SOL    HW134493   1.770   3.929   9.009 -0.3027 -0.1271  1.6436
 7678SOL    HW234494   1.668   3.831   8.974 -0.6090 -0.3528  0.2769
 7679SOL     OW34495   1.601   2.568   8.099  0.0571 -0.7276  0.6126
 7679SOL    HW134496   1.631   2.652   8.064 -1.2609 -0.4751  0.0866
 7679SOL    HW234497   1.560   2.530   8.021 -0.2093  0.2245  0.2943
 7680SOL     OW34498   2.439   0.801   3.130 -0.0826  0.2073  0.3816
 7680SOL    HW134499   2.506   0.867   3.112 -0.5909  0.3362 -1.0777
 7680SOL    HW234500   2.482   0.717   3.139 -0.0672  0.4054  2.2478
 7681SOL     OW34501   4.020   2.400   3.733 -0.1545 -0.1755  0.6348
 7681SOL    HW134502   3.974   2.320   3.707 -0.3146  1.2579 -3.5780
 7681SOL    HW234503   4.102   2.363   3.764  0.1901 -0.6550 -0.8130
 7682SOL     OW34504   3.629   0.705   8.473 -0.3407  0.2044  0.3078
 7682SOL    HW134505   3.541   0.675   8.494 -0.4577 -0.3745 -1.0397
 7682SOL    HW234506   3.653   0.665   8.390  1.1359  2.0385 -0.1524
 7683SOL     OW34507   2.744   0.985   7.384  0.6130  0.5549  0.5276
 7683SOL    HW134508   2.680   0.962   7.317  0.9211  0.1222  0.3869
 7683SOL    HW234509   2.694   1.050   7.434 -1.6690  0.0465 -1.0881
 7684SOL     OW34510   0.056   1.166   3.886 -0.1626  0.0555 -0.0701
 7684SOL    HW134511   4.712   1.139   3.823  0.8856 -1.1927 -0.6424
 7684SOL    HW234512   0.132   1.139   3.834  1.7423  0.8771  2.3168
 7685SOL     OW34513   1.231   0.244   8.413  0.1439  0.5510  0.0679
 7685SOL    HW134514   1.143   0.208   8.427  0.1177  0.5485 -0.1045
 7685SOL    HW234515   1.253   0.283   8.498  0.6291  0.8013 -0.1727
 7686SOL     OW34516   4.168   1.870   5.245 -0.1514 -0.1468 -0.1441
 7686SOL    HW134517   4.127   1.941   5.195 -0.3069  0.5135  0.8966
 7686SOL    HW234518   4.228   1.842   5.176  0.6158 -0.4432  0.6386
 7687SOL     OW34519   0.907   4.048   3.764  0.5831  0.9182  0.3483
 7687SOL    HW134520   0.897   3.955   3.786  2.2797  0.5035 -0.5906
 7687SOL    HW234521   0.998   4.054   3.733  0.6202 -1.5052 -0.0140
 7688SOL     OW34522   0.306   3.727  13.442 -0.2908 -0.6651 -0.1903
 7688SOL    HW134523   0.386   3.769  13.411 -0.5522  0.4907  0.6951
 7688SOL    HW234524   0.241   3.776  13.391  0.2760 -0.6227 -0.8643
 7689SOL     OW34525   3.973   3.123   3.524  0.3148 -0.0117 -0.1995
 7689SOL    HW134526   3.971   3.029   3.503 -1.2227  0.1759 -0.8941
 7689SOL    HW234527   3.948   3.154   3.437  2.3176  0.7425 -0.4958
 7690SOL     OW34528   3.358   1.082   6.885  0.4711 -0.2544 -0.0472
 7690SOL    HW134529   3.294   1.112   6.822  1.9645 -1.0024 -1.9197
 7690SOL    HW234530   3.427   1.149   6.882 -1.1272  1.3356 -1.1381
 7691SOL     OW34531   0.623   1.476   7.172 -0.1290  0.1728  0.0445
 7691SOL    HW134532   0.602   1.548   7.111 -0.9205 -1.9983 -2.2420
 7691SOL    HW234533   0.717   1.490   7.182  0.1076 -1.4558  0.0583
 7692SOL     OW34534   1.321   1.124   6.955 -0.0058 -0.2084 -0.5355
 7692SOL    HW134535   1.256   1.179   6.999  1.3312 -0.5690  1.8839
 7692SOL    HW234536   1.259   1.086   6.893 -0.4524  1.0165 -0.8361
 7693SOL     OW34537   2.374   1.773  16.009 -0.1019 -0.2695 -0.4131
 7693SOL    HW134538   2.406   1.704  16.067 -0.9675  0.0727  0.4787
 7693SOL    HW234539   2.408   1.847  16.059  0.6904 -0.2084 -1.0500
 7694SOL     OW34540   1.012   3.989   6.264 -0.5005 -0.5230 -0.5126
 7694SOL    HW134541   1.107   3.985   6.250 -0.1377 -1.9535  2.4925
 7694SOL    HW234542   0.990   3.896   6.256 -0.2686 -0.5776 -0.5224
 7695SOL     OW34543   0.170   4.349   3.968  0.0813 -0.0306  0.7399
 7695SOL    HW134544   0.109   4.412   4.006 -0.7308 -0.4035  0.0740
 7695SOL    HW234545   0.164   4.288   4.042 -1.9140 -1.2534 -0.4076
 7696SOL     OW34546   0.396   1.161   6.028 -0.0814 -0.3322 -0.1313
 7696SOL    HW134547   0.400   1.089   6.090  0.2281 -0.0673  0.1580
 7696SOL    HW234548   0.471   1.214   6.056  0.0282 -1.4733  1.7397
 7697SOL     OW34549   0.643   4.036   2.908  0.2263 -0.3130 -0.1436
 7697SOL    HW134550   0.617   4.090   2.834  0.4552 -0.6745 -0.4880
 7697SOL    HW234551   0.685   4.105   2.960  1.8352  1.1624 -3.4290
 7698SOL     OW34552   0.804   0.713   3.204  0.1642 -0.1466 -0.5407
 7698SOL    HW134553   0.729   0.764   3.234  0.2977  0.4636 -1.2376
 7698SOL    HW234554   0.778   0.629   3.242  0.3463 -0.2609 -0.6704
 7699SOL     OW34555   2.840   2.612  14.988 -0.5385 -0.2597  0.0217
 7699SOL    HW134556   2.771   2.588  14.927 -1.7064 -3.1160  2.4850
 7699SOL    HW234557   2.791   2.619  15.070 -1.3529 -1.2397 -0.3946
 7700SOL     OW34558   0.363   3.059   6.992  0.1353  0.1707  0.0408
 7700SOL    HW134559   0.274   3.078   7.020  0.7902  2.2023  0.7844
 7700SOL    HW234560   0.416   3.113   7.051 -0.2218  0.7440 -0.1600
 7701SOL     OW34561   4.405   1.452   0.553  0.3485  0.5071 -0.1692
 7701SOL    HW134562   4.336   1.386   0.558 -0.5403  1.4424 -0.0247
 7701SOL    HW234563   4.411   1.464   0.648  2.1749 -0.8373 -0.1306
 7702SOL     OW34564   2.327   1.510   4.560 -0.0208 -0.6210 -0.7821
 7702SOL    HW134565   2.259   1.520   4.626  0.5569 -0.6758 -0.1851
 7702SOL    HW234566   2.405   1.534   4.611 -0.2979  1.3073 -1.2513
 7703SOL     OW34567   3.774   2.156   8.441 -0.6334  0.1790  0.0340
 7703SOL    HW134568   3.692   2.119   8.473 -2.3138  3.1815 -0.7291
 7703SOL    HW234569   3.845   2.096   8.462  0.6721  2.4292  2.1353
 7704SOL     OW34570   2.811   0.317   7.096  0.3832 -0.2654 -0.7603
 7704SOL    HW134571   2.716   0.328   7.090  0.3908 -0.5950 -1.4565
 7704SOL    HW234572   2.832   0.366   7.016  1.1142 -0.7668 -0.8731
 7705SOL     OW34573   3.614   0.767   5.449 -0.6955 -0.0007  0.6446
 7705SOL    HW134574   3.594   0.772   5.356 -0.3631 -0.1265  0.5663
 7705SOL    HW234575   3.589   0.855   5.476  1.9001  0.3500  1.8925
 7706SOL     OW34576   1.339   0.441   4.841 -0.3609 -0.1272  0.3278
 7706SOL    HW134577   1.286   0.500   4.894  0.0498  1.4950 -1.0513
 7706SOL    HW234578   1.272   0.437   4.772  2.0206  3.3047 -2.1760
 7707SOL     OW34579   0.329   3.707  17.508 -0.0766  0.0499  0.4361
 7707SOL    HW134580   0.348   3.642  17.575 -1.0667 -0.2465  0.4202
 7707SOL    HW234581   0.381   3.780  17.540  1.0447  0.2329 -1.7859
 7708SOL     OW34582   0.423   3.199   8.668 -0.1847 -0.1600  0.2189
 7708SOL    HW134583   0.357   3.137   8.699 -0.2735 -0.1242  0.1006
 7708SOL    HW234584   0.453   3.164   8.585 -2.3748 -3.5401  0.8608
 7709SOL     OW34585   2.098   2.310   3.437 -0.2525  0.0986  0.2254
 7709SOL    HW134586   2.012   2.324   3.478  0.5602  1.4443  1.4463
 7709SOL    HW234587   2.080   2.243   3.371  3.4722 -0.6937  0.0539
 7710SOL     OW34588   2.372   0.408  12.077 -0.3373 -0.1209 -0.7784
 7710SOL    HW134589   2.396   0.500  12.065 -0.6209  0.0992  0.3045
 7710SOL    HW234590   2.362   0.403  12.172  0.0404 -0.8012 -0.7792
 7711SOL     OW34591   0.239   1.702   4.856  0.0566  0.0512 -0.6146
 7711SOL    HW134592   0.256   1.611   4.879 -0.7340 -0.0633 -0.4862
 7711SOL    HW234593   0.152   1.722   4.891  1.0868  0.9428  1.4076
 7712SOL     OW34594   2.552   4.591   5.989  0.1372  0.5657 -0.5811
 7712SOL    HW134595   2.561   4.627   6.077  0.1726  0.9345 -0.7351
 7712SOL    HW234596   2.461   4.564   5.989 -0.3523  2.2080 -3.9273
 7713SOL     OW34597   0.601   1.755   4.759  0.0845 -0.2356 -0.3824
 7713SOL    HW134598   0.639   1.835   4.723 -0.4283  1.2449  2.3685
 7713SOL    HW234599   0.680   1.703   4.777  1.1472  1.6545  0.4936
 7714SOL     OW34600   3.745   2.435  13.274  0.2274 -0.1879  0.1000
 7714SOL    HW134601   3.686   2.485  13.331  2.2148  0.1659  1.8384
 7714SOL    HW234602   3.718   2.438  13.182  2.4607 -1.9960 -0.5952
 7715SOL     OW34603   3.203   0.691   7.374 -0.4492  0.4088 -0.2597
 7715SOL    HW134604   3.282   0.742   7.355 -0.4075  0.4018 -0.1113
 7715SOL    HW234605   3.221   0.613   7.322  0.9900  1.5794 -1.5263
 7716SOL     OW34606   3.150   1.944   3.043 -0.1072 -0.2813 -0.2663
 7716SOL    HW134607   3.120   1.918   3.130 -1.6786 -1.0515 -1.0322
 7716SOL    HW234608   3.245   1.937   3.052  0.0275  0.6435 -0.8536
 7717SOL     OW34609   0.224   1.998   6.216  0.2629 -0.1764  0.6462
 7717SOL    HW134610   0.145   1.962   6.176  1.3400 -0.2217 -1.4478
 7717SOL    HW234611   0.197   2.007   6.307  3.4357 -1.2853  1.6911
 7718SOL     OW34612   4.213   2.177  11.049 -0.7001  0.0213  0.2148
 7718SOL    HW134613   4.206   2.220  11.135  4.3302  0.1935  0.5150
 7718SOL    HW234614   4.136   2.213  11.005 -0.6655 -0.0874  0.0689
 7719SOL     OW34615   2.604   4.179   8.158  0.0592 -0.2775 -0.3803
 7719SOL    HW134616   2.665   4.167   8.231 -1.4670  3.7550  1.5202
 7719SOL    HW234617   2.563   4.264   8.175  0.4643  0.0938 -1.2437
 7720SOL     OW34618   1.489   0.711  14.010  0.1530 -0.3919  0.0215
 7720SOL    HW134619   1.502   0.679  13.921 -1.6514  0.3888 -0.5298
 7720SOL    HW234620   1.402   0.751  14.004  0.4354  0.3481  0.9399
 7721SOL     OW34621   0.906   2.630   9.190  0.4782  0.2569 -0.2685
 7721SOL    HW134622   0.834   2.621   9.128 -0.2336 -1.0027  0.7522
 7721SOL    HW234623   0.890   2.723   9.207  0.8323  0.2090  0.3196
 7722SOL     OW34624   1.857   4.596   7.121 -0.2666 -0.3379 -0.5539
 7722SOL    HW134625   1.766   4.620   7.135 -0.4126 -0.0317 -2.0435
 7722SOL    HW234626   1.878   4.628   7.033  1.2947  2.2630  0.7360
 7723SOL     OW34627   2.079   4.620   1.444 -0.4017  0.3509  0.1509
 7723SOL    HW134628   2.001   4.674   1.454 -1.7119 -0.9806 -2.8999
 7723SOL    HW234629   2.067   4.557   1.514  1.5113 -1.1611 -0.8561
 7724SOL     OW34630   2.395   4.393   4.621 -0.4645  0.1277 -0.0976
 7724SOL    HW134631   2.463   4.353   4.566 -0.1152 -0.7936  1.0021
 7724SOL    HW234632   2.441   4.447   4.684  2.1336  0.7041 -2.4864
 7725SOL     OW34633   3.630   3.142   9.275 -0.4051 -0.1343 -0.4423
 7725SOL    HW134634   3.640   3.069   9.214 -0.4357 -0.6982  0.2289
 7725SOL    HW234635   3.554   3.184   9.235  0.0997  1.6291  0.4631
 7726SOL     OW34636   2.964   1.935  12.107  0.2660 -0.1071  0.2842
 7726SOL    HW134637   2.927   2.003  12.050  1.8253  1.0637  0.6880
 7726SOL    HW234638   3.012   1.991  12.167 -3.7195  3.5254  0.0850
 7727SOL     OW34639   1.775   0.057   6.678 -0.6831 -0.0151 -0.0086
 7727SOL    HW134640   1.734   0.015   6.603  0.3058 -2.1046  0.6043
 7727SOL    HW234641   1.819   0.136   6.644 -2.0784 -0.5462 -3.0085
 7728SOL     OW34642   0.955   3.167   0.209 -0.1373 -0.0746 -0.3249
 7728SOL    HW134643   0.896   3.211   0.148  0.0062 -0.0334 -0.4331
 7728SOL    HW234644   1.040   3.205   0.189  0.0109  0.0773  0.5873
 7729SOL     OW34645   2.237   1.181   5.414  0.0415 -0.3467  0.1077
 7729SOL    HW134646   2.204   1.096   5.442 -1.2096  0.7103  1.7881
 7729SOL    HW234647   2.161   1.236   5.397  0.1368 -0.9864 -2.4576
 7730SOL     OW34648   1.779   1.703  10.304 -0.0948 -0.3815 -0.3119
 7730SOL    HW134649   1.842   1.741  10.242  0.2282  0.0275  0.2701
 7730SOL    HW234650   1.702   1.701  10.247  0.6705 -0.2910 -1.3548
 7731SOL     OW34651   3.228   0.239  11.725 -0.2224  0.4699  0.2904
 7731SOL    HW134652   3.227   0.205  11.636  3.3060 -2.3089  1.3132
 7731SOL    HW234653   3.321   0.223  11.742  0.2011  0.3879 -2.2126
 7732SOL     OW34654   1.741   2.848   4.513  0.1798  0.3365 -0.3394
 7732SOL    HW134655   1.824   2.803   4.498 -1.1000 -1.6458 -1.5040
 7732SOL    HW234656   1.696   2.812   4.437  2.1396 -1.4969 -0.6445
 7733SOL     OW34657   3.681   3.022  12.011 -0.0390 -0.2562  0.0663
 7733SOL    HW134658   3.750   3.026  12.078 -0.1740 -0.3894  0.2125
 7733SOL    HW234659   3.719   2.956  11.954  0.0389  1.2558 -1.6374
 7734SOL     OW34660   0.683   0.228  14.857  0.1357  0.3855  0.2981
 7734SOL    HW134661   0.635   0.185  14.786 -0.9806  3.9373 -1.1056
 7734SOL    HW234662   0.636   0.311  14.864  1.1672  1.0405 -0.5683
 7735SOL     OW34663   4.703   0.525  11.677 -0.5738  0.1060  0.1404
 7735SOL    HW134664   0.007   0.564  11.761 -0.1226 -0.0948  0.0880
 7735SOL    HW234665   0.054   0.554  11.624  1.1107  0.7122  2.7805
 7736SOL     OW34666   1.796   1.507   4.846 -0.5292  0.3471 -0.0345
 7736SOL    HW134667   1.871   1.448   4.840 -0.7674  0.3222 -2.8680
 7736SOL    HW234668   1.816   1.565   4.772 -0.1190 -0.1416 -0.3124
 7737SOL     OW34669   0.001   4.454   4.144  0.6371 -0.6062  0.0930
 7737SOL    HW134670   4.639   4.413   4.161  0.9044 -0.3510  1.9918
 7737SOL    HW234671   4.699   4.545   4.132 -0.9972 -0.9875  0.6507
 7738SOL     OW34672   0.122   1.353   3.223 -0.2247  0.5547 -0.0913
 7738SOL    HW134673   0.181   1.294   3.271  1.5004  0.4032 -2.3768
 7738SOL    HW234674   0.166   1.349   3.138 -0.8773 -0.0906 -0.3943
 7739SOL     OW34675   2.303   2.046   5.635 -0.6716  0.8021  0.0386
 7739SOL    HW134676   2.215   2.015   5.655  0.4502 -1.7801  0.9562
 7739SOL    HW234677   2.336   1.962   5.604  0.0329  0.3694  1.9715
 7740SOL     OW34678   0.662   1.708   2.547 -0.0197  0.0112 -0.1311
 7740SOL    HW134679   0.718   1.786   2.552  0.2551 -0.0650 -1.9016
 7740SOL    HW234680   0.696   1.637   2.601  1.8195  0.2837 -0.9304
 7741SOL     OW34681   0.376   3.888   7.486  0.0292 -0.0322 -0.1578
 7741SOL    HW134682   0.295   3.901   7.536  0.7722  2.7379  0.3303
 7741SOL    HW234683   0.362   3.805   7.442 -3.1596 -0.0204  0.7890
 7742SOL     OW34684   4.565   1.626  13.569 -0.2531 -0.1593  0.0371
 7742SOL    HW134685   4.593   1.570  13.496  1.8622 -0.0190  0.7462
 7742SOL    HW234686   4.470   1.611  13.570  0.0910 -2.3009 -1.0373
 7743SOL     OW34687   2.735   3.248   2.698  0.3975  0.5046  0.5463
 7743SOL    HW134688   2.719   3.307   2.771  0.5966 -0.5073  1.4094
 7743SOL    HW234689   2.743   3.314   2.628 -1.4908 -0.2815 -0.4225
 7744SOL     OW34690   0.077   4.413   6.575 -0.0376  0.7306 -0.6540
 7744SOL    HW134691   0.124   4.334   6.550 -0.5727  0.2299 -0.0705
 7744SOL    HW234692   0.124   4.448   6.651 -0.1920 -0.7171  0.1017
 7745SOL     OW34693   1.706   2.854  15.106  0.3486 -0.3343 -0.1132
 7745SOL    HW134694   1.784   2.870  15.160 -0.4158  0.5350  0.7134
 7745SOL    HW234695   1.746   2.872  15.021 -1.4132 -0.7729 -1.0165
 7746SOL     OW34696   2.850   0.815   4.278  0.1672  0.1897  0.6119
 7746SOL    HW134697   2.796   0.866   4.338 -1.5250 -1.2149  0.2679
 7746SOL    HW234698   2.793   0.738   4.281  0.3777  0.0321  0.5904
 7747SOL     OW34699   4.141   2.362   5.035 -0.3871  0.2268  0.1635
 7747SOL    HW134700   4.177   2.325   4.955  0.0978 -0.1146  0.5444
 7747SOL    HW234701   4.143   2.456   5.016  1.1627 -0.1059 -1.3262
 7748SOL     OW34702   2.742   2.235   0.372  0.1015 -0.0501  0.0930
 7748SOL    HW134703   2.699   2.235   0.287 -0.6445 -0.3774  0.4690
 7748SOL    HW234704   2.815   2.177   0.350 -0.1956  0.0091 -1.0350
 7749SOL     OW34705   0.053   0.187   1.229 -0.7286  0.2237 -0.1130
 7749SOL    HW134706   0.008   0.166   1.311 -1.3836 -0.3734 -0.6233
 7749SOL    HW234707   0.066   0.094   1.211  0.8864 -0.0750  2.4990
 7750SOL     OW34708   2.481   0.691   2.850 -0.1622  0.2974  0.2634
 7750SOL    HW134709   2.563   0.688   2.899  1.1969  0.9277 -2.0002
 7750SOL    HW234710   2.423   0.623   2.883 -0.2247 -0.2595 -0.9882
 7751SOL     OW34711   3.611   0.268   5.580 -0.5311 -0.2638 -0.9081
 7751SOL    HW134712   3.516   0.260   5.582 -0.7156  2.3844  0.7670
 7751SOL    HW234713   3.635   0.318   5.502 -0.2995  0.3865 -0.4201
 7752SOL     OW34714   4.013   2.631   4.852 -0.2695 -0.2795 -0.3824
 7752SOL    HW134715   3.950   2.634   4.780  1.3696  0.4867 -1.7877
 7752SOL    HW234716   4.083   2.679   4.808  0.3161 -0.4007  0.4179
 7753SOL     OW34717   2.154   3.599   1.085 -0.4881  0.3155  0.3898
 7753SOL    HW134718   2.129   3.572   0.996 -1.0993  1.2267  0.2843
 7753SOL    HW234719   2.075   3.646   1.113  0.0014  1.2060  0.2616
 7754SOL     OW34720   3.236   0.585  15.122 -0.3915 -0.0874  0.0344
 7754SOL    HW134721   3.158   0.624  15.163 -0.3808  0.8840 -0.8576
 7754SOL    HW234722   3.300   0.651  15.149 -0.1203 -1.0784  1.8267
 7755SOL     OW34723   3.345   2.399  11.179  0.3274 -0.1938 -0.0735
 7755SOL    HW134724   3.283   2.346  11.229  0.3287  2.2030  2.4641
 7755SOL    HW234725   3.414   2.334  11.170  0.1444 -0.5752  1.2508
 7756SOL     OW34726   0.803   0.158   8.082 -0.1368  0.5233 -0.4251
 7756SOL    HW134727   0.844   0.217   8.145  2.2531 -1.2970 -0.2728
 7756SOL    HW234728   0.860   0.080   8.080 -1.8946 -0.8100  1.2797
 7757SOL     OW34729   3.351   3.850  13.306 -0.3136  0.1251 -0.3674
 7757SOL    HW134730   3.361   3.829  13.213  1.7564 -1.8856  0.2922
 7757SOL    HW234731   3.421   3.915  13.311 -2.2494  2.0729  1.3292
 7758SOL     OW34732   4.362   3.909   9.070 -0.0595  0.3757 -0.4582
 7758SOL    HW134733   4.433   3.947   9.122 -0.2264 -0.4461  0.3611
 7758SOL    HW234734   4.295   3.926   9.136  0.4758  2.1193 -0.3547
 7759SOL     OW34735   0.309   1.885   4.351 -0.1723  0.4632 -0.1524
 7759SOL    HW134736   0.274   1.947   4.416  0.4344 -1.4841  2.0104
 7759SOL    HW234737   0.357   1.817   4.398 -0.1689  1.0047  0.6333
 7760SOL     OW34738   3.476   4.102   6.468  0.0052  0.0460 -0.0825
 7760SOL    HW134739   3.485   4.194   6.444 -1.0977 -0.7127 -3.3200
 7760SOL    HW234740   3.567   4.072   6.460  0.0328 -0.2884  1.4541
 7761SOL     OW34741   0.497   1.120   2.780  0.3613  0.4381  0.2727
 7761SOL    HW134742   0.496   1.071   2.862  2.6772 -0.3965 -0.1904
 7761SOL    HW234743   0.537   1.060   2.717 -0.8052  1.3702 -1.3737
 7762SOL     OW34744   3.436   2.590   4.231  0.3725 -0.3031 -0.0610
 7762SOL    HW134745   3.394   2.676   4.230 -1.3018 -1.1282 -1.0039
 7762SOL    HW234746   3.412   2.566   4.321 -0.8958  1.4662  0.0731
 7763SOL     OW34747   1.647   0.425  15.124 -0.6230  0.1830 -0.1350
 7763SOL    HW134748   1.585   0.495  15.107  0.4002  0.9275 -0.7749
 7763SOL    HW234749   1.587   0.357  15.155  1.3454 -1.7189 -0.4603
 7764SOL     OW34750   2.127   3.615   5.469  0.1105 -0.2136  0.1352
 7764SOL    HW134751   2.190   3.555   5.429 -2.0993 -1.9541 -0.7164
 7764SOL    HW234752   2.183   3.661   5.531 -1.5951  0.5392  1.1195
 7765SOL     OW34753   4.000   2.020  11.895  0.6833  0.1332 -0.1660
 7765SOL    HW134754   4.011   2.048  11.986 -0.8133  0.0067  0.0437
 7765SOL    HW234755   3.949   1.940  11.908 -0.3255  1.0992  1.7090
 7766SOL     OW34756   2.493   3.995  14.751 -0.0833 -0.7793  0.0492
 7766SOL    HW134757   2.513   4.079  14.793  1.1856 -0.2664 -1.5808
 7766SOL    HW234758   2.581   3.973  14.720  0.4091  2.2547 -0.7325
 7767SOL     OW34759   3.399   2.129   3.746 -0.1471 -0.3726 -0.1153
 7767SOL    HW134760   3.367   2.039   3.754  0.3904 -0.5543  0.0051
 7767SOL    HW234761   3.377   2.144   3.838 -0.9062  1.3366 -0.5722
 7768SOL     OW34762   4.392   4.442   3.787 -0.3933 -0.0461 -0.0641
 7768SOL    HW134763   4.438   4.364   3.818 -1.5587 -1.1678 -1.1678
 7768SOL    HW234764   4.301   4.414   3.790 -0.6464  1.1649  3.3387
 7769SOL     OW34765   0.549   3.074   6.484  0.5495 -0.4455  0.3297
 7769SOL    HW134766   0.529   2.987   6.448  0.9615  0.1140 -1.2543
 7769SOL    HW234767   0.641   3.074   6.459  0.7233 -0.3873  0.9808
 7770SOL     OW34768   1.505   2.031   3.055  0.0432  0.2823 -0.1060
 7770SOL    HW134769   1.536   2.008   2.968  0.5049 -0.1108  0.1648
 7770SOL    HW234770   1.425   2.080   3.035 -1.0479 -1.4032  0.1768
 7771SOL     OW34771   0.190   1.300  13.021  0.3133  0.6961 -0.2819
 7771SOL    HW134772   0.218   1.324  13.109 -1.7242  1.2352  0.2170
 7771SOL    HW234773   0.101   1.337  13.023  0.1012  0.0843  1.2668
 7772SOL     OW34774   0.302   2.580   2.728  0.5058 -0.3131  0.3042
 7772SOL    HW134775   0.216   2.619   2.710 -0.8477 -2.2422  2.6229
 7772SOL    HW234776   0.268   2.511   2.785  2.0427 -0.3439  1.1691
 7773SOL     OW34777   2.826   0.434   4.841 -0.1094  0.2799  0.0786
 7773SOL    HW134778   2.847   0.477   4.759 -0.8665  1.5316  0.5333
 7773SOL    HW234779   2.899   0.467   4.892 -1.6539 -0.2255  2.6437
 7774SOL     OW34780   1.484   3.817   3.072  0.1004  0.1376  0.2330
 7774SOL    HW134781   1.418   3.754   3.100 -1.0641  1.0871 -0.3541
 7774SOL    HW234782   1.494   3.792   2.980 -0.0819 -2.2137  0.8592
 7775SOL     OW34783   3.006   1.286   1.104 -0.6029 -0.2828 -0.3916
 7775SOL    HW134784   2.968   1.222   1.045 -2.3854  1.2975 -0.9363
 7775SOL    HW234785   2.927   1.338   1.117 -0.5905 -0.6817  1.3530
 7776SOL     OW34786   4.275   1.028   4.751  0.5393 -0.0379 -0.0862
 7776SOL    HW134787   4.248   1.103   4.805 -0.4888 -1.4793  1.4054
 7776SOL    HW234788   4.369   1.030   4.769  0.4850 -2.1770  0.4141
 7777SOL     OW34789   3.421   4.707   4.990  0.2446 -0.2908 -0.2878
 7777SOL    HW134790   3.426   0.058   5.051 -0.5519 -0.0179 -0.5507
 7777SOL    HW234791   3.430   4.634   5.050  0.6905  1.3174  1.6139
 7778SOL     OW34792   1.049   2.759   8.737 -0.1439  0.7686 -0.0109
 7778SOL    HW134793   1.089   2.820   8.799 -2.3169  2.4697 -0.2806
 7778SOL    HW234794   1.116   2.691   8.731 -0.6816  0.3200 -0.9197
 7779SOL     OW34795   3.180   2.032   5.715 -0.3939  0.3647  0.0245
 7779SOL    HW134796   3.230   2.105   5.680  0.4160  1.0632  2.6173
 7779SOL    HW234797   3.203   2.037   5.808  1.2624  0.0615 -0.3727
 7780SOL     OW34798   0.401   1.170  16.255  0.4135 -0.1921  0.4909
 7780SOL    HW134799   0.350   1.154  16.335  1.9120 -0.4591  1.3928
 7780SOL    HW234800   0.487   1.131  16.268  1.6004  2.0601 -0.5833
 7781SOL     OW34801   3.139   2.653  14.276  0.1828  0.0225  0.6867
 7781SOL    HW134802   3.061   2.637  14.224  2.2766  2.3093 -3.1345
 7781SOL    HW234803   3.180   2.733  14.241  0.1257  0.3498  1.3587
 7782SOL     OW34804   0.998   1.651   2.863  0.2086 -0.0558 -0.1742
 7782SOL    HW134805   0.999   1.558   2.886 -0.4808 -0.1283 -0.4334
 7782SOL    HW234806   0.916   1.680   2.904  1.0538 -0.0234  1.5020
 7783SOL     OW34807   0.456   0.419   0.061  0.2357  0.6582 -0.0310
 7783SOL    HW134808   0.550   0.415   0.077 -0.0600 -0.5712  1.3206
 7783SOL    HW234809   0.423   0.345   0.112  0.5710 -0.5418 -1.5363
 7784SOL     OW34810   2.754   4.573   8.963  0.0594  0.6322 -0.3405
 7784SOL    HW134811   2.824   4.590   8.901 -1.4069 -1.5902 -2.6225
 7784SOL    HW234812   2.746   4.478   8.956  1.9894  0.4594 -0.0740
 7785SOL     OW34813   0.013   2.758  17.261  0.3976  0.3055 -0.2873
 7785SOL    HW134814   4.711   2.668  17.284 -0.0466  0.5190  0.0591
 7785SOL    HW234815   4.653   2.801  17.242 -0.3573 -1.8630 -1.8520
 7786SOL     OW34816   0.366   1.530  12.087 -0.1144 -0.0885  0.5936
 7786SOL    HW134817   0.314   1.528  12.168 -1.2835  0.6315 -0.1360
 7786SOL    HW234818   0.433   1.468  12.114  1.1221  1.0517  0.1415
 7787SOL     OW34819   3.052   1.330   8.227 -0.3302 -0.2024 -0.5500
 7787SOL    HW134820   3.063   1.264   8.158 -1.6662 -0.3107 -0.6567
 7787SOL    HW234821   3.043   1.413   8.181  1.1613  0.3274  0.1306
 7788SOL     OW34822   4.249   3.346   9.846  0.2090  0.0438  0.2309
 7788SOL    HW134823   4.189   3.273   9.862  0.2381 -0.0139  0.0816
 7788SOL    HW234824   4.197   3.426   9.841  0.9225  0.4962  0.1947
 7789SOL     OW34825   1.653   0.322   3.508 -0.3191  0.1695  0.2016
 7789SOL    HW134826   1.636   0.380   3.433 -0.3181 -1.1984 -0.8673
 7789SOL    HW234827   1.708   0.248   3.480  2.2139  2.9253 -2.0106
 7790SOL     OW34828   0.471   1.266   3.087 -0.0481  0.5369 -0.4663
 7790SOL    HW134829   0.457   1.318   3.007  0.6444  0.2088 -0.8001
 7790SOL    HW234830   0.562   1.279   3.113 -0.8681 -0.0689  2.6684
 7791SOL     OW34831   3.260   4.283   1.839 -0.2424 -0.4742  0.2956
 7791SOL    HW134832   3.338   4.300   1.892  0.0309 -1.1242  0.1075
 7791SOL    HW234833   3.192   4.328   1.889  0.3473 -0.9683  1.5218
 7792SOL     OW34834   1.939   3.320   1.624 -0.5593  0.7232 -0.0321
 7792SOL    HW134835   1.879   3.289   1.556  0.9862 -0.2883 -0.9318
 7792SOL    HW234836   2.010   3.350   1.567  0.0105 -1.9155 -0.6934
 7793SOL     OW34837   4.206   0.175   3.196 -0.0235 -0.0067 -0.1041
 7793SOL    HW134838   4.162   0.092   3.214 -2.5689  0.7890 -2.6739
 7793SOL    HW234839   4.168   0.214   3.117  2.5804  1.6414 -0.5578
 7794SOL     OW34840   0.268   2.232   0.586  0.0150 -0.3895 -0.0598
 7794SOL    HW134841   0.331   2.287   0.633  1.4339 -1.8705 -0.2428
 7794SOL    HW234842   0.278   2.254   0.494 -1.0042 -1.1757 -0.3620
 7795SOL     OW34843   0.183   3.115   9.775 -0.4277 -0.0541 -0.3323
 7795SOL    HW134844   0.210   3.031   9.811 -1.0723  0.2152  0.7916
 7795SOL    HW234845   0.190   3.092   9.683  0.9291  1.2342 -0.5523
 7796SOL     OW34846   3.844   4.284   3.234  0.0549 -0.1681 -0.0496
 7796SOL    HW134847   3.799   4.365   3.256  0.5619 -0.3635  1.6955
 7796SOL    HW234848   3.922   4.322   3.192 -1.1715  1.7287 -0.5818
 7797SOL     OW34849   4.405   4.042   5.428  0.3897  0.4041  0.3403
 7797SOL    HW134850   4.457   4.122   5.442  1.5096 -0.2860  0.0832
 7797SOL    HW234851   4.404   4.042   5.333  2.2537  2.7259  0.3153
 7798SOL     OW34852   4.241   4.285   3.514  0.7605  0.1714 -0.4331
 7798SOL    HW134853   4.186   4.207   3.507  1.5161 -0.3607 -0.3570
 7798SOL    HW234854   4.233   4.299   3.609  0.6624 -1.0366 -0.2725
 7799SOL     OW34855   0.403   0.490   1.740  0.1262 -0.0000  0.6244
 7799SOL    HW134856   0.473   0.544   1.777 -1.2677  1.0174  1.7710
 7799SOL    HW234857   0.402   0.415   1.799 -1.0851 -0.2181  0.3314
 7800SOL     OW34858   3.995   3.515  12.739  0.9714  0.0499  0.0829
 7800SOL    HW134859   4.074   3.489  12.787  1.6090  1.9257  0.0554
 7800SOL    HW234860   4.006   3.462  12.660 -1.2153 -0.6218  0.2447
 7801SOL     OW34861   0.735   1.875   5.047  0.2204  0.3946 -0.4214
 7801SOL    HW134862   0.642   1.883   5.029 -0.3771  0.3556  2.6178
 7801SOL    HW234863   0.769   1.917   4.968 -3.0755  2.0026 -0.9666
 7802SOL     OW34864   1.525   4.334   9.147 -0.0263  0.1000 -0.1066
 7802SOL    HW134865   1.594   4.397   9.166  0.3149 -0.5390  0.7525
 7802SOL    HW234866   1.572   4.278   9.085  1.8788  0.2795  1.1780
 7803SOL     OW34867   4.507   3.241  13.179  0.3708  0.0051 -0.0342
 7803SOL    HW134868   4.438   3.180  13.204 -0.3008  1.2605  1.1533
 7803SOL    HW234869   4.545   3.198  13.102  0.4473 -1.6456  0.9129
 7804SOL     OW34870   1.705   0.307   2.265 -0.0139 -0.0849  0.3185
 7804SOL    HW134871   1.690   0.267   2.179  1.6587  2.7761 -1.3251
 7804SOL    HW234872   1.786   0.351   2.240  0.6526  0.6570  3.7682
 7805SOL     OW34873   3.464   0.380  14.554  0.2543 -0.1245  0.0899
 7805SOL    HW134874   3.549   0.347  14.585  1.9006 -0.1342 -4.4499
 7805SOL    HW234875   3.406   0.331  14.612 -0.5221  2.9157  1.9058
 7806SOL     OW34876   2.634   2.807  12.765 -0.0163 -0.3587  0.6163
 7806SOL    HW134877   2.619   2.900  12.748 -2.7717 -1.0664 -0.7917
 7806SOL    HW234878   2.563   2.763  12.718  1.2749 -0.3388 -1.3511
 7807SOL     OW34879   1.252   0.817   5.237  0.2036  0.0169 -0.5363
 7807SOL    HW134880   1.268   0.723   5.231  0.6657 -0.0212  1.1728
 7807SOL    HW234881   1.340   0.843   5.212  0.6264  0.6992  1.6433
 7808SOL     OW34882   4.181   0.282   6.079 -0.5788  0.0148  0.4109
 7808SOL    HW134883   4.087   0.299   6.084 -0.8954 -1.6393  0.1616
 7808SOL    HW234884   4.191   0.253   6.169  0.2894  0.7336  0.5447
 7809SOL     OW34885   3.930   1.456   8.919  0.6539  0.3741  0.1625
 7809SOL    HW134886   3.890   1.383   8.872  1.6974 -0.9264  1.2959
 7809SOL    HW234887   3.949   1.423   9.007 -0.9351 -0.4190  0.1955
 7810SOL     OW34888   2.725   1.511  11.565 -0.1284 -0.3473  0.1401
 7810SOL    HW134889   2.684   1.432  11.531  0.4662 -0.3211 -0.6493
 7810SOL    HW234890   2.816   1.505  11.535 -0.5661  1.8699 -1.6257
 7811SOL     OW34891   2.052   1.988   8.929  0.1863  0.3611 -0.0322
 7811SOL    HW134892   2.038   2.079   8.954  1.2216  0.6703 -0.6127
 7811SOL    HW234893   2.114   1.955   8.994 -1.9005 -0.7830  1.3799
 7812SOL     OW34894   1.537   2.495   4.582  0.6452 -0.0031  0.3729
 7812SOL    HW134895   1.510   2.586   4.573 -2.7596 -1.1004 -0.3453
 7812SOL    HW234896   1.528   2.465   4.491 -1.3670 -0.4711  0.7225
 7813SOL     OW34897   4.062   0.267   4.988 -0.1053 -0.0230  0.1362
 7813SOL    HW134898   4.019   0.341   5.032  0.3332 -0.6424  1.6199
 7813SOL    HW234899   3.992   0.207   4.964 -1.0132 -0.5588  4.1099
 7814SOL     OW34900   2.144   3.012   4.643 -0.2072 -0.2219 -0.2765
 7814SOL    HW134901   2.102   3.078   4.700  3.0523  0.5688  1.1952
 7814SOL    HW234902   2.110   2.933   4.685 -0.5078  0.9036  1.6312
 7815SOL     OW34903   4.211   2.331   2.126  0.1898  0.1590  0.2251
 7815SOL    HW134904   4.305   2.324   2.145  0.4017  2.0534 -0.0823
 7815SOL    HW234905   4.212   2.360   2.035  1.7811  0.5760  0.3769
 7816SOL     OW34906   3.124   3.799   5.865 -0.5459 -0.1539 -0.5441
 7816SOL    HW134907   3.145   3.889   5.889 -2.2827  0.1833 -0.2975
 7816SOL    HW234908   3.029   3.804   5.861 -0.6841 -2.4199 -0.4932
 7817SOL     OW34909   2.259   3.844   0.481 -0.0116  0.2466 -0.7747
 7817SOL    HW134910   2.269   3.938   0.493 -1.1358 -0.0301  2.3279
 7817SOL    HW234911   2.349   3.811   0.487  0.4325  1.9726  2.0198
 7818SOL     OW34912   4.471   3.680  15.253 -0.3167 -0.0075  0.2783
 7818SOL    HW134913   4.525   3.658  15.329  0.0031  1.5141  0.4991
 7818SOL    HW234914   4.392   3.632  15.278 -0.6082  1.0884  1.4417
 7819SOL     OW34915   1.783   0.872   6.247 -0.8841  0.0168 -0.3136
 7819SOL    HW134916   1.694   0.854   6.277 -0.5181 -0.9685  0.1790
 7819SOL    HW234917   1.827   0.788   6.260 -0.8534  0.1667  0.5088
 7820SOL     OW34918   4.558   3.314   8.407  0.0813  0.4917 -0.5559
 7820SOL    HW134919   4.545   3.294   8.499  1.5009 -0.1118 -0.4784
 7820SOL    HW234920   4.562   3.228   8.364  2.6143 -0.8659  2.4223
 7821SOL     OW34921   1.943   4.247  13.156 -0.5981  0.2057  0.3683
 7821SOL    HW134922   1.901   4.328  13.184  1.9186  1.6363 -0.0456
 7821SOL    HW234923   1.955   4.209  13.244  0.7917 -2.0065 -0.7739
 7822SOL     OW34924   1.419   3.571   8.701 -0.1461  0.1782  0.2874
 7822SOL    HW134925   1.404   3.633   8.630 -1.5352 -1.6668 -1.0379
 7822SOL    HW234926   1.336   3.575   8.748 -0.5179  0.6039 -0.3930
 7823SOL     OW34927   3.128   0.859   4.711  0.0980  0.1967 -0.1955
 7823SOL    HW134928   3.131   0.885   4.619 -0.4660 -2.7753 -1.0707
 7823SOL    HW234929   3.034   0.868   4.729 -0.3081 -2.7661 -0.7220
 7824SOL     OW34930   0.518   4.415   7.578 -0.5752 -0.3369 -0.7376
 7824SOL    HW134931   0.465   4.381   7.651 -1.0106  0.4564 -0.6842
 7824SOL    HW234932   0.567   4.479   7.628 -0.4078 -0.4395 -0.7685
 7825SOL     OW34933   0.074   4.528   3.701  0.0280  0.0474 -0.8511
 7825SOL    HW134934   0.122   4.449   3.678  0.5322 -0.3363  1.5588
 7825SOL    HW234935   0.118   4.594   3.647 -0.3643 -0.5016 -1.8354
 7826SOL     OW34936   3.541   1.129   5.133  0.2616  0.1318 -0.1501
 7826SOL    HW134937   3.592   1.200   5.172  0.6417  0.6288 -1.5611
 7826SOL    HW234938   3.490   1.176   5.067  1.7247  2.3973  0.3419
 7827SOL     OW34939   0.763   3.493   4.390 -0.1945 -0.2744 -0.6299
 7827SOL    HW134940   0.769   3.589   4.390 -1.0989 -0.2107  0.0390
 7827SOL    HW234941   0.828   3.470   4.324 -0.3410 -0.6937 -0.6255
 7828SOL     OW34942   2.345   1.557  10.712 -0.1062 -0.5463 -0.0489
 7828SOL    HW134943   2.358   1.651  10.720  0.1952 -0.7579  1.9181
 7828SOL    HW234944   2.304   1.554  10.626 -0.9150 -2.5580  0.4071
 7829SOL     OW34945   3.551   0.408   8.469  0.0324  0.5285  0.0615
 7829SOL    HW134946   3.525   0.316   8.479  0.4455  0.5361  1.1579
 7829SOL    HW234947   3.606   0.427   8.544  0.1715 -0.3412  0.1803
 7830SOL     OW34948   0.581   1.921   4.217  0.0239 -0.1228 -0.4744
 7830SOL    HW134949   0.578   1.997   4.275 -1.5729 -1.6916  1.4903
 7830SOL    HW234950   0.502   1.878   4.248 -0.3354 -0.3777 -1.7595
 7831SOL     OW34951   1.779   1.380   7.916  0.2053 -0.5413 -0.0404
 7831SOL    HW134952   1.794   1.474   7.928 -1.1430 -0.4284  0.7875
 7831SOL    HW234953   1.860   1.359   7.869  0.1721 -0.4857 -0.1226
 7832SOL     OW34954   1.023   2.046   1.257  0.1703 -0.0659 -0.4211
 7832SOL    HW134955   0.968   2.124   1.266  0.1931 -0.0803 -0.1484
 7832SOL    HW234956   1.072   2.060   1.175  1.2563  1.4565  0.4797
 7833SOL     OW34957   4.094   0.650   4.489  0.1967 -0.2199  0.2327
 7833SOL    HW134958   4.144   0.594   4.549  1.4005 -1.6312 -2.1227
 7833SOL    HW234959   4.143   0.730   4.508  0.7697 -0.7603  1.0343
 7834SOL     OW34960   4.575   1.420   6.517  0.3485  0.4831 -0.4612
 7834SOL    HW134961   4.634   1.363   6.466 -0.0125 -1.3976  1.2171
 7834SOL    HW234962   4.561   1.365   6.594  0.5229  0.9616 -0.0949
 7835SOL     OW34963   2.666   4.712   7.299  0.3939  0.1255  0.1397
 7835SOL    HW134964   2.636   0.080   7.312  1.4790  0.7450 -1.6266
 7835SOL    HW234965   2.747   0.003   7.250  1.1827  0.2946  1.4916
 7836SOL     OW34966   2.373   4.040   8.602 -0.1365  0.2802  0.0492
 7836SOL    HW134967   2.327   4.018   8.521 -1.0988 -2.1093  1.2399
 7836SOL    HW234968   2.400   3.951   8.625 -0.4916  0.6728  1.9493
 7837SOL     OW34969   3.134   2.999   2.461 -0.0980 -0.0924 -0.3805
 7837SOL    HW134970   3.207   2.960   2.509  2.8088  2.9825 -2.3065
 7837SOL    HW234971   3.168   3.086   2.440 -0.6522  0.0461 -0.7124
 7838SOL     OW34972   2.801   0.304  14.836 -0.1022 -0.0405  0.6121
 7838SOL    HW134973   2.852   0.359  14.777 -1.4594 -0.7079 -1.1879
 7838SOL    HW234974   2.862   0.284  14.906 -1.2023 -1.1722  1.2428
 7839SOL     OW34975   2.821   2.710   4.793 -0.0595 -0.4542 -0.5532
 7839SOL    HW134976   2.758   2.768   4.750  1.4409  1.0010 -0.7602
 7839SOL    HW234977   2.793   2.730   4.882  1.1409  0.6324 -0.4168
 7840SOL     OW34978   2.512   2.959   5.246 -0.2938 -0.3681  0.2151
 7840SOL    HW134979   2.567   2.931   5.319  0.5054 -0.8014 -0.5433
 7840SOL    HW234980   2.524   3.054   5.251 -1.8435 -0.2087  0.6564
 7841SOL     OW34981   3.906   4.435  14.048 -0.3246  0.2403  0.4129
 7841SOL    HW134982   3.952   4.488  13.983  0.2104 -1.9741 -1.0308
 7841SOL    HW234983   3.950   4.472  14.124 -0.8305 -0.5961  1.1121
 7842SOL     OW34984   4.695   1.383   4.099 -0.2411 -0.2491 -0.0702
 7842SOL    HW134985   4.692   1.474   4.128  0.1752  0.0238 -0.8931
 7842SOL    HW234986   4.631   1.386   4.027 -0.9990  0.8031  0.6440
 7843SOL     OW34987   0.953   3.341  11.631  0.1660 -0.4943 -0.3464
 7843SOL    HW134988   0.864   3.340  11.595  0.8230  1.6782 -1.9948
 7843SOL    HW234989   0.973   3.248  11.639  1.1489 -0.2664 -0.2106
 7844SOL     OW34990   1.600   2.419   6.154 -0.2176  0.1417 -0.0805
 7844SOL    HW134991   1.661   2.351   6.125 -0.4993  0.1279 -0.6309
 7844SOL    HW234992   1.657   2.448   6.226  0.5755 -0.0233 -0.6382
 7845SOL     OW34993   1.076   2.884   0.859  0.0568  0.1679 -0.0110
 7845SOL    HW134994   1.043   2.905   0.946 -0.2776  0.8514 -0.2999
 7845SOL    HW234995   1.068   2.789   0.857 -1.6402  0.2933  0.8134
 7846SOL     OW34996   1.640   2.853   7.044  0.9107  0.0524  0.0312
 7846SOL    HW134997   1.656   2.919   7.111 -1.2863 -0.0109  0.6115
 7846SOL    HW234998   1.672   2.771   7.082  0.0210 -0.2405  0.1454
 7847SOL     OW34999   3.304   2.188  17.081  0.4983 -0.2214  0.3500
 7847SOL    HW135000   3.381   2.229  17.041  1.1743 -0.8283  1.0548
 7847SOL    HW235001   3.243   2.262  17.071  2.0416  0.9160 -0.7927
 7848SOL     OW35002   2.130   1.632   5.638 -0.0914  0.1825 -0.0054
 7848SOL    HW135003   2.065   1.673   5.580  1.1126  0.9376 -0.8131
 7848SOL    HW235004   2.159   1.558   5.584 -2.7963 -0.9000 -0.0205
 7849SOL     OW35005   0.694   3.454   6.837  0.0933  0.1279  0.0269
 7849SOL    HW135006   0.666   3.376   6.789 -0.7387 -0.7259  1.8775
 7849SOL    HW235007   0.750   3.498   6.775  0.9275  1.2644  1.6021
 7850SOL     OW35008   3.106   3.331   8.940  0.8574  0.5070  0.4427
 7850SOL    HW135009   3.121   3.237   8.941  0.0740  0.3994  1.7005
 7850SOL    HW235010   3.087   3.344   8.847 -0.0379 -0.8952  0.4320
 7851SOL     OW35011   2.132   1.196   8.418  0.2877 -0.0775  0.0468
 7851SOL    HW135012   2.132   1.175   8.512  0.0910 -1.2837 -0.2370
 7851SOL    HW235013   2.228   1.200   8.413  0.3492  1.0608  1.7011
 7852SOL     OW35014   2.265   0.652   4.599  0.4451  0.3003 -0.1619
 7852SOL    HW135015   2.276   0.695   4.514 -0.4429 -1.1702 -1.0092
 7852SOL    HW235016   2.280   0.728   4.656  0.1436  1.0211 -1.0483
 7853SOL     OW35017   0.977   3.222  13.153  0.0562  0.2373 -0.5086
 7853SOL    HW135018   1.038   3.205  13.225 -2.9455 -0.1093  1.9590
 7853SOL    HW235019   0.899   3.251  13.200 -0.1435 -0.8098 -0.1873
 7854SOL     OW35020   1.398   0.338  17.465  0.1784  0.0104  0.0394
 7854SOL    HW135021   1.365   0.323  17.377 -0.2082  0.2396  0.1468
 7854SOL    HW235022   1.455   0.262  17.477 -0.5084 -0.3563  0.9359
 7855SOL     OW35023   3.404   1.283  15.684 -0.2278 -0.4555  0.5962
 7855SOL    HW135024   3.337   1.214  15.684  0.0282 -0.7126 -0.8042
 7855SOL    HW235025   3.344   1.357  15.692  0.5204  0.3385 -1.0240
 7856SOL     OW35026   1.022   0.544   7.287  0.6343 -0.3822  0.2735
 7856SOL    HW135027   1.062   0.480   7.229  0.6504  0.1192 -0.2756
 7856SOL    HW235028   1.059   0.512   7.369  1.4870 -1.3660 -0.4961
 7857SOL     OW35029   3.578   1.714   6.726  0.4228  0.2712  0.0628
 7857SOL    HW135030   3.653   1.767   6.699 -1.3441  1.1484 -3.1114
 7857SOL    HW235031   3.552   1.682   6.639  1.0593 -2.0503  0.7340
 7858SOL     OW35032   1.434   1.490  10.543  0.9427  0.4037  0.4767
 7858SOL    HW135033   1.474   1.457  10.463 -0.9007 -0.3167 -0.1352
 7858SOL    HW235034   1.397   1.411  10.581 -1.2910  2.1020  1.8426
 7859SOL     OW35035   0.443   0.842  16.749  0.4453 -0.2285 -0.0829
 7859SOL    HW135036   0.409   0.858  16.661 -1.7341 -0.7903  0.6500
 7859SOL    HW235037   0.454   0.934  16.774  3.1361  0.2720 -3.1549
 7860SOL     OW35038   3.957   1.047   0.286  0.4956 -0.7134 -0.1821
 7860SOL    HW135039   3.950   1.011   0.374  1.5361  0.0058  0.1865
 7860SOL    HW235040   4.046   1.019   0.262  0.7055  0.1756 -0.4497
 7861SOL     OW35041   1.852   0.724   3.878  0.1272  0.3622 -0.1695
 7861SOL    HW135042   1.876   0.653   3.819 -0.9368 -1.8168  2.0150
 7861SOL    HW235043   1.889   0.690   3.959  0.2719  1.5606  0.2646
 7862SOL     OW35044   3.371   1.406   3.651 -0.1528  0.3901 -0.6104
 7862SOL    HW135045   3.330   1.430   3.568 -0.7059 -1.5435 -0.9061
 7862SOL    HW235046   3.441   1.470   3.656  0.6641 -0.3840 -1.8829
 7863SOL     OW35047   2.820   4.073  16.529  0.9643 -0.2077 -0.0797
 7863SOL    HW135048   2.835   4.134  16.602  0.3470  0.2018 -0.2964
 7863SOL    HW235049   2.880   4.003  16.554  0.6351 -0.9718 -1.4370
 7864SOL     OW35050   1.571   4.679   4.634  0.4139  0.1585  0.2842
 7864SOL    HW135051   1.619   4.715   4.559  0.6369  0.4607  0.5730
 7864SOL    HW235052   1.612   0.002   4.707  1.1659 -0.6192  0.3301
 7865SOL     OW35053   2.247   2.607   8.601  0.1277 -0.0339 -0.1463
 7865SOL    HW135054   2.323   2.653   8.637 -0.0512 -0.2820  0.5454
 7865SOL    HW235055   2.244   2.534   8.663 -1.9712 -1.3234 -1.7765
 7866SOL     OW35056   4.113   2.523   4.345 -0.1861 -0.3426  0.1719
 7866SOL    HW135057   4.143   2.614   4.353 -0.4008 -0.2316 -0.3404
 7866SOL    HW235058   4.030   2.521   4.392  0.7664 -0.3018  1.8687
 7867SOL     OW35059   3.477   1.534   1.415 -0.0287  0.4237  0.7136
 7867SOL    HW135060   3.503   1.493   1.498 -0.4136 -1.9785 -0.3752
 7867SOL    HW235061   3.399   1.491   1.381  0.9631  0.9532 -2.2208
 7868SOL     OW35062   0.370   3.574   4.856 -0.1599 -0.5344 -0.4785
 7868SOL    HW135063   0.427   3.564   4.932 -0.7611  1.2404  0.2115
 7868SOL    HW235064   0.406   3.637   4.794  0.2162  1.2280  1.5153
 7869SOL     OW35065   4.140   3.211  16.103  0.6288  0.5204  0.0296
 7869SOL    HW135066   4.060   3.180  16.061  1.3602 -1.5312  0.1708
 7869SOL    HW235067   4.199   3.165  16.043  1.8427  1.2178  0.6922
 7870SOL     OW35068   2.906   3.224  11.153  0.3879  0.6941 -0.0670
 7870SOL    HW135069   2.935   3.316  11.155 -1.1262  1.1960 -1.2151
 7870SOL    HW235070   2.901   3.201  11.060 -1.0002 -0.9275  0.4198
 7871SOL     OW35071   2.080   0.281   5.012  0.3305 -1.5078  0.0808
 7871SOL    HW135072   2.116   0.349   5.069 -1.3158 -0.1199 -0.5399
 7871SOL    HW235073   2.024   0.343   4.965  3.0245 -0.1527 -1.3279
 7872SOL     OW35074   4.254   2.829  16.635  0.1348 -0.0275  0.0417
 7872SOL    HW135075   4.297   2.784  16.562  0.2495  0.1617 -0.0067
 7872SOL    HW235076   4.185   2.873  16.586  2.3419  1.6588 -1.5775
 7873SOL     OW35077   0.214   4.040   3.169  0.6086 -0.3708  0.6465
 7873SOL    HW135078   0.143   4.103   3.157  0.5107 -0.6076  0.0024
 7873SOL    HW235079   0.293   4.088   3.145 -0.5729  1.3919  0.2720
 7874SOL     OW35080   4.515   3.534  10.592 -0.3276 -0.0471  0.7800
 7874SOL    HW135081   4.579   3.524  10.662 -0.7802  0.3829  1.2557
 7874SOL    HW235082   4.553   3.611  10.549  0.4340 -0.9460 -0.1415
 7875SOL     OW35083   2.926   2.442  16.065  0.6866  0.6615  0.6137
 7875SOL    HW135084   2.930   2.527  16.023 -0.2957  0.9824  1.1615
 7875SOL    HW235085   2.944   2.465  16.156 -1.5946  0.2484  1.1621
 7876SOL     OW35086   1.468   2.726   6.641 -0.6274 -0.4210 -0.0718
 7876SOL    HW135087   1.505   2.811   6.666  0.1675 -0.9219  0.4556
 7876SOL    HW235088   1.488   2.668   6.715  0.2656  0.4601  0.3781
 7877SOL     OW35089   0.710   4.467   4.228 -0.4210 -0.2911 -0.1281
 7877SOL    HW135090   0.621   4.495   4.251  0.5614  1.3268  1.6988
 7877SOL    HW235091   0.697   4.470   4.133 -0.0402 -1.1341 -0.2049
 7878SOL     OW35092   3.193   2.751   8.937  0.4010 -0.0071 -0.1222
 7878SOL    HW135093   3.274   2.731   8.891 -0.8103 -0.7478 -1.9281
 7878SOL    HW235094   3.204   2.706   9.021 -0.9985 -1.0345 -0.5030
 7879SOL     OW35095   1.350   1.205  15.192  0.1010  0.4862  0.2082
 7879SOL    HW135096   1.272   1.157  15.165 -0.2868  1.9851 -1.3447
 7879SOL    HW235097   1.397   1.180  15.113 -2.2381  3.5555 -2.1600
 7880SOL     OW35098   3.257   4.065   8.216 -0.6480  0.4450  0.5346
 7880SOL    HW135099   3.239   4.078   8.309 -1.2315  0.0528  0.4779
 7880SOL    HW235100   3.228   3.974   8.204  2.4737 -0.5295  0.4648
 7881SOL     OW35101   1.502   3.894  15.569 -0.2091  0.5504 -0.5804
 7881SOL    HW135102   1.560   3.941  15.510  0.4835  3.3487  2.3108
 7881SOL    HW235103   1.527   3.805  15.546  0.2340  0.2252  1.1270
 7882SOL     OW35104   3.687   2.564   9.851  0.7392 -0.0654  0.3717
 7882SOL    HW135105   3.648   2.523   9.929 -0.6984  1.2870  0.3785
 7882SOL    HW235106   3.778   2.536   9.859  1.1256  0.4422 -2.3522
 7883SOL     OW35107   2.429   3.758   2.878  0.1290  0.3593  0.1234
 7883SOL    HW135108   2.455   3.787   2.791 -0.0100  0.1940  0.0258
 7883SOL    HW235109   2.512   3.782   2.920  1.3487  0.5547 -2.4173
 7884SOL     OW35110   2.634   1.535   7.224  0.1123 -0.4053  0.3435
 7884SOL    HW135111   2.653   1.565   7.312  0.5770  1.9356 -0.5561
 7884SOL    HW235112   2.539   1.544   7.215  0.1106  1.1018  1.9851
 7885SOL     OW35113   4.363   2.687   6.958 -0.2712  0.3207 -0.0656
 7885SOL    HW135114   4.318   2.766   6.928  3.2173  0.6515 -4.4533
 7885SOL    HW235115   4.435   2.701   6.896  1.0289 -2.4171  0.8079
 7886SOL     OW35116   2.217   0.697  17.617  0.0174  0.5869  0.0877
 7886SOL    HW135117   2.161   0.759  17.569 -0.5718  1.4264  1.8549
 7886SOL    HW235118   2.153   0.662  17.678 -0.9882 -0.8061 -1.7473
 7887SOL     OW35119   3.631   2.204   6.435 -0.1358  0.0772  0.6369
 7887SOL    HW135120   3.606   2.198   6.343 -1.3866  1.3112  0.8899
 7887SOL    HW235121   3.581   2.130   6.471 -1.0373  0.4587  0.1761
 7888SOL     OW35122   2.388   1.334   7.507  0.0560 -0.2172 -0.0502
 7888SOL    HW135123   2.364   1.294   7.424 -0.9673 -0.8249  0.5288
 7888SOL    HW235124   2.346   1.279   7.574  0.9623  2.0394  2.3978
 7889SOL     OW35125   1.714   3.607   0.842  0.0652  0.0239 -0.0994
 7889SOL    HW135126   1.804   3.581   0.858 -0.2938 -1.3069 -0.3010
 7889SOL    HW235127   1.705   3.671   0.913 -1.9183 -1.4384  0.9680
 7890SOL     OW35128   1.905   0.143   5.889  0.2473 -0.6810  0.2309
 7890SOL    HW135129   1.815   0.111   5.898  1.2411 -3.5803 -0.2306
 7890SOL    HW235130   1.944   0.056   5.878  3.1932  0.2369  3.5078
 7891SOL     OW35131   0.174   1.019  10.849 -0.3320 -0.0427  0.1845
 7891SOL    HW135132   0.191   1.096  10.794 -0.5905 -0.1496 -0.0450
 7891SOL    HW235133   0.171   0.941  10.792 -0.6659 -0.4528  0.7645
 7892SOL     OW35134   0.657   2.173   1.478 -0.2165 -0.2585 -0.3655
 7892SOL    HW135135   0.672   2.241   1.543  2.5359  0.2162 -1.4516
 7892SOL    HW235136   0.743   2.155   1.439  0.2219 -1.0510  0.9469
 7893SOL     OW35137   1.888   2.133   8.094  0.3851 -0.3227 -0.3761
 7893SOL    HW135138   1.808   2.162   8.051 -1.1275  0.4801  2.9470
 7893SOL    HW235139   1.857   2.048   8.126  1.6356  0.7557  3.7578
 7894SOL     OW35140   0.480   1.621  12.391 -0.1444 -0.2668  0.4707
 7894SOL    HW135141   0.436   1.588  12.469 -0.2080  0.8356  0.9046
 7894SOL    HW235142   0.486   1.537  12.346  0.3638  0.9432 -1.7074
 7895SOL     OW35143   0.597   2.183   6.917  0.6941  0.9607 -0.1147
 7895SOL    HW135144   0.577   2.090   6.902  0.1101  1.1740 -0.6359
 7895SOL    HW235145   0.511   2.213   6.889  0.8565 -0.5546 -2.2600
 7896SOL     OW35146   0.446   3.728  12.602 -0.5637 -0.0068  0.2821
 7896SOL    HW135147   0.453   3.634  12.617 -0.0831  0.1055  0.7836
 7896SOL    HW235148   0.384   3.722  12.530  2.2204  1.3728 -2.2409
 7897SOL     OW35149   4.652   3.796  12.042 -0.3361  0.3957  1.0124
 7897SOL    HW135150   4.573   3.747  12.019  1.3032 -1.4596 -0.7073
 7897SOL    HW235151   4.614   3.867  12.093 -1.2222 -0.3074  1.3292
 7898SOL     OW35152   0.287   0.053  12.666 -0.0231  0.1565 -0.2691
 7898SOL    HW135153   0.273   0.115  12.738 -1.4454 -1.2188  0.6367
 7898SOL    HW235154   0.289   0.124  12.602  1.1037  0.4285  0.0625
 7899SOL     OW35155   3.382   0.371   3.649 -0.0923 -0.0414 -0.2065
 7899SOL    HW135156   3.377   0.340   3.739  1.1596  1.7944  0.4820
 7899SOL    HW235157   3.471   0.341   3.635 -0.8888 -1.5353 -2.1495
 7900SOL     OW35158   0.792   1.883   4.446  0.4735  0.5923  0.5847
 7900SOL    HW135159   0.723   1.831   4.405  0.6655  2.1849 -1.7370
 7900SOL    HW235160   0.845   1.814   4.484 -0.4822 -0.7402 -0.5151
 7901SOL     OW35161   2.500   0.881   0.425  0.0347 -0.2908  0.1248
 7901SOL    HW135162   2.507   0.789   0.449 -1.5208 -0.3202  0.4124
 7901SOL    HW235163   2.478   0.863   0.334  0.0735 -3.3352  0.7152
 7902SOL     OW35164   1.200   1.801   7.707  0.0281 -0.1720 -0.6061
 7902SOL    HW135165   1.161   1.843   7.630  0.9730 -0.6049 -1.3183
 7902SOL    HW235166   1.225   1.724   7.657 -0.1519  0.1433 -1.1864
 7903SOL     OW35167   0.085   3.858   3.009 -0.4320  0.1146  0.0469
 7903SOL    HW135168   0.133   3.920   3.063  0.0897  1.1619 -1.6229
 7903SOL    HW235169   0.132   3.780   3.037 -0.3258  1.5015  3.6311
 7904SOL     OW35170   4.308   1.867   4.478 -0.4590 -0.1634  0.0657
 7904SOL    HW135171   4.212   1.858   4.482 -0.2612 -2.2041 -0.0749
 7904SOL    HW235172   4.319   1.898   4.388 -1.9482 -0.2894 -0.1669
 7905SOL     OW35173   2.202   1.438  10.240  0.4285 -0.1940 -0.0897
 7905SOL    HW135174   2.283   1.450  10.190  0.1766  2.1179  0.0262
 7905SOL    HW235175   2.216   1.348  10.269  0.3016 -0.3128 -0.4058
 7906SOL     OW35176   0.598   1.341   6.098  0.2348 -0.6842  0.0975
 7906SOL    HW135177   0.537   1.415   6.097  1.0366 -0.0439 -1.7221
 7906SOL    HW235178   0.664   1.382   6.043  0.9179 -1.0670  0.6375
 7907SOL     OW35179   4.072   3.635   6.004  0.5142  0.5339  0.5967
 7907SOL    HW135180   4.121   3.674   5.932 -2.4674  2.4936 -0.3583
 7907SOL    HW235181   3.980   3.651   5.983  0.7413 -0.1303 -0.8837
 7908SOL     OW35182   2.590   1.697  16.463 -0.0746  0.2602  0.6739
 7908SOL    HW135183   2.611   1.643  16.539  2.2355  2.0067  1.2533
 7908SOL    HW235184   2.505   1.663  16.436  0.8878 -2.2842  0.8077
 7909SOL     OW35185   0.649   2.302   1.077 -0.1898  0.3584  0.3881
 7909SOL    HW135186   0.565   2.263   1.098 -1.1333  1.9056 -0.4945
 7909SOL    HW235187   0.657   2.269   0.988 -2.4466 -0.0790  0.3491
 7910SOL     OW35188   0.035   2.246  10.093 -0.4430  0.6488  0.0417
 7910SOL    HW135189   0.082   2.292  10.024  1.8944 -2.6658 -0.5691
 7910SOL    HW235190   0.105   2.189  10.127  0.3689  1.2571 -0.6317
 7911SOL     OW35191   1.863   3.005   3.206 -0.6458 -0.3609 -0.2768
 7911SOL    HW135192   1.833   2.963   3.286 -2.4812  0.6549 -0.4326
 7911SOL    HW235193   1.849   2.944   3.133 -0.1755  0.0808 -0.7435
 7912SOL     OW35194   0.876   2.798  17.327 -0.3420 -0.7031  0.3769
 7912SOL    HW135195   0.844   2.832  17.410  0.3510 -0.2381  0.4487
 7912SOL    HW235196   0.863   2.876  17.273 -0.8416 -0.3104  1.0666
 7913SOL     OW35197   2.472   0.814  17.494 -0.0880 -0.1234  0.6094
 7913SOL    HW135198   2.407   0.767  17.545  1.3722 -3.4186 -0.5607
 7913SOL    HW235199   2.447   0.904  17.518  0.1840  0.3344 -0.8158
 7914SOL     OW35200   3.490   3.119  16.525 -0.1175  0.1341 -0.0539
 7914SOL    HW135201   3.433   3.042  16.524 -0.6178  0.5027  1.1626
 7914SOL    HW235202   3.513   3.109  16.432 -1.4880 -0.3882 -0.3348
 7915SOL     OW35203   2.765   1.692  16.918 -0.0969  0.0800  0.0808
 7915SOL    HW135204   2.741   1.651  17.001 -0.4269 -1.3848 -0.7327
 7915SOL    HW235205   2.859   1.713  16.925 -0.8124  3.2830  0.1037
 7916SOL     OW35206   0.984   2.429   4.840 -0.2523  0.4468  0.4429
 7916SOL    HW135207   1.032   2.501   4.799  0.3895  0.3646  1.0524
 7916SOL    HW235208   1.037   2.352   4.821 -0.6453 -0.0930  1.5474
 7917SOL     OW35209   3.978   0.951   4.587  0.1908 -0.3563  0.6701
 7917SOL    HW135210   4.059   0.903   4.569 -0.8803 -0.9189 -2.5488
 7917SOL    HW235211   4.015   1.037   4.606 -1.9012  0.5661  0.5189
 7918SOL     OW35212   2.269   4.217  11.682 -0.1795 -0.3682 -0.0574
 7918SOL    HW135213   2.214   4.288  11.715 -0.8765 -0.9771  0.0992
 7918SOL    HW235214   2.334   4.256  11.625  1.1720  0.8594  2.3337
 7919SOL     OW35215   2.211   2.522   8.331  0.1015 -0.6294 -0.2063
 7919SOL    HW135216   2.237   2.591   8.393 -0.8204 -1.6671  1.3593
 7919SOL    HW235217   2.174   2.455   8.389  1.4040  0.6575  2.1081
 7920SOL     OW35218   3.261   1.519  17.685 -0.3109  0.4272 -0.0979
 7920SOL    HW135219   3.176   1.506   0.034  0.9069 -0.6280  2.0748
 7920SOL    HW235220   3.267   1.439  17.633 -1.3965  1.1060 -1.2503
 7921SOL     OW35221   4.257   4.363   5.672  0.1910 -0.4940  0.3362
 7921SOL    HW135222   4.353   4.358   5.679 -0.0580 -1.2702  2.8125
 7921SOL    HW235223   4.239   4.273   5.647  1.1028 -0.2885 -1.1214
 7922SOL     OW35224   3.979   1.664   8.314  0.2175 -0.2627 -0.3322
 7922SOL    HW135225   3.907   1.615   8.274 -1.1212 -0.0360  1.7816
 7922SOL    HW235226   4.050   1.609   8.283  0.4617  0.2556 -0.6976
 7923SOL     OW35227   2.940   0.745  16.329 -0.0794 -0.5866  0.1897
 7923SOL    HW135228   2.990   0.715  16.405  0.2179 -0.0930  0.1835
 7923SOL    HW235229   3.010   0.764  16.268 -2.2708 -0.1252 -2.2002
 7924SOL     OW35230   2.313   4.053   6.900 -0.0682  0.1576  0.4727
 7924SOL    HW135231   2.375   3.994   6.942  0.5573 -1.0646 -2.1568
 7924SOL    HW235232   2.347   4.055   6.811  1.5335 -0.8845  1.0618
 7925SOL     OW35233   2.542   4.081   5.258  0.1675 -0.1602  0.0303
 7925SOL    HW135234   2.511   4.169   5.239  2.8267  0.8168  0.2285
 7925SOL    HW235235   2.478   4.036   5.203  0.6451 -1.1242  0.2524
 7926SOL     OW35236   3.398   1.949  15.628  0.1533 -0.3858  0.0221
 7926SOL    HW135237   3.432   2.036  15.646  1.2769 -0.7789 -0.1816
 7926SOL    HW235238   3.451   1.911  15.558  0.9030  0.0024  0.3788
 7927SOL     OW35239   0.865   4.319   4.404 -0.0093  0.1436  0.4774
 7927SOL    HW135240   0.809   4.364   4.341  1.1042  0.2656 -0.4203
 7927SOL    HW235241   0.804   4.296   4.475  0.2754  0.8965  0.9705
 7928SOL     OW35242   2.706   3.534  12.373  0.1454  0.0326  0.0007
 7928SOL    HW135243   2.777   3.471  12.365 -1.0814 -1.2691 -0.7912
 7928SOL    HW235244   2.679   3.527  12.464  2.4983 -3.0587  0.4652
 7929SOL     OW35245   4.585   0.551  16.396  0.4979  0.1115 -0.2122
 7929SOL    HW135246   4.518   0.615  16.417  1.2603  0.4803  1.0344
 7929SOL    HW235247   4.531   0.492  16.343  1.0337  0.4252 -1.1234
 7930SOL     OW35248   0.956   1.881  12.153 -0.1435 -0.3182 -0.2080
 7930SOL    HW135249   0.884   1.876  12.216  1.1311 -4.4608  0.9007
 7930SOL    HW235250   1.013   1.941  12.200  0.5465 -0.7996 -0.4307
 7931SOL     OW35251   4.374   3.673  11.087 -0.5885  0.2486 -0.3131
 7931SOL    HW135252   4.290   3.669  11.041 -1.7067 -0.2850  1.8018
 7931SOL    HW235253   4.364   3.761  11.124 -0.6493  1.1222 -2.3791
 7932SOL     OW35254   1.704   0.090   4.870 -0.1074  0.0569  0.1070
 7932SOL    HW135255   1.640   0.159   4.887 -0.5235 -0.4044  0.4129
 7932SOL    HW235256   1.770   0.110   4.935 -1.7932  3.3026  0.8230
 7933SOL     OW35257   1.091   0.847   0.790 -0.0094 -0.0287 -0.4002
 7933SOL    HW135258   1.181   0.872   0.770  0.6954 -0.9041  1.7310
 7933SOL    HW235259   1.084   0.898   0.871  1.2098  1.8001 -1.4444
 7934SOL     OW35260   0.264   3.423   3.891  0.0603 -0.2779 -0.1127
 7934SOL    HW135261   0.303   3.433   3.977 -2.1826 -1.6447  1.0601
 7934SOL    HW235262   0.173   3.453   3.901 -0.3727 -1.7534  0.2820
 7935SOL     OW35263   0.949   3.865  11.948  0.3559 -0.3066 -0.2616
 7935SOL    HW135264   1.035   3.894  11.977 -0.1785  1.5778 -0.5770
 7935SOL    HW235265   0.892   3.914  12.008  0.9812 -0.9265  0.8251
 7936SOL     OW35266   2.673   0.372   2.273  0.4170 -0.2141 -0.4430
 7936SOL    HW135267   2.634   0.444   2.225  3.2176  2.0814  0.6745
 7936SOL    HW235268   2.605   0.307   2.257  0.0784 -0.6506  2.6520
 7937SOL     OW35269   0.243   1.148  17.165  0.0484  0.1306  0.1322
 7937SOL    HW135270   0.234   1.141  17.070  0.0744 -0.7360  0.1881
 7937SOL    HW235271   0.173   1.095  17.204  2.2065 -2.9437 -0.0855
 7938SOL     OW35272   0.537   2.782   0.552  0.5253 -0.0257  0.2502
 7938SOL    HW135273   0.542   2.689   0.530 -0.9390 -0.0733  0.1167
 7938SOL    HW235274   0.626   2.810   0.573  0.0129  1.7750  0.0030
 7939SOL     OW35275   3.908   4.603   4.679 -0.2460 -0.3362  0.6207
 7939SOL    HW135276   3.822   4.595   4.638 -0.9765  0.0081  2.1131
 7939SOL    HW235277   3.960   4.644   4.608 -0.2664  0.5232  1.1016
 7940SOL     OW35278   4.542   1.605   7.995  0.1580  0.2492 -0.4750
 7940SOL    HW135279   4.502   1.692   7.995  0.9950  0.6407 -0.0767
 7940SOL    HW235280   4.531   1.575   8.086  2.2058 -0.1832 -0.3604
 7941SOL     OW35281   2.772   3.841   1.983  0.1312 -0.3275  0.2942
 7941SOL    HW135282   2.823   3.849   2.064  1.4929 -0.7958 -0.5268
 7941SOL    HW235283   2.693   3.886   2.014  0.9071  3.0689 -2.7278
 7942SOL     OW35284   0.404   3.712   1.509 -0.0214 -0.0101  0.1725
 7942SOL    HW135285   0.385   3.626   1.471 -0.7318 -0.5261  1.6967
 7942SOL    HW235286   0.476   3.745   1.455  0.5136 -1.9885 -0.3114
 7943SOL     OW35287   0.784   3.909   7.073 -0.1494 -0.0946 -0.2623
 7943SOL    HW135288   0.743   3.922   6.987  1.5054 -0.4627 -1.1074
 7943SOL    HW235289   0.758   3.989   7.119 -0.8312 -0.2438 -0.3915
 7944SOL     OW35290   2.520   3.800   0.511  0.5841 -0.3857 -0.4246
 7944SOL    HW135291   2.588   3.864   0.494  1.1246 -1.7191 -3.1812
 7944SOL    HW235292   2.565   3.746   0.576  2.0215  1.7896  0.3794
 7945SOL     OW35293   2.660   1.305   2.145 -0.3644 -0.1893 -0.1831
 7945SOL    HW135294   2.709   1.335   2.221  1.7837 -0.3786 -1.4976
 7945SOL    HW235295   2.719   1.335   2.076  0.3595 -2.4857 -0.5666
 7946SOL     OW35296   2.951   0.008   4.749  0.5065  0.6538  0.6380
 7946SOL    HW135297   2.996   0.091   4.765  0.1051  0.5261  2.4594
 7946SOL    HW235298   2.960   4.716   4.655 -1.9510  0.3518  0.4388
 7947SOL     OW35299   4.345   0.851  13.169  0.2198 -0.8640  0.1187
 7947SOL    HW135300   4.291   0.895  13.103 -0.3450 -0.4874  0.8307
 7947SOL    HW235301   4.284   0.834  13.241 -2.2086 -2.6013 -2.3565
 7948SOL     OW35302   3.589   3.337   8.834  0.2169 -0.2465 -0.4964
 7948SOL    HW135303   3.663   3.379   8.790  1.1581 -1.6945 -0.3027
 7948SOL    HW235304   3.563   3.275   8.767 -0.3998  1.2770 -1.6694
 7949SOL     OW35305   3.334   2.509   3.467  0.3170  0.3707  0.1513
 7949SOL    HW135306   3.274   2.476   3.533 -2.2093  2.6383 -0.9965
 7949SOL    HW235307   3.420   2.494   3.505  1.5800  2.9122 -1.6365
 7950SOL     OW35308   3.329   4.686  11.169  0.3596  0.1185 -0.3406
 7950SOL    HW135309   3.375   0.004  11.243  0.8769 -2.2088  0.6009
 7950SOL    HW235310   3.265   4.631  11.213  0.9898 -0.2901  0.0621
 7951SOL     OW35311   3.824   0.393   7.147  0.4492 -0.1009 -0.2138
 7951SOL    HW135312   3.846   0.402   7.240 -0.2041  1.8512 -0.2405
 7951SOL    HW235313   3.786   0.478   7.124 -1.0961 -0.6281  0.4228
 7952SOL     OW35314   0.731   2.052   2.797  0.0078 -0.1068  0.3910
 7952SOL    HW135315   0.747   2.123   2.734 -0.0228 -0.7571 -0.3508
 7952SOL    HW235316   0.777   1.986   2.746 -0.0290  1.9104 -2.2755
 7953SOL     OW35317   0.382   3.288   0.714  0.4306 -0.0023  0.3463
 7953SOL    HW135318   0.316   3.356   0.732  1.0921  0.6626  0.2666
 7953SOL    HW235319   0.369   3.226   0.786 -0.4950 -0.2383 -0.0234
 7954SOL     OW35320   1.360   3.171   3.320 -0.3844 -0.3406  0.1488
 7954SOL    HW135321   1.302   3.186   3.245  1.9922  0.4995 -1.5502
 7954SOL    HW235322   1.412   3.098   3.285  0.0382  0.4493 -0.8813
 7955SOL     OW35323   2.051   1.297   7.662 -0.7821  0.1600  0.9990
 7955SOL    HW135324   2.144   1.277   7.670 -0.7131  0.0013 -0.2162
 7955SOL    HW235325   2.013   1.219   7.703 -0.8843  0.2792  1.1334
 7956SOL     OW35326   4.685   3.124   5.279  0.5397  0.1577  0.9725
 7956SOL    HW135327   4.650   3.206   5.244 -0.3885 -1.6975 -2.4187
 7956SOL    HW235328   4.717   3.091   5.195 -1.4906 -0.6790  0.5267
 7957SOL     OW35329   0.531   3.832  10.084 -0.1073  0.2241  0.3148
 7957SOL    HW135330   0.542   3.825   9.989 -0.8275  1.2960  0.1442
 7957SOL    HW235331   0.611   3.785  10.108 -0.8619 -1.4860 -0.5275
 7958SOL     OW35332   2.460   1.919   4.545 -0.3287  0.2850  0.4205
 7958SOL    HW135333   2.538   1.930   4.491 -1.6377 -0.6609 -1.6409
 7958SOL    HW235334   2.391   1.916   4.479 -1.5725 -1.2914  1.7934
 7959SOL     OW35335   3.934   3.955   8.732  0.1763  0.1133 -0.0570
 7959SOL    HW135336   3.886   4.003   8.800  0.9772  0.6555  0.1157
 7959SOL    HW235337   3.990   3.892   8.776  1.0583 -0.5827 -2.1742
 7960SOL     OW35338   3.370   0.859  16.863  0.1570 -0.2917  0.0945
 7960SOL    HW135339   3.360   0.809  16.782 -1.0499  0.8069 -0.4333
 7960SOL    HW235340   3.296   0.823  16.911  0.6323 -2.9544 -1.1505
 7961SOL     OW35341   2.639   3.601  17.009  0.1319 -0.7991 -0.1299
 7961SOL    HW135342   2.709   3.573  17.068 -1.2383 -1.5316  1.1527
 7961SOL    HW235343   2.592   3.517  17.005 -2.2131  0.5918 -1.7128
 7962SOL     OW35344   3.508   2.341   8.101 -0.1738  0.1642  0.3146
 7962SOL    HW135345   3.480   2.354   8.192 -1.2708 -1.3831  0.1825
 7962SOL    HW235346   3.603   2.330   8.102  0.0349  1.8162 -1.0395
 7963SOL     OW35347   0.315   4.110  12.785 -0.7378 -0.5262  0.1702
 7963SOL    HW135348   0.313   4.070  12.698 -0.5946 -0.3641  0.0927
 7963SOL    HW235349   0.222   4.100  12.808 -1.2414 -0.1189 -1.7453
 7964SOL     OW35350   1.049   4.264   6.778  0.5480 -0.8212  0.7881
 7964SOL    HW135351   1.005   4.179   6.789 -1.5210  0.2590  0.7891
 7964SOL    HW235352   1.017   4.284   6.690  3.4591  0.5444  0.0469
 7965SOL     OW35353   1.537   1.750   6.866  0.1957 -0.9364  0.4586
 7965SOL    HW135354   1.443   1.763   6.880  0.6047  0.7524  1.7083
 7965SOL    HW235355   1.570   1.775   6.952  0.4117  1.9216 -0.4485
 7966SOL     OW35356   4.320   2.152   8.551 -0.0187 -0.3729 -0.2680
 7966SOL    HW135357   4.343   2.210   8.479  0.8036 -0.0866  0.2390
 7966SOL    HW235358   4.316   2.209   8.627 -2.2999 -0.7960 -0.0640
 7967SOL     OW35359   2.449   1.044   4.908 -0.5366  0.4699 -0.5526
 7967SOL    HW135360   2.523   0.985   4.900 -1.1685 -0.1978 -1.4895
 7967SOL    HW235361   2.484   1.117   4.959  0.1199 -1.1838  1.3361
 7968SOL     OW35362   0.262   2.293   5.280 -0.5221 -0.2556  0.4123
 7968SOL    HW135363   0.313   2.230   5.332 -1.7836 -2.5548 -1.1198
 7968SOL    HW235364   0.172   2.260   5.288 -0.2225 -0.7597  1.8360
 7969SOL     OW35365   4.149   4.097   0.994  0.1677 -0.7035 -0.1546
 7969SOL    HW135366   4.055   4.099   0.974 -0.1685  1.3276  1.5648
 7969SOL    HW235367   4.170   4.176   0.944  3.2657 -0.1891  1.9737
 7970SOL     OW35368   2.314   4.385   0.544 -0.2465  0.2366  0.7171
 7970SOL    HW135369   2.294   4.377   0.450 -0.5774  1.7757  0.6602
 7970SOL    HW235370   2.365   4.465   0.541 -1.0625  0.8042  2.0220
 7971SOL     OW35371   3.182   2.959   3.094 -0.6706 -0.0360 -0.5387
 7971SOL    HW135372   3.111   2.978   3.156  1.9497  0.7896  2.1764
 7971SOL    HW235373   3.218   2.876   3.125 -0.1764  0.4766  0.2796
 7972SOL     OW35374   1.533   1.787   7.462 -0.1381 -0.3167  0.1857
 7972SOL    HW135375   1.619   1.763   7.495  0.8303  1.7244 -0.8528
 7972SOL    HW235376   1.513   1.725   7.392 -1.4934 -0.2821  0.5390
 7973SOL     OW35377   0.812   1.611  12.535  0.4504 -0.6621  0.4060
 7973SOL    HW135378   0.817   1.527  12.490 -0.2472 -0.7196  0.4329
 7973SOL    HW235379   0.728   1.602  12.580  0.3081 -0.8692  0.0966
 7974SOL     OW35380   4.679   0.078   1.443  0.4837 -0.3913  0.0563
 7974SOL    HW135381   4.719   4.714   1.439  0.5464 -0.4726  2.2230
 7974SOL    HW235382   4.591   0.057   1.473  0.5232 -1.4612 -0.6037
 7975SOL     OW35383   2.663   3.947   0.299 -0.2562  0.1059 -0.3478
 7975SOL    HW135384   2.741   3.940   0.353 -0.0602  2.4054 -0.3300
 7975SOL    HW235385   2.636   3.856   0.289 -2.0749  0.6116  0.0367
 7976SOL     OW35386   1.045   2.163   7.948  0.0125  0.2361  0.0837
 7976SOL    HW135387   1.128   2.157   7.900 -1.3252 -0.9215 -2.0793
 7976SOL    HW235388   1.067   2.129   8.035  0.9051  0.3097 -0.1105
 7977SOL     OW35389   1.103   4.053   1.910  0.0783  0.1466  0.2735
 7977SOL    HW135390   1.045   4.127   1.929  0.4626  0.2492  1.0225
 7977SOL    HW235391   1.164   4.094   1.848  0.5753 -0.4633  0.3645
 7978SOL     OW35392   4.591   0.794   3.092 -0.0630 -0.4870  0.1269
 7978SOL    HW135393   4.528   0.808   3.021  0.4683  1.9784  0.1504
 7978SOL    HW235394   4.534   0.795   3.169 -0.0340  0.6280  0.1335
 7979SOL     OW35395   1.387   2.454   5.615  0.0442 -0.3636  0.6476
 7979SOL    HW135396   1.295   2.473   5.597  1.1744  2.4539 -2.2082
 7979SOL    HW235397   1.434   2.441   5.533  0.3242  1.5807  0.4913
 7980SOL     OW35398   2.792   3.366   4.439 -0.3380  0.5111 -0.2819
 7980SOL    HW135399   2.759   3.284   4.476  2.7853 -0.1281  1.0880
 7980SOL    HW235400   2.710   3.415   4.442  0.2740  1.5570 -0.8579
 7981SOL     OW35401   1.666   0.844  10.105 -0.8939 -0.1529 -0.4949
 7981SOL    HW135402   1.631   0.912  10.162 -1.6502  0.8610 -2.1770
 7981SOL    HW235403   1.755   0.836  10.141 -1.3832 -3.7053 -0.0245
 7982SOL     OW35404   3.611   0.506  16.660  0.5103 -0.1727  0.4536
 7982SOL    HW135405   3.650   0.479  16.577 -1.2695  0.1619 -0.4749
 7982SOL    HW235406   3.659   0.589  16.666  1.5942 -0.8776  1.7445
 7983SOL     OW35407   1.430   2.128   3.490 -0.4805 -0.1423  0.1256
 7983SOL    HW135408   1.480   2.121   3.571 -0.9084 -0.9407  0.3216
 7983SOL    HW235409   1.362   2.067   3.518  0.5534 -1.4552 -0.2159
 7984SOL     OW35410   3.921   2.216   2.614 -0.2554  0.0112  0.3600
 7984SOL    HW135411   3.912   2.275   2.539 -2.1453 -1.1054 -0.2766
 7984SOL    HW235412   3.838   2.234   2.656 -1.5181 -0.3633 -1.9715
 7985SOL     OW35413   0.139   2.886   3.171 -0.3253 -0.2711  0.5376
 7985SOL    HW135414   0.214   2.851   3.220  0.3731  0.3190 -0.1139
 7985SOL    HW235415   0.141   2.830   3.094  1.1714  1.4160 -0.6357
 7986SOL     OW35416   0.509   4.717   5.134  0.0258  0.2722 -0.2251
 7986SOL    HW135417   0.555   0.049   5.069  2.0131  0.7154  1.5450
 7986SOL    HW235418   0.419   0.010   5.106  0.4459 -1.6607 -2.6378
 7987SOL     OW35419   3.322   1.278   4.433 -0.4640 -0.1791  0.4307
 7987SOL    HW135420   3.299   1.340   4.364 -0.6215 -1.5823 -0.7850
 7987SOL    HW235421   3.355   1.322   4.511  0.7864  0.7851 -0.6318
 7988SOL     OW35422   2.960   1.852   5.855 -0.2381 -0.2248 -0.1602
 7988SOL    HW135423   3.036   1.805   5.889  0.9584 -0.4947 -3.2193
 7988SOL    HW235424   2.984   1.873   5.765 -2.7067  2.6129 -0.1530
 7989SOL     OW35425   1.263   3.346   3.790  0.5465 -0.3984 -0.2867
 7989SOL    HW135426   1.238   3.326   3.700  0.4091 -0.5188 -0.2224
 7989SOL    HW235427   1.312   3.427   3.775 -1.0179  0.6410  0.2221
 7990SOL     OW35428   3.396   1.093   6.242  0.4085  0.4309 -0.0274
 7990SOL    HW135429   3.369   1.006   6.215  0.2066  1.1329 -2.0842
 7990SOL    HW235430   3.340   1.095   6.319  0.0603 -2.9163 -0.2130
 7991SOL     OW35431   0.574   0.039   3.704  0.1430 -0.2633 -0.1095
 7991SOL    HW135432   0.502   0.046   3.642  0.3241  2.5943 -0.0135
 7991SOL    HW235433   0.531   4.717   3.777  1.7927  0.0425  1.0431
 7992SOL     OW35434   2.257   0.155  15.048 -0.5157 -0.1793  0.2160
 7992SOL    HW135435   2.205   0.123  15.121 -0.2019 -1.1712  0.0139
 7992SOL    HW235436   2.305   0.219  15.099  1.4735 -1.2543 -0.2969
 7993SOL     OW35437   3.558   1.101   8.625 -0.6907 -0.1135  0.4530
 7993SOL    HW135438   3.635   1.049   8.645 -1.5267 -0.1794  3.5550
 7993SOL    HW235439   3.492   1.080   8.691  0.2328 -0.5955  1.2187
 7994SOL     OW35440   0.562   3.029   8.936  0.6855 -0.4769 -0.5643
 7994SOL    HW135441   0.494   2.962   8.934  4.1848 -4.0539 -1.0228
 7994SOL    HW235442   0.625   3.004   8.868  0.3272 -0.8892 -0.7419
 7995SOL     OW35443   1.895   0.269   0.299 -0.3251  0.3355  0.2773
 7995SOL    HW135444   1.912   0.206   0.229 -1.1782 -0.3024  0.6344
 7995SOL    HW235445   1.836   0.325   0.248 -1.6633 -0.9759  0.3584
 7996SOL     OW35446   1.494   1.745   0.509  0.1891  0.3545  0.2408
 7996SOL    HW135447   1.581   1.783   0.519  0.5455 -0.8477  1.7374
 7996SOL    HW235448   1.516   1.655   0.536 -0.3084 -0.2947 -1.5209
 7997SOL     OW35449   2.924   0.800  13.387  0.0102 -0.0033  0.1390
 7997SOL    HW135450   2.967   0.789  13.302 -3.0331  0.9848 -1.5524
 7997SOL    HW235451   2.937   0.720  13.438 -0.6798 -0.1696  0.0569
 7998SOL     OW35452   2.642   2.683   3.363  0.5476  0.7287 -0.0194
 7998SOL    HW135453   2.671   2.619   3.298 -4.3990 -0.1732 -1.3394
 7998SOL    HW235454   2.644   2.620   3.435  1.4646 -0.4377 -1.0500
 7999SOL     OW35455   4.596   4.573  11.425  0.2028  0.5512  0.0116
 7999SOL    HW135456   4.598   4.643  11.491 -2.4234  0.3384  0.3196
 7999SOL    HW235457   4.666   4.598  11.365  0.9310  2.0986  1.4722
 8000SOL     OW35458   1.072   2.580   6.454  0.5920  0.1817 -0.3074
 8000SOL    HW135459   1.129   2.645   6.495  0.6061  0.8439 -1.3455
 8000SOL    HW235460   1.001   2.577   6.518 -1.6174  1.8528 -2.6725
 8001SOL     OW35461   4.513   0.923   4.619  0.5514 -0.5268 -0.1398
 8001SOL    HW135462   4.532   0.955   4.707 -0.7401  1.7186 -0.6699
 8001SOL    HW235463   4.562   0.982   4.561 -0.1381  1.0744  0.9129
 8002SOL     OW35464   2.732   1.136   6.377  0.6012 -0.7176  0.1770
 8002SOL    HW135465   2.666   1.163   6.314  1.5341  0.0424 -0.4740
 8002SOL    HW235466   2.715   1.207   6.440 -0.6750 -0.8525 -0.0133
 8003SOL     OW35467   2.589   3.968   6.992  0.2772 -0.3824 -0.0796
 8003SOL    HW135468   2.645   4.021   7.049 -1.0827 -0.5249  1.4000
 8003SOL    HW235469   2.581   3.887   7.043 -0.8415  0.7068  1.4773
 8004SOL     OW35470   2.018   0.982   4.367  0.0255 -0.0201 -0.1441
 8004SOL    HW135471   1.986   0.894   4.385 -3.0463  1.2368  0.5207
 8004SOL    HW235472   2.073   0.964   4.291 -0.6919 -3.0560  0.0602
 8005SOL     OW35473   2.076   1.794  12.714 -0.3416  0.0427  0.0386
 8005SOL    HW135474   2.023   1.795  12.635 -0.5290  0.5770  0.1708
 8005SOL    HW235475   2.161   1.821  12.681 -1.6048  3.0136 -0.7723
 8006SOL     OW35476   1.755   2.509   9.273  0.4058 -0.3121 -0.3403
 8006SOL    HW135477   1.731   2.542   9.187 -0.9787 -0.6411 -0.0833
 8006SOL    HW235478   1.724   2.419   9.275 -0.2784 -0.0080  2.9311
 8007SOL     OW35479   0.502   4.312  13.159 -0.1960 -0.0145  0.2919
 8007SOL    HW135480   0.427   4.253  13.160 -1.1938  1.2608  1.5003
 8007SOL    HW235481   0.504   4.340  13.068  1.5667  0.7344  0.5596
 8008SOL     OW35482   4.400   0.471   0.069  0.0287  0.0460 -0.2924
 8008SOL    HW135483   4.425   0.469   0.162  1.7921 -1.1384 -0.7876
 8008SOL    HW235484   4.433   0.390   0.030 -0.0561  0.2488 -0.7776
 8009SOL     OW35485   4.240   3.423  12.359  0.0154 -0.3217  0.1554
 8009SOL    HW135486   4.267   3.501  12.406 -0.0422 -0.2223  0.0224
 8009SOL    HW235487   4.323   3.375  12.367  0.7448  0.6957 -1.2862
 8010SOL     OW35488   1.009   0.497   2.823 -0.0439 -0.0011  0.2630
 8010SOL    HW135489   1.078   0.555   2.793 -0.5716  0.5111  0.0430
 8010SOL    HW235490   0.937   0.501   2.760  0.5086 -3.0692 -0.5777
 8011SOL     OW35491   4.260   0.665   2.340  0.4463 -0.3037 -0.1634
 8011SOL    HW135492   4.233   0.588   2.290  1.7373 -0.6512 -0.3416
 8011SOL    HW235493   4.176   0.677   2.384  0.6219 -0.0194  0.0993
 8012SOL     OW35494   3.115   3.391   0.818 -0.4707  0.6107  0.7968
 8012SOL    HW135495   3.107   3.482   0.850 -1.6114  0.6209  0.4979
 8012SOL    HW235496   3.070   3.352   0.893 -1.5094 -0.6111 -0.4793
 8013SOL     OW35497   2.689   2.526   9.489  0.4150  0.0814 -0.4364
 8013SOL    HW135498   2.594   2.526   9.502  0.2510 -1.4739 -1.6400
 8013SOL    HW235499   2.717   2.437   9.511 -0.4332  0.3309  1.6546
 8014SOL     OW35500   1.431   0.294   7.730 -0.2905 -0.1145  0.1359
 8014SOL    HW135501   1.342   0.271   7.756 -0.8749  1.0795 -0.7995
 8014SOL    HW235502   1.424   0.367   7.668  0.1705 -0.6248 -0.5059
 8015SOL     OW35503   3.256   3.491   5.438 -0.2622 -0.2623  0.2874
 8015SOL    HW135504   3.230   3.404   5.468 -1.5878  0.0435  0.0291
 8015SOL    HW235505   3.188   3.541   5.484 -1.5010  0.2903 -2.1353
 8016SOL     OW35506   1.688   3.939   7.737  0.0432 -0.2378 -0.4190
 8016SOL    HW135507   1.693   4.024   7.693  2.1375  0.2961  0.8797
 8016SOL    HW235508   1.777   3.929   7.769 -0.6438 -1.6737  1.0314
 8017SOL     OW35509   1.763   1.350   3.767  0.8730 -0.3352  0.7918
 8017SOL    HW135510   1.843   1.304   3.790  0.3069 -2.0163 -0.6402
 8017SOL    HW235511   1.787   1.367   3.676 -0.5474  1.6518  0.7785
 8018SOL     OW35512   2.759   4.152  11.970 -0.4614 -0.6423  0.4538
 8018SOL    HW135513   2.789   4.065  11.996  1.7451  0.4291  1.4947
 8018SOL    HW235514   2.717   4.184  12.050 -0.9214  0.0700 -0.0754
 8019SOL     OW35515   4.398   1.438   2.491 -0.0361 -0.0143  0.3583
 8019SOL    HW135516   4.490   1.425   2.469 -0.2716 -0.2354 -0.5072
 8019SOL    HW235517   4.357   1.397   2.415 -0.1827 -0.2315  0.5561
 8020SOL     OW35518   0.523   3.871  13.362  0.1988 -0.0811  0.1474
 8020SOL    HW135519   0.554   3.823  13.439  1.7598 -0.1175 -0.5054
 8020SOL    HW235520   0.611   3.905  13.343  0.8857 -0.8895  1.9090
 8021SOL     OW35521   2.831   2.428   3.034  0.2437  1.0666  0.1809
 8021SOL    HW135522   2.925   2.410   3.029  0.5741  2.1381  2.6128
 8021SOL    HW235523   2.826   2.518   3.002 -0.7119  0.6764 -0.7735
 8022SOL     OW35524   0.094   1.784   9.023 -0.4486 -0.3723 -0.0234
 8022SOL    HW135525   0.142   1.715   8.977  0.6223  0.3249  0.0424
 8022SOL    HW235526   0.078   1.838   8.946 -0.1827  0.1989  0.3252
 8023SOL     OW35527   0.697   3.212   6.162  0.7040 -0.0847 -0.1532
 8023SOL    HW135528   0.637   3.286   6.172  1.1443  0.1557  0.7074
 8023SOL    HW235529   0.708   3.222   6.067 -0.9582 -1.3306 -0.4863
 8024SOL     OW35530   4.184   0.289   2.934  0.2148 -0.1826 -1.0546
 8024SOL    HW135531   4.274   0.310   2.911  1.0820 -0.4395  2.1487
 8024SOL    HW235532   4.177   0.216   2.873  0.4636  1.1854 -2.7114
 8025SOL     OW35533   3.611   3.614  14.012  0.4401  0.4533  0.0437
 8025SOL    HW135534   3.602   3.629  13.918 -0.8881  0.6231  0.1911
 8025SOL    HW235535   3.569   3.528  14.010 -0.5524  0.9106  0.8761
 8026SOL     OW35536   4.050   3.055  16.914 -0.4148 -1.1106  0.2069
 8026SOL    HW135537   4.041   3.121  16.845 -2.2791 -2.1227 -0.5138
 8026SOL    HW235538   3.959   3.029  16.919 -0.5701 -0.6233 -0.0780
 8027SOL     OW35539   1.844   3.478   2.846 -0.8347  0.4254 -0.6364
 8027SOL    HW135540   1.885   3.392   2.842 -1.1466  0.2491 -0.0460
 8027SOL    HW235541   1.790   3.482   2.766 -3.7805 -1.7757  1.2389
 8028SOL     OW35542   0.097   0.996   6.144 -0.0313 -0.0365 -0.5704
 8028SOL    HW135543   0.159   0.959   6.207 -0.6816 -1.3583 -0.7005
 8028SOL    HW235544   0.015   1.007   6.191 -1.1179 -0.1960 -2.3983
 8029SOL     OW35545   1.314   0.110   7.058  0.0515  0.0240 -0.1902
 8029SOL    HW135546   1.392   0.095   7.005  1.5085 -0.3287  2.0213
 8029SOL    HW235547   1.305   0.017   7.074 -0.2825  0.1916  0.5932
 8030SOL     OW35548   2.683   2.176   6.262  0.7114 -0.3505  0.1298
 8030SOL    HW135549   2.590   2.176   6.239  0.2286 -0.0947  2.1003
 8030SOL    HW235550   2.702   2.269   6.247 -2.1688  0.0502 -1.1641
 8031SOL     OW35551   4.586   2.407   9.584 -0.3491 -0.3662 -0.3084
 8031SOL    HW135552   4.570   2.314   9.568 -0.6805 -0.3524 -0.0714
 8031SOL    HW235553   4.676   2.403   9.553 -0.2476 -2.9145  0.3552
 8032SOL     OW35554   1.752   1.838   3.618  0.0442  0.2569  0.4351
 8032SOL    HW135555   1.820   1.842   3.685  1.5189  2.0645 -1.1504
 8032SOL    HW235556   1.688   1.891   3.664  2.2582  1.4013  2.2143
 8033SOL     OW35557   1.990   2.482   5.771  0.2271 -0.0230  0.2084
 8033SOL    HW135558   1.994   2.386   5.777  0.9447  0.0531  0.8689
 8033SOL    HW235559   2.071   2.502   5.724  0.6840  0.5575  1.2423
 8034SOL     OW35560   3.348   2.585  14.647 -0.3803  0.4866  0.5989
 8034SOL    HW135561   3.439   2.617  14.646  0.4871 -1.9956  0.3685
 8034SOL    HW235562   3.334   2.585  14.553 -1.2680 -1.0588  0.7363
 8035SOL     OW35563   2.749   4.369   7.647  0.2989 -0.0334  0.1801
 8035SOL    HW135564   2.831   4.398   7.686 -0.6202  0.8039  1.5165
 8035SOL    HW235565   2.683   4.383   7.715  0.1903 -1.2581  0.3175
 8036SOL     OW35566   3.459   3.378   1.429  0.6553  0.2335  0.3397
 8036SOL    HW135567   3.544   3.395   1.387  0.6840 -0.7053  0.0421
 8036SOL    HW235568   3.395   3.388   1.359  0.3711 -0.0243  0.5654
 8037SOL     OW35569   3.374   1.824  10.199 -0.2110 -0.4249  0.4616
 8037SOL    HW135570   3.371   1.730  10.211 -1.0788 -0.4973 -0.3459
 8037SOL    HW235571   3.373   1.847  10.292 -0.4418  0.0982  0.3296
 8038SOL     OW35572   3.999   0.908  10.559 -0.3761  0.8245 -0.3293
 8038SOL    HW135573   4.080   0.929  10.604 -0.2723  0.1178 -0.1887
 8038SOL    HW235574   3.931   0.911  10.626 -1.5799  1.9436 -1.5921
 8039SOL     OW35575   3.616   1.901   0.727  0.8521 -0.4924 -0.3652
 8039SOL    HW135576   3.590   1.923   0.817  0.9471 -0.0310 -0.4531
 8039SOL    HW235577   3.614   1.991   0.695 -2.4518 -0.5896 -0.4806
 8040SOL     OW35578   4.647   1.057   4.136  0.3984 -0.3308 -0.0939
 8040SOL    HW135579   4.556   1.029   4.143 -0.4648  2.6024  0.2840
 8040SOL    HW235580   4.637   1.134   4.080  2.9978 -0.8237 -1.2269
 8041SOL     OW35581   3.978   2.915  10.848 -0.0889 -0.5968  0.6486
 8041SOL    HW135582   4.057   2.863  10.830 -0.3160 -0.0301 -1.9701
 8041SOL    HW235583   3.983   2.936  10.941 -0.6209 -1.0969  0.7925
 8042SOL     OW35584   3.377   0.266   1.462  0.0172 -0.1220  0.1762
 8042SOL    HW135585   3.290   0.298   1.485  0.0957 -0.0915  0.4380
 8042SOL    HW235586   3.356   0.210   1.388  1.2632  0.0443 -0.3139
 8043SOL     OW35587   3.441   0.016  14.572  0.4047  0.5345 -0.3770
 8043SOL    HW135588   3.534   0.024  14.592  0.1522  0.7617  0.6790
 8043SOL    HW235589   3.395   0.065  14.640 -0.0829 -0.0168 -0.3204
 8044SOL     OW35590   2.693   4.053   8.640 -0.2696  0.0153 -0.0992
 8044SOL    HW135591   2.709   3.971   8.686 -1.0599  1.1409  2.1964
 8044SOL    HW235592   2.598   4.060   8.648 -0.1868  1.4294 -0.2859
 8045SOL     OW35593   2.845   4.341   5.906  0.1212  0.1982 -0.3311
 8045SOL    HW135594   2.786   4.377   5.971  0.6702 -1.1574  0.9279
 8045SOL    HW235595   2.790   4.269   5.875 -0.7327  0.4521  0.5988
 8046SOL     OW35596   0.059   2.747   8.283 -0.3301  0.1169 -0.0778
 8046SOL    HW135597   0.031   2.689   8.212  0.0866 -2.1675  1.6326
 8046SOL    HW235598   0.128   2.803   8.247  1.0183 -0.2163  2.0022
 8047SOL     OW35599   2.274   3.588   5.187  0.4345 -0.3541 -0.0031
 8047SOL    HW135600   2.349   3.643   5.164  0.5802 -0.8272 -0.6475
 8047SOL    HW235601   2.311   3.520   5.242 -0.6784 -0.2314  0.9159
 8048SOL     OW35602   0.240   1.118   5.038 -0.2260  0.1250 -0.6070
 8048SOL    HW135603   0.157   1.141   5.079  1.1124  2.2549  0.8913
 8048SOL    HW235604   0.272   1.042   5.088 -1.5179 -0.2875 -0.4096
 8049SOL     OW35605   1.389   1.792   3.124 -0.4076 -0.1296  0.0795
 8049SOL    HW135606   1.400   1.719   3.062  0.4663 -2.1623  2.6621
 8049SOL    HW235607   1.438   1.869   3.097  1.6434 -1.1203  1.0305
 8050SOL     OW35608   1.297   1.636   7.515  0.3472 -0.0642 -0.7211
 8050SOL    HW135609   1.299   1.665   7.424 -1.1264  0.7978 -0.4831
 8050SOL    HW235610   1.383   1.594   7.513  0.3917 -0.0102  0.0327
 8051SOL     OW35611   1.274   4.005   6.132  1.0656  0.0982  0.5943
 8051SOL    HW135612   1.291   3.915   6.158 -0.7945  0.1183  1.9238
 8051SOL    HW235613   1.332   4.021   6.058  0.0055 -2.5856 -0.8126
 8052SOL     OW35614   0.698   0.822   6.348  0.5525  0.3857 -0.1390
 8052SOL    HW135615   0.663   0.741   6.387  0.3932  1.1390  1.2999
 8052SOL    HW235616   0.700   0.889   6.417 -1.4456 -0.2269  0.5132
 8053SOL     OW35617   1.799   4.401   0.649  0.4228 -0.0757  0.3242
 8053SOL    HW135618   1.892   4.420   0.661  0.3315  0.6486 -0.1378
 8053SOL    HW235619   1.782   4.369   0.738 -0.7250  1.5386  0.6827
 8054SOL     OW35620   1.077   4.020   5.852 -0.0744 -0.4272 -0.0316
 8054SOL    HW135621   1.110   3.958   5.917  0.7035  1.0835  1.0019
 8054SOL    HW235622   1.038   3.965   5.783 -2.2878 -0.8878  1.5909
 8055SOL     OW35623   4.519   0.770   9.042  0.0963 -0.4555 -0.0525
 8055SOL    HW135624   4.533   0.860   9.012  1.7110 -0.0935  1.8033
 8055SOL    HW235625   4.593   0.755   9.101 -0.3673  0.0625  0.6624
 8056SOL     OW35626   4.333   4.110   5.167 -0.4084  0.0863  0.9612
 8056SOL    HW135627   4.368   4.149   5.087 -0.6374  0.5943  1.1087
 8056SOL    HW235628   4.276   4.180   5.199 -0.6747 -0.5633  1.9062
 8057SOL     OW35629   2.241   2.906   9.136 -0.4580 -0.1113  0.2997
 8057SOL    HW135630   2.184   2.906   9.213  0.6785  0.4701  1.1592
 8057SOL    HW235631   2.316   2.852   9.161 -0.2350  0.4422  0.8280
 8058SOL     OW35632   2.182   4.202   3.569 -0.1569  0.3021 -0.1137
 8058SOL    HW135633   2.114   4.170   3.628 -0.0837  1.2774  0.4990
 8058SOL    HW235634   2.213   4.121   3.530  2.4157  1.9292 -1.4565
 8059SOL     OW35635   0.393   2.830   2.494  0.6090  0.0158  0.1238
 8059SOL    HW135636   0.355   2.849   2.580  0.8769  1.0828  0.0034
 8059SOL    HW235637   0.323   2.844   2.431  0.8821  2.5765  0.3776
 8060SOL     OW35638   1.771   1.001   1.986 -0.1326  0.3500  0.0898
 8060SOL    HW135639   1.831   0.953   1.930 -0.5947  2.1361 -1.9295
 8060SOL    HW235640   1.685   0.962   1.969  0.2167 -0.5616  0.4172
 8061SOL     OW35641   2.021   3.066   6.830 -0.7246 -0.3437 -0.3222
 8061SOL    HW135642   2.054   2.980   6.852  2.5146  0.8019 -0.7933
 8061SOL    HW235643   2.015   3.057   6.735  0.1088  2.4748 -0.6370
 8062SOL     OW35644   3.385   0.095   0.913 -0.4930 -0.0985  0.3447
 8062SOL    HW135645   3.407   0.138   0.831  0.1979  0.7867  1.0040
 8062SOL    HW235646   3.398   0.170   0.970  4.7672 -0.8604  0.0881
 8063SOL     OW35647   0.638   4.003   5.525  0.3040  0.5436  0.6537
 8063SOL    HW135648   0.661   4.096   5.522 -1.4696  0.9540  0.2432
 8063SOL    HW235649   0.571   3.997   5.593  0.0053  0.8255  0.3842
 8064SOL     OW35650   1.667   3.388  16.595  0.0695  0.5896 -0.0413
 8064SOL    HW135651   1.574   3.365  16.604  0.8405 -2.0138  0.9302
 8064SOL    HW235652   1.685   3.386  16.689  0.4343 -0.3148 -0.1368
 8065SOL     OW35653   2.758   1.007   5.544  0.4754 -0.2838  0.2238
 8065SOL    HW135654   2.819   1.078   5.524 -0.5694  0.5134 -0.1617
 8065SOL    HW235655   2.713   1.050   5.616  1.1282 -0.5328  0.7813
 8066SOL     OW35656   1.851   4.109   2.773 -0.2281  0.0268 -0.0186
 8066SOL    HW135657   1.938   4.141   2.750  0.3708 -0.9168  0.9085
 8066SOL    HW235658   1.873   4.031   2.825  0.2660  0.2604  0.1249
 8067SOL     OW35659   0.102   1.238   8.081  0.0676  0.4826 -0.3886
 8067SOL    HW135660   0.046   1.292   8.024 -0.6292 -1.4121 -1.5010
 8067SOL    HW235661   0.119   1.312   8.139 -1.1009 -1.2666  2.1746
 8068SOL     OW35662   3.287   1.662   5.313 -0.3065 -0.3519  0.5974
 8068SOL    HW135663   3.360   1.720   5.336  1.8843 -1.7393 -2.9105
 8068SOL    HW235664   3.312   1.592   5.373 -1.5869 -1.5106 -0.2033
 8069SOL     OW35665   0.984   0.430   3.887  0.1306  0.3707  0.1305
 8069SOL    HW135666   0.977   0.348   3.935 -0.9504 -2.0202 -4.1334
 8069SOL    HW235667   1.070   0.412   3.851  0.3224 -0.2334  0.8861
 8070SOL     OW35668   4.571   0.913   9.353 -0.0171  0.5861 -0.2121
 8070SOL    HW135669   4.632   0.984   9.334  0.7978  0.6629  2.6536
 8070SOL    HW235670   4.612   0.840   9.306 -1.3834 -0.0635 -0.3857
 8071SOL     OW35671   3.953   1.493   7.103  0.3857 -0.0061  0.0576
 8071SOL    HW135672   3.999   1.515   7.184  1.6840 -0.1551 -0.6368
 8071SOL    HW235673   4.025   1.521   7.047  1.0802  0.6174  1.2525
 8072SOL     OW35674   1.298   3.506   4.140  0.1818  0.3284 -0.1358
 8072SOL    HW135675   1.319   3.540   4.054  0.1061 -0.3947 -0.4445
 8072SOL    HW235676   1.387   3.475   4.161 -0.1079 -0.3575  0.0966
 8073SOL     OW35677   1.391   2.886   8.518 -0.2238 -0.6704 -0.0069
 8073SOL    HW135678   1.459   2.895   8.452 -0.8037  0.0934 -0.4918
 8073SOL    HW235679   1.319   2.864   8.458 -1.3312  4.0156 -0.3720
 8074SOL     OW35680   0.860   1.176   6.245  0.1887 -0.6324 -0.2942
 8074SOL    HW135681   0.783   1.198   6.193  1.6949  2.2928 -1.3078
 8074SOL    HW235682   0.897   1.110   6.187  1.7231 -0.3997  0.4146
 8075SOL     OW35683   3.622   0.321   1.032  0.4285 -0.0004  0.3648
 8075SOL    HW135684   3.667   0.363   1.105  2.4569 -1.0223 -0.2981
 8075SOL    HW235685   3.537   0.303   1.073 -0.0808  0.3962 -0.4955
 8076SOL     OW35686   1.465   4.233   2.431  0.6328  0.0037 -0.5393
 8076SOL    HW135687   1.436   4.165   2.492 -0.0387 -0.8534 -1.7943
 8076SOL    HW235688   1.397   4.231   2.363  0.2847  0.4850 -0.2013
 8077SOL     OW35689   2.890   0.531  17.659 -0.0288  0.3670  0.5235
 8077SOL    HW135690   2.942   0.579   0.031 -0.0660 -0.0531  0.8713
 8077SOL    HW235691   2.836   0.596  17.615  0.3601  0.5215  0.2733
 8078SOL     OW35692   4.494   0.573   8.078 -0.0037 -0.2626 -0.7425
 8078SOL    HW135693   4.539   0.532   8.004 -0.6245 -2.5099  0.1313
 8078SOL    HW235694   4.560   0.558   8.146 -0.8231  1.6675  0.4885
 8079SOL     OW35695   2.981   1.343  12.540 -0.7013 -0.1628 -0.4888
 8079SOL    HW135696   2.979   1.397  12.461  2.2299  1.0308  0.2651
 8079SOL    HW235697   2.941   1.397  12.608  0.5133 -0.9334  0.8300
 8080SOL     OW35698   1.284   2.962   1.631 -0.2916  0.2217 -0.0440
 8080SOL    HW135699   1.340   2.947   1.707 -0.3394 -1.1459 -0.2930
 8080SOL    HW235700   1.203   2.926   1.667 -0.3594  3.2379  2.8907
 8081SOL     OW35701   2.455   4.020   2.717 -0.0824 -0.1867  0.3787
 8081SOL    HW135702   2.395   4.060   2.780  0.2289 -2.0600  1.8662
 8081SOL    HW235703   2.525   4.085   2.721 -0.9131  0.8530 -2.3341
 8082SOL     OW35704   1.942   1.880  14.321 -0.0071  0.1091 -0.2209
 8082SOL    HW135705   1.859   1.918  14.350 -0.1277 -0.3741  0.0609
 8082SOL    HW235706   1.931   1.797  14.367 -3.0611  0.4542 -0.3112
 8083SOL     OW35707   2.269   4.663  14.840 -0.2911  0.0363  0.5189
 8083SOL    HW135708   2.210   4.590  14.819 -0.3851  0.3933 -0.4233
 8083SOL    HW235709   2.240   4.683  14.929 -3.0802 -2.0361  0.0684
 8084SOL     OW35710   0.344   3.377  11.484 -0.1425 -0.7571 -0.1937
 8084SOL    HW135711   0.396   3.448  11.521 -1.3781  0.6048 -1.0784
 8084SOL    HW235712   0.395   3.307  11.524 -0.7625 -0.6395  0.8042
 8085SOL     OW35713   1.155   2.518   5.494 -1.0741  0.1615  0.2953
 8085SOL    HW135714   1.089   2.546   5.557  0.5633  1.2347  1.5178
 8085SOL    HW235715   1.088   2.498   5.428 -0.1332 -0.1750 -0.5541
 8086SOL     OW35716   4.117   0.312  14.663  0.0094 -0.1892  0.5972
 8086SOL    HW135717   4.205   0.274  14.660 -0.1808 -0.6621  1.1287
 8086SOL    HW235718   4.123   0.362  14.744 -1.5761  0.4333  0.3268
 8087SOL     OW35719   2.786   2.603  17.438 -0.2152  0.3189  0.9020
 8087SOL    HW135720   2.831   2.685  17.419  1.7424 -1.1039 -0.7327
 8087SOL    HW235721   2.847   2.538  17.403 -1.4625 -1.0238  1.2017
 8088SOL     OW35722   1.421   2.222   8.829 -0.2095 -0.2403 -0.1938
 8088SOL    HW135723   1.498   2.169   8.848  0.1920  0.0394 -1.0104
 8088SOL    HW235724   1.374   2.157   8.775  2.0249 -2.6796  0.8376
 8089SOL     OW35725   2.368   0.083   4.783 -1.1921  0.5452  0.0567
 8089SOL    HW135726   2.285   0.101   4.740 -0.2017  0.5622 -1.8568
 8089SOL    HW235727   2.425   0.157   4.762  0.7034 -2.0277 -3.9973
 8090SOL     OW35728   4.648   2.358  15.963  0.5527  0.4436 -0.0123
 8090SOL    HW135729   0.018   2.343  15.981  0.7605 -0.1911 -1.5919
 8090SOL    HW235730   4.619   2.360  16.054 -2.3129 -0.0334 -0.9082
 8091SOL     OW35731   3.074   4.376   6.051  0.7671 -0.4701 -0.2857
 8091SOL    HW135732   3.124   4.418   5.980  0.2597  0.6734  0.0436
 8091SOL    HW235733   2.999   4.359   5.994  1.1754  0.6676 -1.1722
 8092SOL     OW35734   3.554   3.491   4.568  0.1312 -0.4230  0.5639
 8092SOL    HW135735   3.611   3.480   4.644  0.4369 -0.8578  0.2702
 8092SOL    HW235736   3.595   3.431   4.506 -0.6497  0.6827 -1.0208
 8093SOL     OW35737   4.211   2.008   3.912  0.1531  0.0326  0.3529
 8093SOL    HW135738   4.296   2.051   3.920  0.4374 -0.5975  0.7807
 8093SOL    HW235739   4.233   1.915   3.905 -1.3063 -0.4790  2.3028
 8094SOL     OW35740   3.252   0.233   8.109  0.3690 -0.5734 -0.2902
 8094SOL    HW135741   3.288   0.237   8.198  1.1961 -2.4571 -0.5499
 8094SOL    HW235742   3.231   0.141   8.100  0.3443 -0.4314 -1.7582
 8095SOL     OW35743   0.191   3.189  10.769 -0.1591 -0.6062 -0.6768
 8095SOL    HW135744   0.245   3.110  10.776 -0.5296 -0.9051 -1.2071
 8095SOL    HW235745   0.176   3.208  10.861  2.0736 -0.0874 -0.4251
 8096SOL     OW35746   3.316   0.716   2.951  0.3458 -0.2168 -0.2637
 8096SOL    HW135747   3.360   0.681   3.028  0.1491  0.0377 -0.0349
 8096SOL    HW235748   3.339   0.650   2.886 -1.3866  0.9117 -2.0202
 8097SOL     OW35749   4.063   2.600  14.913 -0.6633  0.3152 -0.2129
 8097SOL    HW135750   4.129   2.546  14.871 -0.6951  0.8413 -0.9406
 8097SOL    HW235751   3.991   2.549  14.877 -0.9802  1.0710 -0.6496
 8098SOL     OW35752   1.438   4.691   6.322  0.3159 -0.3055 -0.6726
 8098SOL    HW135753   1.498   0.017   6.267  1.0906 -2.7668 -1.9866
 8098SOL    HW235754   1.357   4.697   6.271 -0.9580 -2.3345  1.1091
 8099SOL     OW35755   3.092   1.678   8.527  0.4706 -0.0480  0.4992
 8099SOL    HW135756   3.170   1.677   8.471 -0.6037 -0.0979 -0.9991
 8099SOL    HW235757   3.063   1.766   8.502 -3.1914 -1.2727  0.3907
 8100SOL     OW35758   0.977   1.587   3.686  0.3772 -0.1936 -0.6262
 8100SOL    HW135759   0.995   1.573   3.593 -2.8540  0.3082 -1.2952
 8100SOL    HW235760   1.018   1.672   3.702  2.2532 -0.9707 -1.2383
 8101SOL     OW35761   2.223   2.236   0.544 -0.5565 -0.1441  0.2626
 8101SOL    HW135762   2.196   2.319   0.505 -0.3297 -1.4213 -2.6240
 8101SOL    HW235763   2.192   2.240   0.634 -0.1873  2.3116  0.2701
 8102SOL     OW35764   4.225   2.641   5.043 -0.0083 -0.1917 -0.1432
 8102SOL    HW135765   4.181   2.643   5.129 -0.7390  1.2583 -0.5480
 8102SOL    HW235766   4.158   2.689   4.994  1.5255  0.6342 -1.4187
 8103SOL     OW35767   4.076   2.508   6.940  0.3670 -0.5584 -0.0772
 8103SOL    HW135768   4.017   2.536   6.871 -0.1482 -3.1318 -0.6675
 8103SOL    HW235769   4.074   2.592   6.986 -0.8767 -0.7451  0.1996
 8104SOL     OW35770   4.382   3.713   9.669 -0.1653 -0.1549  0.6798
 8104SOL    HW135771   4.395   3.683   9.579 -0.0475  3.3160 -0.4770
 8104SOL    HW235772   4.296   3.756   9.667 -0.5420 -0.9538 -0.1731
 8105SOL     OW35773   4.251   3.006   7.638  0.0846 -0.0072 -0.1587
 8105SOL    HW135774   4.339   2.977   7.616  0.2713  0.2187  0.2864
 8105SOL    HW235775   4.202   2.924   7.635  3.2852 -2.0237  2.5559
 8106SOL     OW35776   2.059   0.735   0.325 -0.6413 -0.0799 -0.3222
 8106SOL    HW135777   2.132   0.723   0.265  0.6284 -0.5195  1.2991
 8106SOL    HW235778   1.989   0.672   0.306 -1.9831  1.1885  0.3433
 8107SOL     OW35779   0.563   1.644   6.920  0.4855  0.0525 -0.2487
 8107SOL    HW135780   0.562   1.739   6.909 -3.8262  0.0531  0.1293
 8107SOL    HW235781   0.647   1.619   6.880  0.3246 -1.9573  0.6930
 8108SOL     OW35782   1.840   0.024   2.748 -0.2279 -0.7021 -0.6019
 8108SOL    HW135783   1.885   0.018   2.664  0.4763 -2.5889 -0.1142
 8108SOL    HW235784   1.785   4.669   2.751 -2.4124  0.7857 -2.9230
 8109SOL     OW35785   2.746   0.909   7.813 -0.3813  0.0842  0.3386
 8109SOL    HW135786   2.715   0.998   7.828 -0.9855  0.3448 -2.5310
 8109SOL    HW235787   2.667   0.858   7.799  0.7116 -1.3037 -0.7901
 8110SOL     OW35788   3.475   3.865   3.459  0.4657  0.3243 -0.6169
 8110SOL    HW135789   3.522   3.843   3.539  1.7466  0.4261 -1.3365
 8110SOL    HW235790   3.509   3.786   3.418 -3.0643 -1.0456 -0.8572
 8111SOL     OW35791   2.553   1.151   4.518 -0.2900  0.0528 -0.3817
 8111SOL    HW135792   2.609   1.224   4.544 -2.9239  1.7079  0.5996
 8111SOL    HW235793   2.477   1.203   4.493  0.2927  2.2047  2.3262
 8112SOL     OW35794   0.290   2.548   7.912  0.2279 -0.6417  0.1304
 8112SOL    HW135795   0.319   2.510   7.995  1.0708  1.4578  0.8161
 8112SOL    HW235796   0.321   2.477   7.857 -0.5060 -1.2287  0.4780
 8113SOL     OW35797   2.328   1.991   0.483  0.2522  0.2966 -0.1428
 8113SOL    HW135798   2.284   2.071   0.511  0.9620  0.2955  0.9596
 8113SOL    HW235799   2.259   1.925   0.489  0.1090  0.4234 -0.3930
 8114SOL     OW35800   1.975   2.704   4.446 -0.2131  0.0728  0.2985
 8114SOL    HW135801   1.931   2.702   4.361 -0.0065 -0.5449  0.2065
 8114SOL    HW235802   2.067   2.705   4.418 -1.1131  2.5539 -2.5716
 8115SOL     OW35803   2.955   0.033  14.889  0.4913 -0.0875 -0.0393
 8115SOL    HW135804   3.007   0.030  14.808 -1.4193 -1.9001 -1.1985
 8115SOL    HW235805   2.884   4.697  14.864 -0.4862  1.0969 -0.0287
 8116SOL     OW35806   1.643   2.899   6.777  0.2535  0.1217 -0.5716
 8116SOL    HW135807   1.637   2.886   6.872 -0.6834  0.0918 -0.6309
 8116SOL    HW235808   1.692   2.979   6.761  0.7327 -0.4642 -1.9954
 8117SOL     OW35809   0.048   0.344   2.595 -0.2312 -0.8355  0.5435
 8117SOL    HW135810   4.709   0.270   2.600 -1.0510 -0.3491 -2.1998
 8117SOL    HW235811   4.719   0.412   2.552  1.3811 -0.1502 -0.3089
 8118SOL     OW35812   0.396   2.128   8.957 -0.3797  0.4821 -0.5359
 8118SOL    HW135813   0.381   2.199   8.894  0.2709  0.7970 -0.3351
 8118SOL    HW235814   0.350   2.053   8.920 -1.1537  1.0788 -0.7921
 8119SOL     OW35815   2.427   0.393   7.596  0.0064 -0.3828  0.0398
 8119SOL    HW135816   2.377   0.376   7.675 -0.3484  0.1319 -0.0673
 8119SOL    HW235817   2.481   0.317   7.577  0.0366 -0.5542  0.8150
 8120SOL     OW35818   1.796   4.035  10.058  0.1673 -0.3339 -0.4077
 8120SOL    HW135819   1.703   4.040  10.037  0.5416 -1.6150 -2.3333
 8120SOL    HW235820   1.836   4.019   9.973 -2.0035  1.2901 -1.7207
 8121SOL     OW35821   1.488   2.544   5.923  0.2169  0.2595 -0.0891
 8121SOL    HW135822   1.504   2.505   6.009  0.7662 -0.2739 -0.4362
 8121SOL    HW235823   1.563   2.602   5.914 -0.1796  1.0445  1.4811
 8122SOL     OW35824   4.223   3.654   4.189  0.2406 -0.2415 -0.6477
 8122SOL    HW135825   4.287   3.589   4.220  1.6600  1.4312 -0.0446
 8122SOL    HW235826   4.153   3.595   4.163 -1.6605  2.3973 -1.4564
 8123SOL     OW35827   0.475   0.046  11.783  0.1553 -0.0185  0.3679
 8123SOL    HW135828   0.523   4.699  11.738  1.4769  0.7060  0.6374
 8123SOL    HW235829   0.538   0.117  11.768  0.9877 -0.9157 -0.3565
 8124SOL     OW35830   0.163   0.965  16.187  0.5429 -0.1166  0.3487
 8124SOL    HW135831   0.117   0.903  16.244  1.2033 -1.4189 -0.5217
 8124SOL    HW235832   0.233   0.904  16.161  0.0441 -0.5507  0.0234
 8125SOL     OW35833   2.453   4.338   6.438 -0.0413 -0.1268 -0.4227
 8125SOL    HW135834   2.402   4.418   6.453  0.2648 -0.3882  1.9340
 8125SOL    HW235835   2.541   4.376   6.438 -1.9668  4.3299 -1.8238
 8126SOL     OW35836   2.181   1.098   4.605 -0.3498  0.2129 -0.4945
 8126SOL    HW135837   2.231   1.164   4.556  0.1725 -0.4316 -0.8268
 8126SOL    HW235838   2.137   1.051   4.535  0.1664  0.1731 -0.7957
 8127SOL     OW35839   4.446   2.580  16.283 -0.0991  0.0330  0.3106
 8127SOL    HW135840   4.505   2.617  16.349 -2.7127  2.4676  1.2952
 8127SOL    HW235841   4.360   2.614  16.310  0.4705  1.1596  0.7018
 8128SOL     OW35842   2.932   2.235   3.240  0.3120 -0.0266  0.0482
 8128SOL    HW135843   2.988   2.296   3.191 -2.2395  1.4079 -1.0306
 8128SOL    HW235844   2.891   2.190   3.166  2.3275  0.4113 -1.3551
 8129SOL     OW35845   0.329   2.407   6.098  0.2656  0.3437  0.3383
 8129SOL    HW135846   0.273   2.365   6.033  0.0512  0.4665  0.4447
 8129SOL    HW235847   0.376   2.333   6.136 -0.4148  0.8316  2.1357
 8130SOL     OW35848   1.199   0.774   7.293  0.6719  0.0007 -0.0527
 8130SOL    HW135849   1.273   0.722   7.325 -1.9701 -2.8904  1.4258
 8130SOL    HW235850   1.143   0.718   7.239 -1.4075  2.7419 -0.6766
 8131SOL     OW35851   2.107   1.851   1.830 -0.1061 -0.2906 -0.1576
 8131SOL    HW135852   2.090   1.826   1.739 -0.3875 -0.4841 -0.0492
 8131SOL    HW235853   2.145   1.769   1.861 -1.6268 -1.2106 -0.7375
 8132SOL     OW35854   2.797   3.761  13.928 -0.4713 -0.1382 -0.2595
 8132SOL    HW135855   2.793   3.682  13.873 -0.6197  0.9312 -1.7841
 8132SOL    HW235856   2.891   3.779  13.936 -0.4209  0.2066 -1.5891
 8133SOL     OW35857   3.878   1.535   3.585 -0.0512  0.3305  0.2241
 8133SOL    HW135858   3.947   1.521   3.521 -0.7827  0.3290 -0.5596
 8133SOL    HW235859   3.884   1.446   3.618  1.9659 -0.6265 -2.7787
 8134SOL     OW35860   3.808   0.272   6.903  0.5021 -0.0354  0.1138
 8134SOL    HW135861   3.870   0.329   6.858 -0.3119  0.0511 -0.8895
 8134SOL    HW235862   3.797   0.309   6.991 -1.9338 -0.9918  0.2184
 8135SOL     OW35863   1.208   2.339   6.842 -0.3754  0.5782 -0.2575
 8135SOL    HW135864   1.186   2.246   6.840 -2.9832  1.1894  1.6351
 8135SOL    HW235865   1.303   2.338   6.825 -0.2824  1.2168  0.2532
 8136SOL     OW35866   1.657   3.966   5.477  0.0252  0.1235 -0.1878
 8136SOL    HW135867   1.640   4.035   5.541  0.3897 -0.4902  0.5743
 8136SOL    HW235868   1.726   4.008   5.425 -0.3412 -0.9546 -1.5593
 8137SOL     OW35869   4.547   2.819  15.042 -0.6497  0.1947  0.0838
 8137SOL    HW135870   4.544   2.844  14.950  2.9051 -0.6325 -0.2678
 8137SOL    HW235871   4.460   2.783  15.057 -0.0487 -0.5095  2.0202
 8138SOL     OW35872   2.590   0.339  14.655 -0.0651 -0.4466 -0.1839
 8138SOL    HW135873   2.661   0.340  14.720 -1.5207 -0.5514  1.4204
 8138SOL    HW235874   2.597   0.250  14.623 -0.0449 -0.8807  1.0320
 8139SOL     OW35875   0.716   4.269  16.383  0.1237 -0.4997 -0.3291
 8139SOL    HW135876   0.785   4.323  16.422 -0.7249  0.4517 -0.1325
 8139SOL    HW235877   0.742   4.287  16.292 -0.9143  1.2654 -0.2888
 8140SOL     OW35878   3.441   4.178   8.832 -0.1278  0.5709 -0.2593
 8140SOL    HW135879   3.454   4.099   8.779 -1.6021  0.5986 -0.6594
 8140SOL    HW235880   3.532   4.210   8.833  0.1433 -0.2644  1.4776
 8141SOL     OW35881   0.734   0.380   9.111 -0.0032 -0.1855  0.3518
 8141SOL    HW135882   0.816   0.429   9.116 -0.8662  1.4408 -1.4071
 8141SOL    HW235883   0.683   0.439   9.056 -1.0612  0.2747  1.8305
 8142SOL     OW35884   2.658   4.625   4.586  0.6541  0.5151  0.5592
 8142SOL    HW135885   2.745   4.622   4.625  0.7764 -2.4500  0.0451
 8142SOL    HW235886   2.632   4.717   4.592 -1.2167 -0.0144  0.6973
 8143SOL     OW35887   1.541   2.422  10.791  0.5647 -0.3085  1.0423
 8143SOL    HW135888   1.493   2.343  10.817 -0.6659  0.3846  0.8634
 8143SOL    HW235889   1.485   2.446  10.717  0.2879 -1.7871  0.7685
 8144SOL     OW35890   3.474   1.297   8.367  0.2199 -0.0104  0.1799
 8144SOL    HW135891   3.534   1.239   8.412  0.8428  0.1916 -0.3909
 8144SOL    HW235892   3.500   1.271   8.278  1.9205 -0.3719  0.7868
 8145SOL     OW35893   4.338   3.051   7.229 -0.0814  0.1721  0.6702
 8145SOL    HW135894   4.339   3.046   7.134 -1.4468  1.9166  0.5683
 8145SOL    HW235895   4.262   3.103   7.253 -2.0591 -1.1218 -2.8329
 8146SOL     OW35896   1.948   0.852   8.371  0.2213 -0.4469  0.0196
 8146SOL    HW135897   1.875   0.829   8.314  0.2627  0.7776 -0.5273
 8146SOL    HW235898   1.905   0.838   8.455  0.1284 -0.0604  0.0363
 8147SOL     OW35899   2.552   1.750   6.304  0.2039 -0.0450 -0.2888
 8147SOL    HW135900   2.494   1.694   6.252  0.2331 -1.2611  0.9790
 8147SOL    HW235901   2.503   1.799   6.370 -1.5004 -0.6152 -1.1356
 8148SOL     OW35902   2.778   2.736   2.665 -0.1292  0.4184 -0.0038
 8148SOL    HW135903   2.695   2.700   2.634  1.7118 -1.4171 -2.8405
 8148SOL    HW235904   2.771   2.824   2.628  1.8576  0.1980 -0.9234
 8149SOL     OW35905   3.314   1.550   3.363  0.6583 -0.4031  0.1227
 8149SOL    HW135906   3.371   1.617   3.400  0.3690 -1.7087  2.9272
 8149SOL    HW235907   3.350   1.545   3.275 -2.2006 -2.6697 -0.9544
 8150SOL     OW35908   4.103   0.571  10.959 -0.3498  0.9161 -0.5661
 8150SOL    HW135909   4.178   0.595  11.014 -0.7978 -1.1831  0.9515
 8150SOL    HW235910   4.042   0.643  10.978  0.9353  2.4317 -2.2449
 8151SOL     OW35911   2.840   0.644  12.383 -0.4204 -0.1986 -0.3576
 8151SOL    HW135912   2.877   0.725  12.350  2.8035 -2.1121 -1.4793
 8151SOL    HW235913   2.900   0.574  12.355 -0.0698 -0.1474  0.2557
 8152SOL     OW35914   3.749   0.090   0.214 -0.0128 -0.8473  0.7337
 8152SOL    HW135915   3.773   0.093   0.121 -0.7253 -0.9106  0.5471
 8152SOL    HW235916   3.834   0.086   0.257  0.8259  0.0601 -0.8162
 8153SOL     OW35917   3.943   4.282  17.403  0.0095 -0.6142 -0.1484
 8153SOL    HW135918   3.974   4.368  17.377  2.4274 -1.2410  0.6767
 8153SOL    HW235919   3.975   4.232  17.327 -0.6704 -0.0824 -0.7849
 8154SOL     OW35920   0.655   2.455   5.414 -0.1724  0.0066 -0.2702
 8154SOL    HW135921   0.720   2.386   5.429  0.4817  0.4634 -1.0285
 8154SOL    HW235922   0.700   2.536   5.437  0.0822  0.0708 -0.9934
 8155SOL     OW35923   1.365   0.749   3.716  0.3815 -0.5306 -0.1045
 8155SOL    HW135924   1.366   0.658   3.688  0.6946  0.0013 -1.7983
 8155SOL    HW235925   1.438   0.757   3.778 -0.9538  0.4159  1.3723
 8156SOL     OW35926   3.558   0.433  11.199  0.5401  0.0606  0.5340
 8156SOL    HW135927   3.511   0.421  11.282  1.4716 -1.7949  0.7934
 8156SOL    HW235928   3.571   0.341  11.180 -0.9494  0.2877 -1.4964
 8157SOL     OW35929   4.377   1.087   9.213 -0.1601 -0.1884 -0.2407
 8157SOL    HW135930   4.411   1.035   9.286  0.4085  2.6296  1.5046
 8157SOL    HW235931   4.292   1.116   9.245 -0.6735 -0.3607 -1.4405
 8158SOL     OW35932   0.025   4.097   6.475 -0.4541 -0.2237  0.1768
 8158SOL    HW135933   0.095   4.033   6.483  0.3135  0.3358 -2.3021
 8158SOL    HW235934   0.035   4.120   6.383 -0.5476 -0.6168  0.0714
 8159SOL     OW35935   1.194   4.440   0.296  0.2228 -0.5265  0.8089
 8159SOL    HW135936   1.192   4.475   0.385 -0.1855 -1.9960  1.3870
 8159SOL    HW235937   1.280   4.450   0.257 -0.2887  2.3292  0.4566
 8160SOL     OW35938   2.448   3.682   7.506 -0.1704 -0.0286  0.2115
 8160SOL    HW135939   2.504   3.755   7.532 -0.3390  0.8886 -1.9734
 8160SOL    HW235940   2.447   3.630   7.586  0.2245 -0.5133 -0.0942
 8161SOL     OW35941   0.506   0.094  15.823  0.9036  0.1157 -0.5611
 8161SOL    HW135942   0.555   0.152  15.766  4.0540  0.5991  2.5973
 8161SOL    HW235943   0.567   0.055  15.886  1.5741 -0.5250 -1.5955
 8162SOL     OW35944   0.203   1.305   7.734  0.1881 -0.4244  0.4659
 8162SOL    HW135945   0.128   1.280   7.680 -0.9435  1.4247  1.1824
 8162SOL    HW235946   0.152   1.340   7.807  1.2832  2.7172 -0.2749
 8163SOL     OW35947   0.640   2.411   6.148 -1.0060  0.4535 -0.8980
 8163SOL    HW135948   0.577   2.341   6.168  0.4181 -0.7946 -0.8248
 8163SOL    HW235949   0.720   2.375   6.185 -1.8966  0.5368  1.1312
 8164SOL     OW35950   1.308   0.373   5.726 -0.2083  0.0033  0.4314
 8164SOL    HW135951   1.273   0.426   5.798 -2.7022 -1.1099  0.0137
 8164SOL    HW235952   1.312   0.442   5.659  2.4775  0.5889  1.1973
 8165SOL     OW35953   2.012   1.841   4.884 -0.2753  0.2923  0.2540
 8165SOL    HW135954   2.004   1.916   4.943 -0.6092  0.9550 -0.6325
 8165SOL    HW235955   1.988   1.880   4.800 -0.2372 -3.0618 -1.3364
 8166SOL     OW35956   4.603   2.666  16.484 -0.3432 -0.1661  0.4836
 8166SOL    HW135957   4.622   2.662  16.578 -2.5135 -0.1967  0.9341
 8166SOL    HW235958   4.579   2.758  16.476  2.2002  0.5722  1.4700
 8167SOL     OW35959   3.071   0.105   6.723 -0.0013  1.3954 -0.2654
 8167SOL    HW135960   3.109   0.069   6.803  1.1431  0.7083 -1.1055
 8167SOL    HW235961   3.104   0.195   6.724  3.7903  0.0242 -1.5475
 8168SOL     OW35962   1.438   1.010   6.530 -0.0042 -0.3142 -0.3337
 8168SOL    HW135963   1.496   0.996   6.605 -1.3912  0.2861  0.8769
 8168SOL    HW235964   1.373   1.079   6.545 -0.1789 -0.6129  0.2949
 8169SOL     OW35965   3.522   3.297  11.193  0.0966  0.2738  0.3116
 8169SOL    HW135966   3.527   3.391  11.175  2.5239  0.3718  1.4084
 8169SOL    HW235967   3.428   3.285  11.208  0.2456  0.5445  1.4612
 8170SOL     OW35968   0.950   1.088  12.224  0.6438  0.2274  0.4763
 8170SOL    HW135969   1.044   1.091  12.242  0.4731  1.3722  1.1471
 8170SOL    HW235970   0.932   1.117  12.135 -0.9072  0.1532  0.7632
 8171SOL     OW35971   1.888   1.929   3.058 -0.1378 -0.0734  0.4355
 8171SOL    HW135972   1.819   1.865   3.041 -0.4059  0.6914 -1.3373
 8171SOL    HW235973   1.963   1.873   3.036  0.8107  1.1691  0.5087
 8172SOL     OW35974   1.376   4.025  10.984 -0.7376 -0.0064  0.3169
 8172SOL    HW135975   1.409   4.110  11.012 -0.1461 -1.2116  3.2757
 8172SOL    HW235976   1.305   4.016  11.048 -2.9533 -0.9855 -2.3209
 8173SOL     OW35977   2.718   3.921   5.111  0.5985  0.3796 -0.3613
 8173SOL    HW135978   2.682   3.942   5.197 -0.5700 -1.0396 -0.5157
 8173SOL    HW235979   2.670   3.977   5.050 -1.0097  0.3809  0.9342
 8174SOL     OW35980   1.172   4.438   1.896 -0.1503  0.1082 -0.1841
 8174SOL    HW135981   1.177   4.370   1.964 -1.3981 -1.0277 -1.2200
 8174SOL    HW235982   1.085   4.471   1.919  0.6986  0.0359  3.2122
 8175SOL     OW35983   0.353   2.944  12.926 -0.4802  0.4610 -0.4487
 8175SOL    HW135984   0.394   2.971  12.844  0.7035 -2.2798 -0.7939
 8175SOL    HW235985   0.346   2.849  12.915  0.5172  0.5373 -1.8607
 8176SOL     OW35986   3.961   2.489   8.110  0.6610 -0.5594 -0.5744
 8176SOL    HW135987   3.933   2.411   8.159  0.6405 -0.4455 -0.4071
 8176SOL    HW235988   4.053   2.479   8.086  1.0911  0.5142  0.6455
 8177SOL     OW35989   3.394   0.829   7.240 -0.0740  0.0447 -0.0738
 8177SOL    HW135990   3.449   0.753   7.219 -0.4471 -0.4442  0.7148
 8177SOL    HW235991   3.392   0.885   7.162 -2.1740  0.1273  0.0419
 8178SOL     OW35992   3.496   3.698   1.756 -0.1797  1.0698 -0.3990
 8178SOL    HW135993   3.566   3.668   1.812 -1.2760 -0.0537  0.3678
 8178SOL    HW235994   3.434   3.728   1.822  1.7693 -0.5371  2.1322
 8179SOL     OW35995   4.319   1.212   5.909 -0.0822  0.0006 -0.3762
 8179SOL    HW135996   4.398   1.266   5.918  1.1009 -2.0675  1.4250
 8179SOL    HW235997   4.349   1.128   5.943  0.2146 -0.0562 -0.7618
 8180SOL     OW35998   3.944   4.292   4.376  0.1387  0.1743  0.2484
 8180SOL    HW135999   3.984   4.323   4.457 -2.1727 -1.6714  2.0686
 8180SOL    HW236000   4.024   4.289   4.323  1.9206 -2.0393  3.0660
 8181SOL     OW36001   3.532   1.975   9.677 -0.8718 -0.4014 -0.0780
 8181SOL    HW136002   3.542   1.976   9.772 -0.6297 -0.0338 -0.1074
 8181SOL    HW236003   3.614   1.998   9.634 -0.9988 -1.0873 -0.6905
 8182SOL     OW36004   1.407   0.154   7.487 -0.1395  0.0774  0.4739
 8182SOL    HW136005   1.422   0.195   7.572 -0.8844 -2.1266  1.6940
 8182SOL    HW236006   1.490   0.176   7.447 -1.2711  1.8709 -0.8650
 8183SOL     OW36007   1.555   3.027   3.142 -0.2241  0.7137  0.1073
 8183SOL    HW136008   1.613   2.952   3.156 -0.1253  0.6525 -0.6536
 8183SOL    HW236009   1.485   2.988   3.091 -0.2832  0.3981  0.4367
 8184SOL     OW36010   0.273   3.078   0.248  0.5270 -0.1256 -0.5102
 8184SOL    HW136011   0.268   3.141   0.320 -0.0215  0.1279 -0.7708
 8184SOL    HW236012   0.348   3.027   0.279 -0.2829 -0.3218  1.1170
 8185SOL     OW36013   2.985   0.879  16.669 -0.7418  0.5268 -0.3150
 8185SOL    HW136014   2.925   0.881  16.743  0.0930 -0.4041  0.3911
 8185SOL    HW236015   3.031   0.961  16.684  0.4396 -0.1211 -0.3555
 8186SOL     OW36016   2.948   2.043   6.038  0.0907 -0.2803  0.7546
 8186SOL    HW136017   2.866   2.013   6.079 -0.0839 -0.8809 -0.0311
 8186SOL    HW236018   2.968   1.979   5.970 -1.9411  2.6701 -2.6058
 8187SOL     OW36019   4.310   0.501   6.409 -0.2216  0.5350  0.1640
 8187SOL    HW136020   4.329   0.408   6.425 -2.8883  0.0831  0.6467
 8187SOL    HW236021   4.228   0.518   6.455  1.8820  0.9525  3.7432
 8188SOL     OW36022   2.990   2.346   5.668  0.3031  0.4141 -0.5474
 8188SOL    HW136023   2.910   2.398   5.678  0.3256  0.1272  1.1376
 8188SOL    HW236024   2.951   2.270   5.627 -1.2043 -0.2710  2.1677
 8189SOL     OW36025   1.004   2.914   1.739 -0.3128 -0.3027  0.0831
 8189SOL    HW136026   1.018   2.879   1.827  2.6415  0.4973 -0.0681
 8189SOL    HW236027   1.045   3.000   1.744 -1.8911  0.4038  0.5634
 8190SOL     OW36028   1.097   3.544  17.243 -0.3012  0.3024 -0.1541
 8190SOL    HW136029   1.006   3.527  17.264 -0.0824 -0.7029 -0.0372
 8190SOL    HW236030   1.108   3.489  17.165 -2.0067  0.2225 -0.3380
 8191SOL     OW36031   3.472   3.968   0.287 -0.0649  0.5037 -0.0232
 8191SOL    HW136032   3.512   4.048   0.252  1.0666 -1.8363 -3.9785
 8191SOL    HW236033   3.381   3.994   0.302  0.1934  0.8450  0.9756
 8192SOL     OW36034   0.486   2.722   7.803 -0.0888  0.0885  0.3749
 8192SOL    HW136035   0.424   2.651   7.821 -0.2368  0.2114  0.3487
 8192SOL    HW236036   0.437   2.804   7.816  1.7380  1.1558  0.4589
 8193SOL     OW36037   1.681   3.497   6.897  0.4089  0.3798 -0.4081
 8193SOL    HW136038   1.630   3.427   6.856  0.2288  0.3708 -0.1725
 8193SOL    HW236039   1.770   3.492   6.861  0.2647 -1.0179 -0.5637
 8194SOL     OW36040   0.708   1.422   8.892 -0.6941 -0.0631 -0.2235
 8194SOL    HW136041   0.802   1.405   8.893 -1.0153 -1.9795 -1.5115
 8194SOL    HW236042   0.718   1.517   8.885 -0.3844 -0.1568 -1.0727
 8195SOL     OW36043   2.088   3.058   7.800 -0.3655 -0.8149 -0.1396
 8195SOL    HW136044   2.050   3.044   7.714 -1.1078 -1.2723  0.2623
 8195SOL    HW236045   2.011   3.070   7.856  0.0749  1.2578  0.0202
 8196SOL     OW36046   2.180   2.536   3.074  0.0584  0.4386  0.0961
 8196SOL    HW136047   2.234   2.611   3.101 -0.1321 -0.1058  1.9700
 8196SOL    HW236048   2.179   2.547   2.979 -2.6380 -0.2439  0.0619
 8197SOL     OW36049   3.220   3.042   8.372 -0.3778  0.5477 -0.1664
 8197SOL    HW136050   3.150   3.096   8.335 -0.3146  2.9148  3.1957
 8197SOL    HW236051   3.168   2.967   8.401  2.3958 -1.5221 -0.5174
 8198SOL     OW36052   4.041   4.316   9.555 -0.7316  0.1963  0.8751
 8198SOL    HW136053   4.130   4.318   9.588  0.8744  0.2804 -3.4044
 8198SOL    HW236054   4.039   4.392   9.496  2.7804  0.0234  0.5499
 8199SOL     OW36055   0.781   1.964   6.619  0.4016 -0.1158  0.4946
 8199SOL    HW136056   0.852   1.970   6.555 -0.8543  1.7140 -0.7222
 8199SOL    HW236057   0.730   2.032   6.575 -1.7340 -1.3047  1.1415
 8200SOL     OW36058   1.901   3.057   1.457 -0.2313  0.1731  0.3554
 8200SOL    HW136059   1.907   3.144   1.417 -0.6097 -1.1933 -2.6856
 8200SOL    HW236060   1.956   3.012   1.393 -0.7209  0.4383 -0.2534
 8201SOL     OW36061   3.936   1.222   0.630  0.4568  0.5603  0.2561
 8201SOL    HW136062   3.961   1.130   0.618  1.3078  0.8276 -0.0094
 8201SOL    HW236063   3.846   1.194   0.647  0.4130  0.6576  0.1831
 8202SOL     OW36064   2.335   1.543   3.247 -0.2973 -0.6810 -0.1294
 8202SOL    HW136065   2.332   1.622   3.302  1.0887 -1.1169  0.5578
 8202SOL    HW236066   2.419   1.541   3.202  1.3623  0.8315  2.8629
 8203SOL     OW36067   1.931   1.263  12.060 -0.3134 -0.2832  0.5739
 8203SOL    HW136068   1.927   1.203  11.986  0.6493 -0.4512  0.6641
 8203SOL    HW236069   1.870   1.332  12.032 -1.3588 -1.4024  0.0742
 8204SOL     OW36070   4.367   0.766   6.680 -0.3869  0.3528 -0.7090
 8204SOL    HW136071   4.397   0.692   6.733 -0.1348  0.4879 -0.6601
 8204SOL    HW236072   4.281   0.769   6.721 -0.6145  1.4982 -1.2652
 8205SOL     OW36073   3.101   1.506  13.969  0.1560  0.9835  0.1379
 8205SOL    HW136074   3.050   1.425  13.980 -0.8770  1.4711 -0.9755
 8205SOL    HW236075   3.087   1.535  13.879 -0.6605 -0.0901 -0.0772
 8206SOL     OW36076   1.416   4.197   1.878  0.1960  0.5296 -0.8201
 8206SOL    HW136077   1.506   4.205   1.846  1.4544 -1.5489  2.2330
 8206SOL    HW236078   1.369   4.182   1.796  1.7743 -1.0622 -1.4075
 8207SOL     OW36079   2.528   1.399  11.783  0.1070  0.2234 -0.4611
 8207SOL    HW136080   2.436   1.373  11.778  0.5417 -1.3554 -0.3415
 8207SOL    HW236081   2.547   1.391  11.689  0.4429 -1.7138 -0.2287
 8208SOL     OW36082   3.858   2.583   2.652  0.2308 -0.4828 -0.1027
 8208SOL    HW136083   3.833   2.660   2.703 -0.0621  0.2325 -1.3214
 8208SOL    HW236084   3.948   2.560   2.676  0.4213  0.2656 -0.0819
 8209SOL     OW36085   2.239   2.400  16.270  0.1910 -0.0871  0.1938
 8209SOL    HW136086   2.276   2.354  16.194 -0.6134 -1.4754  0.6431
 8209SOL    HW236087   2.149   2.372  16.251  0.7080 -0.1850 -2.0913
 8210SOL     OW36088   1.671   4.633   6.482 -0.1165  0.7239 -0.1240
 8210SOL    HW136089   1.642   4.543   6.497 -3.3956  1.7476 -0.3298
 8210SOL    HW236090   1.584   4.662   6.455  0.6464  2.9079 -0.2212
 8211SOL     OW36091   4.649   3.824   7.501 -0.3872 -0.5228  0.0453
 8211SOL    HW136092   4.639   3.784   7.414  2.8333 -0.0676 -0.5527
 8211SOL    HW236093   4.608   3.750   7.545 -0.0861 -0.1170  0.9951
 8212SOL     OW36094   2.084   4.446   7.807 -0.8835  0.0021  0.9469
 8212SOL    HW136095   2.140   4.523   7.793 -0.7244  0.1772  2.5065
 8212SOL    HW236096   2.022   4.467   7.877 -0.4826 -2.0244  1.8940
 8213SOL     OW36097   1.796   2.147   4.566 -0.0105  0.3677 -0.3963
 8213SOL    HW136098   1.877   2.117   4.524 -0.1492  0.9751 -1.0775
 8213SOL    HW236099   1.830   2.235   4.580  2.0423 -0.4973  0.1063
 8214SOL     OW36100   3.266   1.120   0.661 -0.2849 -0.3180  0.4085
 8214SOL    HW136101   3.268   1.208   0.699 -1.1161 -0.9543  1.9444
 8214SOL    HW236102   3.175   1.101   0.685  0.2088 -1.3056  1.5224
 8215SOL     OW36103   3.248   2.148  10.310 -0.2509  0.3023  0.8169
 8215SOL    HW136104   3.167   2.096  10.307  0.9012 -1.3368 -1.3697
 8215SOL    HW236105   3.261   2.146  10.405 -0.5946 -2.7538  0.8126
 8216SOL     OW36106   2.224   1.927   4.369 -0.0893 -0.1370 -0.1712
 8216SOL    HW136107   2.214   1.832   4.355 -0.3450 -0.0001 -0.9398
 8216SOL    HW236108   2.298   1.950   4.313  0.2934 -0.0512  0.3782
 8217SOL     OW36109   0.251   0.104   6.913  0.3743 -0.3952  0.2672
 8217SOL    HW136110   0.249   0.089   6.818 -1.1315 -0.0875  0.2603
 8217SOL    HW236111   0.201   0.182   6.935  0.8450 -0.3098  1.0507
 8218SOL     OW36112   4.649   3.852  10.789  0.6648 -0.1643 -0.2747
 8218SOL    HW136113   4.663   3.914  10.717  0.9265  0.2362  0.1263
 8218SOL    HW236114   4.555   3.838  10.781  0.3734  1.2777  0.7492
 8219SOL     OW36115   2.156   4.191   7.797 -0.2742 -0.4044  0.0516
 8219SOL    HW136116   2.249   4.177   7.777 -0.2112 -0.6560  0.5383
 8219SOL    HW236117   2.142   4.285   7.783 -0.2263 -0.5838 -1.2201
 8220SOL     OW36118   1.625   0.994   4.323 -0.1346  0.1878  0.2376
 8220SOL    HW136119   1.699   1.038   4.282 -0.0985 -0.8543 -0.8172
 8220SOL    HW236120   1.574   0.958   4.251  0.0509  2.6459 -1.1134
 8221SOL     OW36121   1.325   1.804   4.807 -0.4624 -0.5612 -0.3854
 8221SOL    HW136122   1.314   1.822   4.900 -0.7984 -2.6828 -0.0001
 8221SOL    HW236123   1.348   1.711   4.798  0.4171 -0.6572  3.1164
 8222SOL     OW36124   1.888   0.422   2.957  0.7353 -0.4547  0.8371
 8222SOL    HW136125   1.926   0.492   2.904 -1.7061  0.0536 -0.2230
 8222SOL    HW236126   1.843   0.370   2.891  2.1362  0.2546 -0.6743
 8223SOL     OW36127   3.873   2.753  15.539  0.2877  0.0991  0.3481
 8223SOL    HW136128   3.876   2.830  15.596 -0.3251 -0.0785  0.6204
 8223SOL    HW236129   3.796   2.773  15.486  0.4701  0.0133  0.0467
 8224SOL     OW36130   4.560   4.388   5.134  0.4674  0.2918  0.4784
 8224SOL    HW136131   4.541   4.480   5.117 -2.3699 -0.3278  0.4424
 8224SOL    HW236132   4.582   4.358   5.046 -0.6687  0.6768  0.0715
 8225SOL     OW36133   4.009   2.385   5.641 -0.1591 -0.5312 -0.2874
 8225SOL    HW136134   3.949   2.328   5.593  0.9284  0.8142 -3.2624
 8225SOL    HW236135   4.054   2.315   5.688 -2.3276 -1.8664 -0.1972
 8226SOL     OW36136   0.013   0.922   7.073 -0.5192  0.1630  0.2087
 8226SOL    HW136137   4.658   0.873   7.045 -0.1115 -0.6807  0.5403
 8226SOL    HW236138   0.086   0.864   7.051 -0.6862  0.1371 -0.2653
 8227SOL     OW36139   3.788   4.639   8.863  0.2767 -0.2645  0.2252
 8227SOL    HW136140   3.701   4.615   8.896  0.6377 -1.0611  0.5938
 8227SOL    HW236141   3.793   4.600   8.776 -0.3828  1.5986 -0.6439
 8228SOL     OW36142   0.898   1.214   0.852 -0.7993 -0.6183 -0.3311
 8228SOL    HW136143   0.926   1.299   0.818  0.9030 -1.4467 -1.0359
 8228SOL    HW236144   0.980   1.172   0.875  0.5286  1.7690 -0.6588
 8229SOL     OW36145   1.055   0.006   2.245  0.4257 -0.0622 -0.4456
 8229SOL    HW136146   1.112   4.658   2.276 -1.0031 -1.7774 -1.7571
 8229SOL    HW236147   0.992   4.688   2.185 -0.8897 -0.4761  1.2213
 8230SOL     OW36148   1.589   4.188   8.906 -0.1151  0.1656 -0.1846
 8230SOL    HW136149   1.628   4.210   8.821  0.0649 -0.2882 -0.2188
 8230SOL    HW236150   1.644   4.110   8.918 -0.3319 -0.0884 -0.8310
 8231SOL     OW36151   4.396   2.411   4.524  0.3561 -0.0279  0.3189
 8231SOL    HW136152   4.426   2.390   4.435 -0.7220  3.6277 -0.9296
 8231SOL    HW236153   4.306   2.379   4.526  0.2170  0.3560  0.3633
 8232SOL     OW36154   0.361   0.767   8.444  0.0434  0.2392  0.1452
 8232SOL    HW136155   0.441   0.754   8.494  0.2398 -0.9918 -0.4745
 8232SOL    HW236156   0.382   0.855   8.413  1.0300 -0.4350 -1.1596
 8233SOL     OW36157   3.186   1.695  14.569 -0.6108 -0.7725 -0.1306
 8233SOL    HW136158   3.237   1.616  14.588  0.5934 -0.1669 -0.8167
 8233SOL    HW236159   3.106   1.682  14.620 -0.0405 -0.0134  0.9648
 8234SOL     OW36160   4.416   1.034   2.354 -0.2222  0.6707 -0.5035
 8234SOL    HW136161   4.439   1.111   2.303  1.4898  2.3157  2.7114
 8234SOL    HW236162   4.484   0.976   2.322  0.8582 -0.2884  3.4521
 8235SOL     OW36163   4.545   1.101   4.849 -0.4881 -0.0522 -0.8988
 8235SOL    HW136164   4.547   1.127   4.941  4.1750 -1.4596 -0.6063
 8235SOL    HW236165   4.581   1.179   4.808 -0.0381  1.5616  2.5912
 8236SOL     OW36166   4.586   2.532  17.218 -0.5069  0.0106 -0.1134
 8236SOL    HW136167   4.545   2.587  17.151  2.1965 -1.1919 -2.7297
 8236SOL    HW236168   4.591   2.454  17.163  1.3078  0.5940 -0.7885
 8237SOL     OW36169   4.375   1.306  10.121 -0.4770 -0.2506 -0.3758
 8237SOL    HW136170   4.402   1.240  10.185 -0.5026  0.3055  0.2137
 8237SOL    HW236171   4.427   1.385  10.140 -0.6304 -0.5999  1.5444
 8238SOL     OW36172   2.622   0.556   3.720 -0.5866 -0.3570 -0.2332
 8238SOL    HW136173   2.609   0.622   3.652  0.6718 -0.9445 -1.0444
 8238SOL    HW236174   2.550   0.497   3.699 -0.6265 -0.3071 -0.2352
 8239SOL     OW36175   4.636   4.129  10.476  0.1491 -0.3791 -0.5836
 8239SOL    HW136176   4.570   4.078  10.428 -1.8243  0.8094  0.8886
 8239SOL    HW236177   4.584   4.175  10.542  1.0969  1.1620 -0.9069
 8240SOL     OW36178   4.642   1.210   5.612 -0.6808 -0.5707 -0.1560
 8240SOL    HW136179   4.553   1.221   5.647 -0.5467  0.4624 -0.1574
 8240SOL    HW236180   4.667   1.119   5.630 -0.9911 -0.8521 -1.1701
 8241SOL     OW36181   2.089   2.899   1.358 -0.5966  0.6735 -0.1789
 8241SOL    HW136182   2.078   2.849   1.438 -2.3008 -1.6569 -1.8711
 8241SOL    HW236183   2.182   2.923   1.366 -0.5814  0.4902  0.1616
 8242SOL     OW36184   3.521   3.679  14.912  0.5769  0.2073 -0.3934
 8242SOL    HW136185   3.514   3.636  14.997  0.7925  0.4608 -0.2484
 8242SOL    HW236186   3.464   3.621  14.862  1.1562  1.4220 -2.4934
 8243SOL     OW36187   0.880   1.883   0.498 -0.0628  0.6243 -0.4807
 8243SOL    HW136188   0.816   1.947   0.530  0.9841  0.1265  2.5068
 8243SOL    HW236189   0.845   1.853   0.414 -1.9468  0.4543  0.3622
 8244SOL     OW36190   0.610   2.858   5.124 -0.1387  0.3255  0.3042
 8244SOL    HW136191   0.582   2.800   5.195 -1.5256  0.7000  0.0787
 8244SOL    HW236192   0.536   2.919   5.123 -0.3243  0.0801 -0.5570
 8245SOL     OW36193   0.251   1.800   2.954  0.3744  0.7522  0.4844
 8245SOL    HW136194   0.282   1.767   2.869  0.9141  1.6685  0.3231
 8245SOL    HW236195   0.206   1.725   2.993  2.4657 -1.4371 -1.2440
 8246SOL     OW36196   1.097   3.609  12.373 -0.2764  0.2426  0.4301
 8246SOL    HW136197   1.006   3.616  12.344 -0.5845 -0.5313  1.2073
 8246SOL    HW236198   1.097   3.680  12.436  1.1783  0.9567 -0.3890
 8247SOL     OW36199   1.296   1.017   5.876  0.3391  0.1657 -0.2985
 8247SOL    HW136200   1.387   1.047   5.879  0.2959  0.1855  0.6852
 8247SOL    HW236201   1.259   1.099   5.843  0.7414  0.2847 -0.4611
 8248SOL     OW36202   1.715   2.230   6.461 -0.3489 -0.3223 -0.0883
 8248SOL    HW136203   1.722   2.323   6.437  0.8199 -0.3881  0.0339
 8248SOL    HW236204   1.619   2.229   6.455 -0.4849 -0.1800  2.0824
 8249SOL     OW36205   2.856   4.299   2.246 -0.4397  0.1102 -0.2806
 8249SOL    HW136206   2.761   4.303   2.237 -0.5982  0.0705  1.4167
 8249SOL    HW236207   2.883   4.391   2.254 -1.1438  0.3774 -0.9890
 8250SOL     OW36208   4.400   3.976   2.270 -0.2424 -0.8150 -0.1756
 8250SOL    HW136209   4.444   3.902   2.229 -1.2549 -1.7114  0.3649
 8250SOL    HW236210   4.385   4.037   2.198  0.5712  1.8685  1.9207
 8251SOL     OW36211   3.389   3.706  16.651  0.1561 -0.4800 -0.4960
 8251SOL    HW136212   3.376   3.661  16.568 -3.8478 -0.5623  0.1758
 8251SOL    HW236213   3.483   3.724  16.646 -0.1039  0.7490 -1.1101
 8252SOL     OW36214   2.553   2.462   8.816 -0.2170  0.1014  0.5015
 8252SOL    HW136215   2.496   2.442   8.891 -2.5933 -0.3195 -1.4217
 8252SOL    HW236216   2.624   2.513   8.854 -1.9052  1.5053  1.7754
 8253SOL     OW36217   3.606   1.876   8.047  0.2731 -0.4459  1.1098
 8253SOL    HW136218   3.676   1.884   8.112  0.9182  2.6687  0.0340
 8253SOL    HW236219   3.542   1.940   8.077  0.9257  0.5134  0.4599
 8254SOL     OW36220   3.712   1.692   5.034  0.6001 -0.6225 -0.3341
 8254SOL    HW136221   3.750   1.723   5.116 -0.3609  2.2808 -0.9886
 8254SOL    HW236222   3.641   1.754   5.016  1.8934  1.9234  3.4305
 8255SOL     OW36223   0.168   3.162  13.506 -0.0976  0.0534  0.5848
 8255SOL    HW136224   0.145   3.224  13.576  0.9393 -1.3893  2.1837
 8255SOL    HW236225   0.113   3.205  13.440 -0.2694 -0.7378  0.2200
 8256SOL     OW36226   0.850   2.422   7.403  0.3155  0.2763  0.2960
 8256SOL    HW136227   0.785   2.359   7.434 -0.0721  1.6685  2.3354
 8256SOL    HW236228   0.929   2.368   7.398  0.3180  0.3262 -0.2184
 8257SOL     OW36229   4.370   0.648   7.452  0.0793  0.2315 -0.4340
 8257SOL    HW136230   4.350   0.639   7.359 -0.7465 -0.5081 -0.1910
 8257SOL    HW236231   4.283   0.666   7.489 -0.5437  1.2311 -2.4017
 8258SOL     OW36232   4.404   4.610  12.741  0.0480 -0.0584  0.1762
 8258SOL    HW136233   4.489   4.632  12.780  0.1609  0.9762 -0.6725
 8258SOL    HW236234   4.368   4.568  12.819  0.2757  1.0539  0.8813
 8259SOL     OW36235   1.578   3.915  11.181 -0.0923 -0.3726  1.0108
 8259SOL    HW136236   1.584   3.834  11.233  0.1727  0.7175  2.6813
 8259SOL    HW236237   1.493   3.949  11.207 -0.3778 -1.3508  1.3544
 8260SOL     OW36238   1.163   1.511   4.320  0.1693  0.9677 -0.0789
 8260SOL    HW136239   1.240   1.562   4.348  0.3387  0.6502  0.0414
 8260SOL    HW236240   1.204   1.434   4.281  0.7873  1.7689 -1.0052
 8261SOL     OW36241   2.783   1.177   5.286  0.0265  0.2060  0.4801
 8261SOL    HW136242   2.775   1.272   5.298 -0.9065  0.4306 -1.7504
 8261SOL    HW236243   2.701   1.133   5.308  2.5119 -4.4743  0.2492
 8262SOL     OW36244   0.952   4.648   1.410 -0.4028 -0.2581 -0.0438
 8262SOL    HW136245   0.871   4.697   1.424 -1.0606 -1.5671  0.7262
 8262SOL    HW236246   0.920   4.598   1.335 -2.0880 -2.1692  1.9427
 8263SOL     OW36247   2.311   0.855  13.438 -0.0772  0.4235 -0.0570
 8263SOL    HW136248   2.293   0.919  13.368 -2.1060  0.7593  0.7609
 8263SOL    HW236249   2.389   0.815  13.398 -0.5048 -1.5798  1.1407
 8264SOL     OW36250   2.307   1.864   2.619  0.0054 -0.2718 -0.2673
 8264SOL    HW136251   2.335   1.923   2.689 -0.9049  0.2861 -0.3628
 8264SOL    HW236252   2.386   1.843   2.569 -0.9768 -3.1187 -0.6059
 8265SOL     OW36253   0.765   0.166   8.935 -0.1923 -0.3323  0.0883
 8265SOL    HW136254   0.770   0.247   8.985 -0.3450 -0.7366  0.7603
 8265SOL    HW236255   0.755   0.200   8.846  0.3861  0.0893  0.1869
 8266SOL     OW36256   4.373   1.136   5.340  0.3053 -0.3145  0.0912
 8266SOL    HW136257   4.381   1.049   5.378 -1.7891 -0.5437  0.0074
 8266SOL    HW236258   4.284   1.157   5.369 -0.6515  0.4906 -3.3980
 8267SOL     OW36259   0.781   0.362  10.465 -0.0353 -0.6409  0.2203
 8267SOL    HW136260   0.760   0.288  10.521  0.5671 -0.2757  0.9385
 8267SOL    HW236261   0.857   0.337  10.412  0.7929  0.3061  0.9509
 8268SOL     OW36262   0.507   2.060   4.472 -0.3057  0.1740 -0.4996
 8268SOL    HW136263   0.589   2.015   4.491 -1.2558 -1.2636  0.2704
 8268SOL    HW236264   0.457   2.049   4.553  1.0487  0.6408  0.3907
 8269SOL     OW36265   4.464   2.661   3.404 -0.1268  0.2758 -0.1046
 8269SOL    HW136266   4.398   2.632   3.341 -0.7437  1.4695 -0.0106
 8269SOL    HW236267   4.406   2.701   3.469 -1.4932 -0.8022 -0.6526
 8270SOL     OW36268   2.750   2.086   5.287 -0.6656  0.6383 -0.3327
 8270SOL    HW136269   2.838   2.108   5.256  0.5726 -1.3295  1.7113
 8270SOL    HW236270   2.742   1.996   5.254 -1.9865  0.6351 -0.0036
 8271SOL     OW36271   3.456   4.601   8.001 -0.1018 -0.8589 -0.8431
 8271SOL    HW136272   3.484   4.663   7.934  0.4181 -0.7225 -0.5009
 8271SOL    HW236273   3.543   4.562   8.012  0.1822  0.3070  1.1328
 8272SOL     OW36274   0.951   3.242   2.769  0.2027  0.2905 -0.3884
 8272SOL    HW136275   0.924   3.329   2.741 -1.3870 -0.3578 -0.9156
 8272SOL    HW236276   0.983   3.263   2.857  0.0506 -0.1307 -0.2318
 8273SOL     OW36277   1.502   3.390  13.424  0.0414 -0.1826 -0.2985
 8273SOL    HW136278   1.561   3.418  13.354  0.4328  0.2863  0.2158
 8273SOL    HW236279   1.502   3.479  13.459 -0.1428 -0.3889  0.2295
 8274SOL     OW36280   0.937   3.086  15.285  0.4365  0.7778 -0.2380
 8274SOL    HW136281   0.880   3.158  15.313 -1.5371 -0.0370 -2.1700
 8274SOL    HW236282   0.884   3.046  15.216  0.6385  2.0741 -1.1480
 8275SOL     OW36283   1.206   1.826   2.179  0.5759  0.4969  0.1626
 8275SOL    HW136284   1.298   1.835   2.152  0.4468 -0.4702 -0.5988
 8275SOL    HW236285   1.202   1.856   2.270 -0.0543 -1.1136  0.6504
 8276SOL     OW36286   2.334   3.306   2.320 -0.3426  0.3698 -0.3692
 8276SOL    HW136287   2.267   3.291   2.253 -0.6978  0.7922 -0.1111
 8276SOL    HW236288   2.347   3.401   2.323  1.0798  0.1615 -0.0143
 8277SOL     OW36289   0.500   0.616   3.619 -0.4558 -0.4545  0.4748
 8277SOL    HW136290   0.471   0.554   3.552  1.0243 -0.8189  0.1562
 8277SOL    HW236291   0.570   0.562   3.655 -0.2740 -2.2699 -2.5671
 8278SOL     OW36292   3.214   0.843   2.712  0.1371 -0.1898 -0.4799
 8278SOL    HW136293   3.259   0.928   2.709 -0.0033 -0.1146 -0.4747
 8278SOL    HW236294   3.245   0.800   2.792  1.1546  1.2921 -0.0654
 8279SOL     OW36295   2.286   3.922   1.230  0.1957 -0.1633  0.2323
 8279SOL    HW136296   2.278   3.829   1.212 -0.6996 -0.0836  0.2218
 8279SOL    HW236297   2.370   3.918   1.276 -0.3892 -4.1058  0.9559
 8280SOL     OW36298   1.582   0.122  11.481 -0.3265  0.1448  0.2370
 8280SOL    HW136299   1.595   0.207  11.524 -1.0534  0.6076 -0.4688
 8280SOL    HW236300   1.541   0.159  11.403 -1.6215  0.4313  1.0355
 8281SOL     OW36301   1.015   4.406   2.750  0.0586  0.2820 -0.2594
 8281SOL    HW136302   1.100   4.394   2.709 -0.2330  0.4412 -0.9061
 8281SOL    HW236303   0.967   4.445   2.676  1.2644 -0.6897 -1.5421
 8282SOL     OW36304   0.963   2.018   9.321 -0.5292 -0.1754  0.5624
 8282SOL    HW136305   0.946   2.083   9.253  0.5129 -0.9764 -0.4747
 8282SOL    HW236306   1.058   2.012   9.320 -0.6659 -2.2452 -2.4873
 8283SOL     OW36307   4.621   0.034   7.922 -0.2782 -0.1356 -0.3278
 8283SOL    HW136308   4.676   0.084   7.861  0.1909 -0.1274  0.1020
 8283SOL    HW236309   4.579   4.698   7.859 -0.4994 -0.0682 -0.2434
 8284SOL     OW36310   1.268   4.099   8.264 -0.4081 -0.4877 -0.1824
 8284SOL    HW136311   1.303   4.179   8.302 -2.7056  1.1801 -1.6350
 8284SOL    HW236312   1.208   4.134   8.198  0.6454  0.1520 -0.7932
 8285SOL     OW36313   1.175   1.763   0.009  0.1191 -0.1181 -0.2568
 8285SOL    HW136314   1.191   1.857   0.002  0.3349 -0.0488  1.1827
 8285SOL    HW236315   1.125   1.756   0.090  1.0962  1.3365  0.4729
 8286SOL     OW36316   0.733   1.257   5.143 -0.6184  0.8058  0.2439
 8286SOL    HW136317   0.662   1.194   5.141 -0.3618  0.4475  2.2895
 8286SOL    HW236318   0.687   1.320   5.199 -0.0592  2.0973 -0.7452
 8287SOL     OW36319   0.486   4.283   7.348  0.2735 -0.0394  0.4160
 8287SOL    HW136320   0.547   4.210   7.338  0.4405  0.4118 -1.8726
 8287SOL    HW236321   0.503   4.309   7.439 -1.5413 -1.0232  1.0184
 8288SOL     OW36322   4.697   1.785   0.215  0.2441 -0.2764  0.0967
 8288SOL    HW136323   4.618   1.837   0.226 -0.2663 -0.9649 -0.2828
 8288SOL    HW236324   4.710   1.763   0.308 -0.2670 -0.7835  0.0474
 8289SOL     OW36325   3.450   4.463   2.866  0.1073 -0.1137 -0.0354
 8289SOL    HW136326   3.514   4.534   2.862 -0.7507  0.5696 -1.4378
 8289SOL    HW236327   3.404   4.492   2.944 -0.5770 -1.3036  0.0014
 8290SOL     OW36328   0.974   1.953  15.013  0.6660  0.0331  0.3079
 8290SOL    HW136329   0.982   2.043  14.981 -0.0952  0.3590  1.0519
 8290SOL    HW236330   1.041   1.901  14.969 -0.4114 -1.2096  0.1331
 8291SOL     OW36331   3.926   0.971   4.890  0.3201  0.2578 -0.2016
 8291SOL    HW136332   3.971   1.032   4.832  0.8418 -1.9693 -2.1468
 8291SOL    HW236333   3.913   1.023   4.969  0.3528  0.9189 -0.6343
 8292SOL     OW36334   0.427   1.917  13.943 -0.1856 -0.4129 -0.3891
 8292SOL    HW136335   0.396   1.934  13.854 -3.6119 -0.4733  0.8087
 8292SOL    HW236336   0.373   1.967  14.004 -1.2933 -1.8633 -0.1926
 8293SOL     OW36337   2.211   4.552   1.225  0.7494  0.0956 -0.3918
 8293SOL    HW136338   2.271   4.484   1.255  0.7331  0.2140 -0.0914
 8293SOL    HW236339   2.170   4.588   1.303  0.9126  0.6831 -0.5739
 8294SOL     OW36340   3.428   1.081  10.549  0.2373 -0.0590 -0.6593
 8294SOL    HW136341   3.445   1.048  10.461 -0.8992  1.9272 -1.6303
 8294SOL    HW236342   3.338   1.047  10.553  0.3777 -0.3465 -0.0488
 8295SOL     OW36343   0.196   0.615   5.284  0.1428  0.3442 -1.1470
 8295SOL    HW136344   0.182   0.652   5.197  1.3655  0.7621 -1.1656
 8295SOL    HW236345   0.168   0.692   5.333 -0.2882  0.2469 -1.2351
 8296SOL     OW36346   3.181   0.724  15.594  0.3736 -0.7964 -0.3480
 8296SOL    HW136347   3.134   0.742  15.675  0.9515 -1.1850  0.0806
 8296SOL    HW236348   3.263   0.771  15.612  0.3091 -1.9793  3.1375
 8297SOL     OW36349   3.602   2.605  14.908 -0.8643 -0.5556  0.7736
 8297SOL    HW136350   3.576   2.620  14.817  0.4146 -2.7915  0.0645
 8297SOL    HW236351   3.597   2.510  14.910 -3.9492 -0.4281 -0.9421
 8298SOL     OW36352   4.449   1.488   7.631  0.2775 -0.2290  0.2997
 8298SOL    HW136353   4.541   1.502   7.610  0.5866 -1.7068  0.7244
 8298SOL    HW236354   4.408   1.523   7.552 -1.4655  0.1238  1.3507
 8299SOL     OW36355   3.062   0.982   5.709 -0.3633 -0.1134 -0.0942
 8299SOL    HW136356   3.144   0.974   5.660 -0.5764 -0.6374 -0.3671
 8299SOL    HW236357   3.013   1.050   5.663 -0.8158 -0.6217 -0.3654
 8300SOL     OW36358   4.547   2.464   0.302 -0.5715  0.4381  0.3114
 8300SOL    HW136359   4.523   2.546   0.259  1.4445  1.1904  0.6154
 8300SOL    HW236360   4.529   2.392   0.242 -0.0334  0.1698  0.4663
 8301SOL     OW36361   4.234   4.302   4.058  0.1287  0.3155 -0.1332
 8301SOL    HW136362   4.201   4.378   4.011  0.6454 -0.8300 -2.3253
 8301SOL    HW236363   4.215   4.229   4.000  0.4629  0.6463 -0.6657
 8302SOL     OW36364   4.453   4.665   8.877  0.2231  0.3654  0.2634
 8302SOL    HW136365   4.398   0.009   8.836  0.1310 -0.5361 -1.0754
 8302SOL    HW236366   4.388   4.620   8.931 -0.2867  0.9399  0.1236
 8303SOL     OW36367   1.286   4.720   5.523  0.2577  0.1682  0.5096
 8303SOL    HW136368   1.222   4.670   5.472  1.1433 -0.0316 -0.4027
 8303SOL    HW236369   1.222   0.039   5.581 -0.4212  0.5190 -0.4922
 8304SOL     OW36370   3.288   4.261   7.471 -0.4823 -0.2007 -0.9605
 8304SOL    HW136371   3.342   4.330   7.433  0.1661 -1.4391 -2.3148
 8304SOL    HW236372   3.339   4.224   7.543 -0.5687  0.1670 -0.7178
 8305SOL     OW36373   3.891   1.874  13.555 -1.1509  0.1420  0.4287
 8305SOL    HW136374   3.855   1.810  13.616 -0.1354 -0.5366  0.3251
 8305SOL    HW236375   3.984   1.853  13.565 -1.5121 -1.0379  1.2961
 8306SOL     OW36376   4.617   2.995   8.530  0.7805 -0.0958 -0.0453
 8306SOL    HW136377   4.562   2.919   8.508  1.8103 -0.5684 -1.0378
 8306SOL    HW236378   4.580   3.013   8.616 -0.8554 -0.0469 -0.7710
 8307SOL     OW36379   2.485   4.330   3.311 -0.6674 -0.1697 -0.1062
 8307SOL    HW136380   2.494   4.266   3.382  0.0995  0.0740  0.0102
 8307SOL    HW236381   2.395   4.359   3.328 -0.5801 -0.0645  0.1859
 8308SOL     OW36382   0.446   2.440   1.582  0.0931 -0.6651 -0.3371
 8308SOL    HW136383   0.416   2.353   1.557 -1.2290 -0.4379  0.4544
 8308SOL    HW236384   0.385   2.480   1.644  0.6785 -2.0783  1.1407
 8309SOL     OW36385   1.186   1.993   8.964 -0.1573  0.7487 -0.9499
 8309SOL    HW136386   1.186   2.088   8.969  0.0964  0.6913  0.0135
 8309SOL    HW236387   1.190   1.968   9.056  2.1717  0.1064 -1.2249
 8310SOL     OW36388   0.375   3.499   9.058 -0.0308  0.5605 -0.0779
 8310SOL    HW136389   0.415   3.583   9.083  0.7686 -1.0233  3.9152
 8310SOL    HW236390   0.459   3.454   9.051  0.3534  1.5895 -2.2538
 8311SOL     OW36391   1.769   0.064   8.703  0.1425  0.2169  0.3358
 8311SOL    HW136392   1.678   0.088   8.719 -0.0503  0.2819 -0.8289
 8311SOL    HW236393   1.765   4.691   8.691  1.1751  0.5062 -2.3980
 8312SOL     OW36394   4.485   4.346   8.969  0.4481 -0.0285  0.3064
 8312SOL    HW136395   4.460   4.345   8.877  0.4341  1.8066  0.2867
 8312SOL    HW236396   4.577   4.371   8.960  0.8035 -1.3727  0.2018
 8313SOL     OW36397   3.399   4.273   2.477  0.1394  0.5700 -0.5543
 8313SOL    HW136398   3.394   4.360   2.516  0.2613  0.3843 -0.1243
 8313SOL    HW236399   3.432   4.289   2.389  1.1505  1.6355  0.0309
 8314SOL     OW36400   4.548   3.574   7.562 -0.0969  0.0309 -0.2602
 8314SOL    HW136401   4.496   3.543   7.489  0.9668 -1.6414 -0.3079
 8314SOL    HW236402   4.476   3.571   7.625 -0.9767  0.6436 -1.2449
 8315SOL     OW36403   0.813   3.379   7.652 -0.0610 -0.0877  0.5601
 8315SOL    HW136404   0.897   3.334   7.646 -0.6597 -0.9996 -0.8775
 8315SOL    HW236405   0.762   3.328   7.590  0.6014 -0.8915  0.6730
 8316SOL     OW36406   4.477   0.749  15.618 -0.5906 -0.3850  0.1537
 8316SOL    HW136407   4.394   0.720  15.657 -1.7835  1.7352 -0.7943
 8316SOL    HW236408   4.535   0.674  15.627 -1.4318 -1.0595 -0.0898
 8317SOL     OW36409   0.774   1.095   8.483 -0.4960  0.1263  0.0771
 8317SOL    HW136410   0.787   1.190   8.487 -3.6344  0.5659 -0.1479
 8317SOL    HW236411   0.742   1.103   8.393 -0.4804 -3.1643 -0.2402
 8318SOL     OW36412   1.226   1.061  13.228  0.0256 -0.3555  0.1346
 8318SOL    HW136413   1.210   1.070  13.134  2.1983 -0.5121 -0.2508
 8318SOL    HW236414   1.320   1.047  13.218  0.0968 -1.1092  1.9100
 8319SOL     OW36415   4.507   0.501   1.963  0.1039 -0.2919  0.1613
 8319SOL    HW136416   4.538   0.432   1.904  1.6097  1.1014 -0.6862
 8319SOL    HW236417   4.438   0.536   1.906  0.5012 -0.9610 -0.7295
 8320SOL     OW36418   3.680   3.369   4.372 -0.0905 -0.4194  0.4588
 8320SOL    HW136419   3.673   3.376   4.277 -1.4661 -3.0497  0.3776
 8320SOL    HW236420   3.769   3.405   4.380  0.6851 -1.9384 -1.2734
 8321SOL     OW36421   2.408   2.119   1.627 -0.1259  0.3434  0.7971
 8321SOL    HW136422   2.416   2.128   1.722 -1.5667 -1.2944  1.0812
 8321SOL    HW236423   2.357   2.195   1.602 -1.9875 -1.4002 -0.6991
 8322SOL     OW36424   3.115   0.224   3.623 -0.0757  0.0086  0.1977
 8322SOL    HW136425   3.112   0.170   3.545  0.2287 -0.5212  0.5486
 8322SOL    HW236426   3.203   0.261   3.619 -0.4746  0.9722  0.3037
 8323SOL     OW36427   1.121   1.285  11.854  0.1422  0.4886 -0.4280
 8323SOL    HW136428   1.139   1.298  11.761  1.3641  2.7935  0.1353
 8323SOL    HW236429   1.206   1.271  11.895  0.7590  0.5588 -1.6860
 8324SOL     OW36430   4.301   0.948   3.194 -0.4140  0.4938  0.4755
 8324SOL    HW136431   4.255   0.869   3.219  0.3963 -0.0756  0.1640
 8324SOL    HW236432   4.306   1.002   3.273 -1.8983  2.0054 -0.4576
 8325SOL     OW36433   1.094   4.428   9.996  0.5210  0.7117  0.0730
 8325SOL    HW136434   1.157   4.405  10.065 -0.9941  1.2544  1.6377
 8325SOL    HW236435   1.150   4.448   9.921  1.3691  0.6093  0.6748
 8326SOL     OW36436   1.049   2.063  13.365  0.0540 -0.4299  0.3282
 8326SOL    HW136437   1.062   2.157  13.360  2.2967 -0.7124  0.6296
 8326SOL    HW236438   1.109   2.045  13.438 -2.6702  1.1633  2.9477
 8327SOL     OW36439   1.736   0.766  17.677  0.0487  0.3010 -0.0011
 8327SOL    HW136440   1.658   0.739  17.629 -0.4161 -1.0129  1.4722
 8327SOL    HW236441   1.770   0.816  17.603  0.5187  1.2932  0.8908
 8328SOL     OW36442   4.101   0.046   3.509  0.4637 -0.8474 -0.4098
 8328SOL    HW136443   4.064   0.008   3.588  2.4897 -0.8942  0.5341
 8328SOL    HW236444   4.196   0.049   3.525 -0.0477 -0.3829  2.3712
 8329SOL     OW36445   1.955   1.919   6.708 -0.4040 -0.4674  0.0093
 8329SOL    HW136446   1.871   1.872   6.715 -2.2925  2.8529 -0.4671
 8329SOL    HW236447   1.936   2.010   6.732  1.3664  0.1222 -0.8687
 8330SOL     OW36448   2.731   2.431   4.666 -0.5580  0.0104 -0.2357
 8330SOL    HW136449   2.683   2.376   4.728  2.6180 -1.9128  0.5518
 8330SOL    HW236450   2.662   2.491   4.639 -0.5050  0.4209  0.5276
 8331SOL     OW36451   0.245   4.572  15.988 -0.2392  0.2643  0.4435
 8331SOL    HW136452   0.268   4.647  16.042 -0.4228  1.5059 -1.1903
 8331SOL    HW236453   0.150   4.586  15.989 -0.3989 -0.7320 -1.9344
 8332SOL     OW36454   0.483   0.052  13.265  0.3884 -0.3126 -0.1321
 8332SOL    HW136455   0.507   4.703  13.324 -0.5307  0.8002  1.5821
 8332SOL    HW236456   0.554   0.113  13.286 -0.3965  0.8377 -0.7844
 8333SOL     OW36457   3.111   0.417   1.172 -0.5269  0.4440  0.1602
 8333SOL    HW136458   3.062   0.344   1.210 -0.6353  0.1698 -0.5129
 8333SOL    HW236459   3.093   0.484   1.238 -1.5954 -0.6495  0.9933
 8334SOL     OW36460   2.111   4.632   8.308  0.2840  0.5502  0.3028
 8334SOL    HW136461   2.198   4.641   8.269 -1.0847  2.8851 -2.1599
 8334SOL    HW236462   2.133   4.662   8.396  1.2038 -0.5533  0.4586
 8335SOL     OW36463   3.548   4.127   3.493  0.5694 -0.3301  0.3599
 8335SOL    HW136464   3.599   4.114   3.413  0.7349 -0.0027  0.4136
 8335SOL    HW236465   3.497   4.046   3.498  1.0377 -0.6563 -0.2355
 8336SOL     OW36466   1.213   0.128   2.424 -0.1742 -0.2852 -0.8110
 8336SOL    HW136467   1.288   0.086   2.381 -0.3956 -2.3355  0.7988
 8336SOL    HW236468   1.149   0.124   2.353  1.5777 -1.0362 -2.3606
 8337SOL     OW36469   2.646   2.865   8.576 -0.1544 -0.2027  0.1732
 8337SOL    HW136470   2.637   2.949   8.619 -2.0650  0.6274 -1.8388
 8337SOL    HW236471   2.728   2.834   8.615 -1.1854 -1.6998  1.1609
 8338SOL     OW36472   3.741   3.566   1.898 -0.1114 -0.3491 -0.2912
 8338SOL    HW136473   3.784   3.502   1.954  0.8036 -0.6962 -1.4063
 8338SOL    HW236474   3.745   3.520   1.814 -2.0006 -0.3406 -0.3912
 8339SOL     OW36475   2.193   2.880   2.673 -0.1043  0.5581  0.1423
 8339SOL    HW136476   2.129   2.946   2.699 -1.1880 -0.0477 -0.9596
 8339SOL    HW236477   2.173   2.868   2.580 -1.0952  0.0494  0.4163
 8340SOL     OW36478   3.792   3.015   3.020 -0.8698  0.0669 -0.4014
 8340SOL    HW136479   3.793   3.021   2.924 -0.5493 -2.1601 -0.5578
 8340SOL    HW236480   3.769   3.104   3.045 -0.3127  0.1838 -0.3020
 8341SOL     OW36481   0.599   0.945   2.581 -0.3244  0.3145 -0.6303
 8341SOL    HW136482   0.591   0.915   2.490  1.1018 -1.1904 -0.2666
 8341SOL    HW236483   0.631   0.866   2.625 -1.0151 -0.4091 -1.4194
 8342SOL     OW36484   2.128   3.899   2.842 -0.0662 -0.3884  0.4860
 8342SOL    HW136485   2.109   3.892   2.935 -0.7137 -0.1271  0.3738
 8342SOL    HW236486   2.203   3.958   2.847 -0.8988  0.6571  0.4533
 8343SOL     OW36487   2.550   4.515   9.420 -0.4317 -0.1716 -0.5026
 8343SOL    HW136488   2.530   4.428   9.386 -0.1680 -0.2508 -0.4504
 8343SOL    HW236489   2.479   4.573   9.392 -0.6781  0.4122  1.3148
 8344SOL     OW36490   4.678   0.210   4.120  0.1454  0.1599 -0.0008
 8344SOL    HW136491   0.021   0.140   4.127  0.8225  0.9472  1.5042
 8344SOL    HW236492   0.008   0.285   4.148  0.1510  0.4927 -0.9047
 8345SOL     OW36493   0.551   4.158   2.038  0.4284 -0.0123  0.2105
 8345SOL    HW136494   0.466   4.177   1.998  0.9547  0.8028 -0.5162
 8345SOL    HW236495   0.537   4.067   2.065 -1.9952  0.7147  1.4366
 8346SOL     OW36496   0.072   2.327   9.061  0.2657  0.3855  0.2851
 8346SOL    HW136497   0.138   2.355   9.125 -0.0758 -1.9334  1.6633
 8346SOL    HW236498   4.720   2.336   9.121  0.4293 -1.2449  0.7431
 8347SOL     OW36499   1.280   1.145   8.847 -0.0058  0.2032 -0.2266
 8347SOL    HW136500   1.229   1.152   8.928  1.9991  1.6090  0.9016
 8347SOL    HW236501   1.324   1.229   8.851  0.3842 -0.1305  2.6005
 8348SOL     OW36502   2.096   1.504  16.496  0.4454  0.0211 -0.4050
 8348SOL    HW136503   2.097   1.430  16.555  0.1900 -1.5633 -2.3840
 8348SOL    HW236504   2.036   1.563  16.541  0.9635  1.6428 -1.8098
 8349SOL     OW36505   3.049   4.207  11.842  0.0294 -0.3579  0.7536
 8349SOL    HW136506   3.136   4.167  11.841  0.8877  1.5202  1.6208
 8349SOL    HW236507   3.000   4.133  11.878  0.2411 -1.4271 -1.1433
 8350SOL     OW36508   2.914   3.281   4.965  0.4086 -0.2026  0.1884
 8350SOL    HW136509   2.896   3.314   4.877 -0.5803 -0.8247  0.1599
 8350SOL    HW236510   2.944   3.362   5.008 -1.1648  0.3665  0.1877
 8351SOL     OW36511   4.196   3.288   7.752  0.0882  0.5206  0.0191
 8351SOL    HW136512   4.121   3.311   7.697  0.5518  0.2524 -0.7274
 8351SOL    HW236513   4.222   3.205   7.712  0.6349  0.2503  0.9286
 8352SOL     OW36514   3.813   1.090   2.813  0.0686 -0.2266  0.2424
 8352SOL    HW136515   3.832   1.027   2.882  1.2596  0.5505  0.6222
 8352SOL    HW236516   3.724   1.110   2.842 -0.8962 -0.6946 -2.4273
 8353SOL     OW36517   4.413   0.648   9.681  0.1795 -0.4649 -0.2856
 8353SOL    HW136518   4.419   0.694   9.598 -2.1957  3.2040  1.5707
 8353SOL    HW236519   4.505   0.629   9.699  0.7006  0.7582 -1.7135
 8354SOL     OW36520   3.595   0.546   2.523 -0.3232 -0.0427  0.4462
 8354SOL    HW136521   3.576   0.574   2.434 -0.3084  2.6300  1.2922
 8354SOL    HW236522   3.611   0.633   2.558 -1.1292  0.4013 -0.2872
 8355SOL     OW36523   1.864   3.196  17.266 -0.4356  0.2713 -0.1997
 8355SOL    HW136524   1.789   3.194  17.325  0.3765  0.1991  0.8263
 8355SOL    HW236525   1.838   3.182  17.175 -1.1010  2.4002 -0.3409
 8356SOL     OW36526   1.901   1.849   4.616 -0.2175  0.1236  0.0625
 8356SOL    HW136527   1.809   1.873   4.601  0.4061  1.3061 -1.8210
 8356SOL    HW236528   1.889   1.768   4.566 -1.3133 -0.7647  1.7684
 8357SOL     OW36529   3.080   0.549   8.275 -0.3606  0.0638 -0.3610
 8357SOL    HW136530   3.085   0.638   8.310 -0.5679  0.5470 -1.5599
 8357SOL    HW236531   3.050   0.503   8.354  1.1063 -0.2475  0.0132
 8358SOL     OW36532   4.097   1.800  17.313 -0.3497  0.4210  0.2755
 8358SOL    HW136533   4.177   1.809  17.261  0.4042 -2.4548  0.9368
 8358SOL    HW236534   4.047   1.741  17.256 -0.4470  0.8769 -0.1066
 8359SOL     OW36535   2.026   1.698   8.912  0.2549 -0.4807 -0.0782
 8359SOL    HW136536   2.018   1.665   8.823  0.4732 -0.5111 -0.0877
 8359SOL    HW236537   2.011   1.792   8.898 -0.5589 -0.7443 -0.9305
 8360SOL     OW36538   2.929   0.509   6.845 -0.6218  0.3164 -0.0639
 8360SOL    HW136539   2.843   0.543   6.819 -0.3168 -0.0218 -1.4781
 8360SOL    HW236540   2.954   0.445   6.779 -1.6883  0.6846 -0.8133
 8361SOL     OW36541   4.421   1.557  17.157  0.7172  0.0159 -0.3639
 8361SOL    HW136542   4.514   1.543  17.169  0.5049 -0.3337  0.8051
 8361SOL    HW236543   4.384   1.469  17.162 -0.7258  0.6269 -0.0662
 8362SOL     OW36544   0.562   2.293  16.553 -0.2044  0.1522 -0.4092
 8362SOL    HW136545   0.617   2.309  16.629 -0.8912  2.1904 -0.3490
 8362SOL    HW236546   0.601   2.213  16.516 -0.2396 -0.8602  1.7666
 8363SOL     OW36547   0.025   4.230   3.105  0.5748 -0.2808  0.2203
 8363SOL    HW136548   0.094   4.297   3.101  0.5830 -0.2250  1.4563
 8363SOL    HW236549   4.721   4.233   3.013 -0.1496 -1.3553  0.3988
 8364SOL     OW36550   0.947   4.049   5.046 -0.1024  0.2366  0.2004
 8364SOL    HW136551   0.905   4.062   5.131  0.4193  0.8497  0.3724
 8364SOL    HW236552   0.965   3.956   5.051  2.1472  0.5564 -1.7765
 8365SOL     OW36553   1.525   2.591   6.871  0.2090  0.6969  0.5131
 8365SOL    HW136554   1.480   2.516   6.833 -1.3457  0.7866  2.1572
 8365SOL    HW236555   1.594   2.545   6.920  0.1492  0.1026  0.0288
 8366SOL     OW36556   3.024   0.423   3.841 -0.0456 -0.3911  0.1075
 8366SOL    HW136557   3.025   0.371   3.761 -0.6030 -0.2306 -0.0050
 8366SOL    HW236558   3.081   0.500   3.832 -1.4045  0.2843 -2.7422
 8367SOL     OW36559   1.975   2.928   9.279  0.2598 -0.5271 -0.1260
 8367SOL    HW136560   1.941   2.857   9.226 -0.2179  0.0403 -0.5779
 8367SOL    HW236561   1.923   3.004   9.253  1.9079  0.3412 -0.8507
 8368SOL     OW36562   0.237   0.560   2.219  0.1289  0.0107 -0.6990
 8368SOL    HW136563   0.144   0.586   2.219 -0.3508 -1.6819 -0.1887
 8368SOL    HW236564   0.270   0.628   2.160  2.0927 -0.1685  0.2252
 8369SOL     OW36565   3.534   4.410   5.804 -0.3127  0.4483 -0.6572
 8369SOL    HW136566   3.494   4.474   5.863  2.3027  0.7174  0.8321
 8369SOL    HW236567   3.627   4.406   5.828 -1.9804  2.7960  6.1476
 8370SOL     OW36568   1.253   4.595   3.844  0.3260  0.0299 -0.0402
 8370SOL    HW136569   1.242   4.500   3.845  1.3764 -0.0882 -0.1790
 8370SOL    HW236570   1.222   4.616   3.756 -0.3683  1.2760  0.4958
 8371SOL     OW36571   3.578   1.937  13.105  0.6225 -0.0676  0.4187
 8371SOL    HW136572   3.646   1.964  13.167 -2.2387  0.6869  3.2175
 8371SOL    HW236573   3.626   1.870  13.055  0.3068 -1.8478  2.4879
 8372SOL     OW36574   4.223   2.241   4.796  0.0248 -0.2591 -0.3764
 8372SOL    HW136575   4.274   2.165   4.770  0.5764  0.0526 -0.1928
 8372SOL    HW236576   4.165   2.247   4.720 -0.2082 -0.8700 -0.2463
 8373SOL     OW36577   4.494   2.242  15.452  0.9186 -0.1892 -0.6316
 8373SOL    HW136578   4.401   2.219  15.453  1.4715 -2.5501 -3.0775
 8373SOL    HW236579   4.515   2.238  15.359  3.1833  0.0020 -0.1428
 8374SOL     OW36580   4.465   0.884   2.867 -0.0002  0.1516 -0.3626
 8374SOL    HW136581   4.408   0.899   2.791  0.4082 -2.2364 -1.1391
 8374SOL    HW236582   4.537   0.945   2.850  2.1534 -2.0197  0.9462
 8375SOL     OW36583   1.125   0.378  13.567  0.4851  0.3342 -0.1921
 8375SOL    HW136584   1.121   0.425  13.483  0.6025 -1.8858 -1.4460
 8375SOL    HW236585   1.091   0.446  13.624 -0.3318 -1.6241  1.6438
 8376SOL     OW36586   2.434   3.416   5.606 -0.6934 -0.4408  0.6408
 8376SOL    HW136587   2.417   3.463   5.688 -0.7436  1.7506 -0.6262
 8376SOL    HW236588   2.522   3.386   5.630 -0.4223 -0.3194 -0.2069
 8377SOL     OW36589   1.739   1.407  12.284  0.1795 -0.2407 -0.0590
 8377SOL    HW136590   1.753   1.493  12.325 -0.4591  0.0289 -0.4029
 8377SOL    HW236591   1.826   1.373  12.305  0.6805  2.4157  2.2998
 8378SOL     OW36592   3.683   1.040   7.450 -0.0166  0.7766 -0.2762
 8378SOL    HW136593   3.761   0.986   7.460  1.9036  3.1849 -2.3576
 8378SOL    HW236594   3.617   0.972   7.437  0.2748  1.0995 -3.3566
 8379SOL     OW36595   3.434   2.040   8.161 -0.1784 -0.0002  0.2208
 8379SOL    HW136596   3.437   2.121   8.212 -0.3064  0.6764 -0.8402
 8379SOL    HW236597   3.340   2.022   8.162 -0.2327  0.2624 -0.0575
 8380SOL     OW36598   4.689   2.909   9.842 -0.2308  0.1038  0.3798
 8380SOL    HW136599   4.608   2.915   9.893 -1.7238  1.6629 -2.1835
 8380SOL    HW236600   4.709   2.820   9.869 -1.5245 -0.2654  0.1082
 8381SOL     OW36601   0.429   2.992   4.109 -0.0364 -0.1276 -0.2666
 8381SOL    HW136602   0.401   2.979   4.019  0.4343 -0.0158 -0.4277
 8381SOL    HW236603   0.493   3.063   4.105  0.5326 -0.7259 -1.7563
 8382SOL     OW36604   1.266   4.688   4.390 -0.3158  0.2431 -0.0136
 8382SOL    HW136605   1.177   4.653   4.385  1.0350 -3.1396 -0.4989
 8382SOL    HW236606   1.265   0.061   4.389  1.4886  0.2779  2.9480
 8383SOL     OW36607   3.543   1.869   7.263 -0.2175  0.0590  0.2957
 8383SOL    HW136608   3.621   1.824   7.232 -0.4907  0.6426 -1.2731
 8383SOL    HW236609   3.562   1.959   7.235  2.2887 -0.5654 -0.0224
 8384SOL     OW36610   4.718   2.181   3.038 -0.4632  0.1791 -0.7370
 8384SOL    HW136611   0.074   2.128   3.051 -0.3922  0.6425  0.7665
 8384SOL    HW236612   4.671   2.133   2.969  1.6544 -1.8753 -0.7417
 8385SOL     OW36613   4.707   3.396   8.811  0.1608 -0.3461 -0.4384
 8385SOL    HW136614   4.709   3.414   8.905  0.6048 -1.4465 -0.2414
 8385SOL    HW236615   4.618   3.429   8.801  0.9905  1.1810 -2.7722
 8386SOL     OW36616   1.917   0.858   7.471  0.5303 -0.0011 -0.5148
 8386SOL    HW136617   1.867   0.780   7.447 -0.2034 -0.2747  1.9987
 8386SOL    HW236618   1.965   0.833   7.549 -0.5738 -2.0212 -0.4813
 8387SOL     OW36619   0.092   1.496  12.661  0.2068  0.0318  0.2942
 8387SOL    HW136620   0.077   1.464  12.750  0.3908  2.7318  1.2960
 8387SOL    HW236621   0.037   1.574  12.660  0.4662  0.2066 -0.6762
 8388SOL     OW36622   1.200   0.203   5.967 -0.0609  0.0295  0.5225
 8388SOL    HW136623   1.233   0.118   5.937  1.1911  0.6112  0.2510
 8388SOL    HW236624   1.282   0.249   5.981 -0.2669  0.5672 -0.0289
 8389SOL     OW36625   3.963   0.684   6.743  0.8158 -0.0173  0.3801
 8389SOL    HW136626   4.029   0.619   6.716  1.8706  1.7898 -1.3604
 8389SOL    HW236627   3.883   0.642   6.711  1.6075 -1.1741 -0.0983
 8390SOL     OW36628   1.876   2.024   2.789  0.1126 -0.6027 -0.0847
 8390SOL    HW136629   1.857   2.040   2.881 -1.7827 -1.6845 -0.3053
 8390SOL    HW236630   1.886   1.929   2.804  0.3695 -0.4707  0.5763
 8391SOL     OW36631   3.670   2.777   8.009  0.0933 -0.4035 -0.1821
 8391SOL    HW136632   3.742   2.730   8.052 -0.0461 -0.1443  0.3314
 8391SOL    HW236633   3.698   2.770   7.917 -0.1942  1.0168 -0.3777
 8392SOL     OW36634   4.450   1.939   8.699 -0.2111  0.3466 -0.2727
 8392SOL    HW136635   4.385   1.869   8.707  1.9373 -1.5319  1.0570
 8392SOL    HW236636   4.407   2.015   8.661  0.5844  0.6373 -0.5901
 8393SOL     OW36637   3.819   1.257   8.694  0.2712  0.1019 -0.7490
 8393SOL    HW136638   3.794   1.336   8.647 -1.3076  0.9355  1.4981
 8393SOL    HW236639   3.754   1.204   8.648 -0.7124  1.9419 -1.4797
 8394SOL     OW36640   0.872   1.857   3.083 -0.0808 -0.4965 -0.0395
 8394SOL    HW136641   0.848   1.873   3.174  2.9913  0.8547  0.5219
 8394SOL    HW236642   0.967   1.850   3.086 -0.2154 -2.6567 -1.0679
 8395SOL     OW36643   3.478   2.087   7.440 -0.2459 -0.4149 -0.1517
 8395SOL    HW136644   3.497   2.049   7.526 -0.9211  0.3976  0.3570
 8395SOL    HW236645   3.569   2.088   7.412 -0.9975 -0.2390 -2.6171
 8396SOL     OW36646   0.173   2.520  14.983 -0.1654 -0.0190  0.2846
 8396SOL    HW136647   0.247   2.581  14.987  0.8724 -1.3163  0.7603
 8396SOL    HW236648   0.156   2.495  15.074 -0.8583 -0.8762 -0.0756
 8397SOL     OW36649   2.907   4.172   4.849  0.0104 -0.3526  0.1953
 8397SOL    HW136650   2.977   4.119   4.886 -0.0186  0.1122  0.9259
 8397SOL    HW236651   2.941   4.261   4.849 -2.5565  0.6390 -1.9549
 8398SOL     OW36652   3.993   0.934   0.560  0.0458  0.4097  0.0370
 8398SOL    HW136653   4.004   0.875   0.634 -1.4197  0.9688  0.7109
 8398SOL    HW236654   4.077   0.919   0.517 -0.2136 -1.6625  0.2457
 8399SOL     OW36655   0.322   1.668   8.367 -0.3404  0.1578 -0.2156
 8399SOL    HW136656   0.321   1.726   8.291 -1.4905  2.1259  1.3316
 8399SOL    HW236657   0.258   1.711   8.423 -2.1575 -1.0833 -1.3371
 8400SOL     OW36658   3.881   1.441   4.312 -0.0772 -0.8953 -0.5925
 8400SOL    HW136659   3.895   1.349   4.291  2.3016 -0.4939 -0.7093
 8400SOL    HW236660   3.957   1.487   4.275 -1.5430  1.0689 -1.1769
 8401SOL     OW36661   2.293   1.449  10.964 -0.2523  0.2606  0.4265
 8401SOL    HW136662   2.317   1.512  10.897  0.0407  0.1550  0.4360
 8401SOL    HW236663   2.214   1.407  10.929 -0.7327  1.3904  0.1373
 8402SOL     OW36664   1.928   3.965   6.455  0.2354 -0.3733 -0.5545
 8402SOL    HW136665   1.953   4.020   6.381 -1.1507  0.7490 -0.1681
 8402SOL    HW236666   1.974   3.886   6.427 -1.0189 -0.5485 -2.1291
 8403SOL     OW36667   2.241   2.908   7.456 -0.3263 -0.0737 -0.7134
 8403SOL    HW136668   2.269   2.924   7.366 -0.3994  2.5821 -0.2770
 8403SOL    HW236669   2.313   2.856   7.492  1.4783  2.8294 -0.0926
 8404SOL     OW36670   2.909   2.157  10.236 -0.2313 -0.1815  0.0606
 8404SOL    HW136671   2.907   2.086  10.172 -1.0064  1.4508 -1.7203
 8404SOL    HW236672   2.929   2.104  10.313  1.1412 -2.3329 -1.7791
 8405SOL     OW36673   3.378   0.211   8.336 -0.1382  0.9890  0.1694
 8405SOL    HW136674   3.357   0.189   8.427  1.1031  2.3124  0.7869
 8405SOL    HW236675   3.402   0.121   8.314  0.2895  0.7997  1.4131
 8406SOL     OW36676   4.159   0.591   5.577 -0.0139  0.6674  0.3321
 8406SOL    HW136677   4.096   0.545   5.633  2.0831  1.1922  3.1502
 8406SOL    HW236678   4.176   0.662   5.639 -0.0643  0.7905  0.2042
 8407SOL     OW36679   3.721   0.164   8.418  0.1988  0.3857 -0.3431
 8407SOL    HW136680   3.814   0.144   8.409  0.4678  0.9504  1.1850
 8407SOL    HW236681   3.685   0.156   8.330  0.2846 -0.5727 -0.2931
 8408SOL     OW36682   0.346   4.516   3.239  0.0173 -0.3571 -0.1729
 8408SOL    HW136683   0.395   4.531   3.158  1.3874 -0.5409  0.6251
 8408SOL    HW236684   0.385   4.438   3.278 -0.4222 -1.4193 -1.8622
 8409SOL     OW36685   3.744   4.559  16.676  0.8541  0.3814  0.2249
 8409SOL    HW136686   3.836   4.581  16.662  0.8503 -0.2999 -0.8982
 8409SOL    HW236687   3.700   4.638  16.644  1.5388  0.7460  0.1720
 8410SOL     OW36688   1.926   0.224  14.523  0.8789 -0.2040  0.5141
 8410SOL    HW136689   1.868   0.230  14.599  2.6357 -0.5866  1.9072
 8410SOL    HW236690   1.966   0.137  14.532 -0.1464 -0.8665 -1.4474
 8411SOL     OW36691   2.745   3.265   8.945 -0.0119  0.0643  0.3922
 8411SOL    HW136692   2.812   3.300   9.005  1.6342  1.6399 -2.3671
 8411SOL    HW236693   2.666   3.268   8.998 -0.2497 -0.6952  0.0802
 8412SOL     OW36694   3.110   3.249  14.119  0.3875  0.2033 -0.1719
 8412SOL    HW136695   3.028   3.296  14.130  1.5064  2.4064 -1.1541
 8412SOL    HW236696   3.079   3.159  14.126  0.3804  0.3835  2.0952
 8413SOL     OW36697   0.063   2.537   7.730  1.0427 -0.1759  0.1102
 8413SOL    HW136698   0.011   2.591   7.789  2.0276  1.2061 -0.3028
 8413SOL    HW236699   0.131   2.509   7.792  2.2424  0.5557 -0.8759
 8414SOL     OW36700   4.345   1.377  13.522  0.3197  0.3475 -0.2125
 8414SOL    HW136701   4.365   1.317  13.595 -2.7640 -1.5775 -0.9717
 8414SOL    HW236702   4.384   1.326  13.451  1.2208  0.6470  0.0705
 8415SOL     OW36703   1.465   1.151  11.627 -0.4594  0.4747 -0.1800
 8415SOL    HW136704   1.510   1.066  11.629 -0.5634  0.4373  0.5609
 8415SOL    HW236705   1.522   1.211  11.578 -0.8370  2.0036  1.3014
 8416SOL     OW36706   2.704   1.955   3.255 -0.5248 -0.2378  0.0481
 8416SOL    HW136707   2.695   1.937   3.348  0.7067 -0.3461  0.1351
 8416SOL    HW236708   2.754   1.880   3.223 -0.3975 -0.4964  0.8747
 8417SOL     OW36709   1.687   1.565   1.665 -0.6193 -0.0947 -0.0261
 8417SOL    HW136710   1.754   1.583   1.599 -0.1958 -0.1916  0.3755
 8417SOL    HW236711   1.622   1.506   1.628 -0.7750 -0.1774  0.3799
 8418SOL     OW36712   1.151   3.002   2.812  0.3124  0.0857  0.0162
 8418SOL    HW136713   1.066   3.010   2.769 -1.3198 -3.2582  2.6768
 8418SOL    HW236714   1.142   2.914   2.849  3.7851 -0.2218  0.1579
 8419SOL     OW36715   1.778   4.004   4.591 -0.0515  0.4970  0.3833
 8419SOL    HW136716   1.684   3.987   4.585  0.4306 -2.1523  0.4757
 8419SOL    HW236717   1.780   4.020   4.686  1.0848 -1.3764  0.6664
 8420SOL     OW36718   0.573   3.709   8.366  0.1216 -0.4337  0.2789
 8420SOL    HW136719   0.622   3.789   8.349 -1.9500  0.8168  0.1477
 8420SOL    HW236720   0.540   3.676   8.283 -4.6588  0.8117  1.6379
 8421SOL     OW36721   1.875   3.476   5.405 -0.3364 -0.6034 -0.7034
 8421SOL    HW136722   1.963   3.508   5.424 -0.5358 -1.6692  1.9391
 8421SOL    HW236723   1.824   3.536   5.350 -0.3279  1.6126  1.7388
 8422SOL     OW36724   3.880   0.472   5.050 -0.3476  0.4779 -0.2098
 8422SOL    HW136725   3.809   0.408   5.058 -1.5180  1.6758 -0.9284
 8422SOL    HW236726   3.838   0.546   5.095 -2.1385 -0.0991 -0.9520
 8423SOL     OW36727   2.974   1.621   7.586  0.1050  0.5395 -0.2975
 8423SOL    HW136728   3.041   1.658   7.643  0.2400 -0.0795 -0.0668
 8423SOL    HW236729   3.000   1.648   7.498 -1.7666  1.2564 -0.6358
 8424SOL     OW36730   2.212   4.451  13.458 -0.2160  0.6198  0.6052
 8424SOL    HW136731   2.196   4.465  13.364  0.1719  3.0238  0.8869
 8424SOL    HW236732   2.302   4.478  13.474  0.0513 -0.7428  1.3568
 8425SOL     OW36733   2.441   1.844  15.213  0.3662  0.2054 -0.2009
 8425SOL    HW136734   2.522   1.895  15.222  2.2233 -3.3075  2.8348
 8425SOL    HW236735   2.393   1.874  15.135  0.0305 -1.1139 -0.4940
 8426SOL     OW36736   0.753   1.279   2.699  0.6852  0.3408  0.1691
 8426SOL    HW136737   0.805   1.202   2.675  1.0669  0.7490 -0.2992
 8426SOL    HW236738   0.717   1.249   2.782 -0.1661 -0.0460 -0.3477
 8427SOL     OW36739   1.457   2.526   2.159  0.3902 -0.3565  0.1278
 8427SOL    HW136740   1.470   2.517   2.253  0.7324  0.1666  0.1326
 8427SOL    HW236741   1.402   2.449   2.144 -0.4284  0.4171 -0.7781
 8428SOL     OW36742   2.265   0.089  12.995 -0.2389  0.9430 -0.3304
 8428SOL    HW136743   2.323   0.127  12.929  0.0643  2.1573  0.6215
 8428SOL    HW236744   2.215   0.164  13.026 -2.1969 -1.1116  1.4949
 8429SOL     OW36745   2.681   0.879   2.887  0.6383  0.3767  0.0384
 8429SOL    HW136746   2.756   0.938   2.889  0.1796  0.9985 -1.0897
 8429SOL    HW236747   2.704   0.817   2.956  2.5439  0.7413 -0.2655
 8430SOL     OW36748   2.792   2.240   4.453 -0.1908  0.2294 -0.1893
 8430SOL    HW136749   2.786   2.241   4.357  0.1292  0.1316 -0.2106
 8430SOL    HW236750   2.782   2.332   4.476  2.9306  0.6486 -0.5452
 8431SOL     OW36751   3.282   0.856  17.269  0.0479 -0.0730 -0.1543
 8431SOL    HW136752   3.286   0.778  17.325 -0.3869 -0.6249 -0.8844
 8431SOL    HW236753   3.196   0.845  17.228 -0.6523 -1.6299  1.6700
 8432SOL     OW36754   4.294   3.520  14.931 -0.0397 -0.2741 -0.3436
 8432SOL    HW136755   4.369   3.513  14.871  3.1976  4.2500  3.1911
 8432SOL    HW236756   4.340   3.565  15.002 -1.0653 -1.1452  0.8532
 8433SOL     OW36757   1.394   0.659  10.613  0.0506  0.0038 -0.0021
 8433SOL    HW136758   1.327   0.618  10.667 -0.3492 -0.0999 -0.5813
 8433SOL    HW236759   1.473   0.668  10.667  1.1559 -1.4993 -1.3949
 8434SOL     OW36760   1.259   1.617  13.853 -0.3569  0.4870 -0.5550
 8434SOL    HW136761   1.185   1.556  13.855  0.1859 -0.0547  1.9765
 8434SOL    HW236762   1.272   1.607  13.758  2.1568 -0.5099 -0.0936
 8435SOL     OW36763   1.151   1.974   5.599  0.1704  0.6876 -0.1024
 8435SOL    HW136764   1.058   1.953   5.592 -0.2718  2.3931  0.7460
 8435SOL    HW236765   1.170   2.012   5.513  2.0614  1.2343  0.5755
 8436SOL     OW36766   2.102   3.224   3.159  0.2771  0.1805 -0.3164
 8436SOL    HW136767   2.193   3.253   3.152  0.4000  0.8418  4.6394
 8436SOL    HW236768   2.087   3.220   3.064  0.0786  0.7168 -0.3045
 8437SOL     OW36769   1.645   4.253   6.578 -0.3433  0.3362  0.4773
 8437SOL    HW136770   1.590   4.181   6.547  1.3777 -1.3672  1.4773
 8437SOL    HW236771   1.732   4.214   6.575 -0.3760  0.0791  3.8343
 8438SOL     OW36772   2.737   4.480   0.711 -0.1805  0.2066 -0.3791
 8438SOL    HW136773   2.733   4.388   0.739  1.7932 -0.1292 -1.2108
 8438SOL    HW236774   2.825   4.484   0.673 -0.2483  1.4479 -0.4057
 8439SOL     OW36775   4.450   0.363  15.127 -0.3149 -0.0535  0.3635
 8439SOL    HW136776   4.426   0.430  15.191  0.7904  1.1219 -0.4256
 8439SOL    HW236777   4.360   0.350  15.099  0.9885 -0.2215 -3.7833
 8440SOL     OW36778   4.283   4.370   9.645 -0.2186  0.1635  0.1525
 8440SOL    HW136779   4.255   4.426   9.718  1.0074 -2.6071  2.7305
 8440SOL    HW236780   4.359   4.421   9.617  0.4163 -0.3135  0.9962
 8441SOL     OW36781   2.429   3.093  11.922  0.4468  0.5409  0.7103
 8441SOL    HW136782   2.433   3.184  11.895 -1.3130  0.8980  1.6488
 8441SOL    HW236783   2.474   3.053  11.847  1.1286  1.3959  0.6587
 8442SOL     OW36784   0.944   3.408   3.703 -0.3112 -0.0047  0.2729
 8442SOL    HW136785   0.911   3.494   3.677  0.8136 -0.2852 -2.0591
 8442SOL    HW236786   0.866   3.359   3.676  0.1126  0.0734 -1.0854
 8443SOL     OW36787   2.819   3.922  17.549 -0.0475  0.2177  0.6849
 8443SOL    HW136788   2.888   3.987  17.557  0.4228 -0.2502  0.4639
 8443SOL    HW236789   2.860   3.856  17.492  0.6198  0.3089  1.0529
 8444SOL     OW36790   1.081   3.504   7.444 -0.2578  0.1640  0.1281
 8444SOL    HW136791   1.135   3.513   7.522 -0.0567  0.6877 -0.0730
 8444SOL    HW236792   1.141   3.544   7.382  1.4434 -2.2330  0.2498
 8445SOL     OW36793   2.789   3.259   5.378  0.7042 -0.1825 -0.6652
 8445SOL    HW136794   2.708   3.213   5.400  2.6614 -1.2305  4.3088
 8445SOL    HW236795   2.850   3.187   5.367  1.8272  0.5523  0.8697
 8446SOL     OW36796   2.043   0.806   8.024  0.1028  0.1859  0.1645
 8446SOL    HW136797   2.102   0.861   8.075 -0.8994  2.4620 -1.1024
 8446SOL    HW236798   1.972   0.799   8.088 -0.7969 -1.6496 -1.0352
 8447SOL     OW36799   1.982   3.399   6.309 -1.0094  0.1256 -0.0940
 8447SOL    HW136800   2.068   3.425   6.274  0.0450  0.3104  2.6254
 8447SOL    HW236801   1.924   3.470   6.281 -0.6695  0.3555 -0.2265
 8448SOL     OW36802   2.231   0.602   0.526 -0.2054  0.0668 -0.5907
 8448SOL    HW136803   2.216   0.552   0.446 -1.3003 -0.1853 -0.2274
 8448SOL    HW236804   2.199   0.691   0.508 -1.8076 -0.4286 -0.2497
 8449SOL     OW36805   2.671   0.907   4.513 -0.0346  0.2304  0.8556
 8449SOL    HW136806   2.674   1.002   4.503 -0.6208  0.1936  0.3631
 8449SOL    HW236807   2.578   0.888   4.507  0.1384  0.3585 -2.1194
 8450SOL     OW36808   0.703   3.342  11.550 -0.7574  0.1324  0.2478
 8450SOL    HW136809   0.666   3.375  11.632 -1.1457 -1.0724  0.5607
 8450SOL    HW236810   0.635   3.279  11.524  2.2706 -2.7368 -0.7588
 8451SOL     OW36811   2.840   4.509  12.316 -0.6677  0.2131 -0.2445
 8451SOL    HW136812   2.760   4.473  12.355 -0.9041  2.0426  0.9619
 8451SOL    HW236813   2.889   4.540  12.392  0.4565 -2.3494  0.0446
 8452SOL     OW36814   0.764   0.909   6.778 -0.4934 -0.1608  0.9290
 8452SOL    HW136815   0.698   0.840   6.767 -2.2437  1.3172  2.2032
 8452SOL    HW236816   0.765   0.919   6.873 -0.3809 -0.5436  0.9647
 8453SOL     OW36817   3.019   2.453  17.383 -0.1076  0.0485  0.1911
 8453SOL    HW136818   3.028   2.365  17.346 -0.8251 -0.1222  0.4324
 8453SOL    HW236819   3.085   2.509  17.341 -0.6181  1.0862  0.7605
 8454SOL     OW36820   3.891   4.323   7.784  0.9152 -0.2417  0.4167
 8454SOL    HW136821   3.952   4.371   7.728  1.9491 -0.8494  1.0335
 8454SOL    HW236822   3.809   4.358   7.748  1.3011 -0.3224 -0.5567
 8455SOL     OW36823   3.361   1.020   4.884  0.3680  0.1504  0.3195
 8455SOL    HW136824   3.390   1.111   4.883 -1.1734  0.6336 -2.0854
 8455SOL    HW236825   3.370   1.005   4.790 -0.6714  0.3544  0.1919
 8456SOL     OW36826   3.192   3.312   7.299  0.0377  0.4369 -0.6094
 8456SOL    HW136827   3.209   3.255   7.374  2.6928  0.9901 -0.8055
 8456SOL    HW236828   3.184   3.250   7.226  1.1602 -0.9815  0.4686
 8457SOL     OW36829   3.156   0.375   6.680 -0.5952 -0.8017 -0.3755
 8457SOL    HW136830   3.108   0.441   6.632 -0.6194 -0.5249  0.0325
 8457SOL    HW236831   3.227   0.360   6.617  0.3643 -0.9497  0.7316
 8458SOL     OW36832   2.785   0.272  13.917 -0.2893 -0.2797  0.4655
 8458SOL    HW136833   2.826   0.277  14.003  2.3074  0.6716 -0.8201
 8458SOL    HW236834   2.799   0.359  13.880  1.2084 -1.4474 -1.7163
 8459SOL     OW36835   0.279   1.948  17.218  0.1760  0.0143  0.4895
 8459SOL    HW136836   0.301   1.871  17.165 -1.8073 -1.7759  2.2832
 8459SOL    HW236837   0.270   1.905  17.304 -0.1830 -0.1829  0.3537
 8460SOL     OW36838   0.580   3.688  14.813 -0.3608 -0.0881  0.1870
 8460SOL    HW136839   0.583   3.636  14.733  0.3783  2.9327 -1.7650
 8460SOL    HW236840   0.673   3.708  14.824  0.0185 -0.8399 -1.6361
 8461SOL     OW36841   0.608   4.499  11.592  0.1056 -0.1453  0.5654
 8461SOL    HW136842   0.586   4.536  11.506  0.5028  1.0349  0.9715
 8461SOL    HW236843   0.637   4.411  11.569  1.5164  0.8057 -1.3299
 8462SOL     OW36844   2.264   3.598  11.018  0.4630 -0.5014  0.1791
 8462SOL    HW136845   2.322   3.543  11.071  0.0731 -1.5417 -0.4590
 8462SOL    HW236846   2.191   3.615  11.076  0.8961  0.9897  0.2945
 8463SOL     OW36847   4.332   0.715  12.734  0.0238  0.2680  0.4898
 8463SOL    HW136848   4.419   0.694  12.701  0.2654  1.5588  0.2877
 8463SOL    HW236849   4.281   0.634  12.726  1.3449 -0.5210  0.0780
 8464SOL     OW36850   2.862   2.944   9.720 -0.4123  0.3435  0.2728
 8464SOL    HW136851   2.771   2.941   9.691  0.0601 -1.9252 -1.0016
 8464SOL    HW236852   2.891   2.856   9.698 -2.0971 -0.2757  0.5497
 8465SOL     OW36853   1.829   1.499  16.274  0.4529  0.2201  0.8863
 8465SOL    HW136854   1.911   1.538  16.304  1.3205 -0.0971 -1.0777
 8465SOL    HW236855   1.868   1.424  16.229 -3.8862  0.5629 -3.4211
 8466SOL     OW36856   0.517   3.057   3.024  0.3297  0.2559 -0.5579
 8466SOL    HW136857   0.565   3.139   3.036  0.3975  0.4559 -2.1979
 8466SOL    HW236858   0.452   3.081   2.958 -0.4524  0.7365  0.3858
 8467SOL     OW36859   3.148   3.081   9.516  0.4749 -0.5892  0.7047
 8467SOL    HW136860   3.110   3.039   9.438  0.0704 -0.4329  0.8150
 8467SOL    HW236861   3.237   3.089   9.482 -0.9157  1.7183 -2.4585
 8468SOL     OW36862   1.474   0.769   2.363  0.4553 -0.0518  0.3880
 8468SOL    HW136863   1.541   0.701   2.352 -0.7768 -1.1393 -0.4237
 8468SOL    HW236864   1.507   0.823   2.292  0.3956  0.1338  0.5029
 8469SOL     OW36865   3.549   4.448   4.050  0.9843 -0.0916 -0.4501
 8469SOL    HW136866   3.559   4.539   4.021 -2.4788 -0.5071 -2.8466
 8469SOL    HW236867   3.535   4.469   4.143 -2.1970 -2.5937 -0.3742
 8470SOL     OW36868   3.068   3.090  14.562  0.5934 -0.5688  0.2941
 8470SOL    HW136869   2.998   3.122  14.505  0.1278 -2.3400 -0.1343
 8470SOL    HW236870   3.085   2.997  14.548 -0.3929 -0.5805 -0.8296
 8471SOL     OW36871   0.833   3.658   8.624  0.1220  0.7549 -0.0888
 8471SOL    HW136872   0.823   3.749   8.596  0.9566  0.6265 -0.8197
 8471SOL    HW236873   0.749   3.634   8.662 -1.1154  2.7427 -1.5558
 8472SOL     OW36874   3.585   2.038   2.703 -0.1598  0.3298 -0.2238
 8472SOL    HW136875   3.560   1.947   2.715 -1.4319  0.7455  0.3302
 8472SOL    HW236876   3.638   2.050   2.782 -0.0797 -1.5600  0.0082
 8473SOL     OW36877   1.715   4.580   6.120  0.3351  0.4049 -0.0367
 8473SOL    HW136878   1.760   4.525   6.055  1.9650  2.3049 -0.5044
 8473SOL    HW236879   1.716   4.514   6.189  0.3775 -1.2522 -1.6178
 8474SOL     OW36880   0.404   0.264   1.914 -0.1237 -0.6571  0.3857
 8474SOL    HW136881   0.484   0.217   1.937 -0.5788 -0.5265  2.2692
 8474SOL    HW236882   0.371   0.295   1.999  2.2006 -0.7735  1.3132
 8475SOL     OW36883   2.539   2.747   6.950 -0.0821  0.2942 -0.1400
 8475SOL    HW136884   2.526   2.695   6.870  3.7492  1.5077 -1.5412
 8475SOL    HW236885   2.633   2.764   6.942 -0.2275  0.1129 -2.2327
 8476SOL     OW36886   2.318   4.327   8.880 -0.0274 -0.1638  0.1447
 8476SOL    HW136887   2.265   4.248   8.890  1.9729 -1.7555 -1.7713
 8476SOL    HW236888   2.386   4.313   8.947  0.4364  1.8282  0.0946
 8477SOL     OW36889   0.796   3.384   7.086  0.0305 -0.2852  0.4926
 8477SOL    HW136890   0.749   3.400   7.005  3.2697 -1.5758 -1.6267
 8477SOL    HW236891   0.765   3.465   7.128  0.1286  0.1608 -0.3006
 8478SOL     OW36892   4.165   2.811   2.645  0.3174  0.6255 -0.2969
 8478SOL    HW136893   4.146   2.779   2.557  2.0816 -1.7395  0.1748
 8478SOL    HW236894   4.233   2.757   2.686 -1.0522 -0.5969  0.3419
 8479SOL     OW36895   0.973   1.677   4.443 -0.1437 -0.2243 -0.8666
 8479SOL    HW136896   0.917   1.616   4.492 -0.3719 -0.0947 -0.9654
 8479SOL    HW236897   1.016   1.614   4.384 -0.2242  0.7325 -1.9459
 8480SOL     OW36898   1.364   2.351   9.604 -0.9296  0.3847  0.3415
 8480SOL    HW136899   1.409   2.427   9.640 -2.6579  2.0056 -0.8988
 8480SOL    HW236900   1.287   2.386   9.559 -2.9545 -0.4811  3.1614
 8481SOL     OW36901   0.696   2.572  15.859 -0.0168 -0.3726 -0.0508
 8481SOL    HW136902   0.624   2.548  15.801  0.9280 -1.1836 -0.8830
 8481SOL    HW236903   0.689   2.668  15.852 -0.4016 -0.4832 -1.2928
 8482SOL     OW36904   4.696   4.163   4.309  0.4820  0.5269  0.0075
 8482SOL    HW136905   4.665   4.205   4.390 -2.2276  0.4440 -1.0168
 8482SOL    HW236906   4.640   4.205   4.244 -1.4754  1.1842  2.1348
 8483SOL     OW36907   4.360   3.972   3.420  0.0606 -0.1268 -0.3427
 8483SOL    HW136908   4.453   3.989   3.434 -0.0326 -1.2948  1.7684
 8483SOL    HW236909   4.347   3.986   3.326  0.7242  0.0715 -0.3994
 8484SOL     OW36910   1.649   4.477  12.094 -0.1398 -0.0272  0.7212
 8484SOL    HW136911   1.704   4.432  12.030 -0.0663  0.9395  0.1133
 8484SOL    HW236912   1.678   4.568  12.098 -1.7239  0.5786 -1.4932
 8485SOL     OW36913   1.250   1.220   8.209 -0.5343 -0.2560 -0.1276
 8485SOL    HW136914   1.265   1.300   8.159 -0.7253  0.6830  1.3008
 8485SOL    HW236915   1.289   1.248   8.292  1.3703  0.0158 -1.1222
 8486SOL     OW36916   4.569   4.248   5.369  0.1168  0.2308 -0.5839
 8486SOL    HW136917   4.569   4.289   5.283 -0.6752 -1.7413 -1.5182
 8486SOL    HW236918   4.596   4.322   5.423  0.6051 -1.5079  1.5457
 8487SOL     OW36919   0.199   4.087   8.786 -0.4348 -0.1610  0.4583
 8487SOL    HW136920   0.281   4.069   8.741  1.0746  0.0699  3.1858
 8487SOL    HW236921   0.160   4.143   8.718  1.1217  0.8591  0.4236
 8488SOL     OW36922   3.321   0.985  15.339  0.3783  0.0094 -0.1544
 8488SOL    HW136923   3.396   1.026  15.297 -1.1649  1.6775 -1.2514
 8488SOL    HW236924   3.249   1.045  15.319 -0.5184 -1.0696 -0.1817
 8489SOL     OW36925   4.649   0.943   2.592  0.3328  0.3916  0.2623
 8489SOL    HW136926   4.559   0.912   2.581  0.3379  0.6139 -0.4226
 8489SOL    HW236927   4.624   1.026   2.635  3.3459  0.7164  1.3741
 8490SOL     OW36928   2.966   0.213   1.356  0.3737 -0.0156  0.4303
 8490SOL    HW136929   2.969   0.134   1.303 -1.8463  1.0152 -1.2396
 8490SOL    HW236930   2.902   0.195   1.426  0.1547 -1.0761 -0.0439
 8491SOL     OW36931   2.198   4.169   8.077  0.4539 -0.2642  0.0317
 8491SOL    HW136932   2.166   4.166   7.987  1.6062 -1.7032 -0.3424
 8491SOL    HW236933   2.233   4.257   8.094 -0.8777  0.4922 -1.1231
 8492SOL     OW36934   2.837   3.113   6.424 -0.8585  0.6819  0.0519
 8492SOL    HW136935   2.790   3.076   6.349  1.2852 -0.2622 -0.8155
 8492SOL    HW236936   2.916   3.061   6.414 -1.2663  0.4731 -2.0267
 8493SOL     OW36937   2.537   3.866   4.232 -0.1475 -0.1851  0.1058
 8493SOL    HW136938   2.577   3.837   4.150 -0.4300  1.2783 -0.5461
 8493SOL    HW236939   2.609   3.862   4.296 -0.6131 -1.4744  0.5449
 8494SOL     OW36940   4.599   2.376  12.763  0.6679  0.3644  0.0568
 8494SOL    HW136941   4.614   2.354  12.855  1.0195  1.4577  0.2563
 8494SOL    HW236942   4.513   2.416  12.770  1.7260  2.4799  1.1162
 8495SOL     OW36943   0.600   1.019  15.902  0.1886 -0.3249 -0.4200
 8495SOL    HW136944   0.539   0.949  15.879 -1.6441  1.0998  0.1629
 8495SOL    HW236945   0.680   0.974  15.930 -1.1461 -1.4318  1.5788
 8496SOL     OW36946   1.957   3.044   5.640  0.0880 -0.3898  0.0856
 8496SOL    HW136947   1.869   3.018   5.611 -0.4982  2.2685 -0.4771
 8496SOL    HW236948   1.996   2.956   5.640  0.5550 -0.1797 -0.0990
 8497SOL     OW36949   4.276   1.479  16.159 -0.5578  0.4360 -0.2909
 8497SOL    HW136950   4.189   1.455  16.127  0.5880 -1.2132 -2.2484
 8497SOL    HW236951   4.301   1.560  16.114  0.1085 -0.1436 -0.9644
 8498SOL     OW36952   4.164   0.981  15.386 -0.1650  0.1007 -0.3127
 8498SOL    HW136953   4.094   0.923  15.357 -0.1805  1.0322 -2.1543
 8498SOL    HW236954   4.125   1.027  15.461  2.4071 -0.7871  1.5721
 8499SOL     OW36955   1.261   2.913  10.014  0.0877 -0.8827 -0.3358
 8499SOL    HW136956   1.254   2.921  10.109  3.0022  0.2562 -0.2157
 8499SOL    HW236957   1.354   2.897   9.998  0.1053 -0.7712 -0.3473
 8500SOL     OW36958   2.871   0.847   7.577 -0.2259 -0.0634 -0.1802
 8500SOL    HW136959   2.812   0.863   7.651 -0.8750 -0.2415 -0.6522
 8500SOL    HW236960   2.844   0.911   7.511  0.5821  1.1146  0.6344
 8501SOL     OW36961   3.657   2.337   8.941 -0.5203 -0.1192 -0.2949
 8501SOL    HW136962   3.579   2.373   8.983 -0.6168 -0.9944  0.2728
 8501SOL    HW236963   3.721   2.348   9.012 -0.5129  1.2264 -0.5186
 8502SOL     OW36964   3.035   1.040   5.286 -0.0932  0.2587 -0.4978
 8502SOL    HW136965   2.953   1.083   5.310  0.1757 -0.6862  2.0604
 8502SOL    HW236966   3.011   1.029   5.194 -1.1495 -0.1609 -0.1785
 8503SOL     OW36967   3.801   4.388  15.444 -0.5191 -0.0802 -0.7757
 8503SOL    HW136968   3.876   4.341  15.408 -1.2070 -0.8810 -1.1714
 8503SOL    HW236969   3.765   4.322  15.503  2.2061 -0.3680  0.5548
 8504SOL     OW36970   1.191   2.619   2.319  0.2532  0.4063  0.3566
 8504SOL    HW136971   1.245   2.549   2.353 -0.2516  0.4134  1.1872
 8504SOL    HW236972   1.251   2.680   2.275 -1.2034  0.2645 -1.8367
 8505SOL     OW36973   2.041   2.026   0.709  0.7710  0.1267 -0.0442
 8505SOL    HW136974   2.038   2.009   0.803  0.3962 -0.3840 -0.1495
 8505SOL    HW236975   2.072   2.116   0.718 -0.0560  0.4372 -0.3154
 8506SOL     OW36976   4.605   3.016  17.003 -0.4124  0.7399 -0.0734
 8506SOL    HW136977   4.545   2.989  16.934  0.5222 -1.0342 -0.1829
 8506SOL    HW236978   4.688   3.023  16.955 -0.7237 -1.9366 -1.0281
 8507SOL     OW36979   0.273   0.920   6.316  0.7179 -0.3328  0.0140
 8507SOL    HW136980   0.306   0.833   6.294  0.3187 -0.6295  0.5834
 8507SOL    HW236981   0.301   0.946   6.403  0.0789 -1.9936  0.7043
 8508SOL     OW36982   3.477   3.175  12.141  0.3414 -0.3611  0.0532
 8508SOL    HW136983   3.557   3.123  12.133 -0.4433 -1.6866  0.8941
 8508SOL    HW236984   3.448   3.160  12.231  2.4929 -0.9881  0.6552
 8509SOL     OW36985   0.559   4.207  12.869 -0.7335  0.3034 -0.0496
 8509SOL    HW136986   0.478   4.232  12.826 -0.0627 -0.8337 -1.9323
 8509SOL    HW236987   0.623   4.203  12.798  0.1046  1.8845  0.6053
 8510SOL     OW36988   2.895   2.194   2.049  0.5763  0.6603 -0.3389
 8510SOL    HW136989   2.852   2.139   2.114  0.5599 -0.4596 -1.3106
 8510SOL    HW236990   2.979   2.150   2.036  0.9808  1.4676 -0.4483
 8511SOL     OW36991   0.190   4.100  11.704  0.0097 -0.0484  0.1501
 8511SOL    HW136992   0.244   4.105  11.625  0.8038  1.0911  0.7687
 8511SOL    HW236993   0.228   4.018  11.735  0.2008  0.0984  0.3021
 8512SOL     OW36994   3.317   0.728   5.316 -0.0627 -0.4895 -0.2842
 8512SOL    HW136995   3.253   0.660   5.296  0.2837 -0.4407 -1.5588
 8512SOL    HW236996   3.328   0.781   5.238 -0.5235  1.0862  0.7234
 8513SOL     OW36997   2.553   3.968  17.609 -0.1509 -0.2540  0.0193
 8513SOL    HW136998   2.645   3.945  17.601  0.6401  2.0947  2.7043
 8513SOL    HW236999   2.545   4.022  17.687  0.4348  1.1077 -0.8628
 8514SOL     OW37000   3.279   1.575   2.672  0.5198 -0.0015 -0.5273
 8514SOL    HW137001   3.329   1.657   2.666  0.8398 -0.1899 -0.4616
 8514SOL    HW237002   3.344   1.526   2.723 -0.2118 -1.6381 -1.1671
 8515SOL     OW37003   1.383   3.596   3.560  0.1729 -0.3825  0.7243
 8515SOL    HW137004   1.374   3.684   3.597  1.5635  0.0590 -0.0036
 8515SOL    HW237005   1.290   3.580   3.542 -0.1377 -0.1434  2.0881
 8516SOL     OW37006   4.556   3.837   1.449  0.5813 -0.2465  0.7970
 8516SOL    HW137007   4.501   3.864   1.522  0.2825  1.5226 -0.0773
 8516SOL    HW237008   4.595   3.760   1.490  0.1800 -0.8421  0.0463
 8517SOL     OW37009   3.810   4.466  14.372  0.2556 -0.3084  0.0915
 8517SOL    HW137010   3.802   4.499  14.461 -1.0933 -0.5918  0.0768
 8517SOL    HW237011   3.905   4.473  14.361  0.0296  3.4213  0.4066
 8518SOL     OW37012   2.937   2.531  16.889  0.3220 -0.6498  0.0382
 8518SOL    HW137013   2.857   2.487  16.917  0.1339 -1.5326 -1.8889
 8518SOL    HW237014   2.935   2.606  16.948  0.6869 -0.1619 -0.5588
 8519SOL     OW37015   0.910   2.938  16.981  0.4767 -0.1273  0.7134
 8519SOL    HW137016   0.986   2.894  17.020  1.3276  2.0037  1.4382
 8519SOL    HW237017   0.877   2.866  16.927 -1.1707  0.5972  0.7522
 8520SOL     OW37018   0.709   3.332   8.588  0.2111 -0.1237 -0.5501
 8520SOL    HW137019   0.793   3.318   8.632  0.3058 -1.3890 -1.1186
 8520SOL    HW237020   0.729   3.368   8.501 -0.9651 -2.1360 -1.6650
 8521SOL     OW37021   2.411   4.681   1.780  0.1572 -1.3003  0.4026
 8521SOL    HW137022   2.415   4.618   1.852  1.4895 -0.6096  0.9371
 8521SOL    HW237023   2.480   4.645   1.724 -1.4442 -0.8434 -1.8563
 8522SOL     OW37024   1.896   3.429  13.748 -0.1622  0.7156  0.5065
 8522SOL    HW137025   1.844   3.439  13.668  0.5274 -2.2669 -0.3089
 8522SOL    HW237026   1.939   3.512  13.728  2.0792 -0.4594  0.3866
 8523SOL     OW37027   0.077   3.852   8.439  0.2183  0.1832 -0.2538
 8523SOL    HW137028   0.155   3.908   8.433 -0.2010  1.2510  4.2856
 8523SOL    HW237029   0.108   3.766   8.467  2.0832  1.6989  2.3327
 8524SOL     OW37030   1.555   0.436   3.289 -0.1497 -0.0548 -0.3528
 8524SOL    HW137031   1.517   0.400   3.208 -0.8586 -1.7197  0.7292
 8524SOL    HW237032   1.558   0.526   3.254 -1.4177  0.1815  0.1498
 8525SOL     OW37033   2.518   0.592   2.450 -0.6115  0.1812 -0.1052
 8525SOL    HW137034   2.495   0.648   2.524  0.1877  0.7433 -0.2809
 8525SOL    HW237035   2.466   0.631   2.380 -1.3350 -2.5127 -1.0409
 8526SOL     OW37036   1.982   0.203   8.613  0.2791 -0.3811 -0.0955
 8526SOL    HW137037   1.932   0.279   8.641 -0.0323 -1.6701  2.8692
 8526SOL    HW237038   1.917   0.140   8.645  2.0357 -1.4283  1.4901
 8527SOL     OW37039   0.258   1.092  10.537  0.5318  0.1397 -0.1662
 8527SOL    HW137040   0.301   1.030  10.596  0.0400  1.0880  1.1888
 8527SOL    HW237041   0.249   1.165  10.598 -0.6269  1.0275 -1.4063
 8528SOL     OW37042   3.983   3.047   7.286 -0.1194  0.2516 -1.4449
 8528SOL    HW137043   4.004   2.956   7.304 -1.2329 -0.0876 -1.8271
 8528SOL    HW237044   3.922   3.073   7.356  0.3828  0.2362 -1.0072
 8529SOL     OW37045   1.969   2.500   1.442 -0.3533  0.0559  0.6955
 8529SOL    HW137046   1.903   2.431   1.435 -0.5397  0.2506  0.5585
 8529SOL    HW237047   1.974   2.504   1.538 -0.1506  1.0131  0.6468
 8530SOL     OW37048   2.543   1.814   0.970  0.0036  0.0143 -0.4536
 8530SOL    HW137049   2.555   1.806   0.875 -1.2028  3.2967 -0.8864
 8530SOL    HW237050   2.520   1.906   0.983 -2.7247 -0.7173 -0.0104
 8531SOL     OW37051   3.337   3.357   1.667  0.1569 -0.1948  0.0974
 8531SOL    HW137052   3.395   3.371   1.592 -1.0245  2.5145 -0.3067
 8531SOL    HW237053   3.251   3.376   1.631 -0.0404 -0.1509  0.5946
 8532SOL     OW37054   1.998   2.169  15.254  0.0630  0.0245 -0.1426
 8532SOL    HW137055   1.957   2.158  15.340 -0.7927  0.3066 -0.5089
 8532SOL    HW237056   1.955   2.253  15.241  1.6217  1.1402  2.0601
 8533SOL     OW37057   3.025   4.125   6.446 -0.2819  0.1935 -0.4482
 8533SOL    HW137058   2.995   4.113   6.356  0.5749 -3.3998 -0.2701
 8533SOL    HW237059   3.107   4.075   6.444 -0.8294 -0.7623  0.9525
 8534SOL     OW37060   1.094   1.826   6.698 -0.2079 -0.2131  0.3330
 8534SOL    HW137061   1.058   1.858   6.615  0.7363  0.8945  0.3471
 8534SOL    HW237062   1.167   1.770   6.673  0.9404  1.8969 -0.9746
 8535SOL     OW37063   4.669   2.504  10.669  0.1456 -0.2175  0.2153
 8535SOL    HW137064   0.011   2.537  10.731  0.1031 -0.0188  0.1567
 8535SOL    HW237065   4.684   2.410  10.679  2.1978  0.0937 -0.0493
 8536SOL     OW37066   3.105   0.922   2.157 -0.2010 -0.0540 -0.0788
 8536SOL    HW137067   3.130   0.884   2.241 -0.6654  0.4166  0.2711
 8536SOL    HW237068   3.109   0.843   2.103  0.7163 -0.6848  0.9249
 8537SOL     OW37069   3.459   1.548  12.018  0.2759  0.2326 -0.5630
 8537SOL    HW137070   3.469   1.625  12.073 -0.3384  0.9099 -1.3962
 8537SOL    HW237071   3.535   1.492  12.033 -0.3823 -0.7113 -0.7122
 8538SOL     OW37072   0.306   3.434   4.172  0.6078  0.6729  0.4082
 8538SOL    HW137073   0.274   3.346   4.194  0.0065  0.8194  0.1200
 8538SOL    HW237074   0.243   3.498   4.205 -1.1424 -0.9130  0.1466
 8539SOL     OW37075   3.241   3.936   2.096 -0.0854  0.4893  0.1624
 8539SOL    HW137076   3.173   3.871   2.114  0.0662  0.1540 -0.5025
 8539SOL    HW237077   3.226   3.999   2.167  0.3549  2.3635 -1.4125
 8540SOL     OW37078   0.478   3.455  12.579 -0.4733 -0.1602 -0.0222
 8540SOL    HW137079   0.566   3.440  12.613 -0.6520 -0.6296  0.2387
 8540SOL    HW237080   0.497   3.448  12.486 -2.8118 -1.0698 -0.4419
 8541SOL     OW37081   4.160   3.138  13.458 -0.1202 -0.1260 -0.1433
 8541SOL    HW137082   4.133   3.064  13.512  1.9128 -2.3397 -2.1787
 8541SOL    HW237083   4.102   3.210  13.479 -1.2872 -0.7210 -1.3534
 8542SOL     OW37084   1.320   4.411   1.038  0.0839 -0.3559 -0.1891
 8542SOL    HW137085   1.275   4.481   0.992 -0.4774  0.3947  1.5224
 8542SOL    HW237086   1.245   4.364   1.075 -0.7452  1.4894  0.4428
 8543SOL     OW37087   4.410   0.363   2.831  0.2223  0.1112 -0.0898
 8543SOL    HW137088   4.388   0.454   2.856  0.1075  0.7362 -2.4966
 8543SOL    HW237089   4.403   0.378   2.737 -1.0254  0.0739 -0.0042
 8544SOL     OW37090   2.462   1.388   0.034  0.4356  0.8254 -0.2381
 8544SOL    HW137091   2.532   1.357  17.669  1.0188  0.7849  0.4936
 8544SOL    HW237092   2.496   1.470   0.068 -1.1617  0.9337  1.1329
 8545SOL     OW37093   2.702   1.331   6.548  0.0162 -0.1157  0.3086
 8545SOL    HW137094   2.635   1.395   6.573 -0.0138 -0.3770  0.9080
 8545SOL    HW237095   2.681   1.265   6.615 -3.1376  0.3460 -0.2137
 8546SOL     OW37096   2.720   2.468   5.725  0.1587  0.1696 -0.8725
 8546SOL    HW137097   2.673   2.505   5.650 -0.4050  1.0381 -0.0837
 8546SOL    HW237098   2.665   2.398   5.760 -0.2559  1.6018  1.3737
 8547SOL     OW37099   4.278   1.140   3.018  0.4971  0.2563  0.6852
 8547SOL    HW137100   4.294   1.061   3.070  0.3783  0.9545  1.7758
 8547SOL    HW237101   4.367   1.161   2.986  1.3225  1.8988  4.0881
 8548SOL     OW37102   3.536   3.235   5.423 -0.0659 -0.2363 -0.2285
 8548SOL    HW137103   3.628   3.216   5.408  0.1797  1.6678 -1.1758
 8548SOL    HW237104   3.509   3.195   5.506 -1.3743 -2.3716 -1.6770
 8549SOL     OW37105   4.354   1.722   1.950  0.0179  0.0191  0.0580
 8549SOL    HW137106   4.360   1.706   1.856  0.0672 -0.5977  0.1661
 8549SOL    HW237107   4.419   1.791   1.962  0.2140  0.4574 -3.4298
 8550SOL     OW37108   2.281   3.092   5.800 -0.0109 -0.1272 -0.2617
 8550SOL    HW137109   2.267   3.128   5.887 -0.3521 -1.2015  0.1322
 8550SOL    HW237110   2.376   3.076   5.803 -0.4961 -3.2585 -1.2054
 8551SOL     OW37111   3.175   3.980  16.040 -0.0906 -0.4393 -0.0301
 8551SOL    HW137112   3.114   4.002  16.111  2.8234 -1.4804  2.8345
 8551SOL    HW237113   3.109   3.986  15.971 -1.4020  0.1762  1.2538
 8552SOL     OW37114   1.337   1.941   0.999  0.4291  0.4844 -0.7354
 8552SOL    HW137115   1.263   1.909   0.947 -0.5536  0.9916  0.3304
 8552SOL    HW237116   1.298   2.025   1.022  1.6032  0.9515 -0.5063
 8553SOL     OW37117   0.644   3.465   2.817 -0.4662 -0.4624  0.0320
 8553SOL    HW137118   0.735   3.467   2.785  0.2764  0.6237  2.2394
 8553SOL    HW237119   0.599   3.466   2.733  1.9861 -2.0115 -1.3229
 8554SOL     OW37120   0.425   3.264   5.376  0.1522 -0.2630  0.1078
 8554SOL    HW137121   0.385   3.261   5.289 -0.4897 -0.7587  0.4131
 8554SOL    HW237122   0.349   3.237   5.429  0.9232 -0.3616  1.1692
 8555SOL     OW37123   0.622   0.735   8.570 -0.1689  0.7707  0.3015
 8555SOL    HW137124   0.669   0.818   8.569  0.7617  0.2359  0.3164
 8555SOL    HW237125   0.676   0.675   8.622  0.0977  1.1668  0.4779
 8556SOL     OW37126   1.458   3.841   1.778  1.0721 -0.2248  0.4113
 8556SOL    HW137127   1.433   3.868   1.867 -2.8633  0.1735 -0.8126
 8556SOL    HW237128   1.382   3.787   1.757  1.6379 -0.1276 -1.8082
 8557SOL     OW37129   3.799   0.904  10.775 -0.4407  0.2481  0.7990
 8557SOL    HW137130   3.817   0.820  10.818 -1.2202 -0.4795 -0.2913
 8557SOL    HW237131   3.865   0.956  10.822  0.1508 -0.4658  0.7622
 8558SOL     OW37132   2.666   1.996   2.900 -0.2617  0.2472 -0.7002
 8558SOL    HW137133   2.602   2.019   2.968 -0.4803 -2.0425 -0.0977
 8558SOL    HW237134   2.747   2.042   2.918  1.4481 -2.7216 -0.8035
 8559SOL     OW37135   0.097   2.856  10.832 -0.0086  0.5880  0.5336
 8559SOL    HW137136   0.006   2.880  10.849 -0.5902 -1.8828  0.8215
 8559SOL    HW237137   0.132   2.905  10.907 -1.0418  0.2538  1.2281
 8560SOL     OW37138   3.620   3.477   2.895  0.1165  0.5988  0.4212
 8560SOL    HW137139   3.609   3.539   2.967 -0.7546  1.6274 -0.5919
 8560SOL    HW237140   3.570   3.402   2.928  1.6780 -0.5055  0.2652
 8561SOL     OW37141   2.103   3.679  11.426 -0.3772  0.4423  0.4900
 8561SOL    HW137142   2.096   3.585  11.409 -2.8676  0.9928 -1.5090
 8561SOL    HW237143   2.136   3.712  11.342 -0.2397 -1.3166 -0.1464
 8562SOL     OW37144   3.145   2.227   8.166 -0.2368  0.5913 -0.2080
 8562SOL    HW137145   3.178   2.137   8.174  0.5853  0.9052 -0.0289
 8562SOL    HW237146   3.201   2.266   8.098  1.7538 -0.5198  0.7763
 8563SOL     OW37147   0.351   1.832   4.637  0.4215  0.3711 -0.0499
 8563SOL    HW137148   0.417   1.852   4.704  1.1715 -0.5482 -0.5162
 8563SOL    HW237149   0.290   1.789   4.696  0.8989 -1.8329 -1.1472
 8564SOL     OW37150   0.105   2.182   4.776  0.3261 -0.1991 -0.1719
 8564SOL    HW137151   0.135   2.236   4.848  2.8198 -0.0547 -1.3071
 8564SOL    HW237152   0.021   2.223   4.755  0.8650  1.2696  0.6246
 8565SOL     OW37153   0.744   2.805   9.418  0.0290 -0.3654 -0.2258
 8565SOL    HW137154   0.793   2.744   9.473 -0.8591  0.3569  1.3572
 8565SOL    HW237155   0.678   2.809   9.487  1.2317  0.5988  0.8828
 8566SOL     OW37156   0.808   4.556  13.898 -0.3511 -0.1364 -0.0278
 8566SOL    HW137157   0.875   4.596  13.843  0.4099 -0.9339  0.3168
 8566SOL    HW237158   0.729   4.570  13.847 -1.5712  2.5461  2.6508
 8567SOL     OW37159   3.750   0.322   0.571  1.2194 -0.2200 -0.2381
 8567SOL    HW137160   3.707   0.406   0.586  1.9016  0.4735 -2.1555
 8567SOL    HW237161   3.736   0.310   0.477 -0.4039 -1.2762  0.1288
 8568SOL     OW37162   1.425   3.604  12.567 -0.1869 -0.6453  0.0036
 8568SOL    HW137163   1.374   3.656  12.630  0.5866 -1.0310  0.9423
 8568SOL    HW237164   1.516   3.625  12.588 -0.7438  1.9035 -0.1539
 8569SOL     OW37165   3.566   1.070  13.050  0.4732  0.1201  0.3464
 8569SOL    HW137166   3.567   1.125  12.971 -0.4042 -0.5461 -0.1277
 8569SOL    HW237167   3.642   1.013  13.036  0.6466  0.2551  0.7369
 8570SOL     OW37168   0.747   3.792  11.784  0.2792  0.2731 -0.0905
 8570SOL    HW137169   0.776   3.765  11.696 -2.7343  0.3281 -1.0925
 8570SOL    HW237170   0.825   3.816  11.834  2.3952 -1.5706 -2.4429
 8571SOL     OW37171   3.286   3.664  10.991  0.2478 -0.4069 -0.0238
 8571SOL    HW137172   3.378   3.651  11.016 -0.1229 -0.7697  1.1635
 8571SOL    HW237173   3.254   3.574  10.997 -0.9069  0.0032 -0.0147
 8572SOL     OW37174   0.865   4.664   5.454  0.6726 -0.0958 -0.0819
 8572SOL    HW137175   0.793   4.675   5.516 -0.4182 -0.4924 -1.2995
 8572SOL    HW237176   0.943   4.704   5.494 -0.3269 -0.7302  2.5118
 8573SOL     OW37177   3.682   2.946   5.297 -0.5882  0.1305  0.3960
 8573SOL    HW137178   3.732   2.924   5.218 -0.4300 -0.4197  0.6489
 8573SOL    HW237179   3.737   3.015   5.334 -0.3169 -0.0374  0.3060
 8574SOL     OW37180   1.674   1.266  15.181 -0.2816  0.2929 -0.6036
 8574SOL    HW137181   1.707   1.323  15.112 -0.2717 -0.3111 -1.0974
 8574SOL    HW237182   1.606   1.213  15.139 -0.4984 -0.5834  0.8352
 8575SOL     OW37183   1.875   1.974   1.696 -0.5455 -0.4826 -0.2421
 8575SOL    HW137184   1.797   1.924   1.673 -0.2140 -1.8650  1.6436
 8575SOL    HW237185   1.943   1.913   1.724 -0.4976  0.6125  2.0912
 8576SOL     OW37186   2.789   3.331   8.183 -0.5925  0.4707  0.2806
 8576SOL    HW137187   2.760   3.240   8.174  2.5135 -0.5446  0.9120
 8576SOL    HW237188   2.763   3.363   8.269  0.1691 -0.4680  0.8467
 8577SOL     OW37189   3.393   1.672   0.428 -0.4596 -1.0705 -0.0767
 8577SOL    HW137190   3.385   1.694   0.521 -1.0590 -2.8246  0.2782
 8577SOL    HW237191   3.452   1.597   0.436  1.3271  0.4418  0.9276
 8578SOL     OW37192   3.924   3.702   5.289  0.1433  0.0180 -0.4497
 8578SOL    HW137193   4.011   3.670   5.311  0.9584  2.7630  0.3513
 8578SOL    HW237194   3.865   3.640   5.332  0.6550  0.2182  0.5421
 8579SOL     OW37195   0.285   0.537   6.273  0.4476  0.0326  0.6579
 8579SOL    HW137196   0.194   0.525   6.246  0.4434 -0.8133  1.0331
 8579SOL    HW237197   0.316   0.464   6.220  0.8522  0.9982 -0.4348
 8580SOL     OW37198   2.942   1.138   4.782  0.0610 -0.3883  0.3340
 8580SOL    HW137199   3.025   1.133   4.735 -0.5328 -0.1916 -0.7291
 8580SOL    HW237200   2.880   1.096   4.723  0.0074 -0.2943  0.3229
 8581SOL     OW37201   3.852   2.554   3.519  0.1337 -0.2904  0.2074
 8581SOL    HW137202   3.913   2.510   3.578  1.1954  0.3237 -0.4192
 8581SOL    HW237203   3.773   2.536   3.570  0.0597  0.8253  0.4778
 8582SOL     OW37204   2.149   4.266   3.969  0.1793  0.3518 -0.2103
 8582SOL    HW137205   2.171   4.298   4.056 -1.5575 -0.7613  0.6525
 8582SOL    HW237206   2.055   4.286   3.963 -0.5332 -3.0394 -0.4082
 8583SOL     OW37207   1.696   0.213   1.989  0.1775  0.7620  0.3254
 8583SOL    HW137208   1.605   0.193   1.968  0.5283  0.0554 -0.5240
 8583SOL    HW237209   1.711   0.288   1.931  0.0092  1.0917  0.7075
 8584SOL     OW37210   4.282   3.469  12.702 -0.2775 -0.0288 -0.7592
 8584SOL    HW137211   4.308   3.518  12.624 -0.3984  1.2085 -0.0237
 8584SOL    HW237212   4.312   3.528  12.771  0.1259 -1.2802  0.1432
 8585SOL     OW37213   3.754   0.782   1.989  0.1750  0.4839  0.0041
 8585SOL    HW137214   3.688   0.718   1.962 -0.0118  1.1545 -1.1612
 8585SOL    HW237215   3.807   0.724   2.043 -1.0912 -1.5367 -0.9369
 8586SOL     OW37216   2.360   1.003   5.999 -0.3791  0.2887 -0.5294
 8586SOL    HW137217   2.375   0.916   5.962  0.3108  0.5841 -0.9392
 8586SOL    HW237218   2.266   1.019   5.991 -0.7760 -2.2466 -0.7975
 8587SOL     OW37219   1.264   3.311   6.612  0.7970 -0.3477 -0.6407
 8587SOL    HW137220   1.308   3.394   6.628  1.1582 -0.4291 -1.2190
 8587SOL    HW237221   1.223   3.298   6.698 -3.9234 -2.2652 -3.2102
 8588SOL     OW37222   2.027   3.695   6.051 -0.7069  0.6783 -0.2547
 8588SOL    HW137223   1.946   3.644   6.039 -0.3482 -0.1278  0.7842
 8588SOL    HW237224   2.100   3.635   6.039  0.2844  1.9457 -0.4855
 8589SOL     OW37225   1.890   4.588   0.440 -0.3535 -0.1605 -0.5305
 8589SOL    HW137226   1.806   4.563   0.479 -0.2016 -0.3713 -0.3371
 8589SOL    HW237227   1.944   4.547   0.508  0.1698 -1.4251 -1.7156
 8590SOL     OW37228   2.234   1.821  12.046 -0.1078  0.5616  0.0780
 8590SOL    HW137229   2.259   1.866  12.126  0.8285  1.4506 -0.7124
 8590SOL    HW237230   2.253   1.730  12.068 -1.9071  0.3755  0.8595
 8591SOL     OW37231   2.216   1.732  15.493 -0.2526  0.1500 -0.1594
 8591SOL    HW137232   2.138   1.758  15.444 -0.0337 -0.8223 -1.0268
 8591SOL    HW237233   2.191   1.646  15.526  0.4943  0.4053  1.0527
 8592SOL     OW37234   3.334   0.226   5.595 -0.1391 -0.3437 -1.0853
 8592SOL    HW137235   3.300   0.266   5.515  0.8347  0.1328 -1.2654
 8592SOL    HW237236   3.267   0.160   5.612  0.1654  0.5447  3.4993
 8593SOL     OW37237   2.037   3.485  16.573  0.0690  0.2395  0.5386
 8593SOL    HW137238   2.032   3.580  16.567  0.9469  0.2474 -0.0420
 8593SOL    HW237239   1.946   3.457  16.587  0.0083  0.4707  0.6119
 8594SOL     OW37240   4.060   1.458   3.403  0.2352  0.2884  0.2002
 8594SOL    HW137241   4.038   1.375   3.361  1.3000  0.1430 -0.0671
 8594SOL    HW237242   4.118   1.491   3.334 -0.5116  1.6396  0.2270
 8595SOL     OW37243   1.107   2.024   9.670  0.1445  0.2947 -0.3295
 8595SOL    HW137244   1.028   2.039   9.722  1.3708 -0.6942  1.7971
 8595SOL    HW237245   1.103   2.108   9.623  0.9869 -0.0976 -1.1005
 8596SOL     OW37246   4.708   1.035   7.932 -0.0219 -0.2976 -0.2484
 8596SOL    HW137247   0.028   1.048   8.017  3.8867  0.8399 -2.3453
 8596SOL    HW237248   0.032   1.099   7.877  0.2560 -1.0566 -0.8895
 8597SOL     OW37249   0.517   4.210   8.018  0.5110 -0.3068  0.1123
 8597SOL    HW137250   0.587   4.264   8.056 -0.0261  0.7970 -0.4699
 8597SOL    HW237251   0.490   4.152   8.088  0.7623  0.3390  0.7499
 8598SOL     OW37252   4.578   1.694  12.916 -0.0350 -0.1536 -0.7964
 8598SOL    HW137253   4.622   1.729  12.839 -1.7737  1.6610 -0.9491
 8598SOL    HW237254   4.623   1.750  12.980 -2.9776 -0.1274  1.2383
 8599SOL     OW37255   4.309   3.472  17.432  0.2521  0.4268  0.3291
 8599SOL    HW137256   4.284   3.384  17.406  1.0687 -0.0790  1.2476
 8599SOL    HW237257   4.234   3.527  17.408  0.7245  1.6752  1.6391
 8600SOL     OW37258   0.378   3.864   1.181  0.1142 -0.6402  0.0717
 8600SOL    HW137259   0.288   3.880   1.207 -0.2387 -2.2976 -0.0863
 8600SOL    HW237260   0.425   3.849   1.263 -0.8962  0.7834  0.9049
 8601SOL     OW37261   1.636   1.483   8.989 -0.1097 -0.4794 -0.5232
 8601SOL    HW137262   1.698   1.492   8.916  0.8438  0.2463  0.3764
 8601SOL    HW237263   1.680   1.512   9.068  0.6220 -0.9948 -0.7384
 8602SOL     OW37264   0.702   0.259   8.650 -0.2031  0.4021  1.0756
 8602SOL    HW137265   0.734   0.179   8.609 -0.3507  0.2064  1.3458
 8602SOL    HW237266   0.610   0.233   8.663 -0.6121  2.0893  1.5567
 8603SOL     OW37267   4.435   3.612   1.917 -0.2200  0.6404 -0.1119
 8603SOL    HW137268   4.427   3.519   1.899 -2.7427  0.6217  1.0759
 8603SOL    HW237269   4.341   3.626   1.905 -0.4466  0.1083  1.0046
 8604SOL     OW37270   0.387   3.279   2.367 -0.9438  0.1251 -0.4092
 8604SOL    HW137271   0.389   3.310   2.276 -1.2888  1.4649  0.0336
 8604SOL    HW237272   0.441   3.200   2.365 -1.6276 -0.3360 -0.7764
 8605SOL     OW37273   2.563   3.311   3.896  0.6553  0.1313 -0.7001
 8605SOL    HW137274   2.588   3.392   3.941  1.9732 -0.7263  0.1408
 8605SOL    HW237275   2.548   3.333   3.804 -0.8482 -1.4396 -0.8113
 8606SOL     OW37276   3.355   0.891  10.247  0.5672 -0.0500 -0.5075
 8606SOL    HW137277   3.278   0.897  10.304 -0.2184  1.0706 -1.6925
 8606SOL    HW237278   3.405   0.820  10.288  0.2891  0.0858  0.0798
 8607SOL     OW37279   4.334   2.381   5.443 -0.5040  0.1825 -0.3105
 8607SOL    HW137280   4.418   2.427   5.448 -0.3994 -0.1443  0.8316
 8607SOL    HW237281   4.354   2.326   5.367  0.7725  1.8835 -1.2054
 8608SOL     OW37282   3.761   4.307   8.667 -0.2170 -0.1841  0.1290
 8608SOL    HW137283   3.845   4.292   8.623 -0.2765  0.7882 -0.3381
 8608SOL    HW237284   3.766   4.267   8.753  4.8155  2.2463  0.9552
 8609SOL     OW37285   0.638   0.899   4.420 -0.0930 -0.0139 -0.4002
 8609SOL    HW137286   0.612   0.845   4.346 -0.5395  0.5715 -0.6671
 8609SOL    HW237287   0.714   0.947   4.386  0.1124 -0.4258 -0.5205
 8610SOL     OW37288   2.375   0.529  14.071 -0.1930 -0.0688  0.1636
 8610SOL    HW137289   2.313   0.533  14.143  0.4217  1.6215  0.6073
 8610SOL    HW237290   2.313   0.543  13.999  0.2524 -1.2217 -0.4544
 8611SOL     OW37291   1.658   2.127   5.874 -0.4963  0.5606 -0.0187
 8611SOL    HW137292   1.706   2.199   5.916  1.6292 -1.1829  0.5475
 8611SOL    HW237293   1.683   2.051   5.926  1.2418  1.3145  0.2464
 8612SOL     OW37294   2.899   3.377   9.124  0.9741 -0.0967 -0.0606
 8612SOL    HW137295   2.882   3.471   9.132  0.4722 -0.0574 -1.7227
 8612SOL    HW237296   2.981   3.377   9.075  1.1030  3.3969  0.1799
 8613SOL     OW37297   2.714   0.575   4.224 -0.7098 -0.4790 -0.8718
 8613SOL    HW137298   2.798   0.540   4.195  0.8863  3.8299 -1.4060
 8613SOL    HW237299   2.656   0.522   4.169  0.1962 -2.0648 -0.2867
 8614SOL     OW37300   0.076   1.293   7.111  0.2790  0.7566 -0.4030
 8614SOL    HW137301   0.036   1.248   7.036 -1.2087  1.1103  0.1689
 8614SOL    HW237302   0.166   1.308   7.083  0.4898 -1.9938 -1.1527
 8615SOL     OW37303   1.280   3.972  15.272  0.5887  0.2107  0.3099
 8615SOL    HW137304   1.284   4.022  15.191  0.7414 -0.0091  0.1809
 8615SOL    HW237305   1.308   4.040  15.334 -2.5850  2.5743 -0.8559
 8616SOL     OW37306   2.314   0.511   2.963 -0.8163 -0.4608 -0.1106
 8616SOL    HW137307   2.237   0.527   3.017  0.0509 -0.8873  1.2546
 8616SOL    HW237308   2.357   0.448   3.020  0.6664  0.0516 -0.6574
 8617SOL     OW37309   0.437   3.629  11.566 -0.0495  0.0387  0.0575
 8617SOL    HW137310   0.356   3.656  11.524  0.2688 -0.3994 -0.8234
 8617SOL    HW237311   0.506   3.671  11.515 -0.7865  1.6423  0.3977
 8618SOL     OW37312   1.273   1.780   4.040 -0.2779  0.2480  0.5404
 8618SOL    HW137313   1.353   1.752   4.085 -0.5936 -1.1564  0.2166
 8618SOL    HW237314   1.233   1.837   4.106 -3.5230 -0.1304 -1.1314
 8619SOL     OW37315   1.534   2.165  14.554  0.0836 -0.1564 -0.8043
 8619SOL    HW137316   1.480   2.110  14.498 -0.5046 -0.2384 -0.1411
 8619SOL    HW237317   1.469   2.235  14.565 -2.3849 -2.6687  0.3457
 8620SOL     OW37318   4.281   1.467  16.868 -0.1674 -0.0007  0.6228
 8620SOL    HW137319   4.359   1.521  16.884  0.5177 -1.1672  1.1688
 8620SOL    HW237320   4.220   1.523  16.820 -0.7408  0.3357  1.7339
 8621SOL     OW37321   2.972   3.090  12.688  0.3005  0.7103  0.4024
 8621SOL    HW137322   2.903   3.153  12.670 -0.6143 -0.7293 -1.1672
 8621SOL    HW237323   3.013   3.131  12.764  1.3305  1.2765 -0.4574
 8622SOL     OW37324   1.246   2.449   5.109 -0.3230 -0.3149  0.0161
 8622SOL    HW137325   1.153   2.451   5.130 -0.3115  0.9294 -0.0241
 8622SOL    HW237326   1.254   2.496   5.025 -0.6595  2.6133  1.6339
 8623SOL     OW37327   1.163   2.156   1.050  0.1414 -0.0198 -0.5317
 8623SOL    HW137328   1.171   2.251   1.056  2.9102 -0.3150  0.1245
 8623SOL    HW237329   1.086   2.149   0.992 -1.0720  2.2362  0.8231
 8624SOL     OW37330   4.480   3.117   2.583 -0.1978  0.1498  0.7115
 8624SOL    HW137331   4.402   3.103   2.637 -0.2895  2.0762  1.0763
 8624SOL    HW237332   4.452   3.196   2.537 -1.7663 -1.3335 -0.9330
 8625SOL     OW37333   4.662   1.754   7.329 -0.2025 -0.2295  0.6133
 8625SOL    HW137334   4.706   1.812   7.267 -1.7378 -0.3383 -0.5773
 8625SOL    HW237335   4.681   1.674   7.279 -0.9235 -1.0342  1.6458
 8626SOL     OW37336   1.433   4.329   6.827 -0.3400  0.0279  0.0090
 8626SOL    HW137337   1.433   4.417   6.789  2.8430  0.3214  0.7154
 8626SOL    HW237338   1.481   4.279   6.761  0.0454 -3.0406  2.6460
 8627SOL     OW37339   2.115   2.412   8.084 -0.0926 -0.0503 -0.2428
 8627SOL    HW137340   2.139   2.469   8.157  0.4777  0.4236 -0.8048
 8627SOL    HW237341   2.071   2.472   8.024  1.7684 -1.4883 -3.0683
 8628SOL     OW37342   0.005   3.207   3.842 -0.0722  0.2582  0.0922
 8628SOL    HW137343   0.044   3.285   3.881  1.8027 -0.9880  0.7165
 8628SOL    HW237344   0.002   3.239   3.752 -0.2807  1.7255  0.6253
 8629SOL     OW37345   1.408   1.961   4.320  0.0841 -0.0856  0.4576
 8629SOL    HW137346   1.333   1.905   4.340 -0.9148  0.7420 -1.0664
 8629SOL    HW237347   1.400   2.028   4.388  0.2042 -0.4216  0.8076
 8630SOL     OW37348   0.682   1.600   6.594  0.2418 -0.1465 -0.3262
 8630SOL    HW137349   0.719   1.671   6.646 -1.1355  0.9325 -0.8263
 8630SOL    HW237350   0.755   1.585   6.534  0.8247 -0.4949  0.4705
 8631SOL     OW37351   4.349   0.876   8.735 -0.2723 -0.3625  0.0085
 8631SOL    HW137352   4.332   0.859   8.828  1.6781 -3.0195 -0.1220
 8631SOL    HW237353   4.307   0.797   8.702  1.8392 -1.4746 -0.0491
 8632SOL     OW37354   4.287   3.942   8.520  0.0446 -0.1202  0.6190
 8632SOL    HW137355   4.373   3.983   8.530  0.0699 -0.7237  2.9485
 8632SOL    HW237356   4.277   3.960   8.427  2.4897  1.5962  0.6760
 8633SOL     OW37357   4.252   3.053   2.916 -0.0729 -0.1166 -0.2739
 8633SOL    HW137358   4.267   3.136   2.962 -0.4805 -0.9490  1.3696
 8633SOL    HW237359   4.188   3.080   2.850  0.2039 -1.4696 -1.1041
 8634SOL     OW37360   2.462   0.337   4.700  0.0631 -0.1204  0.3302
 8634SOL    HW137361   2.484   0.430   4.712 -0.1778 -0.4735  3.4719
 8634SOL    HW237362   2.367   0.339   4.690  0.2064 -1.5315 -1.4009
 8635SOL     OW37363   0.198   1.744   3.696  0.0650  0.3676 -0.2378
 8635SOL    HW137364   0.129   1.678   3.699  0.4566 -0.0145  0.3014
 8635SOL    HW237365   0.219   1.742   3.602 -0.0257  0.3693 -0.2578
 8636SOL     OW37366   4.573   1.889  16.508 -0.1417 -0.3061  0.4622
 8636SOL    HW137367   4.572   1.971  16.458 -1.3754  0.7825  2.2394
 8636SOL    HW237368   4.491   1.849  16.477 -1.0272  1.9738 -0.1806
 8637SOL     OW37369   0.439   0.627   5.495 -0.0846 -0.1026  0.4946
 8637SOL    HW137370   0.451   0.645   5.589 -2.1523  0.4425  0.6508
 8637SOL    HW237371   0.366   0.566   5.501  1.1197 -1.7329 -1.6740
 8638SOL     OW37372   0.733   0.346   5.460  0.7722 -0.4167 -0.1918
 8638SOL    HW137373   0.686   0.428   5.449 -1.5693 -1.7001  0.1757
 8638SOL    HW237374   0.679   0.279   5.418  0.5452 -0.1526 -0.3217
 8639SOL     OW37375   1.530   2.251   8.208  0.3904 -0.3348  0.4336
 8639SOL    HW137376   1.467   2.255   8.279  0.7045 -0.5641  0.7242
 8639SOL    HW237377   1.606   2.300   8.241  1.5585 -1.3637 -0.7597
 8640SOL     OW37378   4.226   2.783  14.705 -0.6868  0.2457 -0.1752
 8640SOL    HW137379   4.297   2.806  14.645  0.5765 -1.3696  0.7165
 8640SOL    HW237380   4.149   2.831  14.674  0.3985  1.1475 -1.5220
 8641SOL     OW37381   3.498   0.565   2.789 -0.0406  0.3441 -0.6673
 8641SOL    HW137382   3.549   0.487   2.811  0.1662  0.7887  0.4216
 8641SOL    HW237383   3.509   0.570   2.694  2.9435  0.9710 -0.2923
 8642SOL     OW37384   1.318   4.311   8.404 -0.0826 -0.3034 -0.4353
 8642SOL    HW137385   1.223   4.319   8.411  0.0636  0.0983  1.0201
 8642SOL    HW237386   1.347   4.401   8.419  0.5782 -0.6865  0.6099
 8643SOL     OW37387   4.236   4.037  13.131  0.5094 -0.5262  0.1852
 8643SOL    HW137388   4.292   3.974  13.087 -0.0297 -0.9036  0.0468
 8643SOL    HW237389   4.250   4.114  13.076 -0.3478 -0.7144 -0.3011
 8644SOL     OW37390   3.825   1.098  12.151  0.7555 -0.0746 -0.7996
 8644SOL    HW137391   3.904   1.075  12.200  0.1132 -1.3366 -0.3614
 8644SOL    HW237392   3.858   1.090  12.061 -1.6776 -0.8752 -1.6319
 8645SOL     OW37393   2.728   4.619   5.132 -0.1425  0.2002  0.0827
 8645SOL    HW137394   2.817   4.587   5.113  0.0557  0.1274  1.1599
 8645SOL    HW237395   2.718   4.689   5.068  1.1992  0.0549 -0.3011
 8646SOL     OW37396   0.105   2.980   4.112  0.2377 -0.2073 -0.0707
 8646SOL    HW137397   0.075   2.907   4.058  2.3670 -0.3041 -1.1141
 8646SOL    HW237398   0.199   2.967   4.122  0.3644  0.6021 -0.2719
 8647SOL     OW37399   2.669   2.231  16.083 -0.1243  0.0066  0.7901
 8647SOL    HW137400   2.701   2.306  16.134 -1.4031  1.1622 -0.0852
 8647SOL    HW237401   2.681   2.269  15.996 -0.8148  0.1734  0.7661
 8648SOL     OW37402   3.742   3.605   5.753  0.2421 -0.8310 -0.1293
 8648SOL    HW137403   3.681   3.537   5.781  0.5050 -0.8772  0.3402
 8648SOL    HW237404   3.679   3.668   5.717 -0.0620 -1.1964 -0.2419
 8649SOL     OW37405   4.525   0.762   5.507 -0.3532  0.0632  0.5509
 8649SOL    HW137406   4.460   0.734   5.443  0.5338 -1.2363  0.2042
 8649SOL    HW237407   4.539   0.681   5.556 -0.5331  0.0553  0.5890
 8650SOL     OW37408   1.739   0.548  10.561  0.3979 -0.9542  0.4590
 8650SOL    HW137409   1.725   0.601  10.482 -0.3907 -2.8594 -0.7016
 8650SOL    HW237410   1.695   0.596  10.631  2.9011 -0.7911  1.9136
 8651SOL     OW37411   0.181   3.628   8.524  0.2844 -0.8468 -0.7178
 8651SOL    HW137412   0.250   3.586   8.473  1.0521 -2.4598  1.7092
 8651SOL    HW237413   0.203   3.589   8.608 -2.6713  1.3076  1.0878
 8652SOL     OW37414   2.617   1.150   8.870  0.1031 -0.6489 -0.3996
 8652SOL    HW137415   2.594   1.214   8.938 -0.1920 -0.7734 -0.3839
 8652SOL    HW237416   2.703   1.121   8.901  0.6538 -1.6722 -2.9060
 8653SOL     OW37417   2.258   3.892  14.693 -0.3773 -0.5276  0.1709
 8653SOL    HW137418   2.201   3.969  14.691  1.1334  0.6329  1.7899
 8653SOL    HW237419   2.342   3.932  14.715 -0.2394 -0.9102  0.3308
 8654SOL     OW37420   0.605   1.694   8.975 -0.0299 -0.4145  0.0018
 8654SOL    HW137421   0.594   1.776   9.024 -0.3309 -0.1251 -0.5538
 8654SOL    HW237422   0.530   1.647   9.010  0.4426 -1.0044  0.2221
 8655SOL     OW37423   1.915   1.200   2.170 -0.3872 -0.2964 -0.1602
 8655SOL    HW137424   2.001   1.175   2.136 -1.2453 -0.9340 -1.8765
 8655SOL    HW237425   1.863   1.151   2.106 -2.3656 -0.5896  1.6828
 8656SOL     OW37426   2.787   0.850   0.495 -0.0802 -0.6469 -0.2651
 8656SOL    HW137427   2.863   0.903   0.474  0.4331 -0.6643  1.5340
 8656SOL    HW237428   2.793   0.778   0.433 -4.4599 -1.0918 -0.1974
 8657SOL     OW37429   0.510   2.649   5.295 -0.2007 -0.0851 -0.6431
 8657SOL    HW137430   0.533   2.574   5.349  1.1678  1.9906  1.6499
 8657SOL    HW237431   0.421   2.637   5.261 -1.0074  0.0408  1.3927
 8658SOL     OW37432   1.072   3.606  13.289  0.4673 -0.7008  0.0148
 8658SOL    HW137433   0.988   3.564  13.305  0.3400  0.2140  1.7751
 8658SOL    HW237434   1.127   3.534  13.321  1.2433 -1.1748 -2.3993
 8659SOL     OW37435   2.876   2.655   5.263  0.6354  0.0111  0.0122
 8659SOL    HW137436   2.842   2.571   5.295  1.0114  0.6140  1.9972
 8659SOL    HW237437   2.967   2.649   5.294  0.4869 -0.5048  0.3448
 8660SOL     OW37438   0.783   0.046  16.843  0.3432 -0.2648  0.4326
 8660SOL    HW137439   0.854   0.103  16.813  1.8505 -1.6878  1.3602
 8660SOL    HW237440   0.718   0.084  16.783 -0.3000 -0.4552  1.0073
 8661SOL     OW37441   2.386   2.964   3.725 -0.4846  0.3384 -0.1228
 8661SOL    HW137442   2.385   2.869   3.712 -1.3861  0.5849 -1.9868
 8661SOL    HW237443   2.460   2.969   3.784  0.1399  0.4199 -0.9197
 8662SOL     OW37444   2.469   1.136   2.090  0.2753 -0.0227 -0.2324
 8662SOL    HW137445   2.488   1.131   1.996  2.0743 -1.9498  0.2481
 8662SOL    HW237446   2.529   1.209   2.109 -1.2035  1.7197 -2.1689
 8663SOL     OW37447   2.591   1.676   3.392  0.0308 -0.3473 -0.1686
 8663SOL    HW137448   2.590   1.581   3.382 -1.9045 -0.4477  0.9353
 8663SOL    HW237449   2.640   1.698   3.471 -1.3192  0.0387  0.5690
 8664SOL     OW37450   1.612   2.521   7.700 -1.0827  0.5880  0.1016
 8664SOL    HW137451   1.696   2.476   7.699 -1.5010 -0.1632 -0.5823
 8664SOL    HW237452   1.599   2.529   7.605 -1.0991  0.6341  0.1075
 8665SOL     OW37453   1.178   1.350   1.214  0.2218  0.3343 -0.0316
 8665SOL    HW137454   1.100   1.314   1.256  1.1730 -0.8250  0.7370
 8665SOL    HW237455   1.145   1.415   1.152 -0.5741 -0.1224 -0.0905
 8666SOL     OW37456   4.055   2.015   7.597  0.1054 -0.1856  0.5026
 8666SOL    HW137457   4.095   2.102   7.589  1.8864 -1.0154  0.3320
 8666SOL    HW237458   3.973   2.031   7.645  0.4201  1.9749  0.3494
 8667SOL     OW37459   1.024   2.809   4.009 -0.1938 -0.5743  0.0466
 8667SOL    HW137460   0.957   2.805   4.077 -0.8013 -1.6207 -0.6019
 8667SOL    HW237461   1.090   2.841   4.070 -0.2458  0.7557 -0.6106
 8668SOL     OW37462   4.300   4.677  12.207 -0.2982 -0.6594  0.6755
 8668SOL    HW137463   4.357   4.613  12.165  0.0932  2.3551 -3.3378
 8668SOL    HW237464   4.307   0.019  12.137  1.0296 -2.0225 -0.4583
 8669SOL     OW37465   4.491   1.625   0.381 -0.2085 -0.5655 -0.3640
 8669SOL    HW137466   4.576   1.650   0.417  0.8243 -0.9157 -2.5314
 8669SOL    HW237467   4.453   1.566   0.446 -1.3923  0.8981  0.2897
 8670SOL     OW37468   3.353   3.784   5.471 -0.4906  0.6110  0.3542
 8670SOL    HW137469   3.342   3.867   5.517  0.2463 -0.5810  2.7326
 8670SOL    HW237470   3.260   3.761   5.479 -0.3409 -0.2487 -0.3795
 8671SOL     OW37471   4.066   2.220   3.194  0.1858  0.0563  0.0558
 8671SOL    HW137472   3.983   2.259   3.222  1.4104  1.8092  1.2339
 8671SOL    HW237473   4.119   2.224   3.273  0.5775 -1.0374 -0.1589
 8672SOL     OW37474   4.316   3.478  16.135 -0.0767 -0.0551 -0.4882
 8672SOL    HW137475   4.239   3.439  16.177 -0.8123 -0.0588 -1.8433
 8672SOL    HW237476   4.382   3.424  16.178  0.7928  1.5788  0.2317
 8673SOL     OW37477   3.576   2.732   5.501  0.0224 -0.8105 -0.1000
 8673SOL    HW137478   3.635   2.763   5.433 -1.9531  0.5358 -1.2028
 8673SOL    HW237479   3.635   2.662   5.530 -0.7136 -0.4162  2.3636
 8674SOL     OW37480   0.218   2.175   2.618 -0.4704 -0.0999 -0.2187
 8674SOL    HW137481   0.308   2.177   2.651 -0.4211 -2.2093 -0.2493
 8674SOL    HW237482   0.181   2.093   2.649  2.4473 -1.7076 -0.9851
 8675SOL     OW37483   1.333   4.090   7.230  0.4918  0.2402  0.4829
 8675SOL    HW137484   1.267   4.037   7.274 -0.2371 -0.5746 -1.5887
 8675SOL    HW237485   1.290   4.109   7.147 -0.5052 -0.9978  0.7281
 8676SOL     OW37486   2.593   3.357  17.179 -0.1091  0.3331 -0.1915
 8676SOL    HW137487   2.655   3.396  17.242 -2.1139 -1.7136  3.0634
 8676SOL    HW237488   2.561   3.287  17.235  0.5711  0.5380  0.4574
 8677SOL     OW37489   1.610   2.977   9.154 -0.4688  0.2623 -0.0454
 8677SOL    HW137490   1.569   2.993   9.240 -0.1935 -0.2860  0.1926
 8677SOL    HW237491   1.696   3.015   9.170  0.4041 -0.1382 -4.0063
 8678SOL     OW37492   2.895   0.460   1.969 -0.1569 -0.1528  0.4109
 8678SOL    HW137493   2.982   0.420   1.964  0.6316  1.5299  0.9934
 8678SOL    HW237494   2.891   0.524   1.898 -1.4853 -2.7663 -1.8928
 8679SOL     OW37495   1.630   4.435   1.924 -0.6424  0.0595  0.4644
 8679SOL    HW137496   1.662   4.351   1.891 -2.1351 -0.8609  1.3913
 8679SOL    HW237497   1.683   4.494   1.871 -1.0437  0.5730  0.6384
 8680SOL     OW37498   0.001   0.398   0.102  0.2804 -0.2436  0.0620
 8680SOL    HW137499   4.685   0.458   0.039 -0.7998 -1.1997 -0.1864
 8680SOL    HW237500   4.657   0.330   0.100 -0.5035  0.5713 -0.9996
 8681SOL     OW37501   0.924   1.783   9.069  0.3478  0.1755 -0.3375
 8681SOL    HW137502   0.883   1.828   9.143 -0.4270 -1.6965  0.3786
 8681SOL    HW237503   0.891   1.696   9.094  1.1787  0.1303  0.6112
 8682SOL     OW37504   0.114   0.002   8.541  0.0003  0.1381 -0.4117
 8682SOL    HW137505   0.077   0.074   8.490  1.1511  1.0272 -0.0007
 8682SOL    HW237506   0.032   4.676   8.549  1.2208 -1.9511 -0.5717
 8683SOL     OW37507   1.133   1.886   3.185  0.2930 -0.5869  0.0280
 8683SOL    HW137508   1.193   1.826   3.140  0.6795 -0.4322  0.3492
 8683SOL    HW237509   1.151   1.967   3.138  2.6996 -1.9944 -1.4562
 8684SOL     OW37510   0.320   1.899   5.207  0.3467  0.4534  0.2283
 8684SOL    HW137511   0.267   1.970   5.242 -0.1388  0.2331 -0.0517
 8684SOL    HW237512   0.361   1.862   5.285 -1.1560  1.5448  1.5202
 8685SOL     OW37513   4.244   1.100  11.861 -0.1484  0.6309 -0.1141
 8685SOL    HW137514   4.269   1.086  11.952  0.4774 -0.3215 -0.4324
 8685SOL    HW237515   4.292   1.183  11.855 -1.0891  1.2429  0.8342
 8686SOL     OW37516   1.580   2.430   1.552  0.4564 -0.2103 -0.4916
 8686SOL    HW137517   1.603   2.422   1.645  0.7140 -0.6285 -0.5896
 8686SOL    HW237518   1.514   2.366   1.525 -1.2379  0.9130  0.9392
 8687SOL     OW37519   2.381   1.027   6.767  0.0196  0.2594  0.6349
 8687SOL    HW137520   2.296   1.047   6.727  0.6529  0.4681 -0.6151
 8687SOL    HW237521   2.359   1.023   6.860  0.3685 -1.0305  0.6531
 8688SOL     OW37522   3.638   4.230   1.974  0.3854  0.3762 -0.0396
 8688SOL    HW137523   3.553   4.238   2.019  0.1497 -1.1460 -0.2232
 8688SOL    HW237524   3.655   4.323   1.960 -3.5013  1.0268 -0.3842
 8689SOL     OW37525   4.652   3.473  10.101 -0.3408  0.0840  0.0937
 8689SOL    HW137526   4.582   3.521  10.057 -0.7390 -1.3294 -0.8142
 8689SOL    HW237527   4.703   3.544  10.139 -0.6500 -0.5126  1.6167
 8690SOL     OW37528   2.349   3.714   4.906 -0.0469  0.3314  0.4216
 8690SOL    HW137529   2.328   3.645   4.843 -0.2642  0.1455  0.6999
 8690SOL    HW237530   2.444   3.712   4.890  0.2792  1.7124  2.2237
 8691SOL     OW37531   0.005   3.304   7.844  0.0617 -0.0247 -0.0605
 8691SOL    HW137532   4.711   3.319   7.751 -1.0603  1.3452  0.3641
 8691SOL    HW237533   4.653   3.246   7.861  0.4801 -0.6454 -0.3416
 8692SOL     OW37534   2.654   1.128   6.742 -0.1580  0.3200 -0.2586
 8692SOL    HW137535   2.578   1.082   6.707 -0.9412  0.4656  1.2773
 8692SOL    HW237536   2.668   1.056   6.803 -0.1040 -0.0563 -0.7170
 8693SOL     OW37537   1.270   4.524   7.097 -0.0255  0.8981 -0.1182
 8693SOL    HW137538   1.194   4.479   7.058  0.0499  0.8332 -0.1896
 8693SOL    HW237539   1.244   4.523   7.189 -0.5151 -0.4655 -0.2701
 8694SOL     OW37540   0.939   3.096   6.835 -0.3434  0.0557 -0.3154
 8694SOL    HW137541   0.852   3.056   6.833 -0.4989  0.3525  0.7535
 8694SOL    HW237542   0.978   3.059   6.914 -1.7059 -1.3835 -0.3132
 8695SOL     OW37543   1.326   3.161   8.586  0.8046 -0.0829  0.4762
 8695SOL    HW137544   1.306   3.068   8.576  0.5768 -0.0089  0.2366
 8695SOL    HW237545   1.413   3.170   8.547  0.9670 -0.5854  0.7275
 8696SOL     OW37546   0.476   0.394   3.166 -0.1222  0.2182 -0.0581
 8696SOL    HW137547   0.476   0.301   3.184 -1.1393  0.3169  0.4158
 8696SOL    HW237548   0.417   0.397   3.091 -0.0422 -0.8644 -0.1584
 8697SOL     OW37549   1.215   1.119   3.095  0.0264 -0.6446 -0.8733
 8697SOL    HW137550   1.210   1.087   3.005 -0.7383 -2.0349 -0.3231
 8697SOL    HW237551   1.277   1.191   3.083  0.4138 -0.9648 -0.7927
 8698SOL     OW37552   3.538   3.580   5.414 -0.2390  0.1754  0.1503
 8698SOL    HW137553   3.467   3.621   5.463  0.4463 -0.9700  2.1119
 8698SOL    HW237554   3.496   3.498   5.388  0.3794 -0.9531  2.7234
 8699SOL     OW37555   1.525   1.201   7.102  0.4511  0.3022  0.0167
 8699SOL    HW137556   1.456   1.167   7.046  1.2789  0.0106 -0.8257
 8699SOL    HW237557   1.480   1.221   7.184 -0.6048  0.7298 -0.6687
 8700SOL     OW37558   3.232   4.496   4.031 -0.0827 -0.1412  0.7119
 8700SOL    HW137559   3.244   4.587   4.005  0.4994  0.3807  2.8170
 8700SOL    HW237560   3.243   4.436   3.957 -1.8937  1.5394 -0.9126
 8701SOL     OW37561   3.698   2.975   8.215 -0.0167 -0.0257 -0.6766
 8701SOL    HW137562   3.775   3.022   8.181  0.0155 -0.5471 -1.3310
 8701SOL    HW237563   3.689   2.903   8.152  2.2597  0.0529 -1.0962
 8702SOL     OW37564   1.100   1.118  15.087  0.1633  0.0818  0.4429
 8702SOL    HW137565   1.091   1.026  15.063  1.7155  0.3483 -1.1074
 8702SOL    HW237566   1.085   1.162  15.004  0.5621 -0.2180  0.2152
 8703SOL     OW37567   1.942   4.482   3.665  0.4241  0.4626 -0.3818
 8703SOL    HW137568   1.933   4.432   3.584  0.4841 -0.0313 -0.0811
 8703SOL    HW237569   1.854   4.518   3.671  0.0271 -0.7810  1.0641
 8704SOL     OW37570   2.406   2.685   7.805  0.0457  0.0127 -0.1118
 8704SOL    HW137571   2.322   2.721   7.833  0.6807  1.0774  0.4402
 8704SOL    HW237572   2.433   2.615   7.864  1.5959  1.7316  1.2052
 8705SOL     OW37573   1.686   3.602  13.598 -0.2694 -0.6367  0.0018
 8705SOL    HW137574   1.593   3.617  13.583  0.2586  0.7730 -1.8643
 8705SOL    HW237575   1.717   3.660  13.528  1.6365 -1.7552 -0.1123
 8706SOL     OW37576   3.737   1.978   6.796 -0.0044  0.0035  0.1082
 8706SOL    HW137577   3.763   1.968   6.704 -2.0205 -1.6823 -0.2776
 8706SOL    HW237578   3.653   1.932   6.799 -0.7754  1.2894 -1.4833
 8707SOL     OW37579   4.139   2.943  12.563  0.1165 -0.1905 -0.0218
 8707SOL    HW137580   4.070   2.947  12.497  1.0576  0.9197 -0.9273
 8707SOL    HW237581   4.139   3.036  12.588 -1.6559  0.4699 -2.4966
 8708SOL     OW37582   3.349   3.930  15.225 -0.2838  0.4230  0.6473
 8708SOL    HW137583   3.285   3.860  15.214 -0.5142  0.8332 -0.6128
 8708SOL    HW237584   3.433   3.885  15.211 -0.9662 -0.5334 -0.3268
 8709SOL     OW37585   3.731   2.668   1.731 -0.1670  0.1504 -0.4974
 8709SOL    HW137586   3.733   2.597   1.796  0.3874  0.3913 -0.2522
 8709SOL    HW237587   3.653   2.650   1.678  0.3979 -1.0687 -0.9133
 8710SOL     OW37588   4.626   3.364   0.296 -0.3069  0.1683  0.1858
 8710SOL    HW137589   4.706   3.414   0.310  0.5777 -1.1525 -0.1226
 8710SOL    HW237590   4.602   3.395   0.209  0.9582 -0.7007 -0.4757
 8711SOL     OW37591   1.013   3.003   6.593 -1.1562 -0.0743 -0.1681
 8711SOL    HW137592   0.940   3.023   6.534  0.1053 -0.3022 -1.8004
 8711SOL    HW237593   0.987   3.043   6.676  2.1615  0.0053  0.8392
 8712SOL     OW37594   1.496   2.189   7.446  0.3252  0.3652 -0.0721
 8712SOL    HW137595   1.584   2.191   7.485  0.3517 -0.4250 -0.0955
 8712SOL    HW237596   1.456   2.267   7.484  0.8841  0.7882 -0.3414
 8713SOL     OW37597   3.879   3.699  15.165  0.0703  0.5764 -0.2143
 8713SOL    HW137598   3.944   3.769  15.160  1.7171 -1.1886 -3.2595
 8713SOL    HW237599   3.862   3.680  15.073 -1.5461  1.0646 -0.0279
 8714SOL     OW37600   3.240   0.742   3.595  0.1395  0.6120  0.3355
 8714SOL    HW137601   3.283   0.794   3.526 -0.7184  0.8887  0.0074
 8714SOL    HW237602   3.202   0.806   3.655  1.2720  1.2014  0.4354
 8715SOL     OW37603   3.050   0.688   3.049 -0.1752 -0.0400 -0.0092
 8715SOL    HW137604   3.141   0.661   3.038 -0.5750 -1.8943  1.2221
 8715SOL    HW237605   3.040   0.752   2.979  2.5573 -0.2088 -0.5511
 8716SOL     OW37606   1.864   3.802   0.063  0.0273  0.3977  0.2825
 8716SOL    HW137607   1.858   3.743  17.681  1.6397  0.9463 -0.2779
 8716SOL    HW237608   1.846   3.750   0.141  1.1673 -1.5102 -0.7322
 8717SOL     OW37609   4.707   1.703   5.632  0.2808 -0.0756 -0.1760
 8717SOL    HW137610   0.024   1.616   5.642 -2.5894 -1.3613  0.0687
 8717SOL    HW237611   4.637   1.671   5.575  0.4979 -2.7641  1.0583
 8718SOL     OW37612   2.584   2.449  12.796 -0.5212  0.2706 -0.0412
 8718SOL    HW137613   2.551   2.474  12.882  0.3551 -1.4576  0.7863
 8718SOL    HW237614   2.658   2.510  12.795 -0.3799  0.0819 -1.8360
 8719SOL     OW37615   0.829   3.965   4.664  0.4806 -0.3954 -0.2887
 8719SOL    HW137616   0.824   3.898   4.731 -0.3428 -1.8779 -1.8376
 8719SOL    HW237617   0.915   3.945   4.627  1.4349 -0.3516  1.9633
 8720SOL     OW37618   1.457   1.474   4.221  1.0303  0.2382  0.0519
 8720SOL    HW137619   1.428   1.436   4.304  0.4530  2.1622  0.7436
 8720SOL    HW237620   1.501   1.400   4.178  2.7040  0.8051  0.7734
 8721SOL     OW37621   4.302   4.525   5.304 -0.0644 -0.4860 -0.2083
 8721SOL    HW137622   4.330   4.556   5.218 -0.2893  3.0007  0.9901
 8721SOL    HW237623   4.280   4.433   5.292  1.3747 -1.0770  1.6396
 8722SOL     OW37624   4.160   2.443  13.619 -0.2066 -0.3812 -0.3872
 8722SOL    HW137625   4.145   2.501  13.694  2.1511  1.1470 -1.0685
 8722SOL    HW237626   4.251   2.469  13.601 -0.3642  0.9573  0.7021
 8723SOL     OW37627   4.315   3.631   1.598 -0.0717 -0.2586 -0.0560
 8723SOL    HW137628   4.300   3.540   1.573  2.5681 -0.2367 -1.6551
 8723SOL    HW237629   4.232   3.663   1.635 -0.2161  0.1489 -0.7416
 8724SOL     OW37630   4.338   2.950   2.335  0.1181  0.4336 -0.0821
 8724SOL    HW137631   4.380   2.921   2.255  2.5502 -0.2468  1.4452
 8724SOL    HW237632   4.391   3.025   2.362 -0.5653  0.7805  0.3169
 8725SOL     OW37633   1.672   3.269   1.410  0.7311  0.1006  0.6630
 8725SOL    HW137634   1.626   3.261   1.493 -2.3751  1.1057 -0.9531
 8725SOL    HW237635   1.645   3.185   1.371 -2.2072  1.5585 -0.4597
 8726SOL     OW37636   1.280   1.678   7.220  0.2403 -0.3178 -0.7332
 8726SOL    HW137637   1.304   1.746   7.158  1.6513 -0.6259 -0.5304
 8726SOL    HW237638   1.358   1.623   7.215 -0.3978 -1.3607  0.5578
 8727SOL     OW37639   4.136   4.306   6.202  0.4036 -1.0492 -0.1444
 8727SOL    HW137640   4.170   4.393   6.179 -0.7204 -0.8863 -1.1508
 8727SOL    HW237641   4.169   4.253   6.130  0.6329  1.3467 -1.8013
 8728SOL     OW37642   4.005   0.463  14.020 -0.3884 -0.2420  0.6251
 8728SOL    HW137643   3.968   0.551  14.006  1.1813  0.3556  0.2400
 8728SOL    HW237644   3.943   0.422  14.080 -1.4178  1.7368  0.9238
 8729SOL     OW37645   2.417   1.805   7.189 -0.2925  0.3153  0.0403
 8729SOL    HW137646   2.427   1.857   7.109 -0.4179 -2.1675 -1.5838
 8729SOL    HW237647   2.336   1.760   7.167 -0.4301  1.0549 -0.9641
 8730SOL     OW37648   2.224   1.372   8.024  0.0371  0.5776 -0.0666
 8730SOL    HW137649   2.160   1.301   8.031  0.3456  0.2274 -0.7599
 8730SOL    HW237650   2.296   1.340   8.078  2.4081  0.4225 -3.3217
 8731SOL     OW37651   4.615   1.418   8.513 -0.3306 -0.0024 -0.2051
 8731SOL    HW137652   4.604   1.327   8.541  1.8155 -0.0730  0.4422
 8731SOL    HW237653   4.612   1.465   8.596  2.1625  2.7238 -1.6673
 8732SOL     OW37654   0.716   0.560   3.863  0.1074  0.3757  0.3127
 8732SOL    HW137655   0.675   0.479   3.833  1.3020  0.0826 -0.5075
 8732SOL    HW237656   0.810   0.543   3.869 -0.0933 -0.6883  0.3359
 8733SOL     OW37657   1.416   1.406   4.477  0.4465  0.5914  0.2012
 8733SOL    HW137658   1.479   1.352   4.524  2.0223  0.2336 -2.2750
 8733SOL    HW237659   1.398   1.477   4.538  0.2963  0.4617  0.3066
 8734SOL     OW37660   1.041   3.095  11.673 -0.0094 -0.6499  0.1330
 8734SOL    HW137661   1.094   3.015  11.675 -0.7894 -1.1731 -0.0869
 8734SOL    HW237662   0.959   3.058  11.705  0.2585 -1.5164 -0.1561
 8735SOL     OW37663   3.884   0.956  12.588 -0.0799  1.0445  0.5992
 8735SOL    HW137664   3.882   0.866  12.554  1.0847  1.3409 -0.2476
 8735SOL    HW237665   3.950   0.944  12.656 -2.1228  0.3348  2.4466
 8736SOL     OW37666   1.028   2.536   6.759  0.2392 -0.7268  0.3130
 8736SOL    HW137667   1.092   2.469   6.783  0.3710 -1.6047 -2.4271
 8736SOL    HW237668   0.949   2.487   6.739  0.1233 -0.2664 -0.3799
 8737SOL     OW37669   0.089   4.291   2.596 -0.2605 -0.6694 -0.1980
 8737SOL    HW137670   0.090   4.300   2.501  2.0900  0.4677 -0.0736
 8737SOL    HW237671   0.176   4.260   2.619 -1.0011 -1.0892  2.0996
 8738SOL     OW37672   0.334   4.175   4.485 -0.1982 -0.2651 -0.5179
 8738SOL    HW137673   0.321   4.131   4.569 -0.6920  0.0211 -0.4461
 8738SOL    HW237674   0.255   4.230   4.481  1.4168  2.2284  2.2502
 8739SOL     OW37675   0.668   3.805  13.577 -0.0628  0.5637 -0.1074
 8739SOL    HW137676   0.645   3.732  13.635  0.6022 -1.7173 -2.6850
 8739SOL    HW237677   0.757   3.784  13.550 -0.3859  1.5545 -1.9572
 8740SOL     OW37678   3.576   0.223   2.231  0.6892 -0.3672  0.2591
 8740SOL    HW137679   3.667   0.204   2.210  0.9589 -1.0998  2.0918
 8740SOL    HW237680   3.552   0.281   2.158  0.1108  0.8096  1.3729
 8741SOL     OW37681   2.099   3.900   4.802 -0.2452 -0.0228  0.0241
 8741SOL    HW137682   2.098   3.826   4.741 -1.1813 -0.1650  0.2137
 8741SOL    HW237683   2.126   3.857   4.884  2.1004 -1.1136 -1.3239
 8742SOL     OW37684   1.748   2.682   0.830  0.3396  0.5146  0.1970
 8742SOL    HW137685   1.653   2.678   0.825  0.2476  0.9532  1.5206
 8742SOL    HW237686   1.758   2.718   0.918 -0.6804  0.4428  0.3447
 8743SOL     OW37687   1.130   3.475   1.676 -0.5723  0.0612  0.0609
 8743SOL    HW137688   1.035   3.459   1.673 -0.1900 -2.4887  1.7329
 8743SOL    HW237689   1.159   3.394   1.635 -2.2139 -0.2817 -0.4414
 8744SOL     OW37690   4.030   4.535  10.050  0.0490 -0.4155 -0.6821
 8744SOL    HW137691   3.977   4.563   9.975  0.9903 -0.7651 -1.4795
 8744SOL    HW237692   4.094   4.605  10.041  0.4839 -0.7602 -0.2914
 8745SOL     OW37693   0.352   3.964   4.299 -0.1129  0.5626 -0.2857
 8745SOL    HW137694   0.360   4.040   4.357  1.0333  0.6864 -0.6045
 8745SOL    HW237695   0.436   3.954   4.253 -0.8624  1.5834 -1.8869
 8746SOL     OW37696   4.476   1.555  10.189 -1.0877  0.6050  0.7096
 8746SOL    HW137697   4.438   1.643  10.180 -1.0155  0.9624  3.8783
 8746SOL    HW237698   4.538   1.578  10.258  2.0240  2.3268 -2.6444
 8747SOL     OW37699   3.940   0.551   2.354  0.4287  0.4102  0.2726
 8747SOL    HW137700   3.976   0.626   2.401 -1.6002  0.8075  1.1791
 8747SOL    HW237701   3.947   0.486   2.423 -0.4205 -1.0238 -0.9913
 8748SOL     OW37702   2.043   0.944   3.914 -0.1170  0.1448  0.8429
 8748SOL    HW137703   1.975   0.879   3.902 -0.5736  0.6118  0.9190
 8748SOL    HW237704   2.076   0.949   3.824 -0.1182  0.5118  0.8639
 8749SOL     OW37705   2.195   2.526   2.038  0.3464  0.8802 -0.4848
 8749SOL    HW137706   2.272   2.543   2.092 -1.2526 -0.8525  2.3168
 8749SOL    HW237707   2.140   2.474   2.096  2.6774  0.2315  1.1132
 8750SOL     OW37708   0.170   2.945   2.387 -0.1971 -0.6055 -0.1500
 8750SOL    HW137709   0.125   2.938   2.303  0.8564 -3.3020 -0.5084
 8750SOL    HW237710   0.101   2.976   2.445  0.7500  0.9462  0.1346
 8751SOL     OW37711   1.252   2.776   6.501 -0.7892  0.5019 -0.0375
 8751SOL    HW137712   1.238   2.867   6.527  1.4659  0.4555  1.3377
 8751SOL    HW237713   1.314   2.747   6.568 -0.1766  2.6736  0.3534
 8752SOL     OW37714   3.433   3.240   6.398  0.2998 -0.9501  0.4481
 8752SOL    HW137715   3.361   3.182   6.423  0.2883 -0.5002  1.4362
 8752SOL    HW237716   3.435   3.291   6.479 -0.2377  2.5249 -1.7230
 8753SOL     OW37717   1.132   1.853   1.722 -0.8266 -0.3960  0.1276
 8753SOL    HW137718   1.110   1.769   1.763  0.7325 -0.8940 -0.0465
 8753SOL    HW237719   1.218   1.833   1.685  1.3319  2.4025  3.7484
 8754SOL     OW37720   1.296   1.789   8.573  0.3355  0.0843  0.4274
 8754SOL    HW137721   1.273   1.707   8.618  3.3027 -0.4621  0.9498
 8754SOL    HW237722   1.207   1.811   8.548 -0.4962 -1.2857  2.1068
 8755SOL     OW37723   3.635   0.784  10.343 -0.1623 -0.3503 -0.1802
 8755SOL    HW137724   3.677   0.737  10.271  0.3230  0.2855 -0.3056
 8755SOL    HW237725   3.688   0.858  10.372 -1.8486  1.7859 -2.5571
 8756SOL     OW37726   1.101   3.389  17.033  0.0865 -0.1499  0.3710
 8756SOL    HW137727   1.123   3.307  16.990  2.6437  0.6951  0.0724
 8756SOL    HW237728   1.089   3.451  16.961 -0.1673 -0.8091 -0.1531
 8757SOL     OW37729   3.729   3.000  10.415  0.2480  0.0957 -0.2668
 8757SOL    HW137730   3.741   3.025  10.506 -0.6639 -1.8821  0.4135
 8757SOL    HW237731   3.633   2.994  10.420  0.1820  2.0872  0.5717
 8758SOL     OW37732   2.792   1.178   8.155 -0.0423  0.0733  0.1226
 8758SOL    HW137733   2.750   1.133   8.082  0.2015  0.0051  0.0270
 8758SOL    HW237734   2.873   1.199   8.110 -0.2497  1.5137  0.4195
 8759SOL     OW37735   1.692   2.404  11.159  0.5982 -0.0848 -0.3456
 8759SOL    HW137736   1.716   2.455  11.082  1.6371  1.5475  1.0649
 8759SOL    HW237737   1.612   2.360  11.131  0.3527  0.8991 -1.1680
 8760SOL     OW37738   4.517   4.486   8.175  0.6098 -0.3106 -0.5560
 8760SOL    HW137739   4.598   4.537   8.165 -0.0778  1.4008  2.7740
 8760SOL    HW237740   4.532   4.415   8.112  4.4812  0.6646 -0.7702
 8761SOL     OW37741   2.063   0.622  10.481  0.1586  0.0009 -0.1816
 8761SOL    HW137742   2.005   0.587  10.414  1.4124 -2.1119 -0.1776
 8761SOL    HW237743   2.079   0.712  10.452  2.2048 -0.4078 -0.3468
 8762SOL     OW37744   1.289   3.546   4.807 -0.1325  0.5049 -0.0443
 8762SOL    HW137745   1.254   3.614   4.749  1.0696 -0.9801 -2.5234
 8762SOL    HW237746   1.316   3.473   4.751 -2.7795 -1.8483  1.7571
 8763SOL     OW37747   0.749   1.742  17.146 -0.4683  0.5577  0.5207
 8763SOL    HW137748   0.720   1.702  17.064 -0.3365  0.9332  0.2925
 8763SOL    HW237749   0.687   1.711  17.212 -1.0514  0.1677 -0.2145
 8764SOL     OW37750   4.183   0.694   3.270  0.3934  0.5166 -0.4666
 8764SOL    HW137751   4.097   0.654   3.255  0.9161 -1.1983  1.0540
 8764SOL    HW237752   4.232   0.619   3.305 -1.6913 -0.0164  1.2319
 8765SOL     OW37753   1.140   2.852  14.604 -0.0307  0.3457  0.6703
 8765SOL    HW137754   1.216   2.802  14.633 -1.3207 -1.5194  0.8092
 8765SOL    HW237755   1.184   2.931  14.571 -0.4215  0.5612  0.6580
 8766SOL     OW37756   1.167   1.502   3.143 -0.1875 -0.0347  0.6702
 8766SOL    HW137757   1.152   1.489   3.049 -1.3225  0.4320  0.7838
 8766SOL    HW237758   1.083   1.474   3.180 -0.2939 -0.8456 -0.1774
 8767SOL     OW37759   2.765   0.876  17.320  0.8159 -0.6359  0.0840
 8767SOL    HW137760   2.716   0.950  17.284 -0.4741 -1.3633  0.3416
 8767SOL    HW237761   2.720   0.799  17.286  1.4808 -1.4172  0.9775
 8768SOL     OW37762   1.988   0.306  13.613  0.0672  0.9871 -0.2595
 8768SOL    HW137763   1.992   0.211  13.596 -2.8350  0.3479  2.8263
 8768SOL    HW237764   2.078   0.316  13.646  1.1170 -1.4998 -2.3287
 8769SOL     OW37765   0.672   2.299  16.242 -0.4827  0.3722  0.0271
 8769SOL    HW137766   0.625   2.379  16.220 -0.0462  1.0124  1.3866
 8769SOL    HW237767   0.737   2.282  16.174 -0.4166  1.8027 -0.2757
 8770SOL     OW37768   1.133   1.855   7.978 -0.3615 -0.9146  0.0711
 8770SOL    HW137769   1.048   1.824   8.010  0.1264 -1.2466  1.0370
 8770SOL    HW237770   1.134   1.803   7.898  0.9495 -2.1452  0.9008
 8771SOL     OW37771   0.390   3.499   0.414 -0.5110 -0.2274 -0.1807
 8771SOL    HW137772   0.480   3.513   0.387 -1.0226  0.9233 -1.3129
 8771SOL    HW237773   0.369   3.420   0.365 -1.9208  1.2521 -1.9777
 8772SOL     OW37774   1.124   0.416  16.300 -0.5112 -0.4836 -0.4799
 8772SOL    HW137775   1.186   0.489  16.293 -0.7023 -0.2070  0.6804
 8772SOL    HW237776   1.059   0.433  16.232 -0.3877 -1.1281 -0.7590
 8773SOL     OW37777   0.290   1.952   8.764  0.2339 -0.2858 -0.0726
 8773SOL    HW137778   0.266   2.030   8.715 -2.9613 -0.9272  0.4253
 8773SOL    HW237779   0.240   1.884   8.719  0.9159 -0.9052  0.1159
 8774SOL     OW37780   4.597   2.313   7.970  0.9557  0.0750  0.0700
 8774SOL    HW137781   4.623   2.250   7.903 -0.5427 -0.9648  0.4629
 8774SOL    HW237782   4.515   2.274   7.999  0.0996  0.7069 -1.4777
 8775SOL     OW37783   0.269   4.386   6.827  0.3062  0.3288 -0.3549
 8775SOL    HW137784   0.354   4.428   6.812  0.1790  0.7903  0.2026
 8775SOL    HW237785   0.235   4.423   6.909  0.2874  2.1363 -1.1838
 8776SOL     OW37786   4.002   1.182   4.749  0.4251 -0.1620  0.2198
 8776SOL    HW137787   3.911   1.202   4.771  0.0302 -1.4746 -0.1538
 8776SOL    HW237788   4.050   1.242   4.805 -1.5821  2.7084 -1.1204
 8777SOL     OW37789   2.230   2.341   1.558  0.2686 -0.6243  0.0549
 8777SOL    HW137790   2.150   2.304   1.595 -1.7435  3.2888 -0.2692
 8777SOL    HW237791   2.248   2.414   1.617 -1.0044 -0.1110 -0.1791
 8778SOL     OW37792   3.407   2.423   5.499  0.1653 -0.1573  0.7981
 8778SOL    HW137793   3.376   2.494   5.443  0.9897 -1.1273 -0.8504
 8778SOL    HW237794   3.483   2.465   5.540 -0.0531 -1.4033  2.4933
 8779SOL     OW37795   1.199   2.519   4.398  0.3287  0.6118 -0.1634
 8779SOL    HW137796   1.179   2.543   4.489 -2.2763 -1.8843 -0.1180
 8779SOL    HW237797   1.131   2.573   4.359  1.0048  1.2702 -0.4415
 8780SOL     OW37798   3.907   0.089   0.640  0.5004 -0.1472  0.1215
 8780SOL    HW137799   3.874   0.127   0.559  1.3092 -1.0190 -0.6079
 8780SOL    HW237800   3.836   0.121   0.696  0.5072  0.4780 -0.2297
 8781SOL     OW37801   2.205   1.939   5.991 -0.0475  0.0584  0.8340
 8781SOL    HW137802   2.251   1.911   5.912 -0.5138  1.1249  0.1842
 8781SOL    HW237803   2.213   1.865   6.052 -1.3985 -0.7160  0.0637
 8782SOL     OW37804   3.236   0.482  14.875 -0.4432  0.0841 -0.3170
 8782SOL    HW137805   3.146   0.460  14.849  0.1486 -2.5641 -0.1209
 8782SOL    HW237806   3.221   0.535  14.953  1.1038 -0.3344  0.2622
 8783SOL     OW37807   1.648   2.627  12.670  0.4438  0.4060  0.2654
 8783SOL    HW137808   1.631   2.533  12.680 -0.4743  0.4131 -1.2133
 8783SOL    HW237809   1.725   2.623  12.613  0.4790  2.7254  0.1711
 8784SOL     OW37810   3.368   1.861   8.676 -0.0839  0.5418 -0.2126
 8784SOL    HW137811   3.303   1.866   8.746 -0.2440  0.8096 -0.3816
 8784SOL    HW237812   3.367   1.767   8.659  1.6126  0.5699 -0.4916
 8785SOL     OW37813   0.500   3.315   5.639  0.0723  0.5354  0.2273
 8785SOL    HW137814   0.552   3.245   5.679  0.0009  1.0405  1.1947
 8785SOL    HW237815   0.504   3.285   5.548 -0.9367  0.8786  0.0821
 8786SOL     OW37816   0.427   2.389   0.745 -0.0719 -0.6526 -0.0121
 8786SOL    HW137817   0.446   2.444   0.821 -0.5513 -0.9683  0.3331
 8786SOL    HW237818   0.421   2.455   0.675 -1.8598 -2.6722 -1.7554
 8787SOL     OW37819   3.109   4.326   7.006 -0.1489  0.3578 -0.6651
 8787SOL    HW137820   3.062   4.296   7.083  3.5185 -0.3945  1.3125
 8787SOL    HW237821   3.046   4.298   6.939 -0.4601  0.7068 -0.5187
 8788SOL     OW37822   2.258   3.225  12.719 -0.4522 -0.6573 -0.4237
 8788SOL    HW137823   2.322   3.289  12.689  2.1135 -1.0006  4.3266
 8788SOL    HW237824   2.280   3.219  12.812  0.9634 -0.9880 -0.7819
 8789SOL     OW37825   3.497   1.112  11.949 -0.1238 -0.8779 -0.3191
 8789SOL    HW137826   3.484   1.045  12.016  0.3556 -0.6664 -0.0152
 8789SOL    HW237827   3.577   1.084  11.905 -0.0597 -2.9336  1.1165
 8790SOL     OW37828   4.607   1.401   9.706 -0.0046 -0.1201  0.3992
 8790SOL    HW137829   4.632   1.493   9.707 -2.0073  0.4016  2.2093
 8790SOL    HW237830   4.682   1.361   9.750 -0.1146 -0.3141  0.4085
 8791SOL     OW37831   4.242   0.070  13.141 -0.3071 -0.1405 -0.4671
 8791SOL    HW137832   4.325   0.117  13.144 -0.2275 -0.3708  1.2823
 8791SOL    HW237833   4.266   4.721  13.200 -3.2221 -1.6405 -1.0995
 8792SOL     OW37834   2.631   3.096   8.752  0.1429  0.1960  0.2745
 8792SOL    HW137835   2.564   3.073   8.816 -0.7262  1.6865 -0.0958
 8792SOL    HW237836   2.683   3.161   8.801  2.1304 -0.1026 -1.4154
 8793SOL     OW37837   3.551   1.224  17.371  0.2674 -0.0471 -0.0630
 8793SOL    HW137838   3.532   1.132  17.392  0.7737 -0.2709 -0.6015
 8793SOL    HW237839   3.605   1.251  17.446 -1.2894  2.2148  0.2188
 8794SOL     OW37840   3.570   1.025  12.746 -0.2614 -0.0931 -0.2504
 8794SOL    HW137841   3.584   0.934  12.718  0.8597  0.0828 -0.2290
 8794SOL    HW237842   3.482   1.017  12.783  0.3242  0.7115  1.3049
 8795SOL     OW37843   0.103   4.265   7.111 -0.5134 -0.1635  0.0249
 8795SOL    HW137844   0.195   4.239   7.110 -0.8557 -1.3897  0.3337
 8795SOL    HW237845   0.095   4.328   7.183  3.1107 -0.2107  0.4498
 8796SOL     OW37846   2.108   3.379   5.109 -0.3529 -0.0684  0.4125
 8796SOL    HW137847   2.179   3.443   5.123 -1.0951  0.4851  1.5869
 8796SOL    HW237848   2.062   3.419   5.035  0.8699  0.2157 -0.1930
 8797SOL     OW37849   0.131   3.057  14.864  0.3438  0.5282 -0.3374
 8797SOL    HW137850   0.115   2.962  14.868  1.1137  0.4191  0.2065
 8797SOL    HW237851   0.077   3.099  14.931  0.5605  1.1057 -0.5270
 8798SOL     OW37852   2.275   0.521   2.679  0.4706  0.0279  0.1056
 8798SOL    HW137853   2.313   0.525   2.767 -1.3382  0.0819  0.8937
 8798SOL    HW237854   2.266   0.615   2.664  0.9441  0.1033  0.2833
 8799SOL     OW37855   0.716   2.644   6.327  0.0900 -0.4710 -0.1803
 8799SOL    HW137856   0.782   2.633   6.258  0.3697  0.1047 -0.0009
 8799SOL    HW237857   0.763   2.685   6.399  0.8162 -0.2485 -0.7813
 8800SOL     OW37858   1.170   3.759   5.227 -0.3241 -0.6298 -0.1476
 8800SOL    HW137859   1.230   3.689   5.251  0.0769  0.3585  1.7569
 8800SOL    HW237860   1.231   3.829   5.203 -1.9651 -0.2947 -3.2739
 8801SOL     OW37861   0.585   1.103  12.180 -0.4097  0.9367  0.1373
 8801SOL    HW137862   0.517   1.040  12.157 -0.2597  0.8529 -0.0845
 8801SOL    HW237863   0.613   1.133  12.093  0.9646 -2.2278 -0.5297
 8802SOL     OW37864   1.145   0.763   8.220 -0.5211  0.0114 -0.1618
 8802SOL    HW137865   1.152   0.810   8.303 -0.3630  1.9296 -1.2540
 8802SOL    HW237866   1.124   0.675   8.252 -0.2535 -0.3224 -0.9202
 8803SOL     OW37867   2.859   3.455   3.203  0.0430  0.4617 -0.4044
 8803SOL    HW137868   2.834   3.365   3.185  0.0974  0.3699 -0.0312
 8803SOL    HW237869   2.784   3.493   3.250 -0.4435 -0.8120 -0.1567
 8804SOL     OW37870   3.928   2.016   4.658 -0.2205 -0.5695  0.3153
 8804SOL    HW137871   3.965   1.961   4.727 -1.4286 -2.0707 -0.2370
 8804SOL    HW237872   3.971   1.988   4.577 -0.8968  3.7364 -1.5231
 8805SOL     OW37873   3.148   0.189   7.420  0.0172  0.5029 -0.2422
 8805SOL    HW137874   3.104   0.192   7.335  1.3298 -0.2271 -0.9416
 8805SOL    HW237875   3.075   0.151   7.469  1.4051 -1.5112  0.2829
 8806SOL     OW37876   1.775   3.080   6.147 -0.2561  0.1216 -0.2888
 8806SOL    HW137877   1.710   3.145   6.174  1.8073  1.7488  0.8219
 8806SOL    HW237878   1.728   3.050   6.070  1.0951  2.1213 -1.9074
 8807SOL     OW37879   1.116   4.636  14.263 -0.4528 -0.5167 -0.5083
 8807SOL    HW137880   1.177   4.614  14.333 -0.6859  1.7832  0.4372
 8807SOL    HW237881   1.040   4.676  14.307  2.0038  1.5985  1.8052
 8808SOL     OW37882   1.432   2.633   9.945  0.1819 -0.6541 -0.2577
 8808SOL    HW137883   1.489   2.696   9.988 -0.0763 -0.4433 -0.2240
 8808SOL    HW237884   1.474   2.548   9.964  1.1284 -0.1472 -0.0903
 8809SOL     OW37885   0.123   3.413   9.077  0.9945 -0.1664 -0.2153
 8809SOL    HW137886   0.215   3.439   9.065  1.5392 -2.0825 -0.2794
 8809SOL    HW237887   0.086   3.496   9.103 -0.8664 -1.7402  2.1006
 8810SOL     OW37888   3.188   4.444  11.919  0.1475 -0.0339  0.0977
 8810SOL    HW137889   3.131   4.367  11.917 -1.2339  0.9041  2.9390
 8810SOL    HW237890   3.190   4.475  11.828  1.4619  3.2397  1.2615
 8811SOL     OW37891   4.702   4.213   2.831 -0.5240  0.4488  0.3781
 8811SOL    HW137892   4.656   4.132   2.808 -2.6113  1.9246 -0.6484
 8811SOL    HW237893   0.005   4.236   2.742  1.4941  1.5095  1.2408
 8812SOL     OW37894   2.391   2.655  10.024  0.1754  0.6467  0.2975
 8812SOL    HW137895   2.468   2.680   9.974  0.3475  0.8790  0.6809
 8812SOL    HW237896   2.370   2.581   9.966  2.4106  1.9347 -2.1342
 8813SOL     OW37897   0.673   4.264   6.720 -0.3331 -0.0772  0.1962
 8813SOL    HW137898   0.714   4.246   6.805  1.5231  3.7862  0.1284
 8813SOL    HW237899   0.690   4.358   6.718 -2.3369  0.3437  2.4392
 8814SOL     OW37900   4.528   0.659   4.759  0.4155 -0.0356  0.8620
 8814SOL    HW137901   4.442   0.654   4.718  0.5034  0.1709  0.6519
 8814SOL    HW237902   4.551   0.743   4.719  0.4781 -0.2644  0.4229
 8815SOL     OW37903   0.430   3.068  12.699  0.6880  0.0731  0.0612
 8815SOL    HW137904   0.360   3.132  12.686  1.9698  1.0186 -2.1265
 8815SOL    HW237905   0.510   3.119  12.708 -0.3896  1.2974  2.6439
 8816SOL     OW37906   0.938   2.938  13.415  0.0473  0.0824  0.6489
 8816SOL    HW137907   0.880   3.005  13.379 -1.5192 -1.9012 -0.5050
 8816SOL    HW237908   1.021   2.971  13.382 -0.6615 -1.3049 -2.5939
 8817SOL     OW37909   1.782   1.832   1.323  0.6184  0.5002  0.1923
 8817SOL    HW137910   1.706   1.868   1.277  1.0006  2.2476  0.9621
 8817SOL    HW237911   1.836   1.909   1.339 -1.2723  1.5935  1.2406
 8818SOL     OW37912   0.142   2.596   6.203 -0.2670  0.4514  0.0430
 8818SOL    HW137913   0.070   2.533   6.208  1.3164 -1.4405 -0.4969
 8818SOL    HW237914   0.216   2.535   6.196 -0.7972 -0.1205 -0.5997
 8819SOL     OW37915   0.935   0.428  12.567  0.4155 -0.2390 -0.4162
 8819SOL    HW137916   0.949   0.467  12.481 -1.0398 -3.3446 -2.0559
 8819SOL    HW237917   0.890   0.495  12.619 -0.6077 -0.3701 -1.1269
 8820SOL     OW37918   2.504   0.253   8.576  0.2782  0.1622  0.0809
 8820SOL    HW137919   2.473   0.195   8.507 -1.7225  2.3043 -0.8642
 8820SOL    HW237920   2.475   0.203   8.652  0.4320 -0.5034 -0.3062
 8821SOL     OW37921   1.362   3.583   2.030 -0.2098 -0.2906  0.3713
 8821SOL    HW137922   1.374   3.643   2.103 -2.6433  1.5447 -0.7278
 8821SOL    HW237923   1.409   3.508   2.065  1.0309  0.2536 -0.1196
 8822SOL     OW37924   1.626   0.586   4.712 -0.2709 -0.3404  0.2141
 8822SOL    HW137925   1.562   0.541   4.658  0.4862  1.1768 -1.9846
 8822SOL    HW237926   1.651   0.655   4.650  2.7118 -1.9196 -0.3355
 8823SOL     OW37927   2.932   0.119  13.741  0.5410  0.1756  0.2355
 8823SOL    HW137928   2.887   0.167  13.810 -0.2387  0.3550 -0.3861
 8823SOL    HW237929   2.879   0.040  13.734  0.3476  0.5043 -2.0648
 8824SOL     OW37930   3.549   0.488   4.507 -0.4803  0.3457  0.1304
 8824SOL    HW137931   3.577   0.400   4.484  0.3932  1.1890 -2.0796
 8824SOL    HW237932   3.627   0.534   4.540  0.4969 -0.9562 -0.3358
 8825SOL     OW37933   1.467   0.632   7.040 -0.4180  0.2917 -0.7446
 8825SOL    HW137934   1.417   0.713   7.037 -0.8896  0.0531  0.8072
 8825SOL    HW237935   1.552   0.665   7.068 -0.2260 -2.3895  1.7958
 8826SOL     OW37936   1.696   2.979   2.036  0.6063 -0.2895 -0.0856
 8826SOL    HW137937   1.685   2.884   2.042 -1.0533 -0.0687  0.3394
 8826SOL    HW237938   1.686   2.997   1.943  4.5604  1.2688 -0.2037
 8827SOL     OW37939   3.527   1.750   4.151 -0.1883 -0.1115  0.1138
 8827SOL    HW137940   3.611   1.746   4.104 -1.2503  0.1460 -1.8223
 8827SOL    HW237941   3.528   1.844   4.172  1.9791 -0.1848  0.3891
 8828SOL     OW37942   4.063   4.143  17.210  0.1298  0.2954  0.4714
 8828SOL    HW137943   4.132   4.077  17.205  0.2796  0.3043  2.3247
 8828SOL    HW237944   4.010   4.114  17.136 -0.5358 -0.4340  1.2422
 8829SOL     OW37945   1.599   2.393   3.735 -0.9765  0.0908 -0.0284
 8829SOL    HW137946   1.508   2.387   3.705 -0.7658  0.1055 -0.6670
 8829SOL    HW237947   1.578   2.443   3.814 -0.4026  4.3905 -2.6078
 8830SOL     OW37948   4.333   1.733  16.641  0.3287  0.9151 -0.0547
 8830SOL    HW137949   4.404   1.671  16.655 -0.8217 -1.5129 -5.0022
 8830SOL    HW237950   4.332   1.726  16.546  1.8755 -0.7697  0.0582
 8831SOL     OW37951   4.365   0.044   3.477 -0.1729 -0.1422  0.1194
 8831SOL    HW137952   4.424   4.701   3.515  0.1588 -1.1814 -2.1704
 8831SOL    HW237953   4.402   0.056   3.389  1.8732 -1.7496  0.7737
 8832SOL     OW37954   3.230   4.574   1.785 -0.1259 -0.3885  0.0144
 8832SOL    HW137955   3.264   4.488   1.759  0.8058  1.5913 -5.3593
 8832SOL    HW237956   3.303   4.625   1.820  1.3875 -2.3472 -0.3235
 8833SOL     OW37957   0.497   1.377   6.806  0.0380 -0.0107  0.0394
 8833SOL    HW137958   0.509   1.472   6.799  0.8079 -0.1547 -0.5364
 8833SOL    HW237959   0.416   1.364   6.757  1.0746  0.1333 -1.7138
 8834SOL     OW37960   3.098   2.406  17.645 -0.2936 -0.2646  0.0574
 8834SOL    HW137961   3.057   2.438  17.565  1.5510  1.3487 -0.2362
 8834SOL    HW237962   3.186   2.441  17.652 -0.2197 -0.4869  0.2303
 8835SOL     OW37963   1.741   4.253   3.810 -0.7310 -0.2181  0.3079
 8835SOL    HW137964   1.659   4.298   3.829 -0.2044  0.7755  0.2509
 8835SOL    HW237965   1.790   4.260   3.892 -0.5601  2.5531 -0.0398
 8836SOL     OW37966   3.181   0.086   0.045 -0.0654  0.1882 -0.1761
 8836SOL    HW137967   3.122   0.059   0.116 -0.3101 -1.1901 -0.8970
 8836SOL    HW237968   3.270   0.073   0.076  0.5449  1.6033 -1.3518
 8837SOL     OW37969   2.626   2.634   2.274  0.0036  0.0181 -0.3147
 8837SOL    HW137970   2.644   2.549   2.234 -2.0476 -0.8339  0.5706
 8837SOL    HW237971   2.535   2.649   2.249  0.8066  0.0806 -3.1458
 8838SOL     OW37972   3.080   0.573  14.205  0.3047 -0.2475 -0.2052
 8838SOL    HW137973   3.104   0.498  14.151  0.2883 -0.9812  0.8088
 8838SOL    HW237974   2.985   0.559  14.205  0.2256  0.2082  1.3501
 8839SOL     OW37975   4.513   0.940  15.899 -0.2313 -0.2993  0.6490
 8839SOL    HW137976   4.497   0.978  15.813  0.1690  1.0377  1.1709
 8839SOL    HW237977   4.494   0.849  15.875 -0.6526  0.3310 -1.3855
 8840SOL     OW37978   4.061   1.570   7.361  1.1153 -0.5915  0.2822
 8840SOL    HW137979   4.147   1.611   7.369  0.3926  0.5051  2.7627
 8840SOL    HW237980   4.023   1.593   7.447 -0.7197 -2.3278 -0.0697
 8841SOL     OW37981   0.109   3.835   1.311 -0.0850  0.1805 -0.3130
 8841SOL    HW137982   0.068   3.889   1.379  2.3672  0.7121  0.7437
 8841SOL    HW237983   0.036   3.777   1.292  1.4002 -1.3447 -1.3249
 8842SOL     OW37984   0.117   2.404   9.888  0.2573  0.2803 -0.5136
 8842SOL    HW137985   0.148   2.481   9.840 -3.3416  2.2335  0.3209
 8842SOL    HW237986   0.163   2.331   9.847  1.6099 -0.4213  2.2104
 8843SOL     OW37987   2.109   3.035  17.296  0.4517 -0.0465  0.4245
 8843SOL    HW137988   2.110   3.031  17.391 -0.4874  0.6067  0.4643
 8843SOL    HW237989   2.020   3.068  17.281  0.2347 -0.4000  0.9303
 8844SOL     OW37990   4.042   0.988   2.949  0.0855  0.0015 -0.3571
 8844SOL    HW137991   4.132   1.019   2.958  0.1230 -0.4096  0.7351
 8844SOL    HW237992   4.054   0.901   2.912  1.1531  0.9974 -2.3317
 8845SOL     OW37993   0.779   3.804   2.812  0.4569  0.3890 -0.9796
 8845SOL    HW137994   0.767   3.747   2.888 -1.1907  0.5369 -1.1220
 8845SOL    HW237995   0.746   3.886   2.848 -0.5235  0.5650 -2.2916
 8846SOL     OW37996   2.888   3.302   7.601 -0.4063 -0.1834 -0.1010
 8846SOL    HW137997   2.914   3.367   7.535  0.3318  0.6200  0.9945
 8846SOL    HW237998   2.915   3.226   7.549  0.5239 -0.3941  0.6907
 8847SOL     OW37999   2.583   4.325   2.222 -0.0976  0.0248 -0.3514
 8847SOL    HW138000   2.568   4.267   2.297  0.4790  0.1534 -0.1373
 8847SOL    HW238001   2.543   4.403   2.260 -0.5792 -0.4262  0.0783
 8848SOL     OW38002   0.910   4.347   4.065  0.1339  0.7078 -0.1341
 8848SOL    HW138003   0.846   4.389   4.007 -0.9441 -0.9320 -0.1318
 8848SOL    HW238004   0.848   4.291   4.111 -1.5308  1.1725 -1.7941
 8849SOL     OW38005   0.592   0.696   6.710 -0.8823  0.5442 -0.0162
 8849SOL    HW138006   0.612   0.635   6.639  0.6631  1.4522 -0.3483
 8849SOL    HW238007   0.533   0.646   6.767 -0.2712 -1.6055 -1.2596
 8850SOL     OW38008   0.513   3.048   2.354 -0.3638 -0.2381  0.7354
 8850SOL    HW138009   0.605   3.024   2.365  0.2878  1.3236 -1.1969
 8850SOL    HW238010   0.473   2.982   2.410  0.9830  1.0821  3.2286
 8851SOL     OW38011   2.894   2.522   8.236 -0.6902 -0.3923  0.1446
 8851SOL    HW138012   2.805   2.530   8.271 -0.4490  1.4712  0.3384
 8851SOL    HW238013   2.938   2.602   8.264  2.6855 -1.2383 -2.7928
 8852SOL     OW38014   1.426   1.245  14.517  0.3586  0.3540  0.0500
 8852SOL    HW138015   1.506   1.286  14.485 -1.2555  1.7886 -2.2411
 8852SOL    HW238016   1.439   1.247  14.611  1.4492 -1.4852 -0.0821
 8853SOL     OW38017   2.892   2.168   9.366  0.7041 -0.0208  0.6662
 8853SOL    HW138018   2.847   2.220   9.432  0.0973  2.3191 -1.5489
 8853SOL    HW238019   2.901   2.239   9.302 -3.3536 -0.6761 -0.5949
 8854SOL     OW38020   0.098   2.254  10.584  0.0719 -0.2356  0.4967
 8854SOL    HW138021   0.186   2.236  10.550 -0.8563 -0.8864 -1.5271
 8854SOL    HW238022   0.066   2.165  10.599 -1.4673  0.5727  2.0830
 8855SOL     OW38023   0.857   1.996  10.567  0.5540 -0.0254 -0.2138
 8855SOL    HW138024   0.772   1.967  10.602 -0.0445  0.4349 -1.2901
 8855SOL    HW238025   0.901   1.911  10.568  0.8382  0.1187 -0.3925
 8856SOL     OW38026   1.976   0.038  13.559 -0.2237 -0.2977 -0.2362
 8856SOL    HW138027   1.962   4.667  13.571 -2.9826  0.2680  0.8851
 8856SOL    HW238028   2.057   0.045  13.509  0.1754  0.1096  0.4558
 8857SOL     OW38029   1.221   4.280   6.309  0.2753 -0.0441  0.0867
 8857SOL    HW138030   1.243   4.370   6.332  1.6973 -0.5128  0.6005
 8857SOL    HW238031   1.213   4.239   6.395  2.2828 -0.0648  0.2760
 8858SOL     OW38032   2.142   0.401  14.579 -0.3821 -0.6111 -0.1094
 8858SOL    HW138033   2.176   0.354  14.655 -0.1611 -2.0220 -1.0960
 8858SOL    HW238034   2.076   0.345  14.538  1.1488 -1.7398 -1.0112
 8859SOL     OW38035   0.339   3.462   8.246 -0.1727  0.5606 -0.4512
 8859SOL    HW138036   0.390   3.516   8.185  0.2673 -0.2939 -0.8558
 8859SOL    HW238037   0.318   3.387   8.190  0.3303 -0.7696  1.1497
 8860SOL     OW38038   1.874   1.993   8.681 -0.1762  0.9225  0.0987
 8860SOL    HW138039   1.886   2.015   8.589  2.5690 -1.8448 -0.1974
 8860SOL    HW238040   1.885   1.898   8.688 -3.0491  0.6147  0.0541
 8861SOL     OW38041   0.218   2.108   7.618  0.4075  0.4812  0.0294
 8861SOL    HW138042   0.274   2.034   7.641 -3.2945 -1.4228  2.9848
 8861SOL    HW238043   0.232   2.113   7.524  0.9888 -1.1882  0.0276
 8862SOL     OW38044   3.796   0.886   0.148  0.3030  0.4286  0.1927
 8862SOL    HW138045   3.840   0.955   0.199  0.3491  2.0669 -2.0796
 8862SOL    HW238046   3.806   0.910   0.056  2.1089  0.4508  0.3992
 8863SOL     OW38047   1.896   0.743   3.233  0.4776  0.9885 -0.2532
 8863SOL    HW138048   1.909   0.836   3.213  0.1769  0.7134 -1.6784
 8863SOL    HW238049   1.817   0.733   3.180 -1.0958  0.0122  2.2759
 8864SOL     OW38050   2.997   0.613   2.481  0.4597 -0.4383  0.3286
 8864SOL    HW138051   2.955   0.608   2.395 -0.9398 -2.4152  1.1287
 8864SOL    HW238052   2.923   0.606   2.541  0.3743  0.5128  0.3314
 8865SOL     OW38053   0.404   0.458   8.021 -0.7835  0.7571 -0.5922
 8865SOL    HW138054   0.485   0.435   7.975 -0.7360 -1.6977  0.7018
 8865SOL    HW238055   0.397   0.544   7.979 -1.1352  1.3168  0.6120
 8866SOL     OW38056   0.838   2.730  15.043 -0.6220 -0.4851  0.7132
 8866SOL    HW138057   0.855   2.825  15.040  1.3437 -0.9088 -1.3970
 8866SOL    HW238058   0.746   2.723  15.016 -0.0164 -2.5379 -0.8020
 8867SOL     OW38059   3.934   0.593   0.388 -0.5517  0.1141  0.1144
 8867SOL    HW138060   3.970   0.555   0.468  1.8594  1.2996 -0.3916
 8867SOL    HW238061   3.998   0.569   0.321 -1.9195 -0.6150 -0.9306
 8868SOL     OW38062   0.701   1.035   0.912 -0.2107  0.5364 -0.3304
 8868SOL    HW138063   0.620   1.074   0.943 -0.7300  0.6162 -1.7907
 8868SOL    HW238064   0.757   1.110   0.893  0.1635  0.6952  1.4099
 8869SOL     OW38065   3.960   2.888  13.562 -0.4838  0.5056 -0.0899
 8869SOL    HW138066   3.980   2.853  13.475  1.6272  0.0420  0.5696
 8869SOL    HW238067   3.898   2.828  13.603 -2.1637  1.6572 -0.9459
 8870SOL     OW38068   3.129   3.704   2.915 -0.4773 -0.6155 -0.0109
 8870SOL    HW138069   3.178   3.672   2.839  1.7758  0.2849  1.0486
 8870SOL    HW238070   3.155   3.796   2.905 -1.0319 -0.4909 -0.3378
 8871SOL     OW38071   1.754   2.218  17.596  0.0069  0.0074  0.0593
 8871SOL    HW138072   1.729   2.269  17.519  2.8508  0.7565 -0.3461
 8871SOL    HW238073   1.838   2.185  17.566  1.4804  1.2663  2.8202
 8872SOL     OW38074   3.909   0.649  12.551 -0.3464  0.0954 -0.0253
 8872SOL    HW138075   4.001   0.653  12.524 -0.5093  3.2996 -0.0684
 8872SOL    HW238076   3.870   0.586  12.491  0.4054 -0.6335  0.2455
 8873SOL     OW38077   2.732   0.079   3.760 -0.0727 -0.5593  0.1385
 8873SOL    HW138078   2.669   0.012   3.734 -0.1925  0.2906 -1.7820
 8873SOL    HW238079   2.796   0.038   3.819  0.6990 -0.0354 -0.3301
 8874SOL     OW38080   4.418   4.569   0.005 -0.1491 -0.5501 -0.4135
 8874SOL    HW138081   4.355   4.547   0.074 -0.6800 -2.1146 -1.3881
 8874SOL    HW238082   4.450   4.656   0.028 -0.2521 -0.1394 -1.8418
 8875SOL     OW38083   0.672   2.516   2.158 -0.3516  0.1312 -0.7246
 8875SOL    HW138084   0.597   2.537   2.102 -2.8740 -0.1434  2.5599
 8875SOL    HW238085   0.710   2.601   2.181  0.8218 -0.3638 -0.8110
 8876SOL     OW38086   4.692   4.454   7.538 -0.0209  0.2986  0.0598
 8876SOL    HW138087   0.049   4.409   7.568 -1.2012 -2.9121 -1.6858
 8876SOL    HW238088   4.710   4.468   7.445 -0.4085  0.6143  0.0307
 8877SOL     OW38089   0.925   4.513   2.516  0.0549  0.0568 -0.1113
 8877SOL    HW138090   0.936   4.607   2.503  2.2247  0.0825  1.8683
 8877SOL    HW238091   0.830   4.501   2.523 -0.1031  0.8627 -0.9468
 8878SOL     OW38092   3.972   4.599   7.023  0.3871  0.0761  0.3242
 8878SOL    HW138093   3.882   4.595   7.054  0.3790  1.2174  0.4552
 8878SOL    HW238094   3.999   4.688   7.042 -3.8169  1.6848 -1.2462
 8879SOL     OW38095   1.097   3.128   5.088 -0.7457 -0.2439  0.1298
 8879SOL    HW138096   1.083   3.180   5.167  0.9960 -0.8276  0.8274
 8879SOL    HW238097   1.159   3.061   5.118  0.0075 -0.3498 -1.6652
 8880SOL     OW38098   0.385   4.464   6.213  0.6633 -0.2361 -0.0768
 8880SOL    HW138099   0.292   4.483   6.200  1.3200  1.5213 -2.0372
 8880SOL    HW238100   0.389   4.431   6.303  2.8976  0.1640 -0.0237
 8881SOL     OW38101   1.292   4.473   2.599 -0.8664 -0.5749 -0.0937
 8881SOL    HW138102   1.378   4.473   2.641 -1.2995  0.9463  0.8005
 8881SOL    HW238103   1.265   4.384   2.625  0.8307 -0.4710  2.0552
 8882SOL     OW38104   2.856   1.338   0.257 -0.2235  0.6764 -0.3017
 8882SOL    HW138105   2.922   1.274   0.232 -1.4350 -0.0080 -1.7508
 8882SOL    HW238106   2.777   1.291   0.227 -0.9006 -0.2865  2.9704
 8883SOL     OW38107   4.396   3.938  14.908  0.1885  0.1534 -0.4085
 8883SOL    HW138108   4.333   3.987  14.856  2.1209  1.9634 -1.0398
 8883SOL    HW238109   4.438   4.017  14.942 -1.0352 -0.2261  2.0187
 8884SOL     OW38110   4.193   3.997  11.751 -0.2173  0.5076 -0.1891
 8884SOL    HW138111   4.259   4.044  11.698 -0.2068  1.6264  0.8152
 8884SOL    HW238112   4.218   4.025  11.839  0.6829  2.0171 -0.9234
 8885SOL     OW38113   1.549   1.987   0.813 -0.0753  0.4096 -0.4817
 8885SOL    HW138114   1.526   1.946   0.730 -1.4643 -0.2149  0.2125
 8885SOL    HW238115   1.474   1.967   0.868  0.0361  0.4665 -0.3099
 8886SOL     OW38116   2.042   3.338   8.174  0.3390  0.5403 -0.2258
 8886SOL    HW138117   2.106   3.401   8.142  1.7646 -1.4450 -1.2846
 8886SOL    HW238118   2.116   3.279   8.188 -0.6403 -0.7077 -0.3054
 8887SOL     OW38119   4.244   0.428   3.349  0.5268 -0.6922 -0.2494
 8887SOL    HW138120   4.337   0.411   3.334  0.7336  1.2432 -1.1052
 8887SOL    HW238121   4.198   0.346   3.329  2.5429 -1.7387 -0.6378
 8888SOL     OW38122   1.986   2.034   9.857  0.2119 -0.1688 -0.0768
 8888SOL    HW138123   2.058   2.091   9.884 -0.0273 -0.4101  1.0902
 8888SOL    HW238124   1.919   2.094   9.824  1.4502  1.3530  0.1477
 8889SOL     OW38125   0.645   0.917   7.732  0.1503 -0.2988  0.6530
 8889SOL    HW138126   0.654   0.824   7.710 -0.0520 -0.2457  0.3508
 8889SOL    HW238127   0.553   0.920   7.706  0.0610 -0.4153  0.9504
 8890SOL     OW38128   3.454   3.867  17.605  0.2045 -0.1580  0.4797
 8890SOL    HW138129   3.533   3.852  17.657  0.5898  1.7657  0.4203
 8890SOL    HW238130   3.435   3.780  17.570  3.0607 -0.1931 -1.0124
 8891SOL     OW38131   2.267   0.513  11.276  0.2949  0.0594  0.0154
 8891SOL    HW138132   2.328   0.587  11.275  1.5030 -0.9072  1.3135
 8891SOL    HW238133   2.219   0.524  11.194  1.4730  1.7172 -0.4550
 8892SOL     OW38134   4.342   2.618   3.814 -0.1676 -0.5081  0.8642
 8892SOL    HW138135   4.323   2.661   3.730  1.4704 -0.1012  0.7006
 8892SOL    HW238136   4.309   2.689   3.869 -1.4253 -0.1682 -0.3105
 8893SOL     OW38137   0.909   0.330   3.015 -0.3526  0.6310 -0.3293
 8893SOL    HW138138   0.893   0.261   2.950  2.4976 -0.9078  0.5970
 8893SOL    HW238139   0.944   0.388   2.947  1.2105  0.2965  0.1896
 8894SOL     OW38140   4.502   2.809   5.160  0.7866  0.2519  0.6933
 8894SOL    HW138141   4.589   2.841   5.137  0.5293  1.7544  1.7992
 8894SOL    HW238142   4.455   2.849   5.087  0.5172 -1.0703  0.1287
 8895SOL     OW38143   2.205   1.573   3.580  0.0306 -0.5230 -0.2597
 8895SOL    HW138144   2.158   1.512   3.523 -3.3479  0.0912  1.9039
 8895SOL    HW238145   2.271   1.514   3.617 -1.1315 -3.0338 -2.1721
 8896SOL     OW38146   4.279   4.509   8.294  0.0042 -0.0804 -0.0007
 8896SOL    HW138147   4.356   4.496   8.238  0.6249  0.9661  0.6212
 8896SOL    HW238148   4.226   4.567   8.240 -0.5166  0.5264  1.1644
 8897SOL     OW38149   4.277   4.422  17.107 -0.0629  0.6485  0.3716
 8897SOL    HW138150   4.245   4.366  17.037  2.7321 -0.3855 -0.0486
 8897SOL    HW238151   4.314   4.491  17.053 -0.3467  1.3882  1.1135
 8898SOL     OW38152   1.528   4.333   4.140  0.4919 -0.0014  0.0453
 8898SOL    HW138153   1.548   4.425   4.156 -0.3517 -0.0117  1.1576
 8898SOL    HW238154   1.560   4.294   4.221 -1.7106  0.8996  1.3418
 8899SOL     OW38155   4.588   0.545   6.415 -0.1243  0.1860  0.4519
 8899SOL    HW138156   4.634   0.484   6.357 -0.4565  0.0939  0.2868
 8899SOL    HW238157   4.500   0.526   6.383 -0.1783  0.2068  0.5896
 8900SOL     OW38158   0.138   3.277   8.592 -0.1589 -0.1084 -0.3229
 8900SOL    HW138159   0.096   3.330   8.659  1.1293  0.7529 -0.2152
 8900SOL    HW238160   0.221   3.322   8.606 -0.7418  0.4651  1.2761
 8901SOL     OW38161   3.096   3.929  13.224  0.0593  0.4846 -0.0675
 8901SOL    HW138162   3.134   4.016  13.212 -1.3067  1.1445  0.3922
 8901SOL    HW238163   3.176   3.880  13.239 -0.1122 -0.1227 -1.0950
 8902SOL     OW38164   1.062   0.462  15.740 -0.0300  0.0878  0.6979
 8902SOL    HW138165   1.080   0.421  15.655  0.3165  0.5409  0.5549
 8902SOL    HW238166   1.010   0.539  15.716  1.2089  0.5441 -0.5418
 8903SOL     OW38167   3.400   2.364   9.874 -0.0600 -0.4086  0.5947
 8903SOL    HW138168   3.466   2.374   9.943  0.4745  2.0574 -0.2642
 8903SOL    HW238169   3.361   2.277   9.886  0.1925 -0.7171 -0.8165
 8904SOL     OW38170   4.562   2.003   2.864  0.3570 -0.5691  0.1252
 8904SOL    HW138171   4.530   2.025   2.777  0.9062  1.5181  0.4406
 8904SOL    HW238172   4.478   1.984   2.905 -0.8353  1.6679 -1.2613
 8905SOL     OW38173   3.258   3.139   7.498 -0.5212 -0.3333  0.5732
 8905SOL    HW138174   3.351   3.161   7.497 -0.2628 -1.4264  1.0313
 8905SOL    HW238175   3.252   3.057   7.547 -0.4542 -2.2437 -2.6398
 8906SOL     OW38176   3.533   1.228   5.667 -0.1564  0.5854 -0.0296
 8906SOL    HW138177   3.478   1.297   5.704  2.6247  2.4543  0.5987
 8906SOL    HW238178   3.574   1.192   5.745 -3.4937 -2.3551  0.3694
 8907SOL     OW38179   2.164   2.549   4.978  0.9532  0.2120 -0.0316
 8907SOL    HW138180   2.129   2.461   4.970  1.8813 -0.3130  1.5599
 8907SOL    HW238181   2.194   2.565   4.889  0.6454 -1.2691 -0.3959
 8908SOL     OW38182   2.111   3.363  10.918 -0.0463  0.5098 -0.4418
 8908SOL    HW138183   2.018   3.348  10.936  0.2698  0.8705  1.5405
 8908SOL    HW238184   2.107   3.459  10.913 -3.8017  0.3510 -0.5624
 8909SOL     OW38185   0.912   4.203  10.911  0.5815  0.0404 -0.0949
 8909SOL    HW138186   0.862   4.283  10.896 -1.8906 -1.5097 -0.2990
 8909SOL    HW238187   0.985   4.239  10.961  1.2331 -0.5411 -0.6327
 8910SOL     OW38188   0.926   0.106   9.798 -0.2651 -0.3472  0.2121
 8910SOL    HW138189   0.841   0.091   9.755  0.4580  1.0181 -1.6679
 8910SOL    HW238190   0.916   0.048   9.874  0.8720 -0.0067  0.6093
 8911SOL     OW38191   1.370   0.839   3.422  0.0472  0.4507 -0.5155
 8911SOL    HW138192   1.339   0.814   3.510  0.4428 -0.5973 -0.6672
 8911SOL    HW238193   1.296   0.894   3.395 -2.4665 -2.1894  0.9056
 8912SOL     OW38194   0.247   0.189   8.025  0.2677 -0.2944 -0.1822
 8912SOL    HW138195   0.272   0.272   7.985  2.7564 -0.2094  1.5506
 8912SOL    HW238196   0.306   0.175   8.099  1.6288 -0.3754 -1.2861
 8913SOL     OW38197   2.896   2.060   8.084 -0.3184 -0.6290  0.2906
 8913SOL    HW138198   2.976   2.072   8.136 -1.1700  1.5366  1.0866
 8913SOL    HW238199   2.838   2.081   8.156  0.2647  1.9702 -0.0082
 8914SOL     OW38200   4.533   3.480  14.808 -0.1875  0.4425 -0.0040
 8914SOL    HW138201   4.508   3.509  14.720  3.4073  0.1327 -1.1050
 8914SOL    HW238202   4.591   3.549  14.840 -0.5058 -0.2761  2.1559
 8915SOL     OW38203   2.592   0.810   2.003  0.4206 -0.1805 -0.3401
 8915SOL    HW138204   2.685   0.824   2.020 -0.6032  1.0743  4.3804
 8915SOL    HW238205   2.590   0.799   1.908 -1.3725  0.7927 -0.4039
 8916SOL     OW38206   2.770   0.642   3.930 -0.2942  0.4325  0.3575
 8916SOL    HW138207   2.819   0.563   3.950 -1.4141 -0.8185 -1.8525
 8916SOL    HW238208   2.728   0.622   3.847 -4.6662  2.1795  2.1362
 8917SOL     OW38209   3.167   0.047  10.282  0.6449  0.1578 -0.4566
 8917SOL    HW138210   3.224   0.120  10.259  0.9168  0.1723  0.2588
 8917SOL    HW238211   3.170   0.004  10.197 -1.6816 -0.6402 -0.1436
 8918SOL     OW38212   2.707   2.599   7.843 -0.1581  0.0210  0.3327
 8918SOL    HW138213   2.646   2.572   7.911  1.2851  1.1344  2.0795
 8918SOL    HW238214   2.751   2.666   7.897 -1.1358  1.1813 -0.2988
 8919SOL     OW38215   2.282   1.672   2.021 -0.0484 -0.3532 -0.1095
 8919SOL    HW138216   2.312   1.588   2.056  2.3188  1.0570  1.2177
 8919SOL    HW238217   2.201   1.685   2.070  0.9378  0.3866  1.2915
 8920SOL     OW38218   4.311   1.593   0.174  0.2543 -0.1975 -0.2653
 8920SOL    HW138219   4.280   1.520   0.227  0.5109 -0.9638 -1.1737
 8920SOL    HW238220   4.389   1.611   0.227 -1.5245  1.6127  1.7232
 8921SOL     OW38221   3.695   2.010   4.363 -0.0168 -0.2520 -0.4355
 8921SOL    HW138222   3.679   1.991   4.455 -2.3405 -0.9214 -0.9953
 8921SOL    HW238223   3.613   2.043   4.327 -1.1099 -2.2931  0.1883
 8922SOL     OW38224   2.026   3.158   6.214 -0.2768  0.3031  0.0081
 8922SOL    HW138225   1.939   3.131   6.185 -1.9099  4.3822  1.0801
 8922SOL    HW238226   2.002   3.238   6.259 -0.3102  0.1870  0.1958
 8923SOL     OW38227   0.744   2.972   8.744  0.5688 -0.1587  0.5177
 8923SOL    HW138228   0.721   3.003   8.656 -0.7204 -2.6913 -0.0274
 8923SOL    HW238229   0.811   3.038   8.762 -1.2951  1.3357  1.9792
 8924SOL     OW38230   3.909   1.339   2.714 -0.3298  0.0254  0.1129
 8924SOL    HW138231   3.998   1.304   2.716 -0.5385 -0.5004  0.0963
 8924SOL    HW238232   3.856   1.268   2.750 -1.1001 -0.7923 -2.6565
 8925SOL     OW38233   1.276   3.693   8.521 -0.0119  0.4020 -0.2102
 8925SOL    HW138234   1.204   3.743   8.558 -0.8032 -0.6105 -0.3791
 8925SOL    HW238235   1.232   3.610   8.500 -0.9417  1.5708 -2.8648
 8926SOL     OW38236   2.930   2.639   4.192  0.5138 -0.4529  0.0868
 8926SOL    HW138237   2.877   2.697   4.136 -2.1700 -0.7511  2.3506
 8926SOL    HW238238   3.011   2.638   4.141 -0.8254  0.1470 -2.0965
 8927SOL     OW38239   3.783   1.757   4.012  0.2998  0.2700 -0.4631
 8927SOL    HW138240   3.840   1.682   4.030 -2.8070 -1.8675  0.5081
 8927SOL    HW238241   3.796   1.781   3.921  0.4275 -1.4844 -0.9030
 8928SOL     OW38242   1.289   1.260  14.291  0.2995 -0.7355  0.3199
 8928SOL    HW138243   1.340   1.237  14.368 -0.3698 -0.6716  0.7913
 8928SOL    HW238244   1.288   1.353  14.313 -1.6681 -0.7012  0.0918
 8929SOL     OW38245   1.722   1.325  11.885  0.6927 -0.0823  0.4916
 8929SOL    HW138246   1.642   1.368  11.916 -0.3737 -0.6695 -1.4771
 8929SOL    HW238247   1.725   1.347  11.792  0.7543 -0.8328  0.3159
 8930SOL     OW38248   0.440   0.362   8.824 -0.1801  0.4247 -0.0180
 8930SOL    HW138249   0.353   0.368   8.863 -0.6586 -0.9827 -0.8595
 8930SOL    HW238250   0.414   0.330   8.737 -3.7632 -0.1467  1.2978
 8931SOL     OW38251   2.002   2.169  14.405 -0.0579 -0.5091  0.1496
 8931SOL    HW138252   1.936   2.206  14.463  1.1990  2.1929 -0.1224
 8931SOL    HW238253   2.071   2.236  14.411  0.3361 -0.9387  0.3943
 8932SOL     OW38254   1.780   2.581   2.267  0.1963 -0.0933  0.2892
 8932SOL    HW138255   1.868   2.543   2.271  0.8899  1.4204 -0.6780
 8932SOL    HW238256   1.751   2.570   2.357  1.2137 -1.8461  0.3956
 8933SOL     OW38257   1.477   3.478  16.322  0.1182  0.2585 -0.5812
 8933SOL    HW138258   1.520   3.406  16.277 -1.1238  0.0310 -1.3881
 8933SOL    HW238259   1.507   3.462  16.412  3.6322  0.1766 -1.7494
 8934SOL     OW38260   1.756   1.757  11.577 -0.7231  0.7017 -0.6754
 8934SOL    HW138261   1.699   1.736  11.503 -0.3425 -1.4382 -0.3488
 8934SOL    HW238262   1.847   1.756  11.548  0.1160  0.8638  1.9804
 8935SOL     OW38263   4.162   3.756   2.149 -0.8898  0.4264  0.3637
 8935SOL    HW138264   4.258   3.750   2.156 -0.7552  2.2487  0.0016
 8935SOL    HW238265   4.140   3.690   2.084  1.2801  1.6137 -1.5934
 8936SOL     OW38266   0.194   0.537  17.161  0.3485  0.0787 -0.1112
 8936SOL    HW138267   0.278   0.557  17.202 -0.5621 -0.9228  2.2373
 8936SOL    HW238268   0.225   0.468  17.101  0.5040  3.2856 -3.7014
 8937SOL     OW38269   3.161   3.858   3.779  0.4665  0.0590 -0.1699
 8937SOL    HW138270   3.207   3.919   3.838 -0.3296 -0.6433  1.1647
 8937SOL    HW238271   3.068   3.871   3.799  0.5717  1.9113 -0.8265
 8938SOL     OW38272   3.027   3.684   8.462  0.2666 -0.2634  0.0577
 8938SOL    HW138273   3.034   3.603   8.412  0.4054  0.0973 -0.5066
 8938SOL    HW238274   3.121   3.705   8.468  0.4857 -0.7022 -1.7496
 8939SOL     OW38275   0.226   0.010   0.250  0.6455 -0.1467  0.2952
 8939SOL    HW138276   0.226   0.103   0.228 -1.9547  0.1012  1.4232
 8939SOL    HW238277   0.299   0.003   0.312 -0.2661 -0.8823  1.2736
 8940SOL     OW38278   1.249   1.302  11.614 -0.0284 -0.3081 -0.5863
 8940SOL    HW138279   1.297   1.383  11.595  0.4092 -0.6266 -0.8356
 8940SOL    HW238280   1.320   1.238  11.613  0.1485 -0.1280  0.1302
 8941SOL     OW38281   4.637   1.916   4.769 -0.3005  0.4916 -0.2988
 8941SOL    HW138282   4.681   1.869   4.699 -0.2938  0.7018 -0.4367
 8941SOL    HW238283   4.718   1.956   4.800 -0.4394  0.2826  0.3445
 8942SOL     OW38284   0.784   2.699   3.867 -0.3171 -0.3119 -0.0908
 8942SOL    HW138285   0.863   2.656   3.900  0.9634  1.3142 -1.0070
 8942SOL    HW238286   0.759   2.747   3.946  1.4209 -2.3023  1.6800
 8943SOL     OW38287   1.231   1.534   8.679 -0.0787 -0.0733  0.0947
 8943SOL    HW138288   1.172   1.480   8.627  2.5079 -1.7925 -1.0017
 8943SOL    HW238289   1.287   1.470   8.723 -0.5825 -0.7066 -0.1976
 8944SOL     OW38290   4.602   3.825   2.879  0.2957 -0.3124 -0.3567
 8944SOL    HW138291   4.672   3.871   2.925 -1.8963  1.4908  1.2028
 8944SOL    HW238292   4.659   3.753   2.853  1.2526  0.7217 -1.1034
 8945SOL     OW38293   4.689   4.654   4.358 -0.2244  0.2647 -0.2324
 8945SOL    HW138294   0.013   4.694   4.431  0.4719 -1.1660  0.0829
 8945SOL    HW238295   0.039   4.631   4.300  1.0252 -1.9992  2.2527
 8946SOL     OW38296   2.812   1.332  16.802 -0.0869 -0.3446 -0.3548
 8946SOL    HW138297   2.871   1.264  16.770  0.1411 -1.0982  1.6194
 8946SOL    HW238298   2.871   1.356  16.873 -0.6143  1.3235 -0.4946
 8947SOL     OW38299   4.136   0.028   5.290 -0.7080 -0.1975 -0.5410
 8947SOL    HW138300   4.193   4.685   5.330 -0.8717  0.8668  1.4116
 8947SOL    HW238301   4.083   4.691   5.238 -1.3773 -0.8149  0.8610
 8948SOL     OW38302   3.416   3.465   7.312  0.1042  0.2089  0.4596
 8948SOL    HW138303   3.380   3.554   7.305 -1.7211 -0.5378  0.3970
 8948SOL    HW238304   3.342   3.410   7.288 -1.8767  2.9565  0.2034
 8949SOL     OW38305   3.906   0.311  14.485  0.3469 -0.3695  0.2120
 8949SOL    HW138306   3.949   0.280  14.564 -1.3404 -2.3943  0.3575
 8949SOL    HW238307   3.920   0.405  14.486 -0.6258 -0.2057 -1.4243
 8950SOL     OW38308   2.945   2.515   4.447  0.0061  0.0541  0.0779
 8950SOL    HW138309   2.919   2.576   4.378  0.9782  1.3041  0.8099
 8950SOL    HW238310   3.027   2.483   4.410  1.2302  1.3321  1.6610
 8951SOL     OW38311   4.648   3.622  15.446 -0.2698 -0.2820  0.6455
 8951SOL    HW138312   4.663   3.681  15.520 -0.5617  2.0612 -1.1495
 8951SOL    HW238313   0.014   3.591  15.427 -0.3557  0.3138 -0.7066
 8952SOL     OW38314   2.251   0.209   7.387 -0.0655 -0.1499  0.2538
 8952SOL    HW138315   2.167   0.245   7.416  0.3740 -0.5772  2.0492
 8952SOL    HW238316   2.253   0.119   7.418  1.4145  0.1043  0.9095
 8953SOL     OW38317   4.274   1.953   5.746 -0.3300  0.1589  0.6813
 8953SOL    HW138318   4.246   1.862   5.738  2.2244 -0.4149 -1.7547
 8953SOL    HW238319   4.314   1.961   5.660 -1.8974  0.1068 -0.0405
 8954SOL     OW38320   1.734   0.919   2.324  0.3661 -0.5303 -0.0101
 8954SOL    HW138321   1.716   1.008   2.353  2.5834  0.0033 -0.2871
 8954SOL    HW238322   1.664   0.909   2.259  1.7077  0.3047 -1.5686
 8955SOL     OW38323   1.695   3.317   2.603 -0.0242  0.0302 -0.3114
 8955SOL    HW138324   1.721   3.404   2.574 -1.0198  1.0596  1.8776
 8955SOL    HW238325   1.607   3.303   2.566 -0.5634  0.5716  0.7626
 8956SOL     OW38326   1.790   1.777   6.448  0.6494 -0.4351  0.1736
 8956SOL    HW138327   1.744   1.727   6.514  1.9545  0.3001  1.6361
 8956SOL    HW238328   1.754   1.865   6.460 -0.7526 -1.0558  0.4599
 8957SOL     OW38329   1.592   3.457   6.494  0.6252 -0.5634  0.2763
 8957SOL    HW138330   1.627   3.420   6.575  0.2405  1.1354  1.2146
 8957SOL    HW238331   1.520   3.512   6.525  0.4772  0.4703 -1.8799
 8958SOL     OW38332   2.034   3.625  11.703 -0.5870  0.4642  0.4426
 8958SOL    HW138333   2.079   3.685  11.644  0.5146  1.0744  1.9059
 8958SOL    HW238334   2.100   3.557  11.708 -0.6327  0.7945  4.9975
 8959SOL     OW38335   4.663   1.776  15.487  0.3831  0.5436 -0.0309
 8959SOL    HW138336   0.028   1.740  15.474  1.3490  2.1966  1.8529
 8959SOL    HW238337   4.675   1.871  15.495  0.4139  0.4004  1.7455
 8960SOL     OW38338   3.835   0.166  16.984  0.1211  0.1265  0.1762
 8960SOL    HW138339   3.783   0.227  17.037  0.5856 -0.2626  1.0831
 8960SOL    HW238340   3.766   0.105  16.958  0.9153 -0.3562 -0.8031
 8961SOL     OW38341   0.821   4.399   3.427  0.4645  0.4827  0.6050
 8961SOL    HW138342   0.902   4.349   3.427  0.1181 -0.0863  0.8147
 8961SOL    HW238343   0.856   4.487   3.420  3.1051 -0.5971  0.3093
 8962SOL     OW38344   1.143   0.246   4.434  0.0758  0.0674 -0.4841
 8962SOL    HW138345   1.077   0.197   4.484  0.7889 -0.7466 -0.3289
 8962SOL    HW238346   1.108   0.254   4.346 -1.1387 -0.8382 -0.0845
 8963SOL     OW38347   2.834   2.832  14.606  0.2351  0.2239 -0.8985
 8963SOL    HW138348   2.900   2.823  14.536 -1.7784 -0.1509 -2.7420
 8963SOL    HW238349   2.801   2.742  14.604 -0.1318  0.3511 -0.4501
 8964SOL     OW38350   0.515   0.344   4.431 -0.0085  0.1576 -0.1624
 8964SOL    HW138351   0.457   0.405   4.385 -0.5963 -2.1723 -2.5220
 8964SOL    HW238352   0.465   0.328   4.512  0.5513  0.6339  0.2720
 8965SOL     OW38353   4.204   3.770  15.473  0.3502  0.1032  0.1497
 8965SOL    HW138354   4.239   3.703  15.415  1.0580 -1.1771  2.0547
 8965SOL    HW238355   4.203   3.725  15.558  2.1838  0.5298  0.4089
 8966SOL     OW38356   0.188   2.011   3.132  0.0832 -0.2405 -0.0080
 8966SOL    HW138357   0.225   1.941   3.078 -1.5007 -2.7669  2.1832
 8966SOL    HW238358   0.159   1.963   3.209  0.9282 -1.6904 -0.6105
 8967SOL     OW38359   2.554   0.580   2.141 -0.1022 -0.2302  0.1613
 8967SOL    HW138360   2.541   0.667   2.104  1.2069 -0.7386 -1.4479
 8967SOL    HW238361   2.539   0.524   2.065 -0.6290 -1.0401  0.8630
 8968SOL     OW38362   2.820   2.049  16.242  0.1262  0.1161 -0.5823
 8968SOL    HW138363   2.770   2.100  16.178  0.0916  1.8647  0.8434
 8968SOL    HW238364   2.788   1.960  16.226  0.7881 -0.0332 -1.0446
 8969SOL     OW38365   3.395   1.905  10.481 -0.1983  0.0954 -0.2814
 8969SOL    HW138366   3.454   1.876  10.551 -1.0516 -1.6560 -0.2817
 8969SOL    HW238367   3.362   1.988  10.517  0.3692 -0.5410  1.7399
 8970SOL     OW38368   0.442   0.057   4.708  0.0177 -0.1865  0.3308
 8970SOL    HW138369   0.416   0.019   4.624 -0.1780 -0.3314  0.4550
 8970SOL    HW238370   0.487   0.139   4.688 -0.3158 -0.0562  0.1125
 8971SOL     OW38371   2.293   0.521   6.941 -0.2838  0.5635  0.0235
 8971SOL    HW138372   2.279   0.435   6.901  0.9616  0.7159 -0.7260
 8971SOL    HW238373   2.275   0.503   7.033  1.2024 -1.1638 -0.0413
 8972SOL     OW38374   1.915   1.740  17.532  0.4218  0.4530 -0.2444
 8972SOL    HW138375   1.906   1.811  17.595  1.9293 -1.3661  2.0603
 8972SOL    HW238376   1.836   1.689  17.547  2.6940 -2.9387  0.3322
 8973SOL     OW38377   1.121   0.399   3.190 -0.0285  0.4743 -0.3511
 8973SOL    HW138378   1.174   0.330   3.150 -2.6282 -0.4043 -2.2415
 8973SOL    HW238379   1.036   0.388   3.147  0.4295 -0.6547 -0.9632
 8974SOL     OW38380   4.338   1.673   6.049 -0.5021 -0.0236 -0.7376
 8974SOL    HW138381   4.416   1.645   6.001  0.3365 -0.4580  0.8971
 8974SOL    HW238382   4.285   1.686   5.970 -1.2336 -0.4717 -0.3196
 8975SOL     OW38383   1.347   4.056   5.489 -0.6940  0.4919 -0.0305
 8975SOL    HW138384   1.418   3.997   5.466  0.3180  1.4487  0.6350
 8975SOL    HW238385   1.271   4.043   5.432 -0.2660  0.6233 -0.6401
 8976SOL     OW38386   1.801   0.269   3.226  1.1309 -0.1730  0.2689
 8976SOL    HW138387   1.811   0.279   3.131 -0.8232 -0.1157  0.0795
 8976SOL    HW238388   1.738   0.340   3.239  0.9250 -0.1010 -1.1159
 8977SOL     OW38389   2.946   2.254   0.716 -0.0543  0.1139  0.5706
 8977SOL    HW138390   2.962   2.161   0.702  0.2005  0.0589  1.2088
 8977SOL    HW238391   2.939   2.248   0.811  1.5155 -0.3865  0.6426
 8978SOL     OW38392   4.656   0.205  10.305  0.5642 -0.2667  0.2921
 8978SOL    HW138393   4.615   0.153  10.235  0.6038  1.7215 -1.2213
 8978SOL    HW238394   4.667   0.140  10.374 -1.2694 -0.5076  0.3602
 8979SOL     OW38395   0.921   1.898   4.837 -0.0155  0.4578 -0.5811
 8979SOL    HW138396   0.923   1.803   4.842 -1.5335  0.3888 -1.2716
 8979SOL    HW238397   0.978   1.909   4.761  1.3269  2.8377  0.7464
 8980SOL     OW38398   1.619   0.048   3.402 -0.1242  0.0769  0.5036
 8980SOL    HW138399   1.651   4.691   3.361  0.9029 -0.2231  1.8790
 8980SOL    HW238400   1.533   0.070   3.367  0.8895  1.2446 -1.2425
 8981SOL     OW38401   0.203   2.107   7.347 -0.2820  0.2337 -0.2700
 8981SOL    HW138402   0.125   2.073   7.303 -1.4405  2.4691  0.0559
 8981SOL    HW238403   0.267   2.048   7.307  1.1612  0.2865  1.9551
 8982SOL     OW38404   3.825   3.737   6.939 -0.4916 -0.5922  0.3718
 8982SOL    HW138405   3.849   3.764   7.027 -3.4360 -1.4569  1.4602
 8982SOL    HW238406   3.867   3.651   6.928  1.4153  0.5725 -1.4605
 8983SOL     OW38407   4.019   0.298  10.962 -0.1240 -0.3804  0.4363
 8983SOL    HW138408   4.031   0.393  10.960 -1.0617 -0.2367  2.1743
 8983SOL    HW238409   4.011   0.285  11.056 -0.7522  2.6556  0.7893
 8984SOL     OW38410   1.112   3.988   3.580  0.0980 -0.0932 -0.4372
 8984SOL    HW138411   1.171   3.926   3.623  2.0345  2.7455  1.0635
 8984SOL    HW238412   1.150   3.996   3.492  2.0264  1.1043  0.5000
 8985SOL     OW38413   1.921   3.140   5.070 -0.2340 -0.6495  0.8576
 8985SOL    HW138414   1.950   3.199   5.139 -0.1367  0.5675 -0.2394
 8985SOL    HW238415   2.003   3.103   5.037 -0.7564  0.9827 -2.3099
 8986SOL     OW38416   2.616   2.101   4.171  0.1820  0.3838 -0.2444
 8986SOL    HW138417   2.662   2.185   4.180  0.9893  0.1427 -1.9760
 8986SOL    HW238418   2.678   2.051   4.117 -0.4025  1.9842 -2.4246
 8987SOL     OW38419   4.633   3.854   6.402 -0.2754  0.3600 -0.3535
 8987SOL    HW138420   4.650   3.934   6.451 -0.2039  0.6573 -0.8601
 8987SOL    HW238421   4.538   3.854   6.388 -0.3448  0.0440  0.0896
 8988SOL     OW38422   1.871   4.648   8.206 -0.0099 -0.1808  0.0683
 8988SOL    HW138423   1.954   4.650   8.254 -1.0645 -0.7454  1.9244
 8988SOL    HW238424   1.829   0.008   8.231  1.6569  0.2713  1.3596
 8989SOL     OW38425   1.530   1.511   3.346 -0.4392 -0.0571 -0.0187
 8989SOL    HW138426   1.593   1.441   3.362  1.0581  1.1876 -0.4696
 8989SOL    HW238427   1.579   1.566   3.285 -0.2597 -1.2164 -0.9158
 8990SOL     OW38428   2.189   1.505   2.410 -0.1115  0.0707  0.5994
 8990SOL    HW138429   2.201   1.469   2.322 -1.5014 -1.9396  1.2318
 8990SOL    HW238430   2.225   1.593   2.396 -0.7666  0.3084  0.4377
 8991SOL     OW38431   0.113   0.376   8.822 -1.3678  0.0895  0.4966
 8991SOL    HW138432   0.105   0.404   8.731  1.5779  1.2744  0.6108
 8991SOL    HW238433   0.037   0.320   8.837 -2.2182  1.1411  0.1741
 8992SOL     OW38434   2.292   1.677   0.656  0.4453 -0.3995 -0.0025
 8992SOL    HW138435   2.219   1.739   0.647 -0.0196 -1.2273 -1.9051
 8992SOL    HW238436   2.290   1.640   0.568 -1.1549  0.4439 -0.3329
 8993SOL     OW38437   1.857   1.660  14.463 -0.2277  0.3014 -0.1306
 8993SOL    HW138438   1.891   1.600  14.395  1.2194  0.5378  0.3984
 8993SOL    HW238439   1.815   1.613  14.534 -0.0831 -0.1004 -0.3069
 8994SOL     OW38440   2.539   3.696  13.741 -0.5491 -0.1156  0.5459
 8994SOL    HW138441   2.536   3.710  13.836  0.2217  2.6640  0.1756
 8994SOL    HW238442   2.462   3.645  13.714 -1.8960  0.8579  2.5538
 8995SOL     OW38443   2.255   4.677   3.069 -0.1029 -0.1349  0.6932
 8995SOL    HW138444   2.335   4.624   3.069  0.2004  0.3270  1.4509
 8995SOL    HW238445   2.194   4.610   3.036  0.7191 -0.2867 -0.5247
 8996SOL     OW38446   3.870   3.912   4.221  0.2189  0.2099  0.4537
 8996SOL    HW138447   3.965   3.908   4.212  0.3121 -1.5864  2.1431
 8996SOL    HW238448   3.850   3.963   4.143 -1.1758 -2.6519 -1.0765
 8997SOL     OW38449   0.204   2.557   6.776 -0.2136  0.3295  0.0104
 8997SOL    HW138450   0.140   2.582   6.709  0.7233  1.0249 -0.6216
 8997SOL    HW238451   0.223   2.642   6.814  0.2613 -0.3808  1.3658
 8998SOL     OW38452   3.181   2.146   4.248 -0.2989 -0.0792 -0.7524
 8998SOL    HW138453   3.175   2.242   4.246 -1.8278 -0.1585 -0.0731
 8998SOL    HW238454   3.122   2.117   4.317  0.4241 -0.0156 -0.0989
 8999SOL     OW38455   3.036   0.170   7.159 -0.2906 -0.3620  0.6766
 8999SOL    HW138456   3.105   0.150   7.096 -0.0900  0.1417  0.7353
 8999SOL    HW238457   2.959   0.188   7.105  0.2276 -0.8671 -0.2310
 9000SOL     OW38458   2.306   1.855   4.774  0.2581 -0.4737  0.0324
 9000SOL    HW138459   2.224   1.883   4.733 -0.6530 -0.2350  2.0501
 9000SOL    HW238460   2.368   1.885   4.708 -1.1677 -0.3377 -1.2474
 9001SOL     OW38461   1.476   4.089   4.060  0.0915  0.2093 -0.1885
 9001SOL    HW138462   1.563   4.050   4.057  0.4562  1.1785 -2.2872
 9001SOL    HW238463   1.490   4.177   4.095  1.2345 -0.3558  0.7725
 9002SOL     OW38464   2.876   4.158   1.955 -0.0967  0.0695 -0.1457
 9002SOL    HW138465   2.915   4.178   2.040  2.1443 -0.2018 -1.0966
 9002SOL    HW238466   2.939   4.093   1.925 -0.0466  0.1526 -0.2224
 9003SOL     OW38467   2.046   1.551   5.899  0.1974 -0.0949  0.2676
 9003SOL    HW138468   2.074   1.552   5.807 -3.6441 -1.8707 -0.9159
 9003SOL    HW238469   1.963   1.503   5.897  0.3063 -0.2050 -1.5840
 9004SOL     OW38470   4.361   3.873  12.956 -0.0608  0.0395 -0.1756
 9004SOL    HW138471   4.352   3.893  12.863  0.1595 -0.4780 -0.3124
 9004SOL    HW238472   4.339   3.780  12.952 -0.4885  0.1946 -1.3418
 9005SOL     OW38473   0.656   4.128   2.604  0.5584 -0.0063  0.3909
 9005SOL    HW138474   0.632   4.050   2.554 -0.2266 -0.6189  1.7110
 9005SOL    HW238475   0.748   4.126   2.580  1.0089 -0.7145  2.1925
 9006SOL     OW38476   3.793   4.684  15.088 -0.7158 -0.0268  0.1001
 9006SOL    HW138477   3.740   4.605  15.079  1.1244 -1.6112  2.9298
 9006SOL    HW238478   3.881   4.645  15.091 -0.4169  0.7830  1.9141
 9007SOL     OW38479   2.898   1.377   7.720 -0.0005 -0.1373 -0.8856
 9007SOL    HW138480   2.927   1.313   7.655  2.5183  0.2042 -0.1184
 9007SOL    HW238481   2.930   1.460   7.686 -1.7156  2.1202  3.0258
 9008SOL     OW38482   0.249   3.239   0.459 -0.1138  0.0529  0.1309
 9008SOL    HW138483   0.290   3.259   0.543 -0.8113  0.7153  0.3158
 9008SOL    HW238484   0.162   3.267   0.487  0.4057  0.8956  0.8965
 9009SOL     OW38485   4.578   2.381   6.581 -0.5684 -0.2003  0.0686
 9009SOL    HW138486   4.525   2.319   6.631 -0.4802  0.2419  0.7197
 9009SOL    HW238487   4.552   2.460   6.627  1.6205 -0.1016  1.1805
 9010SOL     OW38488   0.941   3.897   5.608 -0.0738  0.0900  0.4334
 9010SOL    HW138489   0.878   3.928   5.672 -0.8938 -1.7769  0.5216
 9010SOL    HW238490   0.884   3.830   5.570  0.6434  1.4523 -3.0616
 9011SOL     OW38491   1.911   4.132   4.413  0.2855  0.5506  0.6777
 9011SOL    HW138492   1.975   4.162   4.478  0.1614 -1.0640  1.5354
 9011SOL    HW238493   1.861   4.072   4.469  0.6561 -0.8924 -0.5321
 9012SOL     OW38494   0.965   0.005   1.978  0.0101 -0.2262 -0.1951
 9012SOL    HW138495   1.050   0.007   1.934  0.6196 -0.8781  0.9660
 9012SOL    HW238496   0.922   4.648   1.946  1.5535 -0.4110 -1.8292
 9013SOL     OW38497   0.237   3.216   5.181  0.0222 -0.5726 -0.0729
 9013SOL    HW138498   0.232   3.145   5.118 -0.8051  0.2351 -0.9080
 9013SOL    HW238499   0.178   3.280   5.141  0.5031  0.3910  0.7342
 9014SOL     OW38500   1.678   1.890   6.053  0.1249  0.3565  0.0877
 9014SOL    HW138501   1.664   1.826   5.982  0.5779 -1.2304  1.4308
 9014SOL    HW238502   1.759   1.862   6.095  0.0920  0.2575  0.0864
 9015SOL     OW38503   1.576   3.930   5.134  0.4252 -0.4822  0.4992
 9015SOL    HW138504   1.564   3.885   5.050  1.9416 -0.2078  0.1289
 9015SOL    HW238505   1.484   3.944   5.156  1.3033  0.4083  3.5779
 9016SOL     OW38506   2.582   2.711  14.371  0.4241  0.4065  0.3626
 9016SOL    HW138507   2.606   2.801  14.347 -1.4820  1.0104  0.7541
 9016SOL    HW238508   2.540   2.685  14.289 -0.7684 -1.1582  1.4777
 9017SOL     OW38509   0.614   2.947   7.095  0.3982  0.3030  0.5212
 9017SOL    HW138510   0.678   2.916   7.160 -1.3474 -1.7113  1.2636
 9017SOL    HW238511   0.591   3.030   7.136  1.2148  1.0096 -0.4335
 9018SOL     OW38512   2.963   1.277  13.905  0.0751  0.0035  0.0843
 9018SOL    HW138513   2.900   1.206  13.908 -0.5691  0.4560 -2.6879
 9018SOL    HW238514   2.936   1.326  13.827  0.2856  0.5705  0.3707
 9019SOL     OW38515   4.434   4.093   0.831  0.2519 -0.2216  0.0750
 9019SOL    HW138516   4.371   4.115   0.900  1.8295  0.4137  1.2998
 9019SOL    HW238517   4.375   4.094   0.755 -0.6650  2.2344  0.8204
 9020SOL     OW38518   0.650   1.699   5.987 -0.2736  0.0217  0.0185
 9020SOL    HW138519   0.615   1.615   6.015 -1.3677 -0.1297 -1.7720
 9020SOL    HW238520   0.587   1.770   5.997 -1.8950 -1.8368  2.8598
 9021SOL     OW38521   2.858   0.019   4.283  0.2675  0.1232  0.2584
 9021SOL    HW138522   2.767   4.713   4.288  0.9239 -1.8579  0.7896
 9021SOL    HW238523   2.898   4.688   4.352 -0.5493  1.7796  2.0327
 9022SOL     OW38524   3.113   3.158  15.903 -0.1032  0.1094 -0.4711
 9022SOL    HW138525   3.060   3.154  15.983  0.2397 -0.5820 -0.2792
 9022SOL    HW238526   3.100   3.247  15.870  2.3872  0.6624  0.0523
 9023SOL     OW38527   3.720   1.082   3.710  0.6423 -0.1936  0.5672
 9023SOL    HW138528   3.681   1.119   3.789 -0.5102  2.6681 -1.3401
 9023SOL    HW238529   3.643   1.088   3.654  0.8904 -0.2970  0.2158
 9024SOL     OW38530   4.064   3.562   3.328 -0.2954 -0.1901  0.2931
 9024SOL    HW138531   4.004   3.535   3.259  0.1897 -0.3992 -0.0466
 9024SOL    HW238532   4.145   3.587   3.283 -0.9888 -0.1600 -0.9393
 9025SOL     OW38533   3.492   1.777   5.468  0.4338  0.1496 -0.0146
 9025SOL    HW138534   3.462   1.776   5.559 -1.1352 -1.5728 -0.5473
 9025SOL    HW238535   3.506   1.869   5.446 -0.1089  0.5788  1.4434
 9026SOL     OW38536   3.449   0.376  13.756 -0.4554 -0.1507 -0.3329
 9026SOL    HW138537   3.503   0.431  13.813  0.1749  1.2661 -2.3337
 9026SOL    HW238538   3.375   0.368  13.816 -0.4327 -2.6545 -0.6274
 9027SOL     OW38539   3.257   2.999   3.816  0.0850 -0.2033  0.5715
 9027SOL    HW138540   3.349   2.974   3.821 -0.3753 -2.0812 -0.2079
 9027SOL    HW238541   3.248   3.075   3.873  0.1730 -2.1443  3.1753
 9028SOL     OW38542   4.153   4.296   5.221 -0.3094 -0.2673  0.0608
 9028SOL    HW138543   4.119   4.236   5.155 -1.7259  0.6504 -0.0424
 9028SOL    HW238544   4.116   4.265   5.303 -0.4605 -1.6661 -0.5467
 9029SOL     OW38545   0.727   3.758   6.539  0.1474  0.2131 -0.3457
 9029SOL    HW138546   0.747   3.851   6.549 -1.3360  0.7338 -2.1364
 9029SOL    HW238547   0.741   3.733   6.448 -1.3576 -1.7381 -0.0373
 9030SOL     OW38548   3.237   2.383   0.542 -0.1264  0.7243  0.0821
 9030SOL    HW138549   3.211   2.360   0.453 -0.6429  1.6067  0.0060
 9030SOL    HW238550   3.153   2.420   0.570  0.4393  1.8161  0.3388
 9031SOL     OW38551   0.062   2.957   5.506 -0.4216  0.0032  0.4895
 9031SOL    HW138552   4.719   2.893   5.531  0.0416  0.1034  1.9379
 9031SOL    HW238553   0.019   3.000   5.432  0.0514 -0.7287 -0.2016
 9032SOL     OW38554   0.215   0.564  11.508 -0.4871 -0.0405 -0.2382
 9032SOL    HW138555   0.266   0.625  11.454 -2.3634  0.3001 -1.6563
 9032SOL    HW238556   0.276   0.529  11.572 -0.1190 -1.2219 -1.2322
 9033SOL     OW38557   4.379   0.498   5.163 -0.1455 -0.1099 -0.6846
 9033SOL    HW138558   4.403   0.590   5.152  1.4860 -0.5253 -0.5743
 9033SOL    HW238559   4.359   0.506   5.256  1.6599  0.8182 -0.3669
 9034SOL     OW38560   0.643   2.087   5.525  0.3727  0.3498  1.2618
 9034SOL    HW138561   0.665   2.008   5.476  0.2089  1.5244 -0.7354
 9034SOL    HW238562   0.729   2.130   5.530  0.5742 -0.0847  1.5053
 9035SOL     OW38563   3.699   1.104   6.206  0.2272 -0.0287  0.8013
 9035SOL    HW138564   3.726   1.034   6.146  0.0930  1.2846 -0.8057
 9035SOL    HW238565   3.604   1.091   6.201 -0.0917  2.5461  0.4081
 9036SOL     OW38566   1.988   1.437   7.002 -0.5139  0.0729 -0.4045
 9036SOL    HW138567   1.894   1.451   7.017 -0.2797  0.4781  0.6791
 9036SOL    HW238568   1.995   1.354   7.049 -0.1619 -0.2389 -1.0110
 9037SOL     OW38569   0.592   2.963  16.809  0.5063 -0.3425  0.3102
 9037SOL    HW138570   0.505   2.985  16.842 -0.0762 -3.0554  0.5327
 9037SOL    HW238571   0.597   2.870  16.790  0.1413 -0.8751  2.8429
 9038SOL     OW38572   1.844   0.460   0.805 -0.6903  0.4689 -0.9877
 9038SOL    HW138573   1.793   0.392   0.760 -2.3133  0.4973  0.7776
 9038SOL    HW238574   1.922   0.474   0.752  0.5937 -1.7149  0.3360
 9039SOL     OW38575   4.130   1.525   2.828 -0.0363 -0.5026  0.0837
 9039SOL    HW138576   4.063   1.591   2.812  0.2293 -0.0717  0.7591
 9039SOL    HW238577   4.194   1.563   2.767  1.2943 -1.0754  1.1035
 9040SOL     OW38578   2.220   1.347  11.985  0.0876 -0.6650  0.0044
 9040SOL    HW138579   2.137   1.310  12.016 -0.1525 -1.1531 -1.2316
 9040SOL    HW238580   2.193   1.368  11.896  1.2322  1.0448  0.0744
 9041SOL     OW38581   2.527   3.197   5.430 -0.3896 -0.5879  0.2798
 9041SOL    HW138582   2.565   3.235   5.509  1.5347 -1.8735 -0.0377
 9041SOL    HW238583   2.447   3.163   5.470  0.3666 -0.5814  1.7735
 9042SOL     OW38584   2.045   1.446   6.545  0.3958  0.6354  0.5508
 9042SOL    HW138585   2.000   1.471   6.625  0.9215 -0.0340  1.0629
 9042SOL    HW238586   2.082   1.365   6.581  1.9040  0.8347 -0.5305
 9043SOL     OW38587   1.188   0.125   7.776  0.5157  0.2389  0.5455
 9043SOL    HW138588   1.146   0.041   7.794 -1.2913  0.6123 -1.9630
 9043SOL    HW238589   1.115   0.186   7.766 -0.1747 -0.6151  0.3930
 9044SOL     OW38590   4.124   0.604  17.590 -0.2769  0.6878  0.3025
 9044SOL    HW138591   4.075   0.664  17.534  0.2828  0.2006 -0.6986
 9044SOL    HW238592   4.175   0.667  17.641 -0.3260  1.7680 -1.0040
 9045SOL     OW38593   0.874   0.472   6.552 -0.2773 -0.1197  0.6535
 9045SOL    HW138594   0.925   0.549   6.576 -1.2756  0.6829  0.2131
 9045SOL    HW238595   0.905   0.396   6.602 -1.5450 -1.5022 -0.6492
 9046SOL     OW38596   1.016   0.904   1.802  0.6161  0.0248  0.1621
 9046SOL    HW138597   1.029   0.948   1.886 -0.1947 -1.1246  0.8916
 9046SOL    HW238598   0.923   0.917   1.783  0.8984 -1.0272 -2.0015
 9047SOL     OW38599   4.095   2.550   2.212  0.0364 -0.4338  0.2227
 9047SOL    HW138600   4.115   2.468   2.166  2.3356  1.1181 -1.5439
 9047SOL    HW238601   4.157   2.605   2.164 -0.1659 -0.6841 -0.3297
 9048SOL     OW38602   4.259   1.075  13.863 -0.0756  0.2906 -0.3894
 9048SOL    HW138603   4.275   1.074  13.958 -0.4701 -0.2345 -0.3235
 9048SOL    HW238604   4.189   1.009  13.856  0.1770 -0.0796  0.5767
 9049SOL     OW38605   1.953   3.287   1.300  0.0848  0.1136  0.1246
 9049SOL    HW138606   2.027   3.329   1.259 -0.3284 -0.7949 -1.5546
 9049SOL    HW238607   1.890   3.278   1.228  3.4106 -2.4122 -2.4388
 9050SOL     OW38608   2.472   3.417  12.664 -0.4222  0.2193  0.0267
 9050SOL    HW138609   2.557   3.460  12.655  0.1477 -1.0025 -0.4497
 9050SOL    HW238610   2.417   3.465  12.602 -1.7918 -0.6100  0.6171
 9051SOL     OW38611   3.889   2.663  10.938 -0.8636  0.0309 -0.3510
 9051SOL    HW138612   3.877   2.704  11.023 -3.8558 -1.4949 -0.0416
 9051SOL    HW238613   3.882   2.739  10.881  2.0202 -0.0519 -0.8386
 9052SOL     OW38614   3.906   2.756   8.177  0.1348 -0.2639 -0.1825
 9052SOL    HW138615   3.983   2.768   8.121  1.2203 -2.5505  0.8296
 9052SOL    HW238616   3.937   2.694   8.243  2.3120  0.4624 -0.5061
 9053SOL     OW38617   3.854   0.485   0.864 -0.4120 -0.0448 -0.1107
 9053SOL    HW138618   3.918   0.415   0.869 -0.7236 -0.4674 -1.9481
 9053SOL    HW238619   3.888   0.547   0.929 -1.0363 -0.1620  0.3355
 9054SOL     OW38620   1.409   0.016   2.255  0.3743  0.2309  0.4762
 9054SOL    HW138621   1.402   0.074   2.179  0.3426 -1.3556 -0.7428
 9054SOL    HW238622   1.464   4.667   2.223 -0.6401 -0.0274 -0.6732
 9055SOL     OW38623   2.958   0.693   4.955  0.1769 -0.5951  0.2189
 9055SOL    HW138624   3.032   0.656   4.905  1.9022  1.0245  1.5681
 9055SOL    HW238625   2.920   0.742   4.882 -0.2174  0.0081  0.8310
 9056SOL     OW38626   2.188   2.288  11.975  0.4990  0.2520 -0.5548
 9056SOL    HW138627   2.217   2.224  11.910  0.6996 -2.2530  2.0280
 9056SOL    HW238628   2.235   2.252  12.051  0.3823  0.3975 -0.4139
 9057SOL     OW38629   0.794   0.049   6.505  0.2635  0.5843  0.0885
 9057SOL    HW138630   0.828   0.109   6.572 -2.7001  0.2157  1.9304
 9057SOL    HW238631   0.874   0.023   6.459 -0.8536 -1.3825 -0.7284
 9058SOL     OW38632   1.124   0.539   2.407 -0.3008  0.3122 -0.1546
 9058SOL    HW138633   1.030   0.542   2.387  0.1172  2.9793 -1.7543
 9058SOL    HW238634   1.133   0.634   2.417 -0.1575  0.2261  0.5353
 9059SOL     OW38635   0.632   2.169   6.536  0.0957 -0.8834 -0.4041
 9059SOL    HW138636   0.632   2.261   6.509 -2.4573 -0.5046  0.8312
 9059SOL    HW238637   0.545   2.136   6.560 -1.0780  1.9654 -0.8039
 9060SOL     OW38638   4.257   3.476   9.176  0.9924  0.2179 -0.0454
 9060SOL    HW138639   4.207   3.448   9.100  0.2355  0.3097  0.4214
 9060SOL    HW238640   4.274   3.391   9.217 -0.8931 -0.4477 -0.6413
 9061SOL     OW38641   4.034   0.789   2.436 -0.0504 -0.3115  0.4681
 9061SOL    HW138642   3.962   0.816   2.493 -0.0939  1.7697 -0.5718
 9061SOL    HW238643   4.064   0.874   2.404 -0.1233 -1.2223 -2.0717
 9062SOL     OW38644   4.476   3.267  12.755  0.2934 -0.3789  0.0376
 9062SOL    HW138645   4.547   3.301  12.701  0.1985 -1.6239 -0.8732
 9062SOL    HW238646   4.412   3.335  12.736 -2.1081 -2.3805  0.8195
 9063SOL     OW38647   3.531   2.407   8.609  0.3940 -0.5805  0.0599
 9063SOL    HW138648   3.528   2.319   8.645  2.1996 -0.5917  0.2087
 9063SOL    HW238649   3.625   2.428   8.605 -0.1077  1.2477 -2.0015
 9064SOL     OW38650   0.553   4.646   7.259 -0.2717  0.6286 -0.0384
 9064SOL    HW138651   0.639   4.675   7.228 -0.3954  0.0271 -0.9523
 9064SOL    HW238652   0.551   4.677   7.349  0.7391 -0.3726  0.3264
 9065SOL     OW38653   3.757   4.700   5.712 -0.1185 -0.0580  0.2029
 9065SOL    HW138654   3.663   4.710   5.700 -0.1229 -0.4601 -0.0938
 9065SOL    HW238655   3.787   0.066   5.689  0.9956 -0.3741  0.4212
 9066SOL     OW38656   4.252   0.521   6.832  0.2853  0.3391 -0.2699
 9066SOL    HW138657   4.198   0.448   6.861 -0.7972  1.0937 -0.3551
 9066SOL    HW238658   4.306   0.481   6.764  0.0695  0.0416 -0.2647
 9067SOL     OW38659   1.813   2.554   5.329  0.0605  0.1290 -0.2280
 9067SOL    HW138660   1.905   2.537   5.308  0.2447  0.7677  0.0653
 9067SOL    HW238661   1.803   2.622   5.396 -1.1106  1.0315 -1.3078
 9068SOL     OW38662   4.536   0.047   0.683 -0.1774  0.3060  0.0553
 9068SOL    HW138663   4.546   0.022   0.591 -0.6465  1.5863 -0.3436
 9068SOL    HW238664   4.461   0.105   0.676 -0.2097  0.4450  1.5413
 9069SOL     OW38665   0.498   0.062   6.663 -0.1636  0.0291 -0.1742
 9069SOL    HW138666   0.537   0.099   6.583  1.6551 -2.5063 -0.4570
 9069SOL    HW238667   0.406   0.078   6.642 -0.2946  0.5366  0.8091
 9070SOL     OW38668   2.087   0.354   3.617 -0.1255  0.2677  0.0428
 9070SOL    HW138669   2.015   0.292   3.602 -0.5207  0.5412  0.8259
 9070SOL    HW238670   2.118   0.361   3.527 -1.8462 -1.0430 -0.6486
 9071SOL     OW38671   1.971   4.081  16.332 -0.6451  0.4686 -0.0579
 9071SOL    HW138672   2.034   4.105  16.400 -0.3055  0.5742 -0.4119
 9071SOL    HW238673   1.887   4.090  16.379 -0.7745 -0.1975 -0.1696
 9072SOL     OW38674   2.018   2.436   2.281  0.4191 -0.1479 -0.2384
 9072SOL    HW138675   2.002   2.345   2.255 -0.1024  0.1205 -0.8612
 9072SOL    HW238676   2.098   2.436   2.333  0.2133 -2.2878  0.0975
 9073SOL     OW38677   1.498   2.825   6.118  0.0690 -0.1993 -0.1950
 9073SOL    HW138678   1.531   2.863   6.200  0.2534  1.3248 -0.9810
 9073SOL    HW238679   1.578   2.819   6.065 -0.1010 -0.3009 -0.4372
 9074SOL     OW38680   0.649   0.210   2.837  0.3509  0.2382 -0.4968
 9074SOL    HW138681   0.557   0.194   2.857  0.4644 -0.3182 -0.4249
 9074SOL    HW238682   0.652   0.219   2.742 -1.3071 -0.1202 -0.5880
 9075SOL     OW38683   0.470   4.638  16.201  0.4224  0.0314 -0.1237
 9075SOL    HW138684   0.450   4.715  16.254  0.1427 -0.4392  0.4602
 9075SOL    HW238685   0.451   4.580  16.275 -1.0539  3.0767  1.8639
 9076SOL     OW38686   0.623   0.853   3.819 -0.3388 -0.2642  0.0006
 9076SOL    HW138687   0.708   0.877   3.781 -1.0245  1.7378 -0.2830
 9076SOL    HW238688   0.607   0.765   3.785 -1.5645  0.0090 -0.1402
 9077SOL     OW38689   3.817   2.465  16.946 -0.0475  0.2524 -0.0971
 9077SOL    HW138690   3.828   2.428  17.034 -2.0864 -2.1188 -0.8178
 9077SOL    HW238691   3.734   2.510  16.964  0.5136  1.1656  0.1825
 9078SOL     OW38692   4.127   2.051   7.055 -0.4361 -0.0508  0.4070
 9078SOL    HW138693   4.160   2.111   6.988 -0.8370  0.8048  0.9707
 9078SOL    HW238694   4.102   2.109   7.128 -1.7633  1.7064 -1.4654
 9079SOL     OW38695   4.368   3.860   5.951 -0.1640  0.1706  0.1564
 9079SOL    HW138696   4.338   3.781   5.904  1.4269  0.2566 -1.0158
 9079SOL    HW238697   4.463   3.854   5.935 -0.7912 -1.1302 -3.1939
 9080SOL     OW38698   0.547   3.059   3.786 -0.1833  0.2348  0.4978
 9080SOL    HW138699   0.455   3.055   3.811  0.8027  0.8388  4.1838
 9080SOL    HW238700   0.582   3.104   3.863  1.9581 -2.3589  1.0705
 9081SOL     OW38701   0.014   1.642   0.479 -0.6730  0.0616 -0.0192
 9081SOL    HW138702   0.108   1.639   0.496 -0.2446  2.8154 -1.7998
 9081SOL    HW238703   4.714   1.564   0.530 -3.0041 -0.4729 -1.8698
 9082SOL     OW38704   1.836   2.425   4.547 -0.4005 -0.1417  0.0409
 9082SOL    HW138705   1.754   2.444   4.592 -0.1286  3.1088 -0.9033
 9082SOL    HW238706   1.894   2.481   4.599 -0.5282  0.8011 -0.8467
 9083SOL     OW38707   2.159   1.686   6.110 -0.0939 -0.0396 -0.0917
 9083SOL    HW138708   2.107   1.669   6.189 -1.2987  1.0868 -0.6374
 9083SOL    HW238709   2.111   1.645   6.038  1.8645 -1.9919 -0.2997
 9084SOL     OW38710   3.285   2.347   7.931 -0.2203  0.3911 -0.0525
 9084SOL    HW138711   3.373   2.341   7.968  0.8221  1.3547 -2.4072
 9084SOL    HW238712   3.305   2.363   7.839  0.6572  0.1760  0.1013
 9085SOL     OW38713   3.484   3.457   8.331 -0.3992 -0.2970  0.0827
 9085SOL    HW138714   3.426   3.527   8.361  0.1076 -0.4187  1.3410
 9085SOL    HW238715   3.438   3.415   8.258  1.9559  1.0441 -2.1787
 9086SOL     OW38716   3.112   2.020   9.258 -0.1592 -0.1714 -0.0349
 9086SOL    HW138717   3.051   2.061   9.319  0.4436 -0.7652  0.9677
 9086SOL    HW238718   3.063   1.939   9.243  0.1382 -0.1454 -1.1742
 9087SOL     OW38719   0.723   0.419   3.575 -0.2311 -0.6539  0.5012
 9087SOL    HW138720   0.810   0.459   3.571 -0.6149 -0.2436 -3.5151
 9087SOL    HW238721   0.694   0.453   3.491 -2.4983 -1.5156  0.9240
 9088SOL     OW38722   2.654   3.551   4.127  0.1569 -0.6484  0.2656
 9088SOL    HW138723   2.746   3.572   4.111  0.5717  0.0537  3.4619
 9088SOL    HW238724   2.614   3.618   4.072  1.8481  0.6157  0.5695
 9089SOL     OW38725   0.050   2.172   5.429  0.4560  0.8543  0.0677
 9089SOL    HW138726   0.002   2.171   5.511 -1.1560  0.1151 -0.8794
 9089SOL    HW238727   4.706   2.168   5.359  1.0611 -2.7087 -0.2970
 9090SOL     OW38728   1.978   1.596   3.243  0.3948 -0.9244 -0.9176
 9090SOL    HW138729   1.906   1.581   3.304  1.4365  0.8228  0.7413
 9090SOL    HW238730   1.983   1.691   3.252  2.8886 -1.3066  1.5874
 9091SOL     OW38731   0.046   4.300  12.643 -0.4160  0.0943 -0.1119
 9091SOL    HW138732   0.052   4.389  12.678  1.3005  1.0561 -2.7834
 9091SOL    HW238733   0.038   4.239  12.716  0.6754  1.4889  1.1432
 9092SOL     OW38734   3.738   0.097   6.710  0.4190  0.2721 -0.2211
 9092SOL    HW138735   3.754   0.156   6.636  1.0277 -1.2088 -1.2643
 9092SOL    HW238736   3.760   0.149   6.788  0.1975  0.1535 -0.0790
 9093SOL     OW38737   3.303   4.243  10.147 -0.4682 -0.5554  0.6656
 9093SOL    HW138738   3.222   4.194  10.134  0.0215 -1.0906 -0.2872
 9093SOL    HW238739   3.275   4.273  10.234  0.8915  0.8758  0.6218
 9094SOL     OW38740   1.759   2.178   7.549  0.0578 -0.3232  0.5848
 9094SOL    HW138741   1.780   2.249   7.610  0.5055  0.2722 -0.2717
 9094SOL    HW238742   1.837   2.162   7.496 -0.5548 -1.1305 -0.0646
 9095SOL     OW38743   4.172   3.083  12.896 -0.1525 -0.5348  0.4403
 9095SOL    HW138744   4.172   3.134  12.815 -1.1809 -1.0065  0.1372
 9095SOL    HW238745   4.202   2.995  12.875  2.2170  0.2320  0.6131
 9096SOL     OW38746   2.553   3.095   2.581 -0.6588 -0.2733  0.4399
 9096SOL    HW138747   2.640   3.076   2.546 -1.6167  1.5500 -2.9087
 9096SOL    HW238748   2.583   3.136   2.662 -0.2274 -0.3681  0.3285
 9097SOL     OW38749   0.534   1.707   4.453  0.3236  0.6018  0.3520
 9097SOL    HW138750   0.508   1.736   4.540  1.2228 -0.9105  1.1330
 9097SOL    HW238751   0.485   1.626   4.445 -1.8659  1.9230  0.4808
 9098SOL     OW38752   2.307   1.651   6.698 -0.4145 -0.2523  0.4473
 9098SOL    HW138753   2.296   1.742   6.669 -0.9585 -0.5109 -0.1644
 9098SOL    HW238754   2.242   1.634   6.765 -0.6189 -1.4431 -0.0580
 9099SOL     OW38755   0.699   3.672   3.033 -0.6679 -0.3631  0.2134
 9099SOL    HW138756   0.635   3.603   3.016 -2.3806  1.0465  0.9490
 9099SOL    HW238757   0.674   3.684   3.125 -2.0375  1.5870 -0.4153
 9100SOL     OW38758   0.551   3.917   3.254  0.6205  0.5708  0.4225
 9100SOL    HW138759   0.615   3.974   3.212  0.9647  0.3511  0.6541
 9100SOL    HW238760   0.524   3.970   3.329  0.5145 -0.1548  0.8951
 9101SOL     OW38761   2.474   4.256   1.073 -0.4915  0.4307 -0.2884
 9101SOL    HW138762   2.418   4.330   1.048  0.1455  1.4614  1.3142
 9101SOL    HW238763   2.425   4.181   1.039  2.1254 -1.3491 -0.1477
 9102SOL     OW38764   0.993   3.222   5.592 -0.2299  0.2003 -0.0790
 9102SOL    HW138765   1.032   3.249   5.509 -0.0793 -1.3005 -0.5086
 9102SOL    HW238766   0.928   3.159   5.559  0.8625 -1.9074  1.7348
 9103SOL     OW38767   4.233   0.471   8.256  0.2607 -0.5306  0.0061
 9103SOL    HW138768   4.204   0.521   8.332  1.0702 -2.2686  1.4521
 9103SOL    HW238769   4.254   0.546   8.199  1.5788 -2.4396 -2.0352
 9104SOL     OW38770   0.209   2.608   4.283  0.0394 -0.4471  0.4850
 9104SOL    HW138771   0.247   2.565   4.360  0.9499  1.1266  0.8976
 9104SOL    HW238772   0.128   2.637   4.326 -0.3074 -1.3743  0.4848
 9105SOL     OW38773   2.065   2.219   5.706  0.7080 -0.1580 -0.5661
 9105SOL    HW138774   2.018   2.136   5.708  0.4140  0.0423  1.0081
 9105SOL    HW238775   2.118   2.208   5.627  2.5491 -1.3687  0.8273
 9106SOL     OW38776   0.591   4.254  14.082  0.2007 -0.3604 -0.2932
 9106SOL    HW138777   0.498   4.245  14.060 -0.4934  0.0063  2.5871
 9106SOL    HW238778   0.618   4.162  14.088 -0.6337 -0.4702  1.6848
 9107SOL     OW38779   0.124   2.602   2.182 -0.0028 -0.0651 -0.1243
 9107SOL    HW138780   0.153   2.689   2.156  1.8967 -0.8996 -0.7897
 9107SOL    HW238781   0.209   2.569   2.210  0.8159  0.9103 -1.4745
 9108SOL     OW38782   0.352   2.678   5.714 -0.1684  0.4379  0.4029
 9108SOL    HW138783   0.284   2.644   5.773  0.0373 -0.7722 -0.0520
 9108SOL    HW238784   0.330   2.620   5.642  0.5966  1.3511 -0.5713
 9109SOL     OW38785   3.129   3.406   2.629  0.3255 -0.2177  0.1890
 9109SOL    HW138786   3.199   3.427   2.692 -0.0527 -0.5009  0.7091
 9109SOL    HW238787   3.050   3.424   2.680 -0.2168 -1.1078 -0.3323
 9110SOL     OW38788   1.607   2.480   3.305 -0.3692  0.4941  0.5139
 9110SOL    HW138789   1.591   2.386   3.307 -0.8505  0.5344 -1.3261
 9110SOL    HW238790   1.559   2.513   3.229 -1.3884 -0.7782  0.6187
 9111SOL     OW38791   3.532   1.602   6.051 -0.3539  0.4758  0.3353
 9111SOL    HW138792   3.559   1.625   5.962 -0.1291  0.1780  0.3245
 9111SOL    HW238793   3.553   1.509   6.050 -1.6659  0.1820  0.8382
 9112SOL     OW38794   3.646   1.940  10.320 -0.6830 -0.7425  0.2124
 9112SOL    HW138795   3.610   2.013  10.271 -0.5168  0.3184  1.6658
 9112SOL    HW238796   3.566   1.916  10.367 -0.3522 -2.0017  0.1553
 9113SOL     OW38797   4.172   3.365   6.499  0.4063 -0.0141  0.5501
 9113SOL    HW138798   4.148   3.304   6.429 -1.7234  0.9511  0.4707
 9113SOL    HW238799   4.266   3.379   6.484  0.5062  0.9865  2.0958
 9114SOL     OW38800   4.451   2.307  15.174 -0.0109 -0.0947  0.0526
 9114SOL    HW138801   4.507   2.239  15.136 -1.0245 -0.5040 -0.7027
 9114SOL    HW238802   4.509   2.383  15.175  0.2335 -0.2981  1.7395
 9115SOL     OW38803   3.025   0.163  17.518  0.4700 -0.0993  0.0622
 9115SOL    HW138804   3.063   0.126  17.598 -0.4408 -0.0748  0.5131
 9115SOL    HW238805   3.064   0.250  17.511 -1.3896  0.8241  1.1495
 9116SOL     OW38806   3.120   3.469   1.510  0.3708  0.0065  0.1864
 9116SOL    HW138807   3.141   3.562   1.499 -1.1797  0.3957  0.4642
 9116SOL    HW238808   3.075   3.445   1.429  0.6708 -1.9008  0.5988
 9117SOL     OW38809   0.973   2.248  16.924 -0.0014 -0.1500 -0.7786
 9117SOL    HW138810   1.038   2.297  16.875 -0.7325 -0.2377 -1.8293
 9117SOL    HW238811   0.914   2.319  16.948  1.3328  1.8413 -3.4144
 9118SOL     OW38812   4.615   1.968  11.153  0.6402  0.0577  0.3117
 9118SOL    HW138813   4.522   1.970  11.132  0.2118 -1.0389  2.0710
 9118SOL    HW238814   4.616   1.968  11.249  1.1315 -1.1041  0.3099
 9119SOL     OW38815   3.903   2.383   6.026  0.4957  0.3451 -0.1904
 9119SOL    HW138816   3.892   2.334   6.108  0.0370  1.1876  0.2514
 9119SOL    HW238817   3.997   2.372   6.007  1.0888 -1.1780  3.5979
 9120SOL     OW38818   2.820   0.129  10.017  0.2905  0.2200 -0.2997
 9120SOL    HW138819   2.898   0.145   9.964  1.1992 -0.0242  0.9603
 9120SOL    HW238820   2.774   0.213  10.012  2.0794  1.3795  2.7941
 9121SOL     OW38821   0.778   2.622   3.605 -0.0274 -0.0913  0.2615
 9121SOL    HW138822   0.730   2.705   3.611  1.6664  0.7947  1.4929
 9121SOL    HW238823   0.796   2.610   3.698  0.0216  3.9543  0.7627
 9122SOL     OW38824   2.599   3.493   7.829  0.1899  0.1127  0.2192
 9122SOL    HW138825   2.650   3.544   7.767 -2.6033  1.7106 -0.7571
 9122SOL    HW238826   2.551   3.438   7.767 -3.8880 -0.0548  3.5195
 9123SOL     OW38827   3.438   1.801   6.952  0.6611 -0.2828 -0.1360
 9123SOL    HW138828   3.472   1.759   6.873  0.7689 -1.1021  0.3500
 9123SOL    HW238829   3.500   1.766   7.016  2.1555  1.2265 -0.7797
 9124SOL     OW38830   1.664   1.429  10.096 -0.5413 -0.0897 -0.2412
 9124SOL    HW138831   1.659   1.516  10.059 -0.6410  1.0174  2.3711
 9124SOL    HW238832   1.755   1.406  10.077 -0.7118 -0.9698 -0.0151
 9125SOL     OW38833   0.451   0.835   1.087  0.0237 -0.6148  0.6624
 9125SOL    HW138834   0.396   0.848   1.164 -0.7136  0.6217 -0.0849
 9125SOL    HW238835   0.542   0.839   1.118 -0.4888 -0.5271  2.1655
 9126SOL     OW38836   2.353   2.445  10.203 -0.0407  0.1546  0.2407
 9126SOL    HW138837   2.266   2.421  10.172 -0.4443  1.7728  0.1225
 9126SOL    HW238838   2.368   2.527  10.156  0.2826 -0.0138  0.0533
 9127SOL     OW38839   0.855   3.592  12.724 -0.6718 -0.1993 -0.1429
 9127SOL    HW138840   0.867   3.522  12.660 -1.0701 -0.2279 -0.1844
 9127SOL    HW238841   0.927   3.569  12.782 -1.2114 -0.4514  0.4291
 9128SOL     OW38842   3.181   4.015   3.150  0.1219 -0.5302 -0.2871
 9128SOL    HW138843   3.203   3.923   3.169 -0.5395 -0.8301 -1.0187
 9128SOL    HW238844   3.209   4.015   3.059 -1.5704  1.6341 -0.8050
 9129SOL     OW38845   0.739   4.392  12.641 -0.0970  0.5339  0.0033
 9129SOL    HW138846   0.775   4.424  12.558 -0.1510  0.7905  0.0809
 9129SOL    HW238847   0.745   4.296  12.646 -1.5987  0.4497  0.1717
 9130SOL     OW38848   2.409   2.194   6.299  0.5391 -0.5672 -0.0565
 9130SOL    HW138849   2.425   2.277   6.344 -1.1754 -0.9446  1.2499
 9130SOL    HW238850   2.351   2.233   6.234  0.6851  0.5298  0.4722
 9131SOL     OW38851   0.701   1.722   2.223  0.0428  0.0536 -0.1139
 9131SOL    HW138852   0.659   1.674   2.152  0.1725  0.5249 -0.5094
 9131SOL    HW238853   0.666   1.682   2.303  2.0906  0.2999  0.8968
 9132SOL     OW38854   2.480   1.236  13.572 -0.4618 -0.0931 -0.4163
 9132SOL    HW138855   2.433   1.306  13.527  0.7702  1.1920  0.2831
 9132SOL    HW238856   2.542   1.206  13.506 -0.5625  1.6981 -1.3114
 9133SOL     OW38857   0.816   2.357   6.690  0.4436  0.3413  0.5336
 9133SOL    HW138858   0.776   2.380   6.606 -2.3010  0.3314  1.8687
 9133SOL    HW238859   0.757   2.285   6.709 -0.4426  1.2103  1.0428
 9134SOL     OW38860   2.523   3.243   9.210 -0.1676 -0.0642 -0.3365
 9134SOL    HW138861   2.463   3.206   9.275 -1.1295  1.0374 -0.5983
 9134SOL    HW238862   2.589   3.273   9.272 -1.2206  0.2159  0.6529
 9135SOL     OW38863   3.000   0.256  14.089 -0.3966 -0.0428  0.0642
 9135SOL    HW138864   2.967   0.309  14.161 -3.3825 -0.0696 -1.2616
 9135SOL    HW238865   2.951   0.173  14.096  0.8000 -0.6315  1.4177
 9136SOL     OW38866   2.391   3.576   2.304 -0.4036 -0.0991  0.4961
 9136SOL    HW138867   2.393   3.663   2.342 -0.0976  0.2081 -0.2187
 9136SOL    HW238868   2.452   3.594   2.232  0.4965 -2.4783  0.6439
 9137SOL     OW38869   4.534   2.466  13.199  0.0724 -0.0366 -0.4427
 9137SOL    HW138870   4.537   2.561  13.209  1.3184  0.1263 -2.3033
 9137SOL    HW238871   4.448   2.458  13.158 -0.6728  2.1518  0.7158
 9138SOL     OW38872   2.165   4.117   5.303 -0.4332 -0.2631 -0.2528
 9138SOL    HW138873   2.114   4.051   5.351  3.4247 -1.5704  2.0682
 9138SOL    HW238874   2.249   4.071   5.305  0.7035  1.9325  2.5752
 9139SOL     OW38875   3.609   3.244   7.350  0.1775 -0.0592 -0.1681
 9139SOL    HW138876   3.543   3.309   7.326 -0.0159 -0.0609  0.3470
 9139SOL    HW238877   3.572   3.178   7.292 -2.3791  1.0206  0.2432
 9140SOL     OW38878   2.884   3.052  17.029 -0.5323 -0.4035 -0.5224
 9140SOL    HW138879   2.826   3.111  16.980  3.6024  3.5674 -0.5356
 9140SOL    HW238880   2.890   3.088  17.117 -1.3797 -1.0403 -0.1971
 9141SOL     OW38881   0.607   1.497  12.708 -0.5013 -0.1604  0.6549
 9141SOL    HW138882   0.628   1.427  12.770  0.5487  0.5887  1.1415
 9141SOL    HW238883   0.529   1.462  12.664 -0.3734 -0.5238  0.7185
 9142SOL     OW38884   2.907   3.485   9.488  0.0347 -0.0877  0.5531
 9142SOL    HW138885   2.908   3.452   9.578 -0.0132  1.4843  1.1363
 9142SOL    HW238886   2.995   3.464   9.455  0.0269  3.2574 -1.6876
 9143SOL     OW38887   2.629   2.254   2.550  0.3248  0.1326  0.2163
 9143SOL    HW138888   2.573   2.248   2.628  0.5533 -0.8588  0.3021
 9143SOL    HW238889   2.580   2.213   2.479 -1.6191  0.1993  1.5062
 9144SOL     OW38890   1.141   0.608   4.928  0.2982 -0.2663  0.0694
 9144SOL    HW138891   1.096   0.641   4.851 -0.7340  1.6890  1.5056
 9144SOL    HW238892   1.057   0.603   4.974  1.2749  1.7582  2.0683
 9145SOL     OW38893   1.939   0.808  10.148  0.7168 -0.1616  0.4724
 9145SOL    HW138894   1.947   0.899  10.178  3.3133 -0.2232 -0.0314
 9145SOL    HW238895   1.960   0.821  10.056  1.5792  1.2292  0.8562
 9146SOL     OW38896   4.087   1.861  10.165  0.0666 -0.6205 -0.2248
 9146SOL    HW138897   4.034   1.922  10.216 -0.0816 -1.1852  0.3140
 9146SOL    HW238898   4.053   1.867  10.076 -0.9194  0.9108  0.2754
 9147SOL     OW38899   1.162   0.216  11.315 -0.0030 -0.6515 -0.1675
 9147SOL    HW138900   1.098   0.252  11.254 -0.4922  0.9765  1.3171
 9147SOL    HW238901   1.249   0.223  11.276  0.5752 -2.7370  0.7511
 9148SOL     OW38902   4.068   2.069  11.618  0.2405  1.0330  0.6432
 9148SOL    HW138903   4.118   1.987  11.613  0.2779  1.1611 -1.2947
 9148SOL    HW238904   4.036   2.078  11.707 -0.5770  0.6937  0.3831
 9149SOL     OW38905   4.036   2.018  17.499 -0.0371  0.5306 -0.0044
 9149SOL    HW138906   4.091   2.008  17.577 -2.0022 -0.4114  1.2604
 9149SOL    HW238907   4.082   1.971  17.429  0.1368  2.9307 -1.4969
 9150SOL     OW38908   2.211   3.669  10.335 -0.3201  0.1921  0.4135
 9150SOL    HW138909   2.269   3.595  10.319  1.0841  1.8582 -2.4350
 9150SOL    HW238910   2.134   3.619  10.360 -0.2607 -0.2703 -0.3286
 9151SOL     OW38911   0.674   3.293   8.207 -0.1304  0.0145  0.4474
 9151SOL    HW138912   0.677   3.338   8.123  1.5706  2.8975  2.0669
 9151SOL    HW238913   0.698   3.371   8.256  0.8948 -0.5763  0.8810
 9152SOL     OW38914   4.588   4.649   2.386  0.0044  0.2008  0.2100
 9152SOL    HW138915   4.572   4.569   2.336  0.0059  0.0131  0.5116
 9152SOL    HW238916   4.674   4.666   2.348  0.0039 -0.5543 -0.1323
 9153SOL     OW38917   3.742   2.062   7.187 -0.9252  0.5499  0.1599
 9153SOL    HW138918   3.827   2.097   7.160 -0.0253 -0.6517  1.4487
 9153SOL    HW238919   3.743   2.057   7.282  1.1165 -0.8276  0.0960
 9154SOL     OW38920   1.043   2.893   0.052 -0.3261 -0.4572 -0.7378
 9154SOL    HW138921   0.975   2.881  17.678  0.6984 -1.2524 -1.6353
 9154SOL    HW238922   1.017   2.970   0.102 -1.1813 -1.5496  0.4934
 9155SOL     OW38923   1.269   4.094   1.675  0.0430 -1.2161  0.3609
 9155SOL    HW138924   1.307   4.021   1.628  0.0871 -1.7605  1.2465
 9155SOL    HW238925   1.185   4.108   1.632  1.3979  2.0402 -1.2659
 9156SOL     OW38926   0.372   2.989   5.688 -0.0920  0.7238  0.5822
 9156SOL    HW138927   0.377   2.895   5.668  0.2991  1.3591 -2.2289
 9156SOL    HW238928   0.308   2.986   5.759  0.7022 -1.2144  1.2103
 9157SOL     OW38929   2.855   3.334  11.975 -0.0970 -0.0319 -0.1612
 9157SOL    HW138930   2.837   3.419  12.015  1.4259 -0.2002  0.9034
 9157SOL    HW238931   2.901   3.373  11.900 -1.0035  2.1023  0.4002
 9158SOL     OW38932   4.128   1.270   4.503 -0.5538  0.0085 -0.5125
 9158SOL    HW138933   4.093   1.247   4.589  0.3336 -0.7271 -0.3520
 9158SOL    HW238934   4.072   1.222   4.441  1.6091 -0.0432 -2.4358
 9159SOL     OW38935   0.982   1.333   3.466  0.2278  0.2873  0.6827
 9159SOL    HW138936   0.927   1.397   3.421  3.7237  1.8904 -1.3352
 9159SOL    HW238937   0.932   1.253   3.448 -2.0628  2.0062 -0.6815
 9160SOL     OW38938   0.223   0.011   5.434 -0.1508  0.1933  0.4128
 9160SOL    HW138939   0.315   4.709   5.431 -1.0820 -3.5083  2.2442
 9160SOL    HW238940   0.199   4.683   5.356  1.8805 -0.3042  0.1181
 9161SOL     OW38941   2.759   2.159   8.301  0.5019 -0.1784  0.5238
 9161SOL    HW138942   2.770   2.249   8.333 -0.1436  0.8444 -2.0808
 9161SOL    HW238943   2.678   2.132   8.343 -0.1423  0.3015 -0.4107
 9162SOL     OW38944   2.048   0.390  10.589  0.8125  0.2920  0.8101
 9162SOL    HW138945   2.127   0.363  10.542  1.0186 -0.7350  1.7514
 9162SOL    HW238946   2.050   0.478  10.550 -0.0921  0.3078  0.7829
 9163SOL     OW38947   3.600   2.886   4.788  0.4532  0.1191 -0.0693
 9163SOL    HW138948   3.633   2.850   4.870 -2.1952 -0.2530  0.8387
 9163SOL    HW238949   3.512   2.911   4.813 -0.6244 -2.0400 -1.6341
 9164SOL     OW38950   3.821   1.726   5.375 -0.2084  0.2856 -0.0060
 9164SOL    HW138951   3.790   1.786   5.443 -1.7374 -0.8611  0.3097
 9164SOL    HW238952   3.779   1.644   5.402  0.4013 -0.1360 -0.3294
 9165SOL     OW38953   0.303   1.663  11.851 -0.2818  0.0090 -0.1888
 9165SOL    HW138954   0.313   1.640  11.943 -1.2363 -1.5261 -0.4538
 9165SOL    HW238955   0.371   1.601  11.823 -0.3164  0.2608 -0.8285
 9166SOL     OW38956   1.556   0.134   5.377 -0.0764 -0.0387  0.1327
 9166SOL    HW138957   1.494   0.093   5.317  0.4751 -1.1977  0.3573
 9166SOL    HW238958   1.506   0.135   5.459 -1.0370  1.7655 -0.4655
 9167SOL     OW38959   4.265   3.510   2.763  0.5736  0.0218 -0.0311
 9167SOL    HW138960   4.268   3.605   2.751 -3.5060 -0.0248 -1.4698
 9167SOL    HW238961   4.342   3.490   2.711 -1.2119  0.6253 -2.9047
 9168SOL     OW38962   4.077   3.849   5.587  0.0823  0.3805 -0.0193
 9168SOL    HW138963   4.043   3.787   5.522  1.1011 -0.1558 -0.0537
 9168SOL    HW238964   3.993   3.869   5.626  0.3913 -1.5301  1.5741
 9169SOL     OW38965   3.121   0.501   4.773 -0.0990  0.3263 -0.5499
 9169SOL    HW138966   3.121   0.526   4.680 -1.0418 -0.6309 -0.8010
 9169SOL    HW238967   3.214   0.502   4.795 -0.4018 -1.8030  0.7763
 9170SOL     OW38968   1.757   3.617   0.247 -0.5701 -0.4608 -0.2068
 9170SOL    HW138969   1.810   3.541   0.271  0.1310 -0.2962 -1.2067
 9170SOL    HW238970   1.673   3.589   0.212 -0.0829 -0.5343 -1.3231
 9171SOL     OW38971   1.208   1.064   2.011 -0.1759  0.1994  0.4407
 9171SOL    HW138972   1.204   0.988   2.069 -1.2556 -0.5368 -0.6070
 9171SOL    HW238973   1.146   1.129   2.045 -1.0019 -1.0498  1.3375
 9172SOL     OW38974   1.743   3.240   3.434  0.9105  0.7738 -0.0244
 9172SOL    HW138975   1.723   3.287   3.515 -1.3187 -0.8161  0.3630
 9172SOL    HW238976   1.726   3.150   3.461  0.7665  0.8559  0.1636
 9173SOL     OW38977   0.629   4.469   2.466 -0.1800  0.3621 -0.5793
 9173SOL    HW138978   0.659   4.401   2.407  0.0024 -1.0888  1.1980
 9173SOL    HW238979   0.539   4.476   2.432 -0.2724 -1.2702 -0.6468
 9174SOL     OW38980   4.671   2.724   3.986  0.0390 -0.2865 -0.1534
 9174SOL    HW138981   4.627   2.711   4.069  0.2240  0.4205  0.0559
 9174SOL    HW238982   4.615   2.693   3.915 -0.3412 -2.5242  1.1133
 9175SOL     OW38983   0.309   1.080   3.765 -0.4822  0.3466 -0.3501
 9175SOL    HW138984   0.344   1.140   3.700 -0.2141 -0.1464 -0.6595
 9175SOL    HW238985   0.269   1.009   3.715  0.5769 -0.8428  0.5089
 9176SOL     OW38986   4.160   0.061  10.000  0.3260  0.3989  0.2101
 9176SOL    HW138987   4.133   0.111   9.923 -0.6534  0.3282  0.5038
 9176SOL    HW238988   4.246   0.097  10.024  0.5131  1.9754 -2.8162
 9177SOL     OW38989   1.287   3.116   3.576 -0.9688  0.1425  0.5576
 9177SOL    HW138990   1.303   3.148   3.487 -1.0562 -4.7327 -1.2165
 9177SOL    HW238991   1.192   3.124   3.579 -1.1735 -2.3585  0.9432
 9178SOL     OW38992   2.340   2.045   2.863  0.0433  0.2212 -0.3334
 9178SOL    HW138993   2.300   2.125   2.897  0.6328  0.1010  0.6546
 9178SOL    HW238994   2.395   2.026   2.940  0.8325  0.6971 -0.7833
 9179SOL     OW38995   2.115   4.573  13.086 -0.1884 -0.0522 -0.7163
 9179SOL    HW138996   2.174   4.649  13.075  1.3171 -1.2349 -0.8535
 9179SOL    HW238997   2.105   4.544  12.996 -0.6381 -0.4247 -0.5432
 9180SOL     OW38998   1.054   4.319  16.293 -0.2195 -0.5563 -0.2568
 9180SOL    HW138999   1.113   4.251  16.327 -0.4734 -0.6331  0.0283
 9180SOL    HW239000   1.064   4.398  16.346 -1.3366 -0.2096 -0.5700
 9181SOL     OW39001   4.715   0.948   5.716  0.3077  0.3234 -0.1518
 9181SOL    HW139002   0.031   0.896   5.786  0.8663 -0.6322 -1.1734
 9181SOL    HW239003   4.656   0.883   5.678 -1.0763  1.2971  0.3277
 9182SOL     OW39004   2.301   3.617   0.287  0.3061  0.4496  0.3406
 9182SOL    HW139005   2.344   3.661   0.213  1.1009 -2.6577 -1.0850
 9182SOL    HW239006   2.329   3.680   0.353 -0.6918  0.2092  0.9805
 9183SOL     OW39007   3.221   1.955  16.969  0.0556 -0.0903  0.4384
 9183SOL    HW139008   3.286   1.961  16.899  0.2379 -0.5872  0.5675
 9183SOL    HW239009   3.248   2.030  17.021  3.2389 -1.7954  1.2073
 9184SOL     OW39010   0.151   2.571   5.884  0.2312  0.2289  0.2666
 9184SOL    HW139011   0.123   2.601   5.971 -2.5667 -3.3668  0.6057
 9184SOL    HW239012   0.063   2.566   5.846  1.0302 -1.9127 -1.3211
 9185SOL     OW39013   2.193   3.926   3.478 -0.3408 -0.2443  0.1220
 9185SOL    HW139014   2.243   3.930   3.396  1.3218 -2.0269  1.0527
 9185SOL    HW239015   2.258   3.875   3.526  1.9440  2.2260 -0.3483
 9186SOL     OW39016   3.047   4.192   5.180  0.9627 -0.5942 -0.2486
 9186SOL    HW139017   3.089   4.248   5.115 -0.6672 -0.4410 -1.1596
 9186SOL    HW239018   3.038   4.118   5.120  3.1129 -1.0118 -0.0604
 9187SOL     OW39019   1.113   0.575   0.903 -0.2962 -0.1440  0.1099
 9187SOL    HW139020   1.062   0.513   0.851  2.4207 -0.1693 -2.5250
 9187SOL    HW239021   1.077   0.661   0.879  1.7716  0.4811 -0.6963
 9188SOL     OW39022   3.388   2.025   9.008  0.3004 -0.3424  0.2950
 9188SOL    HW139023   3.460   1.973   8.974 -0.1423  1.9492 -4.1021
 9188SOL    HW239024   3.319   1.961   8.991  0.2924 -0.1294 -0.4818
 9189SOL     OW39025   4.336   0.469  15.392 -0.1276 -0.8908  0.2312
 9189SOL    HW139026   4.424   0.498  15.417  0.0163  0.0256 -1.3507
 9189SOL    HW239027   4.330   0.381  15.428 -3.0623 -0.6313  0.3720
 9190SOL     OW39028   0.026   4.474   7.260 -0.0099 -0.3952 -0.1776
 9190SOL    HW139029   0.102   4.532   7.259 -0.6163  0.3870 -1.5547
 9190SOL    HW239030   4.703   4.507   7.182 -1.1870 -2.3565 -0.3243
 9191SOL     OW39031   1.509   0.272   6.582  0.5727  0.5266 -0.1627
 9191SOL    HW139032   1.595   0.251   6.546  1.0309  4.2341 -1.2944
 9191SOL    HW239033   1.500   0.365   6.558  0.2103  0.1448 -1.4888
 9192SOL     OW39034   0.745   2.702   4.749 -0.5975 -0.1209  0.0045
 9192SOL    HW139035   0.784   2.763   4.812  1.3510 -0.5563 -0.7942
 9192SOL    HW239036   0.684   2.664   4.813 -1.6186  0.9134 -0.3540
 9193SOL     OW39037   2.872   4.015   8.344 -0.1854 -0.1136  0.4434
 9193SOL    HW139038   2.860   3.952   8.415 -1.7960  3.0967  2.9699
 9193SOL    HW239039   2.910   3.963   8.273 -1.0702  2.3633 -1.8208
 9194SOL     OW39040   4.256   3.855   7.527  0.0074  0.1930  0.2616
 9194SOL    HW139041   4.205   3.782   7.495  0.1482  0.3299 -0.2745
 9194SOL    HW239042   4.192   3.889   7.589 -0.3418 -1.3110  0.7091
 9195SOL     OW39043   2.443   0.461  14.883 -1.0832 -0.4419  0.3872
 9195SOL    HW139044   2.535   0.483  14.898 -0.5221 -1.2770 -1.8744
 9195SOL    HW239045   2.446   0.388  14.821  1.3606  0.9137 -1.1009
 9196SOL     OW39046   4.703   0.762   6.540  0.2792 -0.1714 -0.6359
 9196SOL    HW139047   0.076   0.756   6.545  0.3842  0.7164 -1.6397
 9196SOL    HW239048   4.681   0.674   6.511 -0.2200 -1.3447  3.2161
 9197SOL     OW39049   0.390   3.804   0.667 -0.6804 -0.0790  0.3203
 9197SOL    HW139050   0.453   3.843   0.607 -0.3170  0.5078  1.0778
 9197SOL    HW239051   0.421   3.714   0.679 -0.4892 -0.0545 -0.0070
 9198SOL     OW39052   2.632   2.270   1.976  0.3577  0.1587 -0.0773
 9198SOL    HW139053   2.652   2.319   2.056 -2.0008  1.4011 -0.2553
 9198SOL    HW239054   2.716   2.233   1.949  0.2330 -0.4167  0.3245
 9199SOL     OW39055   1.830   3.557   2.573 -0.2840 -0.5828 -0.3135
 9199SOL    HW139056   1.849   3.576   2.481  0.0887 -0.8359 -0.2887
 9199SOL    HW239057   1.887   3.620   2.617 -2.6494  0.7231  0.8560
 9200SOL     OW39058   1.027   0.179  12.628 -0.2484 -0.7568 -0.0558
 9200SOL    HW139059   0.990   0.260  12.593 -1.7533 -0.5243  2.0560
 9200SOL    HW239060   0.970   0.119  12.580 -1.7523  0.4551  0.2053
 9201SOL     OW39061   0.425   3.567   3.624 -0.0688 -0.1158 -0.4124
 9201SOL    HW139062   0.355   3.593   3.564  0.2126  0.4558 -0.4941
 9201SOL    HW239063   0.418   3.472   3.617  0.4195 -0.3738  2.5452
 9202SOL     OW39064   1.773   0.002  11.186  0.6133  0.1016 -0.0539
 9202SOL    HW139065   1.778   4.700  11.094  1.0809 -1.3433  0.3586
 9202SOL    HW239066   1.702   0.066  11.190  0.6816  0.1859 -0.2032
 9203SOL     OW39067   0.491   4.506  13.366 -0.2025  0.1234 -0.3400
 9203SOL    HW139068   0.473   4.443  13.295 -3.4255 -0.8174  1.2936
 9203SOL    HW239069   0.583   4.487  13.382 -0.3426  0.7648  1.1880
 9204SOL     OW39070   3.419   4.377   3.485 -0.3826  0.0017  0.1742
 9204SOL    HW139071   3.339   4.328   3.464 -0.3288  0.3491 -0.8300
 9204SOL    HW239072   3.478   4.308   3.456  1.6455  2.2218 -0.9526
 9205SOL     OW39073   2.818   4.617   5.507 -0.3649 -0.2813 -0.2681
 9205SOL    HW139074   2.785   4.594   5.420 -0.9466 -1.2155  0.2009
 9205SOL    HW239075   2.793   4.709   5.516  1.7847  0.1723  1.3020
 9206SOL     OW39076   2.655   1.887   0.045  0.2897  0.0767 -0.3719
 9206SOL    HW139077   2.673   1.975   0.011  1.6884  0.7712  2.2186
 9206SOL    HW239078   2.729   1.884   0.106  0.7905 -0.5291 -1.0058
 9207SOL     OW39079   1.715   4.480   1.288  0.5758 -0.3896  0.2094
 9207SOL    HW139080   1.726   4.548   1.354 -0.6690  0.4365 -0.4325
 9207SOL    HW239081   1.622   4.457   1.291 -0.0375  2.0902  0.1389
 9208SOL     OW39082   4.439   0.767   2.513 -0.5609  0.4543 -0.6557
 9208SOL    HW139083   4.510   0.703   2.509 -1.5782 -0.5843 -2.1505
 9208SOL    HW239084   4.379   0.728   2.450 -1.0731  0.5489 -0.2275
 9209SOL     OW39085   0.878   3.298  17.413 -0.1840 -0.1962  0.2632
 9209SOL    HW139086   0.941   3.250  17.358  0.7099  0.2167  0.9236
 9209SOL    HW239087   0.825   3.340  17.346 -2.8866 -1.5404  1.5739
 9210SOL     OW39088   2.686   1.305   8.376  0.1104 -0.2035  0.6312
 9210SOL    HW139089   2.742   1.263   8.442 -1.4593 -1.9925  0.8027
 9210SOL    HW239090   2.721   1.272   8.293 -0.2199  0.0504  0.3914
 9211SOL     OW39091   3.041   2.712  14.815  0.2017  0.1469 -0.1550
 9211SOL    HW139092   2.970   2.674  14.867  0.6180 -2.1367 -1.2541
 9211SOL    HW239093   3.023   2.806  14.810  0.1451  0.1626  0.3647
 9212SOL     OW39094   4.328   0.608   1.777 -0.2214  0.4766  0.8958
 9212SOL    HW139095   4.311   0.529   1.725 -2.4353  0.1757  2.1100
 9212SOL    HW239096   4.311   0.681   1.717 -2.4583 -1.1354 -0.4240
 9213SOL     OW39097   2.409   1.131   5.700 -0.7982  0.7249  0.7047
 9213SOL    HW139098   2.328   1.085   5.724 -0.6303  0.3110  0.4672
 9213SOL    HW239099   2.383   1.222   5.712 -1.5881  0.3281  1.9983
 9214SOL     OW39100   2.341   2.600  13.306 -0.2452  0.0265  0.3302
 9214SOL    HW139101   2.290   2.606  13.226 -0.6712  1.3857  0.7039
 9214SOL    HW239102   2.431   2.611  13.277 -1.1258 -0.8501 -2.6961
 9215SOL     OW39103   1.009   1.377   2.920  0.2491 -0.3136 -0.2971
 9215SOL    HW139104   0.951   1.303   2.938  0.3607 -0.2366  0.3638
 9215SOL    HW239105   1.041   1.353   2.832  1.8459  0.2554  0.1244
 9216SOL     OW39106   3.025   1.695   0.807  0.6601  0.0249  0.9014
 9216SOL    HW139107   2.948   1.678   0.862  1.7050 -2.8880  1.4438
 9216SOL    HW239108   3.056   1.605   0.806 -0.4151 -0.3500  0.9444
 9217SOL     OW39109   2.382   0.908   7.603 -0.2208  0.2444  0.4335
 9217SOL    HW139110   2.344   0.848   7.539  0.1519 -0.1150  0.5473
 9217SOL    HW239111   2.465   0.863   7.620  0.5064  1.7175  0.7917
 9218SOL     OW39112   2.925   1.073   7.057  0.0181 -0.3231 -0.0520
 9218SOL    HW139113   2.953   0.982   7.067 -0.3695 -0.3546  0.7348
 9218SOL    HW239114   2.949   1.107   7.143  0.8996  3.6597 -1.8719
 9219SOL     OW39115   4.048   3.353  10.425  0.1469 -0.3887  0.2814
 9219SOL    HW139116   3.963   3.393  10.446 -1.2288 -2.0829 -2.0536
 9219SOL    HW239117   4.102   3.395  10.492  1.5157 -0.7991 -0.5655
 9220SOL     OW39118   3.959   4.059   3.316 -0.0551  0.1361  0.1275
 9220SOL    HW139119   3.975   4.058   3.222  0.1423 -0.0031  0.1615
 9220SOL    HW239120   3.904   4.137   3.315  1.6254  1.2957 -1.7401
 9221SOL     OW39121   3.890   0.440  13.176 -0.1422  0.0110  0.2022
 9221SOL    HW139122   3.881   0.347  13.156  2.2474 -0.4722  1.3764
 9221SOL    HW239123   3.825   0.476  13.116  0.5955  0.5509 -0.2795
 9222SOL     OW39124   0.219   2.833   0.857 -0.4088  0.2803  0.3526
 9222SOL    HW139125   0.305   2.796   0.877 -0.1347  0.4645 -0.4936
 9222SOL    HW239126   0.248   2.914   0.815 -0.2922 -0.0592 -0.2303
 9223SOL     OW39127   3.071   3.239   5.237 -0.0573  0.1687  0.1662
 9223SOL    HW139128   2.980   3.266   5.245 -0.3485 -0.1188 -2.1688
 9223SOL    HW239129   3.095   3.278   5.153  0.3413 -1.3181 -0.4065
 9224SOL     OW39130   0.922   4.429   4.755 -0.2840  0.5160  0.0038
 9224SOL    HW139131   1.011   4.394   4.751 -0.2456  0.6354 -0.1678
 9224SOL    HW239132   0.876   4.350   4.782  0.9983  0.1452  1.0923
 9225SOL     OW39133   3.455   0.851  14.998 -0.6103  0.4280 -0.6857
 9225SOL    HW139134   3.462   0.817  14.909 -0.6031 -0.4216 -0.3615
 9225SOL    HW239135   3.531   0.910  15.001 -0.5820  0.1704  3.5704
 9226SOL     OW39136   1.101   3.018   7.068 -0.0023  0.4491 -0.0024
 9226SOL    HW139137   1.192   3.024   7.038  0.4165 -1.4761  0.8636
 9226SOL    HW239138   1.107   3.070   7.148  1.2740  1.2166 -0.6019
 9227SOL     OW39139   4.202   3.118   3.853 -0.5681 -0.1663 -0.5010
 9227SOL    HW139140   4.196   3.214   3.850 -1.3533 -0.2297 -1.0785
 9227SOL    HW239141   4.285   3.109   3.806 -0.4625 -3.2685  0.3125
 9228SOL     OW39142   0.465   1.940   7.369 -0.0289 -0.0228  0.0523
 9228SOL    HW139143   0.502   1.855   7.392  1.5053  1.3716  2.6456
 9228SOL    HW239144   0.511   1.991   7.435 -1.1298  1.3251 -0.2322
 9229SOL     OW39145   0.682   0.043   2.193  0.0300  0.5972 -0.4865
 9229SOL    HW139146   0.613   0.022   2.131  0.1035 -1.4273  0.0924
 9229SOL    HW239147   0.691   0.137   2.180 -0.6984  0.6036 -0.8881
 9230SOL     OW39148   2.237   2.334   9.198 -0.6232  0.2130 -0.3615
 9230SOL    HW139149   2.192   2.415   9.173 -0.6023 -0.2311 -1.8962
 9230SOL    HW239150   2.163   2.286   9.236 -1.5555  1.3768 -0.7097
 9231SOL     OW39151   3.866   2.324  10.178  0.8897 -0.7550 -0.2703
 9231SOL    HW139152   3.956   2.344  10.204  0.2018 -1.0290  2.3672
 9231SOL    HW239153   3.863   2.242  10.227  4.2617 -1.1012 -0.6402
 9232SOL     OW39154   2.562   3.043   3.901  0.4586 -0.6614 -0.4285
 9232SOL    HW139155   2.561   3.139   3.903  0.9299 -0.6722  0.1289
 9232SOL    HW239156   2.653   3.021   3.880  0.4146 -1.6159  0.4352
 9233SOL     OW39157   1.195   1.173   3.858 -0.0059  0.0002 -0.3022
 9233SOL    HW139158   1.123   1.223   3.821  0.7377  0.8424 -0.5943
 9233SOL    HW239159   1.161   1.132   3.938 -0.5365  1.4801  0.2300
 9234SOL     OW39160   0.117   2.263   6.541 -0.2984 -0.8437 -0.0660
 9234SOL    HW139161   0.061   2.325   6.587 -0.3764 -0.3489 -0.8320
 9234SOL    HW239162   0.206   2.285   6.567 -0.9549  0.7652  0.7753
 9235SOL     OW39163   1.336   2.865   3.637 -0.0555 -0.2223 -0.4524
 9235SOL    HW139164   1.250   2.840   3.671  0.1704  0.0932  0.3459
 9235SOL    HW239165   1.332   2.958   3.616 -2.3963 -0.2120  0.0996
 9236SOL     OW39166   0.307   4.701   4.942  0.6116 -0.2424 -0.0421
 9236SOL    HW139167   0.360   0.006   4.867  1.3709 -0.6334  0.3463
 9236SOL    HW239168   0.269   4.624   4.901  0.4486  0.6620 -1.6174
 9237SOL     OW39169   3.561   2.243  14.467  0.2977  0.2579 -0.1607
 9237SOL    HW139170   3.538   2.257  14.375  0.4674 -3.3208 -0.7608
 9237SOL    HW239171   3.501   2.176  14.500  0.1779  0.0440 -0.8021
 9238SOL     OW39172   0.245   1.036   1.068 -0.2856 -0.1763 -0.8721
 9238SOL    HW139173   0.278   1.109   1.121 -1.8141  0.3689 -0.6685
 9238SOL    HW239174   0.326   1.010   1.024  0.1922 -1.6688  0.9127
 9239SOL     OW39175   0.156   0.401   4.154 -0.3871  0.0969 -0.5062
 9239SOL    HW139176   0.196   0.417   4.239  0.6975 -0.2524 -0.9487
 9239SOL    HW239177   0.231   0.405   4.094 -0.3450 -0.6960 -0.5020
 9240SOL     OW39178   1.678   0.967   3.417 -0.0981 -0.4147  0.7378
 9240SOL    HW139179   1.720   0.894   3.463 -1.2934 -1.8637 -0.5077
 9240SOL    HW239180   1.588   0.938   3.403  0.0013  0.0055 -0.7347
 9241SOL     OW39181   0.984   0.289  12.271 -0.5218  0.8644 -0.6585
 9241SOL    HW139182   0.972   0.383  12.281  1.1224  1.0634 -0.4577
 9241SOL    HW239183   1.080   0.292  12.269 -0.4166 -1.1507  0.8247
 9242SOL     OW39184   2.635   1.979  14.186 -0.5632 -0.4070 -0.2131
 9242SOL    HW139185   2.688   1.900  14.196  0.7325  0.5330  0.4555
 9242SOL    HW239186   2.555   1.943  14.148 -0.1147 -0.8783 -0.7137
 9243SOL     OW39187   4.577   1.898  11.767 -0.2900 -0.0619  0.3472
 9243SOL    HW139188   4.584   1.812  11.725 -2.2216 -0.7963  1.5270
 9243SOL    HW239189   4.668   1.913  11.792  0.3799 -0.1243 -2.0343
 9244SOL     OW39190   1.525   0.989   7.508 -0.1113 -0.8957  0.2723
 9244SOL    HW139191   1.605   0.937   7.513 -0.2292 -1.2566 -1.5997
 9244SOL    HW239192   1.525   0.997   7.603 -0.3520  0.8044  0.1361
 9245SOL     OW39193   2.032   2.268   1.076 -0.5464  0.4305  0.3015
 9245SOL    HW139194   2.046   2.354   1.115 -1.1766  1.0193 -0.7974
 9245SOL    HW239195   1.965   2.296   1.014 -0.2470 -0.9280 -0.6301
 9246SOL     OW39196   0.068   1.683   7.688  0.2215 -0.2340  0.0318
 9246SOL    HW139197   0.123   1.655   7.615  1.3979 -2.1267  1.6375
 9246SOL    HW239198   0.011   1.751   7.652  1.6197  0.5771 -0.6351
 9247SOL     OW39199   1.425   1.258   4.771 -0.1304 -0.1968 -0.1655
 9247SOL    HW139200   1.452   1.216   4.689 -0.1590  0.2010 -0.3780
 9247SOL    HW239201   1.345   1.206   4.787 -0.4483  0.4140  0.2284
 9248SOL     OW39202   1.396   0.230   3.167 -0.5891  0.2778 -0.0971
 9248SOL    HW139203   1.350   0.235   3.083 -0.0634  0.4411 -0.3775
 9248SOL    HW239204   1.485   0.211   3.137  0.8779  2.1699  3.0804
 9249SOL     OW39205   4.006   4.640   3.300 -0.3503 -0.1344 -0.1289
 9249SOL    HW139206   4.034   4.682   3.382 -0.8470  1.6095 -0.8637
 9249SOL    HW239207   4.071   4.571   3.283  1.8405  2.0698 -0.7221
 9250SOL     OW39208   4.501   4.252   5.721  0.0081  0.3536  0.2526
 9250SOL    HW139209   4.585   4.206   5.722 -1.1173 -1.6465  2.0165
 9250SOL    HW239210   4.450   4.226   5.798  0.0628 -1.2265 -0.2344
 9251SOL     OW39211   3.842   4.266  17.646 -0.2674  0.0548  0.1238
 9251SOL    HW139212   3.904   4.307   0.015  0.2717 -1.5039  0.6151
 9251SOL    HW239213   3.874   4.278  17.557 -1.4435  0.5753 -0.2275
 9252SOL     OW39214   3.836   0.316   4.463 -0.3888  0.0528 -0.6830
 9252SOL    HW139215   3.771   0.255   4.428 -1.7271  0.5570  0.8758
 9252SOL    HW239216   3.880   0.268   4.533 -0.5098 -0.9505 -1.3019
 9253SOL     OW39217   1.884   1.967   2.263  0.1850 -0.1630 -0.3011
 9253SOL    HW139218   1.803   2.016   2.255 -1.1185 -2.1573  0.8536
 9253SOL    HW239219   1.882   1.900   2.195 -1.7468 -1.0468  0.6399
 9254SOL     OW39220   0.136   0.781   2.465 -0.2797 -0.1402  0.6629
 9254SOL    HW139221   0.167   0.867   2.438 -1.9514  1.2994  3.3578
 9254SOL    HW239222   0.055   0.794   2.514 -0.6889 -0.5170  0.1034
 9255SOL     OW39223   2.035   3.144   0.492 -0.0503 -0.1139 -0.0851
 9255SOL    HW139224   2.107   3.082   0.497  0.0258  0.0583  0.9426
 9255SOL    HW239225   2.071   3.218   0.542 -0.6879  0.9866 -1.2351
 9256SOL     OW39226   1.596   0.764   2.714  0.5680  0.3938  0.0590
 9256SOL    HW139227   1.509   0.739   2.683 -0.8987  1.7804  3.0728
 9256SOL    HW239228   1.655   0.698   2.678  0.3634 -0.6229  1.5622
 9257SOL     OW39229   1.593   3.662   7.954 -0.0449 -0.2608 -0.3012
 9257SOL    HW139230   1.667   3.602   7.949 -1.4768 -2.0739  0.3635
 9257SOL    HW239231   1.618   3.708   8.034 -0.0570 -4.6824  2.2668
 9258SOL     OW39232   0.466   4.557   2.989 -0.4007 -0.0786 -0.0893
 9258SOL    HW139233   0.553   4.596   2.991 -0.3713 -0.0696 -1.5663
 9258SOL    HW239234   0.429   4.602   2.913 -1.8477  1.0716  1.2796
 9259SOL     OW39235   4.087   0.886   3.478  0.1545 -0.2399  0.1436
 9259SOL    HW139236   4.145   0.958   3.502  0.9348 -0.4907 -0.9528
 9259SOL    HW239237   4.126   0.853   3.397  2.1451  0.2827  0.9001
 9260SOL     OW39238   2.013   1.459   3.852  0.0651  0.0522 -0.1929
 9260SOL    HW139239   2.095   1.498   3.822  0.0325 -0.1244 -0.5155
 9260SOL    HW239240   1.956   1.533   3.833 -0.5891 -0.1275  1.0888
 9261SOL     OW39241   3.845   2.739   2.140 -0.3713  0.3901  0.5524
 9261SOL    HW139242   3.833   2.686   2.218  1.7713 -1.1627 -0.1676
 9261SOL    HW239243   3.901   2.812   2.167  3.1115 -1.0775 -2.7490
 9262SOL     OW39244   1.418   1.425   2.783 -0.4166 -0.6051  0.1179
 9262SOL    HW139245   1.439   1.343   2.826  0.4027  0.5189  1.8332
 9262SOL    HW239246   1.498   1.441   2.732 -1.1960 -0.0815 -0.9602
 9263SOL     OW39247   4.468   2.316  16.175 -0.0285  0.0407 -0.0085
 9263SOL    HW139248   4.378   2.325  16.144 -1.1698 -1.9767  2.7264
 9263SOL    HW239249   4.484   2.401  16.216  3.0679 -0.1481 -0.8470
 9264SOL     OW39250   4.061   0.336   1.766 -0.1382  0.2645 -0.4560
 9264SOL    HW139251   4.017   0.421   1.763 -0.3661  0.1817  0.5774
 9264SOL    HW239252   4.144   0.357   1.723 -0.4471  0.7905 -0.7913
 9265SOL     OW39253   0.472   0.399   8.364  0.0860  0.0212  0.0711
 9265SOL    HW139254   0.481   0.349   8.445 -1.6672 -1.7062 -0.7937
 9265SOL    HW239255   0.446   0.332   8.301  0.5054  1.4206 -1.5804
 9266SOL     OW39256   0.434   4.293   3.919  0.5439  0.1433 -0.5041
 9266SOL    HW139257   0.458   4.200   3.919  0.0774  0.0265 -2.6730
 9266SOL    HW239258   0.339   4.287   3.918  0.5617 -0.5658  1.9137
 9267SOL     OW39259   1.037   0.270   2.037  0.2843  0.4582  0.4329
 9267SOL    HW139260   0.943   0.291   2.033  0.2416  0.3627  1.0146
 9267SOL    HW239261   1.043   0.175   2.046  1.1472  0.4061 -0.7140
 9268SOL     OW39262   4.280   3.879   8.243 -0.8429  0.2863 -0.4469
 9268SOL    HW139263   4.219   3.850   8.175 -1.3045 -1.1650  0.5922
 9268SOL    HW239264   4.342   3.806   8.238  0.1581  1.0257  0.9650
 9269SOL     OW39265   0.244   1.355   4.709 -0.0823 -0.3513  0.1307
 9269SOL    HW139266   0.273   1.266   4.731  2.6985  0.2981 -0.9978
 9269SOL    HW239267   0.322   1.403   4.736 -1.3596  2.2462 -0.7763
 9270SOL     OW39268   0.956   2.476   5.120  0.2877 -0.3260  0.1452
 9270SOL    HW139269   0.894   2.544   5.147  0.9762 -0.4056  1.9489
 9270SOL    HW239270   0.956   2.481   5.025 -1.3023 -1.1584  0.0982
 9271SOL     OW39271   3.949   3.315  14.655 -0.4839 -0.7053 -0.2027
 9271SOL    HW139272   3.970   3.356  14.739 -0.5420  0.3247 -0.6940
 9271SOL    HW239273   4.010   3.363  14.599  0.2378 -0.9676  0.3676
 9272SOL     OW39274   0.296   3.231   4.544 -0.1074  0.2059  0.3515
 9272SOL    HW139275   0.337   3.306   4.503 -0.1671  0.0353 -0.0185
 9272SOL    HW239276   0.362   3.164   4.560 -1.2118 -1.0001 -0.0922
 9273SOL     OW39277   2.594   3.666   8.305 -0.1033 -0.0673 -0.0590
 9273SOL    HW139278   2.660   3.707   8.361  1.1417 -2.1100 -0.0487
 9273SOL    HW239279   2.601   3.583   8.353  2.8250 -0.9623 -2.0648
 9274SOL     OW39280   4.368   3.652   9.007  0.0478  0.5902  0.7372
 9274SOL    HW139281   4.341   3.738   9.040  0.4466  0.1247  2.3009
 9274SOL    HW239282   4.324   3.587   9.062 -0.4963 -0.1617 -0.5813
 9275SOL     OW39283   3.068   2.544   5.441  0.7564  0.7171  0.1932
 9275SOL    HW139284   3.156   2.546   5.478 -0.3730  2.9286  2.7165
 9275SOL    HW239285   3.023   2.565   5.523  0.5125  1.1655 -0.0562
 9276SOL     OW39286   2.454   1.833   4.204 -0.1768  0.4665  0.0861
 9276SOL    HW139287   2.415   1.756   4.245  2.4450 -1.2469 -0.5963
 9276SOL    HW239288   2.538   1.804   4.167  0.0898  0.3708  0.7705
 9277SOL     OW39289   1.105   2.782  17.083 -0.9417 -0.3291  0.3994
 9277SOL    HW139290   1.158   2.764  17.160 -0.6865 -2.1835 -0.2256
 9277SOL    HW239291   1.092   2.694  17.048 -1.3196  0.6457 -1.9462
 9278SOL     OW39292   2.202   4.476   3.758  0.4240  0.2678  0.3401
 9278SOL    HW139293   2.108   4.488   3.745  0.4396 -1.4096 -1.2837
 9278SOL    HW239294   2.198   4.423   3.837  1.9687 -2.2345 -1.2390
 9279SOL     OW39295   2.221   3.562   7.355 -0.7230  0.6687  0.1873
 9279SOL    HW139296   2.168   3.572   7.277 -0.3608  0.8917 -0.0283
 9279SOL    HW239297   2.306   3.534   7.321 -1.5877 -1.6246 -0.1210
 9280SOL     OW39298   2.763   3.587   8.004  0.2943  0.6414 -0.1642
 9280SOL    HW139299   2.784   3.529   8.077 -1.1093 -0.9731 -1.0592
 9280SOL    HW239300   2.697   3.543   7.951 -1.4581  3.2994 -0.1604
 9281SOL     OW39301   0.829   4.522  13.438 -0.0661 -0.4627 -0.0430
 9281SOL    HW139302   0.888   4.451  13.461 -0.8253 -1.2373 -0.4754
 9281SOL    HW239303   0.857   4.585  13.505 -0.2299  0.4477 -0.8269
 9282SOL     OW39304   0.242   2.854  10.122  0.2364 -0.6343  0.2476
 9282SOL    HW139305   0.254   2.864  10.028 -0.0062 -0.3003  0.2549
 9282SOL    HW239306   0.156   2.891  10.138  0.5616  1.4153 -2.8425
 9283SOL     OW39307   3.260   0.843  11.733  0.0830  0.5451 -0.3621
 9283SOL    HW139308   3.296   0.782  11.669  2.0668  0.8818  0.4586
 9283SOL    HW239309   3.191   0.785  11.766  0.6188  0.5695  0.8106
 9284SOL     OW39310   3.127   0.855  13.897 -0.4764 -0.3783 -0.5289
 9284SOL    HW139311   3.114   0.905  13.817  1.1647  1.2971  0.2322
 9284SOL    HW239312   3.220   0.832  13.894 -0.0107  1.3015  0.7744
 9285SOL     OW39313   4.114   2.575   6.548  0.1148  0.1804 -0.1483
 9285SOL    HW139314   4.179   2.529   6.600  3.7319  3.7777 -1.4683
 9285SOL    HW239315   4.046   2.574   6.616 -0.6996  0.2477 -0.9538
 9286SOL     OW39316   1.434   4.227   0.349  0.1690  0.1496 -0.7160
 9286SOL    HW139317   1.364   4.281   0.314  0.9332  0.8194 -1.2041
 9286SOL    HW239318   1.490   4.297   0.382 -0.4475 -0.0364  0.7309
 9287SOL     OW39319   2.826   0.148   3.247  0.0482  0.3642 -0.2921
 9287SOL    HW139320   2.776   0.153   3.328 -0.7442 -2.2200 -0.6277
 9287SOL    HW239321   2.887   0.222   3.255  2.0275 -1.2272 -0.6274
 9288SOL     OW39322   3.369   1.145  10.011 -0.0671  0.5411  0.3164
 9288SOL    HW139323   3.432   1.133   9.940 -0.0431  0.4695  0.3506
 9288SOL    HW239324   3.295   1.190   9.969  0.7368  2.4452  0.9601
 9289SOL     OW39325   3.719   1.531   8.241  0.4357  0.4456  0.0573
 9289SOL    HW139326   3.735   1.528   8.147 -0.7938 -0.5982 -0.1292
 9289SOL    HW239327   3.643   1.589   8.232  1.0995  1.3899  0.6344
 9290SOL     OW39328   0.589   2.813  17.170 -0.0863  0.8535 -0.1396
 9290SOL    HW139329   0.665   2.869  17.187  1.4082 -1.2235  0.0076
 9290SOL    HW239330   0.527   2.852  17.231 -1.9578 -1.9109 -0.2935
 9291SOL     OW39331   0.587   4.165   1.471 -0.0558 -0.3072  0.0166
 9291SOL    HW139332   0.539   4.180   1.553 -0.1127  0.0800 -0.0872
 9291SOL    HW239333   0.673   4.143   1.508 -0.2104 -0.3033  0.3797
 9292SOL     OW39334   3.890   4.352   4.798 -0.1138 -0.1232 -0.4026
 9292SOL    HW139335   3.925   4.439   4.775 -1.0022  0.2068 -0.5124
 9292SOL    HW239336   3.959   4.289   4.775 -1.7283 -2.1829  0.4604
 9293SOL     OW39337   2.897   1.275   3.518 -0.2916  0.0567  0.2506
 9293SOL    HW139338   2.918   1.193   3.562  0.4465 -0.6089 -1.3388
 9293SOL    HW239339   2.811   1.252   3.481 -0.2224 -0.6977  0.5693
 9294SOL     OW39340   1.448   4.488   4.506  0.1383  0.4979 -0.8551
 9294SOL    HW139341   1.382   4.539   4.459 -0.0091  1.8239  0.8209
 9294SOL    HW239342   1.475   4.545   4.578 -3.7647  1.7482 -0.4078
 9295SOL     OW39343   1.283   2.553   7.067 -0.1249 -0.1051  0.0151
 9295SOL    HW139344   1.292   2.648   7.062 -2.5772  0.2487  2.3053
 9295SOL    HW239345   1.272   2.535   6.974 -2.0569  1.7187 -0.0917
 9296SOL     OW39346   1.391   2.369   2.943 -0.1482  0.1454  0.5507
 9296SOL    HW139347   1.428   2.449   2.981  0.6262  0.1022 -0.0971
 9296SOL    HW239348   1.304   2.402   2.921  0.4452  1.6995  0.5711
 9297SOL     OW39349   0.404   0.686   3.191 -0.4218 -0.0964  0.2910
 9297SOL    HW139350   0.457   0.607   3.182  0.7892  0.9756 -1.9968
 9297SOL    HW239351   0.319   0.653   3.221 -1.8868  3.6015  0.3108
 9298SOL     OW39352   3.011   1.517   5.323 -0.1876  0.1092 -0.0754
 9298SOL    HW139353   2.954   1.511   5.399  0.1878  0.6602  0.2535
 9298SOL    HW239354   3.095   1.553   5.352  0.3435 -0.9036 -0.3584
 9299SOL     OW39355   3.470   2.004   9.289 -0.3775  0.1276 -0.2127
 9299SOL    HW139356   3.451   2.084   9.339  0.3912 -0.5034  1.0910
 9299SOL    HW239357   3.417   2.025   9.213 -0.2954  0.2092 -0.2481
 9300SOL     OW39358   0.070   2.153   8.852 -0.1024  0.5295 -0.0826
 9300SOL    HW139359   0.076   2.216   8.781 -0.4889 -0.8381 -1.3397
 9300SOL    HW239360   0.058   2.213   8.925 -0.3293  1.3224 -0.7758
 9301SOL     OW39361   4.185   1.775   3.201 -0.2916  0.3764  0.6921
 9301SOL    HW139362   4.120   1.800   3.135 -0.6741  1.0413  1.3234
 9301SOL    HW239363   4.227   1.861   3.205  0.0430  0.2372  0.2555
 9302SOL     OW39364   0.014   1.614  12.100 -0.0805  0.6027 -0.3873
 9302SOL    HW139365   4.677   1.681  12.065 -1.5341  0.3737  1.6606
 9302SOL    HW239366   4.699   1.536  12.061  1.9096 -0.7256  0.3472
 9303SOL     OW39367   1.095   0.668   1.473  0.0953  0.1162  0.0412
 9303SOL    HW139368   1.114   0.576   1.493 -2.1333 -0.4363 -0.4168
 9303SOL    HW239369   1.018   0.660   1.417 -0.4483  1.3828  0.6064
 9304SOL     OW39370   1.700   3.250   3.121  0.3507 -0.2824  0.5494
 9304SOL    HW139371   1.690   3.243   3.026  1.5666 -0.1654  0.4155
 9304SOL    HW239372   1.669   3.160   3.135 -0.8293 -0.1234 -0.9930
 9305SOL     OW39373   3.475   0.614   0.361  0.6275 -0.1533 -0.1295
 9305SOL    HW139374   3.567   0.604   0.338  1.3597  2.5082  1.5415
 9305SOL    HW239375   3.469   0.544   0.426 -0.1908 -0.2448 -0.3138
 9306SOL     OW39376   2.141   4.343   7.338 -0.5281 -0.4693 -0.0089
 9306SOL    HW139377   2.143   4.288   7.260  0.0566  0.3646 -0.5883
 9306SOL    HW239378   2.180   4.292   7.409 -0.5047 -0.1565  0.2057
 9307SOL     OW39379   2.463   4.316   7.115 -0.0377 -0.0156 -0.4267
 9307SOL    HW139380   2.495   4.391   7.165 -0.7307 -0.2449  0.3438
 9307SOL    HW239381   2.522   4.314   7.039  1.2367 -0.1201  0.5614
 9308SOL     OW39382   0.535   3.147  14.611  0.1708  0.5311 -0.3411
 9308SOL    HW139383   0.560   3.137  14.520 -1.4584 -1.4610 -0.5778
 9308SOL    HW239384   0.543   3.242  14.624 -2.5426  0.7533 -0.1518
 9309SOL     OW39385   1.196   3.079   3.088  0.3800  0.3066 -0.4474
 9309SOL    HW139386   1.176   3.099   2.997 -2.5305 -1.7473 -0.2446
 9309SOL    HW239387   1.111   3.049   3.122  0.6112 -1.4071 -1.3725
 9310SOL     OW39388   2.252   3.208   6.067 -0.1448 -0.0985  0.0142
 9310SOL    HW139389   2.304   3.128   6.076 -1.1736 -0.6854  0.7383
 9310SOL    HW239390   2.172   3.181   6.111 -0.9441 -0.1775 -1.4773
 9311SOL     OW39391   1.633   0.421   8.650  0.2087 -0.0034  0.1359
 9311SOL    HW139392   1.590   0.438   8.567 -0.3711 -0.8763  0.2600
 9311SOL    HW239393   1.565   0.454   8.709  0.3341 -1.3638  1.0421
 9312SOL     OW39394   4.026   4.192   8.565  0.3087  0.1382  0.0702
 9312SOL    HW139395   4.056   4.247   8.637 -0.5722  0.0108  0.5231
 9312SOL    HW239396   4.001   4.109   8.606  1.7222 -0.4790 -0.2904
 9313SOL     OW39397   2.787   1.479  17.248  0.4104  0.0668 -0.8203
 9313SOL    HW139398   2.877   1.449  17.257  0.1181 -0.8768 -1.0788
 9313SOL    HW239399   2.807   1.573  17.251 -3.5552  0.9341 -2.3494
 9314SOL     OW39400   4.016   3.938   2.264  0.1045  0.8215 -0.1155
 9314SOL    HW139401   4.088   3.875   2.256  1.0042  1.8322 -0.1585
 9314SOL    HW239402   4.001   3.944   2.170  0.4776 -0.0969 -0.2297
 9315SOL     OW39403   3.406   0.930  12.120 -0.3195  0.2562 -0.3216
 9315SOL    HW139404   3.455   0.866  12.172  2.1684  1.1631 -1.5355
 9315SOL    HW239405   3.321   0.886  12.117 -1.3352  2.1502  0.7336
 9316SOL     OW39406   4.254   3.275   5.327  0.3262 -0.1191 -0.2643
 9316SOL    HW139407   4.302   3.353   5.356  0.3695 -0.4990  0.6892
 9316SOL    HW239408   4.293   3.213   5.389  1.1786  1.3095  0.6477
 9317SOL     OW39409   3.480   4.452   5.166  0.2075 -0.1304 -0.0739
 9317SOL    HW139410   3.574   4.434   5.158  0.3163  1.1326 -1.6400
 9317SOL    HW239411   3.473   4.477   5.258  1.4387  0.8225 -0.2329
 9318SOL     OW39412   1.201   1.155   6.622  0.3208 -0.0671  0.2334
 9318SOL    HW139413   1.188   1.131   6.530  0.2002  0.8507  0.0134
 9318SOL    HW239414   1.125   1.107   6.655 -1.6737  1.7065 -1.7564
 9319SOL     OW39415   2.160   0.827  14.442  0.2308 -0.0215 -0.6841
 9319SOL    HW139416   2.252   0.826  14.417  0.5266  1.8345  0.3397
 9319SOL    HW239417   2.146   0.920  14.463  2.1704  0.0589  0.2571
 9320SOL     OW39418   2.917   0.856  14.042 -0.1514  0.4528  0.1480
 9320SOL    HW139419   2.893   0.842  13.950  1.3652 -0.2877 -0.1428
 9320SOL    HW239420   3.009   0.873  14.020 -0.3268  1.3654  0.0986
 9321SOL     OW39421   4.060   4.517   9.332  0.2827 -0.0443  0.5564
 9321SOL    HW139422   3.989   4.523   9.269 -0.4277  1.2039  1.4702
 9321SOL    HW239423   4.045   4.590   9.393 -3.3697 -0.8154  0.5824
 9322SOL     OW39424   1.205   4.677   6.152 -0.1871 -0.2397  0.0758
 9322SOL    HW139425   1.226   4.684   6.059  1.8829 -1.1983  0.4765
 9322SOL    HW239426   1.154   4.597   6.148  0.2084 -0.4789 -0.1933
 9323SOL     OW39427   4.217   0.159   6.664  0.0984  0.0376 -0.3656
 9323SOL    HW139428   4.148   0.129   6.603 -1.4101  1.0361  0.8520
 9323SOL    HW239429   4.301   0.133   6.626 -0.3095 -2.9637  0.7997
 9324SOL     OW39430   0.729   1.144  10.242  0.3261 -0.3683 -0.0149
 9324SOL    HW139431   0.815   1.180  10.265 -0.9811  1.7299  1.6625
 9324SOL    HW239432   0.714   1.071  10.302 -0.5148 -0.8130 -0.7753
 9325SOL     OW39433   1.504   0.853   5.168 -0.1566  0.1782  0.8636
 9325SOL    HW139434   1.510   0.947   5.185 -2.9459  0.8278 -1.9384
 9325SOL    HW239435   1.485   0.846   5.075 -0.4865 -1.4284  1.0585
 9326SOL     OW39436   2.022   2.596   7.273  0.3577 -0.3277 -0.1293
 9326SOL    HW139437   2.021   2.634   7.185 -0.2267 -1.1094 -0.4629
 9326SOL    HW239438   2.113   2.620   7.292 -0.3941  1.1821  1.6315
 9327SOL     OW39439   4.380   2.204   6.710  0.0954  0.1063  0.0538
 9327SOL    HW139440   4.365   2.114   6.739  1.9249 -0.1036  0.3377
 9327SOL    HW239441   4.299   2.245   6.742 -0.2939 -1.5074  1.1732
 9328SOL     OW39442   0.847   2.225   4.596 -0.1752  0.4423 -0.2455
 9328SOL    HW139443   0.940   2.232   4.615  0.0578 -0.2071 -1.1224
 9328SOL    HW239444   0.792   2.232   4.674 -1.6373 -1.1646 -1.1248
 9329SOL     OW39445   1.401   3.956   0.207 -0.1958 -0.1434 -0.4852
 9329SOL    HW139446   1.413   4.031   0.266 -2.2254 -0.2826  0.0910
 9329SOL    HW239447   1.478   3.903   0.227 -0.6398 -0.8272 -0.5979
 9330SOL     OW39448   2.465   0.467  14.430 -0.1032  0.0381  0.6558
 9330SOL    HW139449   2.503   0.415  14.501 -1.1422 -2.5531 -0.6720
 9330SOL    HW239450   2.544   0.520  14.418 -1.1238  1.0933 -1.4667
 9331SOL     OW39451   1.905   2.071   1.247 -0.2655  0.1332  0.8246
 9331SOL    HW139452   1.876   2.008   1.181  0.4344 -1.2386  1.8308
 9331SOL    HW239453   1.960   2.128   1.194  1.6103 -3.1228 -0.7181
 9332SOL     OW39454   3.573   2.486   4.990 -0.7658  0.2984 -0.8243
 9332SOL    HW139455   3.667   2.473   5.004 -0.7375  2.2068  0.6558
 9332SOL    HW239456   3.563   2.572   5.032 -1.1265  1.5821 -3.5157
 9333SOL     OW39457   1.583   2.976   7.547 -0.4640  0.5005 -0.5096
 9333SOL    HW139458   1.644   3.041   7.582 -0.1838  0.8723 -1.6886
 9333SOL    HW239459   1.575   2.926   7.628 -1.6608 -1.0239 -1.5656
 9334SOL     OW39460   3.282   4.594   3.507  0.2310 -0.1146 -0.4751
 9334SOL    HW139461   3.225   4.524   3.476 -2.3857  0.6832  2.5726
 9334SOL    HW239462   3.371   4.561   3.490  0.4427  1.4099 -2.3300
 9335SOL     OW39463   4.300   3.362  15.670 -0.0501 -0.4710 -0.1895
 9335SOL    HW139464   4.393   3.354  15.650  0.1568  1.6885 -0.0511
 9335SOL    HW239465   4.273   3.291  15.611  1.6425  1.4005 -3.1919
 9336SOL     OW39466   2.074   4.474   6.748 -0.5717 -0.1109  0.3374
 9336SOL    HW139467   2.117   4.442   6.827 -0.9487  1.8174  1.3147
 9336SOL    HW239468   2.036   4.399   6.702  1.4054 -0.7991 -0.2052
 9337SOL     OW39469   1.386   0.966  10.658 -0.0331  0.7557  0.2124
 9337SOL    HW139470   1.481   0.969  10.656  0.0862 -1.1559  3.0838
 9337SOL    HW239471   1.372   0.871  10.664  0.1367  0.6986 -0.2565
 9338SOL     OW39472   0.374   0.956   6.587  0.2606 -0.2012  0.0170
 9338SOL    HW139473   0.446   0.988   6.641  0.8980 -0.2284 -0.8204
 9338SOL    HW239474   0.301   0.985   6.641  0.7348 -0.1908  0.6534
 9339SOL     OW39475   4.078   2.876   2.231 -0.7517  0.4612  0.2486
 9339SOL    HW139476   4.154   2.905   2.281  0.3444  1.2839 -1.9022
 9339SOL    HW239477   4.130   2.836   2.162  0.0374 -0.1461  1.1913
 9340SOL     OW39478   0.936   0.893   3.642  0.1442  0.0601  0.6002
 9340SOL    HW139479   0.995   0.848   3.701  1.6492 -0.5476 -1.3657
 9340SOL    HW239480   0.960   0.863   3.554  0.4918 -2.4361  1.5786
 9341SOL     OW39481   4.271   1.593  12.042  0.8665 -0.1754  0.2290
 9341SOL    HW139482   4.242   1.602  11.952  1.2704  3.3524  0.4461
 9341SOL    HW239483   4.238   1.676  12.077 -0.8989 -1.2687  1.1674
 9342SOL     OW39484   0.904   2.528   5.624 -0.2119  0.8233  0.5494
 9342SOL    HW139485   0.898   2.433   5.640  0.0652  0.8846  0.9989
 9342SOL    HW239486   0.905   2.559   5.714 -2.6360  1.8735  0.1956
 9343SOL     OW39487   2.402   0.271  17.208  0.2901  0.5040 -0.6375
 9343SOL    HW139488   2.429   0.214  17.279  0.8531  0.5931 -0.7784
 9343SOL    HW239489   2.441   0.351  17.245 -0.5865  0.6866 -0.1165
 9344SOL     OW39490   0.001   1.562   7.151 -0.1460  0.1570 -0.5275
 9344SOL    HW139491   0.013   1.467   7.160  3.0142  0.5403 -0.4778
 9344SOL    HW239492   0.044   1.579   7.067  0.9216 -1.3765 -0.2924
 9345SOL     OW39493   1.276   0.359   8.646  0.1989  0.1545 -0.4879
 9345SOL    HW139494   1.315   0.394   8.726  1.6072  1.1452 -1.6292
 9345SOL    HW239495   1.187   0.366   8.683  0.4370  2.5115 -0.4137
 9346SOL     OW39496   2.419   0.344   8.064  0.1226 -0.0765  0.1256
 9346SOL    HW139497   2.480   0.273   8.084 -0.8631 -0.8776  0.2459
 9346SOL    HW239498   2.471   0.423   8.080 -0.9186  0.3920  1.1175
 9347SOL     OW39499   4.478   4.028   7.409  0.3403  0.1235 -0.4354
 9347SOL    HW139500   4.565   3.994   7.431  0.2300  0.1398  0.0134
 9347SOL    HW239501   4.415   3.979   7.462 -1.3421 -0.6469 -3.1320
 9348SOL     OW39502   3.799   0.576   7.346 -0.2425  0.1464 -0.2497
 9348SOL    HW139503   3.716   0.569   7.393 -0.0732  2.4151  0.3792
 9348SOL    HW239504   3.798   0.664   7.309  0.6989 -0.0789 -0.8168
 9349SOL     OW39505   2.484   0.083   8.374 -0.2998  0.3832 -0.0985
 9349SOL    HW139506   2.532   0.001   8.367 -0.7108 -0.0147  1.6550
 9349SOL    HW239507   2.404   0.051   8.332 -0.4548 -0.3997  0.7831
 9350SOL     OW39508   0.908   4.153   2.219  0.2015  0.1375 -0.2486
 9350SOL    HW139509   0.828   4.106   2.242  1.0371  0.2173  2.7344
 9350SOL    HW239510   0.943   4.165   2.307 -0.4063  1.7946 -0.2383
 9351SOL     OW39511   4.447   1.224  13.737  0.1202 -0.2812  0.1574
 9351SOL    HW139512   4.386   1.154  13.760  0.5386 -1.3483 -1.9861
 9351SOL    HW239513   4.426   1.280  13.812 -2.3076  1.6355 -1.9401
 9352SOL     OW39514   0.054   3.365  17.309  0.1861  0.1329  0.1944
 9352SOL    HW139515   0.094   3.334  17.390  0.0307 -2.3642 -0.6744
 9352SOL    HW239516   4.711   3.424  17.346  0.5408  0.3754  0.4390
 9353SOL     OW39517   0.884   2.005   2.359 -0.2979 -0.4651 -0.5581
 9353SOL    HW139518   0.946   2.033   2.292  0.2024  2.4069  1.0600
 9353SOL    HW239519   0.828   1.944   2.312  1.5069 -1.7966 -0.9608
 9354SOL     OW39520   3.210   1.765  15.517  0.1614 -0.0115  0.4753
 9354SOL    HW139521   3.241   1.832  15.577 -1.1782 -0.5397  1.7617
 9354SOL    HW239522   3.291   1.748  15.469  0.4413 -0.8230  1.2354
 9355SOL     OW39523   1.866   2.381   7.667  0.1358  0.5749 -0.0380
 9355SOL    HW139524   1.934   2.432   7.622 -0.1998 -0.1607 -1.3739
 9355SOL    HW239525   1.918   2.398   7.745  0.2163 -1.0224  0.2496
 9356SOL     OW39526   3.070   2.028  15.785  0.1738  0.2320 -0.6094
 9356SOL    HW139527   3.068   2.110  15.834 -0.8398 -0.4708  0.5321
 9356SOL    HW239528   3.036   2.059  15.701  0.6697 -0.6465 -1.1259
 9357SOL     OW39529   0.251   2.463   9.247 -0.2021 -0.2845 -0.3238
 9357SOL    HW139530   0.324   2.517   9.217  0.2824 -1.3768 -1.0858
 9357SOL    HW239531   0.270   2.459   9.341 -0.4095 -0.9779 -0.3174
 9358SOL     OW39532   2.248   1.576   9.118  0.0805 -0.3563 -0.3484
 9358SOL    HW139533   2.200   1.587   9.036 -0.3681 -0.0073 -0.0363
 9358SOL    HW239534   2.187   1.610   9.183 -0.5844  0.2971 -1.3200
 9359SOL     OW39535   4.630   4.135   6.183  0.1862  0.4145 -0.0163
 9359SOL    HW139536   4.603   4.226   6.177  2.0250  0.9380 -0.3922
 9359SOL    HW239537   4.550   4.099   6.222 -0.3078  1.4478 -0.0917
 9360SOL     OW39538   3.126   0.778  16.988 -0.3648 -0.2934 -0.4448
 9360SOL    HW139539   3.115   0.691  16.949 -1.6109  0.8174 -2.5883
 9360SOL    HW239540   3.065   0.787  17.061  0.7085 -1.6501  0.6215
 9361SOL     OW39541   3.768   1.926  11.136  0.2995 -0.2838  0.2307
 9361SOL    HW139542   3.674   1.926  11.153  0.2512 -1.2347 -0.0418
 9361SOL    HW239543   3.778   1.832  11.123  1.2633 -0.0107 -1.0911
 9362SOL     OW39544   1.380   4.031  14.557  0.3219  0.1411 -0.6465
 9362SOL    HW139545   1.392   3.947  14.603  0.1502  0.4112 -0.1064
 9362SOL    HW239546   1.311   3.999  14.499 -2.2461  4.4314  0.0532
 9363SOL     OW39547   4.051   0.304   2.087 -0.2285 -0.5499 -0.0778
 9363SOL    HW139548   4.109   0.373   2.054  0.4722 -0.8410  0.5372
 9363SOL    HW239549   4.012   0.267   2.008  0.8944 -1.3475 -0.2601
 9364SOL     OW39550   3.557   0.803  10.612 -0.0139 -0.1858  0.0677
 9364SOL    HW139551   3.534   0.715  10.643  0.0084 -0.9952 -2.2026
 9364SOL    HW239552   3.575   0.791  10.519 -0.1805  2.2350 -0.2522
 9365SOL     OW39553   3.713   3.792   6.283  0.2941 -0.1890 -0.1483
 9365SOL    HW139554   3.739   3.719   6.340  0.3034  0.7681  1.0845
 9365SOL    HW239555   3.726   3.872   6.335  1.8682 -1.2235  1.0879
 9366SOL     OW39556   4.535   3.029  11.730 -0.1235  0.0932  0.2638
 9366SOL    HW139557   4.573   3.116  11.737  0.2834 -0.1537  1.1629
 9366SOL    HW239558   4.524   3.001  11.821 -0.1988 -0.5953  0.0419
 9367SOL     OW39559   2.354   2.962   2.907  0.3125 -0.3485 -0.0405
 9367SOL    HW139560   2.346   2.949   2.812  2.6847 -1.3172 -0.1241
 9367SOL    HW239561   2.330   3.054   2.912  2.6603  0.2749 -0.0466
 9368SOL     OW39562   2.443   0.869  11.831 -0.3138 -0.4963  0.3647
 9368SOL    HW139563   2.470   0.809  11.901 -3.4887 -0.3274  1.7421
 9368SOL    HW239564   2.414   0.945  11.880 -3.0101 -0.6183 -1.0136
 9369SOL     OW39565   0.324   3.720   9.353 -0.0463  0.1989  0.7903
 9369SOL    HW139566   0.337   3.647   9.414 -1.5067 -1.2936 -0.6987
 9369SOL    HW239567   0.229   3.711   9.343 -0.1215  1.5901  0.3521
 9370SOL     OW39568   4.290   3.936   9.383 -0.3483 -0.0168  0.0168
 9370SOL    HW139569   4.258   3.905   9.469 -2.2156  1.8244 -0.0008
 9370SOL    HW239570   4.214   3.911   9.330  0.8949 -1.7027 -0.9288
 9371SOL     OW39571   2.584   0.360   6.240  0.5009 -0.4901 -0.3807
 9371SOL    HW139572   2.531   0.415   6.182 -0.7812 -0.0539  1.1886
 9371SOL    HW239573   2.633   0.433   6.278 -2.0733  0.2683  1.5040
 9372SOL     OW39574   0.357   0.711   2.036  0.0024  0.3340 -0.6519
 9372SOL    HW139575   0.417   0.665   1.978 -2.3516 -3.0522 -0.3601
 9372SOL    HW239576   0.331   0.784   1.979 -2.0183  0.0191 -0.1361
 9373SOL     OW39577   1.444   0.332   0.679  0.1632  0.1312 -0.1498
 9373SOL    HW139578   1.466   0.416   0.718 -1.8190 -0.2138  1.6805
 9373SOL    HW239579   1.379   0.302   0.742  1.4923 -0.5700  0.9016
 9374SOL     OW39580   3.917   2.755   4.492  0.2149 -0.3308  0.1982
 9374SOL    HW139581   3.928   2.788   4.403 -1.6006 -1.2062 -0.3499
 9374SOL    HW239582   3.822   2.742   4.501 -0.1401  0.4400 -2.6508
 9375SOL     OW39583   4.421   3.230  13.546  0.0164  0.7498  0.2382
 9375SOL    HW139584   4.339   3.237  13.497 -1.4705 -1.6570  2.4534
 9375SOL    HW239585   4.404   3.283  13.623  1.2218  0.2437  0.8526
 9376SOL     OW39586   2.035   1.116   6.322  0.1355 -0.4025 -0.0056
 9376SOL    HW139587   2.013   1.194   6.271  1.0963 -0.1564 -0.0471
 9376SOL    HW239588   2.131   1.120   6.322  0.1998 -1.8468 -1.8952
 9377SOL     OW39589   3.803   1.318   4.875  0.1814 -0.1612  0.3147
 9377SOL    HW139590   3.742   1.387   4.850  0.1095 -1.1621 -2.2752
 9377SOL    HW239591   3.829   1.348   4.962  0.4131  3.1083 -0.9064
 9378SOL     OW39592   0.069   1.430   5.682 -0.1430  0.0699  0.0333
 9378SOL    HW139593   0.153   1.422   5.636 -0.7310 -0.4307 -0.9470
 9378SOL    HW239594   0.027   1.352   5.647 -0.1295 -0.8621  2.0823
 9379SOL     OW39595   4.681   3.844   3.809  0.2058  0.3982  0.4410
 9379SOL    HW139596   4.687   3.891   3.726 -1.0467  0.1460  0.2190
 9379SOL    HW239597   0.035   3.890   3.846 -0.1908  1.6270 -0.2563
 9380SOL     OW39598   2.757   4.478  10.273  0.2343  0.3082 -0.3160
 9380SOL    HW139599   2.814   4.524  10.211  1.7590 -0.0640  0.7907
 9380SOL    HW239600   2.672   4.521  10.267 -1.0614 -2.3604 -0.7839
 9381SOL     OW39601   4.179   0.829   5.410 -0.3947  0.1756  0.2805
 9381SOL    HW139602   4.146   0.740   5.422  0.8812 -0.3250  0.0736
 9381SOL    HW239603   4.222   0.838   5.496 -0.8669 -1.1146  0.6493
 9382SOL     OW39604   1.938   3.944   1.828 -0.0741 -0.0307  0.2597
 9382SOL    HW139605   1.950   3.866   1.775  1.0206  0.7268 -0.6333
 9382SOL    HW239606   1.902   3.908   1.909 -0.4981  0.3418  0.2355
 9383SOL     OW39607   0.434   2.525   0.466  0.2346 -0.3445 -0.1148
 9383SOL    HW139608   0.447   2.449   0.408  0.0043 -1.7601  1.6934
 9383SOL    HW239609   0.338   2.523   0.466  0.2260  0.1678  1.4740
 9384SOL     OW39610   3.864   2.296  15.802  0.1590 -0.4340  0.0909
 9384SOL    HW139611   3.936   2.246  15.764  0.3813  0.5916 -0.8456
 9384SOL    HW239612   3.855   2.245  15.883  2.4243 -0.1356  0.5379
 9385SOL     OW39613   3.663   2.875   2.443  0.8577 -0.3438  0.1263
 9385SOL    HW139614   3.728   2.807   2.428 -1.1363 -1.9647 -1.1280
 9385SOL    HW239615   3.717   2.951   2.420 -1.8132  1.7506  0.7169
 9386SOL     OW39616   4.610   0.669   5.881  0.1726  0.0465 -0.5420
 9386SOL    HW139617   4.590   0.621   5.800 -0.9296  0.9140 -0.7722
 9386SOL    HW239618   4.524   0.701   5.906 -0.0690 -1.8949  1.1103
 9387SOL     OW39619   4.301   0.877   8.464 -0.1539  0.3362 -0.1499
 9387SOL    HW139620   4.365   0.902   8.532  1.5073 -1.7259 -0.9406
 9387SOL    HW239621   4.240   0.946   8.492  0.4613 -0.0143  2.0799
 9388SOL     OW39622   2.517   0.783   3.595  0.1952 -0.1304  0.3159
 9388SOL    HW139623   2.461   0.782   3.673 -2.2763 -3.4609 -1.4490
 9388SOL    HW239624   2.472   0.845   3.539 -1.8205 -0.6236  1.3891
 9389SOL     OW39625   4.528   2.058   7.396 -0.3272  0.6232  0.2867
 9389SOL    HW139626   4.513   2.018   7.310  0.1447 -0.1650  0.5693
 9389SOL    HW239627   4.487   2.143   7.381  1.4002  1.4493  0.3321
 9390SOL     OW39628   1.911   0.715  13.593  0.3956  0.6861 -0.4461
 9390SOL    HW139629   2.005   0.705  13.585  0.5666  0.5157  1.7063
 9390SOL    HW239630   1.884   0.662  13.518 -0.7559  1.6076 -0.6865
 9391SOL     OW39631   2.812   0.329   7.378 -0.5737  0.1714  0.3961
 9391SOL    HW139632   2.833   0.294   7.292 -3.8594 -0.8824  0.0095
 9391SOL    HW239633   2.717   0.335   7.387 -0.6177 -0.6489  0.5071
 9392SOL     OW39634   3.087   1.686   7.317  0.4596  0.0821 -0.5085
 9392SOL    HW139635   3.125   1.769   7.343  1.8597 -0.8852  0.4995
 9392SOL    HW239636   3.023   1.698   7.247  1.3696 -0.8182 -1.4908
 9393SOL     OW39637   1.784   4.719   1.424 -0.0845  1.0617 -0.3765
 9393SOL    HW139638   1.814   0.038   1.343  0.9238 -1.3228 -1.2344
 9393SOL    HW239639   1.710   0.048   1.452 -2.5004 -2.1524 -0.8213
 9394SOL     OW39640   4.669   1.235  15.793  0.1316  0.0130  0.4264
 9394SOL    HW139641   4.599   1.172  15.776 -0.7269  1.4627 -1.2960
 9394SOL    HW239642   0.014   1.192  15.846  0.8374 -0.0734 -0.5511
 9395SOL     OW39643   2.900   3.312   4.153  0.4582 -0.1133 -0.1121
 9395SOL    HW139644   2.987   3.319   4.191  1.0392  2.0776 -1.8251
 9395SOL    HW239645   2.861   3.388   4.196  1.2125  0.4602 -0.4493
 9396SOL     OW39646   4.372   1.723  10.846 -0.3523 -0.5321 -0.1419
 9396SOL    HW139647   4.364   1.817  10.829 -0.8643 -0.5108  0.2313
 9396SOL    HW239648   4.288   1.715  10.892  0.2457 -1.5057  0.7820
 9397SOL     OW39649   0.801   4.210   5.769 -0.2829 -0.0142 -0.7020
 9397SOL    HW139650   0.809   4.306   5.769 -0.0304 -0.0512  1.2688
 9397SOL    HW239651   0.747   4.190   5.844  3.4659 -1.6009  1.5531
 9398SOL     OW39652   0.020   2.477   3.010 -0.1572 -0.0480 -0.4543
 9398SOL    HW139653   4.655   2.514   3.022 -0.2583  0.4613 -2.8290
 9398SOL    HW239654   0.004   2.390   3.045 -1.2587 -0.1971 -1.3254
 9399SOL     OW39655   0.984   1.035   7.808 -0.6187 -0.0085 -0.0083
 9399SOL    HW139656   1.044   1.045   7.883  0.3374 -0.9359 -0.6541
 9399SOL    HW239657   0.907   1.022   7.863 -1.3227  1.0207 -0.7475
 9400SOL     OW39658   3.359   2.394   7.429 -0.2539  0.2070 -0.1069
 9400SOL    HW139659   3.301   2.362   7.360  1.5069 -1.2436 -0.9132
 9400SOL    HW239660   3.423   2.324   7.434 -1.0048 -0.5511 -1.0777
 9401SOL     OW39661   1.571   3.813   2.759  0.2670  0.1369  0.1488
 9401SOL    HW139662   1.596   3.775   2.674  1.7638 -0.4027  0.8311
 9401SOL    HW239663   1.657   3.833   2.796 -0.4218 -0.7255  2.2307
 9402SOL     OW39664   0.048   3.851   5.661  0.3730  0.3797  0.1008
 9402SOL    HW139665   0.096   3.874   5.581  2.3799 -1.0818  0.8894
 9402SOL    HW239666   0.011   3.933   5.695 -0.7895 -0.2756  0.4105
 9403SOL     OW39667   0.179   4.131   4.126  0.3914 -0.5075  0.0005
 9403SOL    HW139668   0.218   4.064   4.183 -0.8601 -1.1549  0.1037
 9403SOL    HW239669   0.104   4.167   4.173 -1.3402 -2.0870 -1.5114
 9404SOL     OW39670   1.563   3.326   5.099 -0.3289  0.0572  0.5517
 9404SOL    HW139671   1.483   3.317   5.047 -0.9561  0.1351  1.5048
 9404SOL    HW239672   1.535   3.278   5.177 -3.7552  3.3954  1.3827
 9405SOL     OW39673   4.342   4.407   2.507 -0.7353  0.3160 -0.0180
 9405SOL    HW139674   4.356   4.314   2.488 -1.9337 -0.2372  1.7687
 9405SOL    HW239675   4.428   4.422   2.547 -0.7791 -0.7722  0.4886
 9406SOL     OW39676   3.025   2.213  16.455  0.3593 -0.4255 -0.2052
 9406SOL    HW139677   2.966   2.153  16.409  1.9674 -3.2149  1.3908
 9406SOL    HW239678   3.099   2.212  16.394  1.7901  0.5276  1.5147
 9407SOL     OW39679   4.347   3.053  13.298 -0.5010  0.0868  0.6328
 9407SOL    HW139680   4.266   3.078  13.343 -1.0731  1.9379 -1.3960
 9407SOL    HW239681   4.319   3.007  13.219 -0.2729 -1.0500  1.2181
 9408SOL     OW39682   1.176   1.821   1.274  0.0755 -0.2265 -0.0148
 9408SOL    HW139683   1.121   1.778   1.209  0.8425 -0.9474 -0.1850
 9408SOL    HW239684   1.122   1.901   1.275 -3.4703 -2.5993 -0.0580
 9409SOL     OW39685   3.944   0.160  13.139 -0.0793  0.4508 -0.4435
 9409SOL    HW139686   4.025   0.118  13.167 -0.2721 -0.1098 -0.7193
 9409SOL    HW239687   3.952   0.137  13.046  2.8559 -0.3084 -0.0033
 9410SOL     OW39688   1.314   4.385   3.147 -0.2548  0.0257 -0.3047
 9410SOL    HW139689   1.220   4.368   3.142 -0.1157  0.6485 -4.7993
 9410SOL    HW239690   1.332   4.472   3.113  0.2277  0.6350  1.5277
 9411SOL     OW39691   4.037   3.848  15.923  0.3814  0.4491  0.5033
 9411SOL    HW139692   4.059   3.784  15.855  1.1139  0.3061  0.8822
 9411SOL    HW239693   3.967   3.802  15.969 -0.6696  1.9768  0.4357
 9412SOL     OW39694   4.336   3.529   7.773 -0.3438  0.0908  0.1193
 9412SOL    HW139695   4.259   3.556   7.722 -0.0290  0.6169 -0.0904
 9412SOL    HW239696   4.303   3.440   7.761 -0.1268 -0.2626  2.2708
 9413SOL     OW39697   2.866   3.965  15.874  0.8925  0.1841  0.5512
 9413SOL    HW139698   2.786   3.949  15.925  0.1998 -1.8853 -1.2129
 9413SOL    HW239699   2.886   3.875  15.850 -0.3668  0.1795 -0.5288
 9414SOL     OW39700   1.279   4.522   7.967  0.4410  0.1512 -0.3753
 9414SOL    HW139701   1.224   4.504   8.043  1.0147  0.5625  0.1412
 9414SOL    HW239702   1.254   4.454   7.906 -0.4579  1.1138 -1.0788
 9415SOL     OW39703   2.184   3.040   1.681  0.2858  0.0862  0.0944
 9415SOL    HW139704   2.147   3.072   1.598  0.2876 -0.0559  0.0393
 9415SOL    HW239705   2.156   2.949   1.689 -0.6117  0.0517 -3.3213
 9416SOL     OW39706   2.867   1.769   3.106 -0.4666  0.0932  0.1803
 9416SOL    HW139707   2.791   1.799   3.056  0.0800  0.9467 -0.1356
 9416SOL    HW239708   2.935   1.763   3.039  0.2293  2.4663  0.6938
 9417SOL     OW39709   3.064   1.814   2.497 -0.2841  0.1535 -0.4181
 9417SOL    HW139710   3.096   1.884   2.552 -0.1939  0.7051 -1.1797
 9417SOL    HW239711   2.998   1.772   2.553 -0.2167 -1.3003 -1.4122
 9418SOL     OW39712   3.982   2.802   3.471 -0.1956  0.1629 -0.1447
 9418SOL    HW139713   3.958   2.710   3.458  2.8859 -0.5265 -0.7676
 9418SOL    HW239714   3.968   2.834   3.382  1.3400  0.1365 -0.3818
 9419SOL     OW39715   3.168   4.501   5.795  0.2507  0.0354  0.4863
 9419SOL    HW139716   3.184   4.467   5.707 -0.5725 -1.2835  0.8423
 9419SOL    HW239717   3.077   4.530   5.791  0.2693 -0.0258 -0.3970
 9420SOL     OW39718   4.147   2.543  15.194 -0.8439 -0.2644  0.2595
 9420SOL    HW139719   4.067   2.560  15.144  0.3452  0.0611 -1.5219
 9420SOL    HW239720   4.101   2.549  15.278 -0.6563  2.2881  0.1787
 9421SOL     OW39721   0.680   4.215   5.258 -0.3333  0.3346  0.0528
 9421SOL    HW139722   0.679   4.308   5.239  1.5546  0.7856  2.1868
 9421SOL    HW239723   0.623   4.207   5.336  0.3806  3.0423  0.8288
 9422SOL     OW39724   0.239   1.331   6.749 -0.2997 -0.1730  0.3288
 9422SOL    HW139725   0.232   1.375   6.664  1.0895 -1.4024 -0.4376
 9422SOL    HW239726   0.221   1.400   6.813 -3.4372 -0.4574 -0.2344
 9423SOL     OW39727   1.580   2.380   5.400  0.4610 -0.2782  0.6193
 9423SOL    HW139728   1.645   2.451   5.398  0.0226  0.1264  0.8625
 9423SOL    HW239729   1.645   2.321   5.438  1.1786 -0.6495 -1.2282
 9424SOL     OW39730   1.205   2.382   8.615 -0.1255 -0.1761  0.2312
 9424SOL    HW139731   1.170   2.440   8.547  2.9243  0.7589 -0.5086
 9424SOL    HW239732   1.133   2.318   8.609 -1.7393  1.7199 -0.9249
 9425SOL     OW39733   1.069   3.463   3.279  0.0316  0.0064 -0.1078
 9425SOL    HW139734   0.993   3.405   3.290 -0.4353  0.3483 -1.5725
 9425SOL    HW239735   1.033   3.536   3.228  0.6087  1.6023  1.7624
 9426SOL     OW39736   1.907   4.131   7.072 -0.1182 -0.0301  0.7682
 9426SOL    HW139737   1.930   4.112   7.163 -1.5690  2.1635  1.5832
 9426SOL    HW239738   1.972   4.075   7.030 -1.6467 -0.1853 -1.3824
 9427SOL     OW39739   0.769   0.906   7.031  0.0143 -0.1608  0.6327
 9427SOL    HW139740   0.675   0.909   7.048 -0.0615 -1.0142  0.3546
 9427SOL    HW239741   0.806   0.857   7.105  0.5304 -2.3157 -1.0444
 9428SOL     OW39742   2.424   1.933   5.033  0.5750  0.4237 -0.5127
 9428SOL    HW139743   2.391   1.861   5.088  2.2288  0.1280  0.0698
 9428SOL    HW239744   2.372   1.912   4.955  0.1778 -0.6810  0.0322
 9429SOL     OW39745   1.914   0.713   4.388  0.5738 -0.0110 -0.1574
 9429SOL    HW139746   1.941   0.642   4.447 -0.1500 -0.8689 -0.8609
 9429SOL    HW239747   1.899   0.674   4.302 -0.3044  0.2725 -0.1365
 9430SOL     OW39748   0.976   4.156   2.526  0.3003  0.2668 -0.3155
 9430SOL    HW139749   1.048   4.195   2.575  0.7483  0.5838 -1.2217
 9430SOL    HW239750   1.022   4.080   2.491 -0.2945 -0.6706  0.9426
 9431SOL     OW39751   3.158   2.380   5.055 -0.2471  0.2414 -0.4545
 9431SOL    HW139752   3.200   2.466   5.054  0.6016 -0.1452  1.7901
 9431SOL    HW239753   3.222   2.333   5.109  1.6099  0.0146 -2.8175
 9432SOL     OW39754   1.850   2.364   3.549  0.4198  0.0850 -0.1451
 9432SOL    HW139755   1.849   2.418   3.627 -0.0866  0.3706 -0.3497
 9432SOL    HW239756   1.762   2.370   3.514  0.6643  0.4717 -0.7003
 9433SOL     OW39757   4.344   0.777   5.948  0.1196  0.1773 -0.3049
 9433SOL    HW139758   4.301   0.704   5.992 -0.0815  0.2466 -0.3894
 9433SOL    HW239759   4.336   0.845   6.015 -0.6943  1.2298 -1.4655
 9434SOL     OW39760   1.768   1.270   9.196 -0.3937  0.1338  0.8987
 9434SOL    HW139761   1.675   1.294   9.198 -0.5123 -0.3104  0.7882
 9434SOL    HW239762   1.808   1.342   9.146 -0.4931 -1.0807 -0.9405
 9435SOL     OW39763   2.682   4.409   4.797  0.0537 -0.4650 -0.1825
 9435SOL    HW139764   2.674   4.496   4.758 -0.9263 -0.2391  0.5373
 9435SOL    HW239765   2.737   4.364   4.732 -0.7255 -1.3042 -0.2782
 9436SOL     OW39766   2.279   2.638   6.400  0.0809  0.0628 -0.7702
 9436SOL    HW139767   2.230   2.589   6.335 -0.0631 -1.5842  0.5640
 9436SOL    HW239768   2.204   2.650   6.458 -1.0765 -5.3398 -1.1282
 9437SOL     OW39769   3.452   1.376  13.649 -0.0464 -0.6503 -0.5204
 9437SOL    HW139770   3.442   1.355  13.556 -1.5234 -3.0959  0.1927
 9437SOL    HW239771   3.442   1.470  13.639  0.6779 -0.5840 -0.5988
 9438SOL     OW39772   4.575   3.118   4.854  0.7694 -0.7838 -0.2137
 9438SOL    HW139773   4.494   3.167   4.869  2.2062  1.1343  1.1380
 9438SOL    HW239774   4.619   3.162   4.782  0.9442  1.4223  1.2499
 9439SOL     OW39775   3.385   3.586   3.734 -0.7312 -0.4254  0.1325
 9439SOL    HW139776   3.294   3.591   3.703 -0.6623  0.2622  0.0391
 9439SOL    HW239777   3.402   3.679   3.748 -0.6104 -0.1027 -2.1857
 9440SOL     OW39778   0.309   0.350   7.737  0.2494 -0.1117  0.0744
 9440SOL    HW139779   0.382   0.383   7.684 -0.1773 -0.0434 -0.4724
 9440SOL    HW239780   0.237   0.384   7.685  0.3076  0.8754  0.6293
 9441SOL     OW39781   3.108   3.807   8.184 -0.5425  0.5744  0.5776
 9441SOL    HW139782   3.137   3.758   8.107 -1.3169 -0.6884  1.0797
 9441SOL    HW239783   3.017   3.815   8.155 -0.0339  1.8487 -0.6624
 9442SOL     OW39784   3.053   1.234   9.279  0.1051 -0.2225 -0.6024
 9442SOL    HW139785   3.029   1.156   9.229  0.3182 -1.5268  1.3806
 9442SOL    HW239786   3.148   1.225   9.293  0.1974  2.4508  0.4778
 9443SOL     OW39787   0.040   2.914  13.569 -0.3382 -0.0907  0.0016
 9443SOL    HW139788   0.114   2.974  13.574 -0.8225  0.4878  0.2970
 9443SOL    HW239789   4.704   2.960  13.509  0.1479  2.4856  1.5281
 9444SOL     OW39790   1.936   4.493  12.549 -0.1156  0.4731 -0.6295
 9444SOL    HW139791   2.030   4.473  12.543 -0.2566 -0.2894 -0.3639
 9444SOL    HW239792   1.907   4.434  12.619  1.2818  2.2599  1.4417
 9445SOL     OW39793   0.992   2.338  10.822  0.1707 -0.1652  0.1904
 9445SOL    HW139794   0.962   2.247  10.821 -1.1606  0.2580  0.5241
 9445SOL    HW239795   1.082   2.329  10.851  1.2923  2.1641 -2.6264
 9446SOL     OW39796   0.668   1.180   5.502  0.5014  0.6037  0.0400
 9446SOL    HW139797   0.755   1.210   5.474 -0.3868  2.9110 -0.1971
 9446SOL    HW239798   0.673   1.179   5.598  1.7832 -1.0664 -0.0349
 9447SOL     OW39799   4.384   3.437   3.501 -0.5800  0.4753 -0.0109
 9447SOL    HW139800   4.296   3.402   3.513 -0.0658 -1.0843 -0.7669
 9447SOL    HW239801   4.374   3.510   3.441  0.2142 -0.4109 -1.2237
 9448SOL     OW39802   3.610   0.652   7.719 -0.6618 -0.0228  0.4555
 9448SOL    HW139803   3.615   0.605   7.802  1.2614  0.5133  0.6374
 9448SOL    HW239804   3.542   0.715   7.744  0.4822  1.8585 -1.1897
 9449SOL     OW39805   3.652   0.569  14.864  0.3532  0.3100 -0.5087
 9449SOL    HW139806   3.738   0.565  14.822  0.9889  1.0688  0.7388
 9449SOL    HW239807   3.676   0.614  14.944 -0.7719  0.2529 -0.1295
 9450SOL     OW39808   3.118   2.782   7.375  0.1961 -0.0332 -0.2318
 9450SOL    HW139809   3.175   2.745   7.443 -1.0170  1.6504  1.6981
 9450SOL    HW239810   3.030   2.746   7.381 -0.5756  1.6245 -1.8620
 9451SOL     OW39811   4.542   0.697   3.369 -0.1492 -0.0945 -0.4935
 9451SOL    HW139812   4.500   0.688   3.454  0.5751 -0.0643 -0.1330
 9451SOL    HW239813   4.611   0.759   3.393 -1.7747  1.0220  1.2959
 9452SOL     OW39814   2.975   3.435  11.544 -0.1763  0.5483 -0.3682
 9452SOL    HW139815   3.049   3.457  11.488  1.2065 -1.2586  0.7512
 9452SOL    HW239816   2.941   3.357  11.501  0.8539  0.8353 -1.6997
 9453SOL     OW39817   0.381   1.826   6.042  0.1106  0.2249 -0.7560
 9453SOL    HW139818   0.356   1.870   6.123 -0.8765 -2.2310  0.2867
 9453SOL    HW239819   0.367   1.895   5.978 -2.4360  0.6734  0.2811
 9454SOL     OW39820   2.280   3.085  14.890 -0.0730 -0.2094  0.4374
 9454SOL    HW139821   2.340   3.039  14.949 -1.6672 -2.4459  0.3365
 9454SOL    HW239822   2.337   3.152  14.854 -0.2107 -0.2136  0.2121
 9455SOL     OW39823   4.006   0.124   9.197  1.0469  0.4286  0.0808
 9455SOL    HW139824   3.988   0.215   9.174 -1.3398 -0.2062 -0.5090
 9455SOL    HW239825   4.010   0.110   9.292  0.2906  0.7064  0.1490
 9456SOL     OW39826   3.842   3.387  15.777  0.7536 -0.1987  0.1884
 9456SOL    HW139827   3.864   3.357  15.688  1.4247 -1.7288  0.8730
 9456SOL    HW239828   3.930   3.413  15.806  0.0883  0.5235  1.5072
 9457SOL     OW39829   3.878   3.840   9.025  0.2011 -0.0305  0.5824
 9457SOL    HW139830   3.857   3.749   9.047  0.1953 -0.1532  0.0742
 9457SOL    HW239831   3.823   3.890   9.086 -1.6470 -0.7725 -0.4740
 9458SOL     OW39832   2.205   4.610   4.942  0.5560  0.7429 -0.8404
 9458SOL    HW139833   2.277   4.550   4.959 -0.9510 -1.5097 -2.4295
 9458SOL    HW239834   2.244   4.692   4.973  1.2224  0.3686 -0.7023
 9459SOL     OW39835   2.759   2.429   3.345  0.3933  0.7576 -0.4007
 9459SOL    HW139836   2.682   2.373   3.356 -1.1038  2.9246  0.0018
 9459SOL    HW239837   2.824   2.359   3.334  1.1215  1.1792  1.2615
 9460SOL     OW39838   1.551   3.830   4.838  0.1265  0.0527  0.5780
 9460SOL    HW139839   1.640   3.864   4.831  1.3232 -3.3114 -0.5032
 9460SOL    HW239840   1.504   3.871   4.765  0.4513 -1.0294 -0.2369
 9461SOL     OW39841   1.423   3.046   2.450 -1.2265  0.9146 -0.0287
 9461SOL    HW139842   1.428   3.045   2.354 -1.0020  0.1858 -0.0135
 9461SOL    HW239843   1.448   3.137   2.462  0.7560  0.0851  2.0684
 9462SOL     OW39844   3.749   4.169   8.919 -0.1440  0.5786  0.1757
 9462SOL    HW139845   3.694   4.126   8.984 -0.3636 -0.3131 -0.5991
 9462SOL    HW239846   3.820   4.203   8.973  0.2058  0.0024  0.0805
 9463SOL     OW39847   0.257   3.975   3.741  0.4198 -0.0696  0.0290
 9463SOL    HW139848   0.206   4.046   3.779 -0.3272 -0.5960  0.0052
 9463SOL    HW239849   0.218   3.980   3.654  0.7406  0.3716 -0.0888
 9464SOL     OW39850   3.913   3.701  12.958  0.3708 -0.1388  0.3590
 9464SOL    HW139851   3.953   3.763  12.897 -1.5645  0.0430 -0.7267
 9464SOL    HW239852   3.918   3.624  12.901  0.8673 -1.2393  1.8884
 9465SOL     OW39853   2.829   3.782   3.613 -0.3538  0.5770  0.0876
 9465SOL    HW139854   2.892   3.734   3.559 -0.5506  1.2299 -0.7368
 9465SOL    HW239855   2.765   3.720   3.649  0.0350  0.9275  1.3719
 9466SOL     OW39856   4.693   0.650   7.437 -0.0698 -0.2526 -0.3320
 9466SOL    HW139857   4.600   0.633   7.450  0.3110 -3.0706 -1.3599
 9466SOL    HW239858   4.690   0.741   7.408 -1.1404 -0.4457 -0.8224
 9467SOL     OW39859   0.100   1.820   4.193  0.1691 -0.5324  0.0761
 9467SOL    HW139860   0.157   1.789   4.122 -0.2513 -0.8641 -0.1158
 9467SOL    HW239861   0.164   1.838   4.263  0.8962  1.6101 -1.1238
 9468SOL     OW39862   1.930   2.580   8.541 -0.2321  0.3414  0.2029
 9468SOL    HW139863   2.019   2.566   8.509  0.4414  0.4775  2.0272
 9468SOL    HW239864   1.931   2.653   8.603  2.7943  2.7468 -2.6346
 9469SOL     OW39865   1.615   3.596   8.340  0.0754 -0.7834 -0.0751
 9469SOL    HW139866   1.639   3.679   8.299 -0.0505  0.9321  3.3812
 9469SOL    HW239867   1.683   3.551   8.289  0.7407  0.8936 -0.6572
 9470SOL     OW39868   2.680   0.892  14.399 -0.5626  0.6581 -0.5651
 9470SOL    HW139869   2.730   0.830  14.346 -0.2826 -0.5306  1.0830
 9470SOL    HW239870   2.743   0.964  14.402 -2.2479  2.2550 -4.1039
 9471SOL     OW39871   3.780   2.823   3.742  0.5221  0.1623  0.2778
 9471SOL    HW139872   3.850   2.827   3.676  0.2363  1.1988  0.0402
 9471SOL    HW239873   3.815   2.756   3.801  0.4831  2.0894  2.4526
 9472SOL     OW39874   4.428   4.121   8.259  0.2673 -0.0188  0.5023
 9472SOL    HW139875   4.463   4.068   8.330  0.7922 -0.3617 -0.0124
 9472SOL    HW239876   4.364   4.059   8.223 -2.8119  3.2799  0.2459
 9473SOL     OW39877   3.606   3.796   8.900  0.7400  0.0077  0.3461
 9473SOL    HW139878   3.685   3.802   8.953  1.0480 -3.1357  0.2879
 9473SOL    HW239879   3.571   3.709   8.923  0.1379  0.6530  1.8654
 9474SOL     OW39880   2.061   0.612   6.462  0.9667 -0.2226 -0.1863
 9474SOL    HW139881   2.133   0.557   6.433  0.9319  0.1193 -0.9141
 9474SOL    HW239882   2.085   0.692   6.416 -0.0277 -0.3233 -0.8758
 9475SOL     OW39883   2.366   3.325  10.912 -0.2290 -0.7500 -0.3591
 9475SOL    HW139884   2.382   3.417  10.891 -1.2758 -0.2269  1.0992
 9475SOL    HW239885   2.270   3.328  10.919 -0.0795 -0.3331  1.5527
 9476SOL     OW39886   1.959   1.170   9.931 -0.0865  0.1155  0.0935
 9476SOL    HW139887   1.911   1.161   9.849  0.1736 -0.7731  0.0415
 9476SOL    HW239888   1.984   1.262   9.918  1.2150 -0.4547 -1.5026
 9477SOL     OW39889   0.363   1.408  11.548  0.5385  0.2675 -0.4273
 9477SOL    HW139890   0.272   1.411  11.577  0.6570  0.3306 -0.0611
 9477SOL    HW239891   0.348   1.391  11.455 -1.5773  0.2103 -0.0868
 9478SOL     OW39892   0.316   1.438  17.632  0.4108  0.3474  0.1859
 9478SOL    HW139893   0.324   1.482  17.547 -0.8950 -1.3231 -0.8160
 9478SOL    HW239894   0.220   1.435  17.634  0.3629  0.8764 -1.1003
 9479SOL     OW39895   1.070   1.181  15.351 -0.1161 -1.0158 -0.9079
 9479SOL    HW139896   1.080   1.156  15.259 -2.3108  0.3682 -1.5184
 9479SOL    HW239897   1.131   1.255  15.360  1.3787 -2.1154 -1.9555
 9480SOL     OW39898   3.750   2.818   5.013 -0.3887 -0.2702  0.1047
 9480SOL    HW139899   3.776   2.908   4.994 -1.0653  0.0959  0.9045
 9480SOL    HW239900   3.834   2.777   5.034 -0.1015 -0.8593 -2.2471
 9481SOL     OW39901   2.971   2.529   0.219  0.5764 -0.4462  0.3998
 9481SOL    HW139902   2.891   2.558   0.175  1.2969  0.0607 -0.5664
 9481SOL    HW239903   3.001   2.618   0.238  0.9846 -0.7192  1.0667
 9482SOL     OW39904   2.657   0.776   8.397 -0.1748 -0.2806 -0.3507
 9482SOL    HW139905   2.716   0.842   8.360 -1.4901  0.9533 -0.2239
 9482SOL    HW239906   2.685   0.773   8.489  1.6578 -3.0747 -1.0049
 9483SOL     OW39907   3.408   1.673  11.787  0.0585  0.6825  0.0573
 9483SOL    HW139908   3.408   1.602  11.851  3.4120  0.8269  0.1962
 9483SOL    HW239909   3.319   1.658  11.754 -0.6030  4.5571  0.0297
 9484SOL     OW39910   3.542   3.959  14.218 -0.2540  0.3580 -0.1879
 9484SOL    HW139911   3.609   3.973  14.285  1.4833  0.1442 -1.9031
 9484SOL    HW239912   3.475   3.962  14.287 -0.1287  0.2719 -0.0611
 9485SOL     OW39913   4.262   2.402   1.856  0.1320  0.3855 -0.0850
 9485SOL    HW139914   4.257   2.332   1.790  3.0523 -0.4447  0.5666
 9485SOL    HW239915   4.358   2.408   1.864  0.3018 -2.5932  0.1690
 9486SOL     OW39916   0.906   0.215   7.805 -0.4800 -0.4571 -0.4774
 9486SOL    HW139917   0.901   0.157   7.881 -2.3234 -0.6671 -0.7547
 9486SOL    HW239918   0.900   0.293   7.860  1.0142  0.5385 -1.7376
 9487SOL     OW39919   0.636   4.427   5.108  0.0618  0.4587 -0.6704
 9487SOL    HW139920   0.577   4.502   5.116 -2.7283 -1.8977  0.5400
 9487SOL    HW239921   0.709   4.464   5.059  0.5192 -1.0175 -1.1174
 9488SOL     OW39922   4.003   4.152   5.034 -0.0291  0.7284  0.1080
 9488SOL    HW139923   3.920   4.142   5.082 -0.4171 -0.2019 -0.7602
 9488SOL    HW239924   3.999   4.077   4.975 -0.0360 -0.4179  1.5462
 9489SOL     OW39925   1.988   0.989  14.212  0.4621 -0.0835  0.3212
 9489SOL    HW139926   1.959   1.060  14.269  0.4254 -0.5216  0.8453
 9489SOL    HW239927   1.979   1.017  14.121  0.2365  0.3187  0.4678
 9490SOL     OW39928   1.008   3.422  10.304  0.2374  0.0869 -0.2948
 9490SOL    HW139929   0.959   3.409  10.223 -0.0005 -0.6714 -0.0295
 9490SOL    HW239930   0.990   3.342  10.354  0.0648 -0.1053 -0.6707
 9491SOL     OW39931   0.322   3.135   3.447  0.0319 -0.2475 -0.7948
 9491SOL    HW139932   0.246   3.161   3.394 -0.6767  0.5545  0.6145
 9491SOL    HW239933   0.334   3.207   3.509 -2.7745  0.1079 -0.6716
 9492SOL     OW39934   0.036   1.993  10.673 -0.4457  0.6347  0.3287
 9492SOL    HW139935   0.028   1.908  10.631  1.7300  0.9222 -0.6500
 9492SOL    HW239936   0.020   1.968  10.764 -2.1893  2.1263  0.4440
 9493SOL     OW39937   0.021   2.726   2.681  0.3211  0.1767 -0.0767
 9493SOL    HW139938   4.722   2.806   2.633 -1.1996 -0.3187 -0.2071
 9493SOL    HW239939   4.680   2.665   2.645 -1.1162  0.1568  2.4756
 9494SOL     OW39940   4.522   4.543   4.843 -0.8654  0.0034 -0.6597
 9494SOL    HW139941   4.486   4.595   4.915 -0.3919  0.2344 -0.5931
 9494SOL    HW239942   4.525   4.600   4.767  0.8134  1.2347  0.3233
 9495SOL     OW39943   0.616   2.838   3.173  0.1527  0.4217  0.1081
 9495SOL    HW139944   0.642   2.908   3.232  0.7974 -0.6986  1.1466
 9495SOL    HW239945   0.610   2.892   3.094 -3.6086  0.1109  0.1700
 9496SOL     OW39946   3.307   2.661  13.917  0.0331 -0.3588 -0.0463
 9496SOL    HW139947   3.280   2.578  13.956 -1.4941  0.2914  0.2509
 9496SOL    HW239948   3.368   2.697  13.981 -0.2065 -0.3830  0.1956
 9497SOL     OW39949   3.582   0.182   3.720 -0.2450  0.6496 -0.2531
 9497SOL    HW139950   3.632   0.246   3.669  1.5793 -0.7391 -0.2358
 9497SOL    HW239951   3.558   0.122   3.649  0.5149  0.2066 -0.1334
 9498SOL     OW39952   4.107   3.851   2.524 -0.7940 -0.0532  1.0735
 9498SOL    HW139953   4.164   3.928   2.528 -0.3034 -0.2688 -1.7849
 9498SOL    HW239954   4.035   3.877   2.467  1.0292  0.5133 -0.9550
 9499SOL     OW39955   2.986   0.054   7.626 -0.0198 -0.2480  0.3202
 9499SOL    HW139956   2.921   4.712   7.598 -0.6445  0.9621 -1.0491
 9499SOL    HW239957   2.932   0.128   7.654  1.2279  1.3497 -1.4558
 9500SOL     OW39958   1.871   4.317   1.130 -0.4314  0.0069  0.2170
 9500SOL    HW139959   1.911   4.272   1.205 -0.3554 -0.9547 -0.3942
 9500SOL    HW239960   1.801   4.368   1.171 -1.0307 -0.9739  0.4217
 9501SOL     OW39961   1.160   3.551   8.835 -0.5083  0.4072  0.5476
 9501SOL    HW139962   1.186   3.583   8.921 -0.0786 -0.5518  0.7804
 9501SOL    HW239963   1.148   3.459   8.861 -0.1612  0.0604 -0.5293
 9502SOL     OW39964   0.554   2.351   0.082 -0.1976 -0.0512  0.2162
 9502SOL    HW139965   0.641   2.316   0.062  0.1115  0.0916  1.2913
 9502SOL    HW239966   0.519   2.328  17.689  0.0769  1.0603 -0.1922
 9503SOL     OW39967   1.784   1.849   0.847 -0.1778 -0.7219 -0.3394
 9503SOL    HW139968   1.694   1.879   0.860 -0.4184 -2.0274  1.0908
 9503SOL    HW239969   1.784   1.838   0.752  3.7143 -0.1234 -0.3975
 9504SOL     OW39970   4.006   4.531   5.172  0.1019  0.4759 -0.2299
 9504SOL    HW139971   4.060   4.535   5.093 -0.1482  0.7999 -0.3822
 9504SOL    HW239972   4.062   4.463   5.211  0.7915  1.0572 -0.1997
 9505SOL     OW39973   1.155   3.241   6.848 -0.7364  0.0312 -0.5194
 9505SOL    HW139974   1.065   3.214   6.832 -0.4033 -2.2185  1.4744
 9505SOL    HW239975   1.142   3.315   6.907  1.8373 -1.2278  1.6556
 9506SOL     OW39976   4.646   1.654  11.673 -0.6306  0.1015 -0.2575
 9506SOL    HW139977   0.011   1.615  11.681 -0.5362  0.4286  0.2713
 9506SOL    HW239978   4.617   1.600  11.599  0.9074  0.4940 -1.1641
 9507SOL     OW39979   3.879   4.678   7.461 -0.6431  0.0858  0.2148
 9507SOL    HW139980   3.894   4.635   7.545  0.0587  0.2152  0.1493
 9507SOL    HW239981   3.966   4.709   7.436 -1.7738  1.7905 -1.6141
 9508SOL     OW39982   2.634   3.796   5.791  0.5188  0.2278 -0.1590
 9508SOL    HW139983   2.579   3.718   5.801  2.1614 -1.0784 -1.3152
 9508SOL    HW239984   2.597   3.838   5.713  0.1140  1.7579  0.8617
 9509SOL     OW39985   3.983   1.789   3.470 -0.2840 -0.0434 -0.1841
 9509SOL    HW139986   4.018   1.742   3.394 -2.4519  0.8855 -1.7590
 9509SOL    HW239987   4.043   1.862   3.481 -0.5414 -0.0396  1.1731
 9510SOL     OW39988   4.321   2.131   4.335 -0.5930  0.2062  0.4027
 9510SOL    HW139989   4.397   2.114   4.279 -0.5515 -0.7105  0.7332
 9510SOL    HW239990   4.253   2.152   4.272 -0.6329  1.3197  0.8068
 9511SOL     OW39991   0.239   3.368   7.975 -0.5262  0.2691  0.0434
 9511SOL    HW139992   0.156   3.354   7.929  0.7264 -0.8390 -1.8690
 9511SOL    HW239993   0.274   3.280   7.982  0.5828  0.6846 -0.2477
 9512SOL     OW39994   3.259   1.692   6.509  0.0127 -0.2819  0.1284
 9512SOL    HW139995   3.207   1.723   6.583 -1.0542 -0.0024 -0.7273
 9512SOL    HW239996   3.250   1.597   6.507 -1.3657 -0.1756  1.6343
 9513SOL     OW39997   4.197   4.107   5.590 -0.5458 -0.7584  0.1491
 9513SOL    HW139998   4.161   4.019   5.581 -0.8577 -0.7302  1.1332
 9513SOL    HW239999   4.272   4.094   5.532  0.2433  2.2588  0.4755
 9514SOL     OW40000   4.023   0.408   7.385  0.3307  0.3242  0.1816
 9514SOL    HW140001   4.002   0.364   7.468 -0.2224 -0.9502 -0.6383
 9514SOL    HW240002   3.962   0.482   7.392 -0.5148 -0.3188 -0.4728
 9515SOL     OW40003   3.347   1.889  16.737 -0.6562  0.0748  0.4080
 9515SOL    HW140004   3.326   1.961  16.677  1.7049  0.1832 -0.2637
 9515SOL    HW240005   3.399   1.836  16.677  1.4540  0.1560  2.1884
 9516SOL     OW40006   2.036   4.038   7.293  0.7768  0.0727  0.1175
 9516SOL    HW140007   2.106   4.091   7.254  0.9422  0.3438  0.7832
 9516SOL    HW240008   2.086   4.008   7.369 -1.0300  2.2486  2.1277
 9517SOL     OW40009   3.640   1.928   3.812  0.7646  0.6880 -0.3195
 9517SOL    HW140010   3.721   1.883   3.789  0.6492  1.0022 -1.3589
 9517SOL    HW240011   3.582   1.852   3.820 -1.1559  2.2594  0.6831
 9518SOL     OW40012   3.102   0.475   5.776 -0.7628 -0.1296  1.0222
 9518SOL    HW140013   3.080   0.398   5.723  1.4598  0.6462 -1.0147
 9518SOL    HW240014   3.018   0.482   5.822 -0.5379 -0.4334  1.4771
 9519SOL     OW40015   1.730   0.011  12.172 -0.2409 -0.1820  0.1304
 9519SOL    HW140016   1.795   0.064  12.217  0.4381 -0.8748 -0.0482
 9519SOL    HW240017   1.681   4.699  12.246  1.4313  1.3766  1.9720
 9520SOL     OW40018   3.074   1.852   0.113 -0.1370 -0.1299 -0.1123
 9520SOL    HW140019   3.043   1.780   0.169 -1.1392  0.3468 -0.0581
 9520SOL    HW240020   3.157   1.826   0.071  0.4319  0.1193  0.8552
 9521SOL     OW40021   1.526   0.925   9.407 -0.0341  0.0896  0.3807
 9521SOL    HW140022   1.593   0.951   9.470  0.3236  0.9238 -0.3489
 9521SOL    HW240023   1.556   0.837   9.385 -3.6618 -1.4936  1.7162
 9522SOL     OW40024   1.655   0.857   5.775 -0.8756  0.0422  0.2452
 9522SOL    HW140025   1.576   0.906   5.751 -0.5791  0.0502 -0.7054
 9522SOL    HW240026   1.677   0.911   5.851  0.7044 -2.1694  1.3460
 9523SOL     OW40027   2.906   0.897  15.254  0.6743  0.4515 -0.1957
 9523SOL    HW140028   2.925   0.803  15.254 -0.2967  0.2516  1.0466
 9523SOL    HW240029   2.994   0.930  15.270  0.2728  0.7069  1.5121
 9524SOL     OW40030   2.262   0.811   8.467 -0.2822  0.1825 -0.1936
 9524SOL    HW140031   2.213   0.857   8.534  0.6460  0.5693  0.2181
 9524SOL    HW240032   2.231   0.720   8.471 -0.1826  0.0218 -2.5588
 9525SOL     OW40033   4.314   1.551   7.836 -0.1930 -0.5610 -0.1803
 9525SOL    HW140034   4.342   1.533   7.747 -2.2363 -0.7517 -0.7817
 9525SOL    HW240035   4.399   1.574   7.874 -0.4361  0.0347 -0.0110
 9526SOL     OW40036   1.519   4.266   2.124  0.3026  0.4944  0.1744
 9526SOL    HW140037   1.439   4.244   2.076 -0.7854  1.6414  1.4593
 9526SOL    HW240038   1.563   4.329   2.068 -0.2416 -0.2729 -1.1339
 9527SOL     OW40039   0.709   3.394  14.657 -0.2446  0.2918 -0.0932
 9527SOL    HW140040   0.756   3.394  14.574 -1.3361  2.9385 -0.6897
 9527SOL    HW240041   0.775   3.429  14.717  0.7928 -0.3425 -0.8486
 9528SOL     OW40042   1.252   1.600   9.399  0.1083 -0.1977  0.3269
 9528SOL    HW140043   1.205   1.662   9.455  0.4362  0.3249  0.0194
 9528SOL    HW240044   1.289   1.658   9.333  2.1814  1.1593  2.7302
 9529SOL     OW40045   4.703   1.449  12.922 -0.3514  0.3589  0.3326
 9529SOL    HW140046   4.676   1.538  12.944 -0.1846  0.5574 -0.2698
 9529SOL    HW240047   4.627   1.426  12.869 -0.8763 -0.7774  1.5894
 9530SOL     OW40048   2.862   0.190   1.623  0.9576  0.1010 -0.0144
 9530SOL    HW140049   2.834   0.209   1.712  1.2386 -0.2445  0.1462
 9530SOL    HW240050   2.828   0.267   1.577  1.1995  0.2561  0.0658
 9531SOL     OW40051   1.554   1.755  14.168  0.2329 -0.4924 -0.4645
 9531SOL    HW140052   1.472   1.737  14.213 -0.1330 -0.2014 -1.0131
 9531SOL    HW240053   1.545   1.708  14.085 -0.6752  1.6863 -1.5957
 9532SOL     OW40054   4.481   2.544   4.186  0.2678  0.0504 -0.1486
 9532SOL    HW140055   4.411   2.517   4.127 -1.8042  0.8737  1.9366
 9532SOL    HW240056   4.550   2.479   4.177  0.5526  0.5116 -1.4528
 9533SOL     OW40057   0.289   3.853  11.781  0.0641 -0.5495  0.7676
 9533SOL    HW140058   0.376   3.816  11.794  0.8789  0.8864 -0.5680
 9533SOL    HW240059   0.229   3.784  11.809  0.7862 -0.7161  1.9165
 9534SOL     OW40060   4.077   2.343   5.339  0.2593 -0.0747  0.5878
 9534SOL    HW140061   4.143   2.333   5.270  1.5679  1.2071  1.6284
 9534SOL    HW240062   4.132   2.340   5.418 -0.3726 -0.7560  0.9944
 9535SOL     OW40063   1.660   4.516   6.861 -0.1375 -0.0998 -0.0988
 9535SOL    HW140064   1.663   4.430   6.901 -1.6617  0.0956  0.4385
 9535SOL    HW240065   1.730   4.513   6.796  1.2863 -2.0440  1.5267
 9536SOL     OW40066   3.451   0.664  12.507 -0.0240  0.7776 -0.4320
 9536SOL    HW140067   3.499   0.586  12.479 -1.4860 -1.2476  2.6702
 9536SOL    HW240068   3.364   0.652  12.469  0.0360  0.2169 -0.3990
 9537SOL     OW40069   1.243   3.856   1.527  0.7763  0.1506  0.4433
 9537SOL    HW140070   1.214   3.802   1.600 -1.6220 -1.1566 -1.4822
 9537SOL    HW240071   1.230   3.792   1.457 -0.4677  0.0105  0.8009
 9538SOL     OW40072   2.430   2.153  11.571 -0.2983 -0.4434 -0.2914
 9538SOL    HW140073   2.405   2.239  11.538 -2.7308 -0.7425  0.7048
 9538SOL    HW240074   2.438   2.106  11.488 -1.9948  2.5362 -2.1649
 9539SOL     OW40075   0.866   0.865  13.126 -0.0064 -0.4053  0.4158
 9539SOL    HW140076   0.889   0.908  13.043  0.3594 -1.5725 -0.0964
 9539SOL    HW240077   0.954   0.843  13.159  1.2261 -0.2971 -2.7562
 9540SOL     OW40078   0.796   3.318   0.028 -1.1216 -0.3678  0.1175
 9540SOL    HW140079   0.701   3.320   0.030 -1.1378 -2.4392  1.5881
 9540SOL    HW240080   0.825   3.312  17.629 -2.6738 -1.7714 -0.2945
 9541SOL     OW40081   0.847   2.269   1.261 -0.2135  0.0334 -0.1242
 9541SOL    HW140082   0.856   2.353   1.307  1.8076  1.1047 -2.4998
 9541SOL    HW240083   0.787   2.306   1.196  0.3902  1.0673 -0.0974
 9542SOL     OW40084   2.015   4.276   8.545 -0.2013  0.1039 -0.3721
 9542SOL    HW140085   2.061   4.359   8.554  0.5582 -0.2816 -0.6496
 9542SOL    HW240086   2.048   4.228   8.621 -0.3721  3.8317  2.0432
 9543SOL     OW40087   1.118   3.098  14.279 -0.7532 -0.0160 -0.0725
 9543SOL    HW140088   1.079   3.013  14.300  1.5588 -1.0064  0.1623
 9543SOL    HW240089   1.077   3.155  14.344  0.4968  2.2317 -1.2471
 9544SOL     OW40090   0.888   1.577   5.289 -0.0905 -0.2369  0.2144
 9544SOL    HW140091   0.802   1.547   5.317 -0.5094 -0.6712 -1.6085
 9544SOL    HW240092   0.950   1.553   5.359 -1.1446 -1.4667  0.7204
 9545SOL     OW40093   1.394   4.147   4.952 -0.4719 -0.2168 -0.2503
 9545SOL    HW140094   1.476   4.123   4.997  0.3778 -0.3342 -1.8528
 9545SOL    HW240095   1.417   4.237   4.929  0.1590 -0.5701 -1.0002
 9546SOL     OW40096   0.680   1.138   7.554  0.1821  0.3454 -0.4472
 9546SOL    HW140097   0.608   1.196   7.578  0.8915  1.6065 -1.3562
 9546SOL    HW240098   0.675   1.054   7.599  1.8448  0.4692 -0.0412
 9547SOL     OW40099   0.723   3.904   6.061 -0.1666  0.2052 -0.0093
 9547SOL    HW140100   0.797   3.955   6.094 -1.8443  0.4055  3.5513
 9547SOL    HW240101   0.727   3.930   5.969 -0.9938 -4.0881 -1.2286
 9548SOL     OW40102   4.205   3.054   4.455 -0.5649  0.7412 -0.5880
 9548SOL    HW140103   4.154   3.056   4.536 -0.2105 -0.1094 -0.3458
 9548SOL    HW240104   4.199   2.968   4.414  0.5611 -0.0871  1.0212
 9549SOL     OW40105   4.377   0.194   8.010  0.9593  0.4153 -0.2908
 9549SOL    HW140106   4.464   0.156   7.992  1.1942  2.0684 -2.5791
 9549SOL    HW240107   4.364   0.269   7.953 -3.1298 -1.0814 -1.3227
 9550SOL     OW40108   1.084   0.438  10.300 -0.1886 -0.1636  0.2254
 9550SOL    HW140109   1.109   0.451  10.392  0.3291 -1.5212  0.2826
 9550SOL    HW240110   1.059   0.346  10.290 -0.7480  0.0405 -0.2308
 9551SOL     OW40111   3.792   1.955   9.986 -0.4949 -0.0822  0.2338
 9551SOL    HW140112   3.697   1.961   9.983 -0.2185  3.1540 -1.5758
 9551SOL    HW240113   3.802   1.862   9.963  2.0424  0.6074 -1.4910
 9552SOL     OW40114   0.059   1.181   5.276  0.1138  0.2747 -0.0666
 9552SOL    HW140115   0.127   1.170   5.342  0.4008  2.2673 -0.0231
 9552SOL    HW240116   0.028   1.266   5.310  1.1829  1.3685 -1.8399
 9553SOL     OW40117   4.421   3.098   0.277  0.7515 -0.0418  0.2328
 9553SOL    HW140118   4.444   3.182   0.318  0.8675  0.6875 -1.3611
 9553SOL    HW240119   4.326   3.100   0.290  0.5054 -0.4045 -1.5441
 9554SOL     OW40120   1.150   1.420  16.797 -1.1745  0.3868  0.4143
 9554SOL    HW140121   1.120   1.477  16.868 -0.6485 -0.0522  0.9955
 9554SOL    HW240122   1.191   1.353  16.851 -0.5791 -0.2318 -0.8037
 9555SOL     OW40123   4.639   1.892   6.701 -0.4344  0.0286 -0.1362
 9555SOL    HW140124   4.597   1.806   6.695  0.3641 -0.3198 -0.6004
 9555SOL    HW240125   4.557   1.936   6.725 -0.6906 -0.1072 -0.7528
 9556SOL     OW40126   0.076   3.584   5.738  0.7044 -0.2287 -0.2253
 9556SOL    HW140127   0.047   3.644   5.668 -1.3522  0.2420  1.0286
 9556SOL    HW240128   0.146   3.528   5.705  0.0353  0.4066 -2.7498
 9557SOL     OW40129   1.866   4.293   4.047  0.2389  0.1649  0.1372
 9557SOL    HW140130   1.872   4.345   4.127 -1.5797 -0.8875  0.9590
 9557SOL    HW240131   1.825   4.211   4.075  0.2710  0.2921  0.5493
 9558SOL     OW40132   3.929   0.963   5.600  0.2719  0.1108 -0.0536
 9558SOL    HW140133   3.988   0.972   5.675 -0.5608 -1.9841  0.8554
 9558SOL    HW240134   3.875   0.885   5.613  2.7975 -1.5416  0.4357
 9559SOL     OW40135   0.385   3.566   2.881  0.4263  0.1109  0.1981
 9559SOL    HW140136   0.429   3.651   2.885  0.5272 -0.0542  2.2285
 9559SOL    HW240137   0.455   3.501   2.893  0.5066 -0.6308 -4.1057
 9560SOL     OW40138   2.118   1.700  11.160 -0.2512  0.1757 -0.2765
 9560SOL    HW140139   2.168   1.742  11.090 -1.1959  0.8778 -0.5212
 9560SOL    HW240140   2.030   1.703  11.122  0.2538 -0.7123 -1.5430
 9561SOL     OW40141   1.941   4.660   6.882 -0.5708  0.4068 -0.4810
 9561SOL    HW140142   1.984   4.590   6.832 -0.2801 -0.2878  0.7436
 9561SOL    HW240143   1.904   4.702   6.804  1.3375  0.3785 -1.4120
 9562SOL     OW40144   3.084   2.872   6.804  0.0305 -0.1680  0.2945
 9562SOL    HW140145   3.152   2.807   6.817 -0.9012 -1.0578  0.6849
 9562SOL    HW240146   3.132   2.946   6.841 -0.0817 -0.6570  1.4088
 9563SOL     OW40147   0.282   3.909  16.845 -0.4162  0.7149  0.3171
 9563SOL    HW140148   0.255   3.849  16.914 -1.4448  0.3986 -0.3516
 9563SOL    HW240149   0.361   3.861  16.822  0.7592  2.2982  1.0010
 9564SOL     OW40150   1.315   0.070   6.604  0.0729  0.1074  0.3172
 9564SOL    HW140151   1.372   0.146   6.615  0.2335  0.1164 -0.5915
 9564SOL    HW240152   1.267   0.093   6.525  1.6827 -0.1316 -0.7364
 9565SOL     OW40153   3.713   3.373   1.065 -0.4221 -0.7350 -0.7505
 9565SOL    HW140154   3.617   3.365   1.066 -0.6077  1.6599 -0.7293
 9565SOL    HW240155   3.752   3.379   1.152 -3.0479 -1.9034  0.5118
   4.72259   4.72259  17.69237
