Membrane in water
40155
    1TCq1    O1    1   0.342   3.328  10.596  0.5750  0.6023  0.3608
    1TCq1    C1    2   0.261   3.254  10.675 -0.0803 -0.0874  0.7217
    1TCq1    O2    3   0.272   3.132  10.669 -0.5713  0.1273  0.0244
    1TCq1    C2    4   0.210   3.312  10.796 -0.0300 -0.2890 -0.4198
    1TCq1    C3    5   0.230   3.445  10.813  0.1239 -0.7684 -0.4234
    1TCq1    C4    6   0.211   3.498  10.934  0.7241  0.0753  0.1987
    1TCq1    C5    7   0.162   3.421  11.035 -0.7040  0.2460  0.3997
    1TCq1    C6    8   0.152   3.286  11.025 -0.6725  0.2850 -0.5463
    1TCq1    C7    9   0.181   3.227  10.902  0.2137 -0.0997 -0.1617
    1TCq1    C8   10   0.120   3.208  11.143 -0.3067 -0.1106  0.4131
    1TCq1    O4   11   0.075   3.275  11.240  0.0813 -0.1245  0.1347
    1TCq1    C9   12   0.230   3.637  10.949  0.2599  1.1220  0.0461
    1TCq1    O5   13   0.270   3.704  10.851 -0.6409  0.5903  0.5644
    1TCq1    O6   14   0.197   3.682  11.064  0.7294  0.3767  0.4519
    1TCq1    H1   15   0.321   3.424  10.597 -1.3932  0.1670  1.3428
    1TCq1    H2   16   0.255   3.512  10.731  2.3429 -1.1633 -0.0694
    1TCq1    H3   17   0.145   3.465  11.132 -2.7832 -3.1901  1.5973
    1TCq1    H4   18   0.196   3.121  10.883  0.7148  0.2967 -1.9537
    2MPD2     C   19   0.183   2.797  11.439 -0.2010  0.1748  0.4206
    2MPD2    C1   20   0.119   2.919  11.464 -1.0298 -0.1644  0.8085
    2MPD2    C2   21   0.124   3.020  11.368  0.6444  0.5131 -0.3322
    2MPD2    C3   22   0.191   3.002  11.241  0.8217  0.9651 -1.0651
    2MPD2    C4   23   0.252   2.880  11.218  0.1314 -0.3058 -0.4432
    2MPD2    C5   24   0.248   2.781  11.313 -0.4587  0.0708 -0.1264
    2MPD2     H   25   0.078   3.116  11.390 -0.8348 -0.3723  0.4381
    2MPD2    H1   26   0.307   2.859  11.127 -1.4996  2.6246 -2.0769
    2MPD2    H2   27   0.173   2.709  11.501 -0.5993  0.1643  0.3381
    2MPD2    H3   28   0.293   2.685  11.290 -1.2471 -0.3521  0.1382
    2MPD2     N   29   0.188   3.087  11.137 -0.3964 -0.3348  0.3972
    2MPD2    H5   30   0.245   3.072  11.054 -0.4136 -2.2041  0.7283
    2MPD2    N1   31   0.052   2.937  11.586 -0.4030 -0.2291  0.1276
    2MPD2    H7   32   4.714   3.015  11.599  0.0303  0.0949  0.2742
    3TCq1    O1   33   4.366   4.617  10.813  0.4567  0.2083  0.1078
    3TCq1    C1   34   4.416   4.568  10.929 -0.0560  0.2684 -0.7406
    3TCq1    O2   35   4.539   4.553  10.934  0.5986 -0.0048  0.2592
    3TCq1    C2   36   4.328   4.456  10.961  0.2184 -0.1924 -0.4669
    3TCq1    C3   37   4.380   4.328  10.953  0.3498 -0.2849 -0.6983
    3TCq1    C4   38   4.328   4.229  11.034 -0.2147 -0.5566  0.0467
    3TCq1    C5   39   4.225   4.256  11.121 -0.3660  0.2495 -0.2007
    3TCq1    C6   40   4.184   4.389  11.126  0.5035 -0.1122 -0.3275
    3TCq1    C7   41   4.230   4.493  11.048  0.3139  0.2665 -0.5239
    3TCq1    C8   42   4.090   4.417  11.226  0.0672  0.2623 -0.4437
    3TCq1    O4   43   4.079   4.340  11.323  0.8920  0.3410 -0.4621
    3TCq1    C9   44   4.387   4.093  11.015 -0.4055 -0.0242 -0.2692
    3TCq1    O5   45   4.367   4.004  11.103  0.6628 -0.5054 -0.1407
    3TCq1    O6   46   4.440   4.080  10.903 -0.3676  0.0862 -0.1324
    3TCq1    H1   47   4.273   4.596  10.789  0.3615 -0.5926  1.1876
    3TCq1    H2   48   4.463   4.306  10.887  0.0242 -0.7818 -0.9405
    3TCq1    H3   49   4.182   4.183  11.189  1.4767  1.8070  2.5925
    3TCq1    H4   50   4.195   4.596  11.043 -1.4348 -0.1274  3.1605
    4MPD2     C   51   3.733   4.724  11.437 -0.0210 -0.4656  0.5324
    4MPD2    C1   52   3.757   0.046  11.307 -0.4039  0.3674  0.6218
    4MPD2    C2   53   3.858   4.709  11.231 -0.6443  0.2808 -0.0233
    4MPD2    C3   54   3.926   4.600  11.285  0.1125  0.3067  0.2221
    4MPD2    C4   55   3.905   4.560  11.418 -0.2911  0.3368 -0.2016
    4MPD2    C5   56   3.808   4.622  11.488  0.2300 -0.9620 -0.5783
    4MPD2     H   57   3.879   0.030  11.134 -3.3623  0.0521 -0.7314
    4MPD2    H1   58   3.966   4.489  11.471  1.4351  2.0361  0.1062
    4MPD2    H2   59   3.669   0.048  11.510 -0.4605 -0.9581  0.4779
    4MPD2    H3   60   3.783   4.585  11.587  0.9596  0.4770  0.1449
    4MPD2     N   61   4.019   4.533  11.203  0.4517  0.8201 -0.2938
    4MPD2    H5   62   4.037   4.567  11.109  1.6520 -0.3115 -0.4691
    4MPD2    N1   63   3.691   0.164  11.255  0.0767 -0.0517  0.0390
    4MPD2    H7   64   3.729   0.208  11.171  0.2503 -0.9834 -0.3749
    5TCq1    O1   65   3.707   4.476   9.934  0.8410 -0.5481  0.2335
    5TCq1    C1   66   3.611   4.554   9.880 -0.2170  0.3917 -0.2216
    5TCq1    O2   67   3.538   4.549   9.784 -0.4322  0.2577  0.0414
    5TCq1    C2   68   3.650   4.687   9.917  0.5531 -0.2634  0.1072
    5TCq1    C3   69   3.548   0.055   9.913  0.3680  0.4177  0.2592
    5TCq1    C4   70   3.567   0.167   9.983  0.2508  0.1302  0.3668
    5TCq1    C5   71   3.681   0.198  10.053 -0.5263  0.1766 -0.3349
    5TCq1    C6   72   3.786   0.106  10.050 -0.6894  0.3701 -0.0293
    5TCq1    C7   73   3.774   4.708   9.978 -0.5203  0.1129 -0.2791
    5TCq1    C8   74   3.911   0.138  10.112  1.0656  0.1379 -0.1549
    5TCq1    O4   75   3.927   0.236  10.186  0.0099 -0.1139 -0.2427
    5TCq1    C9   76   3.457   0.257   9.991 -0.6458 -0.2036 -0.1247
    5TCq1    O5   77   3.468   0.352  10.074 -0.1767 -0.8646 -0.3380
    5TCq1    O6   78   3.354   0.241   9.919  0.3766  0.9252  0.1084
    5TCq1    H1   79   3.737   4.511  10.020 -0.2813  0.1067  0.3504
    5TCq1    H2   80   3.456   0.041   9.859  0.1992  0.2107  0.6032
    5TCq1    H3   81   3.692   0.284  10.118 -1.3595 -0.2352  0.3454
    5TCq1    H4   82   3.860   4.649   9.946  0.7946  3.3551 -2.7360
    6MPD2     C   83   4.215   4.665  10.090 -0.3290 -1.0350 -0.3955
    6MPD2    C1   84   4.130   0.031  10.153 -0.2189  0.2387  0.0636
    6MPD2    C2   85   4.174   0.108  10.255 -0.0579  0.9574  0.3338
    6MPD2    C3   86   4.307   0.096  10.295 -0.4751  0.4030  0.3458
    6MPD2    C4   87   4.390   4.719  10.248  1.0829  0.0845 -0.2309
    6MPD2    C5   88   4.344   4.643  10.143  0.5436  0.2828  0.7262
    6MPD2     H   89   4.108   0.175  10.309  1.0214  1.9863  0.3707
    6MPD2    H1   90   4.494   4.699  10.272  0.8126  1.0606  1.7009
    6MPD2    H2   91   4.182   4.604  10.007  2.6771 -1.6465 -1.1579
    6MPD2    H3   92   4.403   4.559  10.109 -2.0008 -0.4384 -1.9510
    6MPD2     N   93   4.353   0.183  10.395 -0.3194  0.5448 -0.0921
    6MPD2    H5   94   4.284   0.250  10.428 -2.8739 -0.0432 -4.2865
    6MPD2    N1   95   4.000   0.036  10.093  0.3342 -0.2712  0.0727
    6MPD2    H7   96   3.992   4.694  10.017 -3.4264 -2.4797  2.3852
    7TCq1    O1   97   1.878   1.522  13.158  0.4522  0.4880 -0.2702
    7TCq1    C1   98   1.898   1.531  13.289 -0.0353  0.0666  0.3906
    7TCq1    O2   99   1.973   1.611  13.345 -0.1118 -0.7442 -0.2596
    7TCq1    C2  100   1.875   1.391  13.330  0.0087 -0.5974 -0.2309
    7TCq1    C3  101   1.742   1.345  13.322 -0.6830 -0.5070 -0.0276
    7TCq1    C4  102   1.706   1.215  13.337  0.4729  0.2078  0.1379
    7TCq1    C5  103   1.798   1.128  13.352  0.4109  0.3308 -0.9429
    7TCq1    C6  104   1.929   1.168  13.377 -0.1027 -0.1284 -0.0334
    7TCq1    C7  105   1.971   1.304  13.374  0.2873 -0.7539  0.1302
    7TCq1    C8  106   2.012   1.066  13.437  0.2137  0.1461  0.2607
    7TCq1    O4  107   1.963   0.953  13.426  0.0866 -0.4234 -0.2452
    7TCq1    C9  108   1.567   1.170  13.322  0.4482 -0.4073 -0.2959
    7TCq1    O5  109   1.547   1.063  13.384  0.1255  0.2312 -0.9234
    7TCq1    O6  110   1.482   1.258  13.305  0.1678  0.2550 -0.3767
    7TCq1    H1  111   1.802   1.462  13.142 -0.4231  1.3396  0.6975
    7TCq1    H2  112   1.668   1.421  13.300  1.3765  1.9059  1.3993
    7TCq1    H3  113   1.762   1.028  13.371 -0.2749  0.4512 -1.5981
    7TCq1    H4  114   2.066   1.355  13.380  0.1014 -0.6406  2.1364
    8MPD2     C  115   2.442   0.902  13.667  0.1056 -0.3360 -0.2943
    8MPD2    C1  116   2.336   0.829  13.619  0.7002  0.1545  0.4733
    8MPD2    C2  117   2.235   0.898  13.557  0.6666 -0.4063 -0.3961
    8MPD2    C3  118   2.244   1.032  13.533 -0.5084  0.0984  1.2271
    8MPD2    C4  119   2.348   1.103  13.587  0.0584 -0.1977 -0.2204
    8MPD2    C5  120   2.446   1.036  13.646  0.5197  0.7557 -0.3555
    8MPD2     H  121   2.141   0.847  13.540  1.3238 -1.8258  0.2375
    8MPD2    H1  122   2.359   1.210  13.578 -0.9405  0.1027  2.2254
    8MPD2    H2  123   2.518   0.866  13.736 -1.5655 -2.5081  0.3958
    8MPD2    H3  124   2.525   1.095  13.690 -1.5579  2.8668  0.5717
    8MPD2     N  125   2.134   1.110  13.485 -0.0378 -0.4613  0.0510
    8MPD2    H5  126   2.136   1.211  13.474 -0.6578 -0.5345 -0.8319
    8MPD2    N1  127   2.318   0.694  13.666  0.0086 -0.2165  0.2055
    8MPD2    H7  128   2.376   0.672  13.747  1.4603  2.5950 -0.0966
    9TCq1    O1  129   0.868   4.387  10.845 -0.1101 -0.4500 -0.4899
    9TCq1    C1  130   0.741   4.412  10.815 -0.4059  0.1631 -0.3063
    9TCq1    O2  131   0.699   4.525  10.797  0.1921  0.6537 -0.0795
    9TCq1    C2  132   0.665   4.304  10.874 -0.2996 -0.4236 -0.9812
    9TCq1    C3  133   0.709   4.172  10.856  0.1431  0.1418 -0.2147
    9TCq1    C4  134   0.626   4.079  10.904 -0.9302  0.5211  0.6209
    9TCq1    C5  135   0.506   4.107  10.961 -0.9234  0.3126  0.0147
    9TCq1    C6  136   0.466   4.234  10.977 -0.2452  0.2425 -0.7517
    9TCq1    C7  137   0.541   4.337  10.932  0.2428 -0.0652  0.9164
    9TCq1    C8  138   0.329   4.259  11.010  0.0337  0.3077  0.8668
    9TCq1    O4  139   0.286   4.369  10.977 -0.6324 -0.1267 -0.4649
    9TCq1    C9  140   0.651   3.940  10.877 -0.1509 -0.5850  0.6418
    9TCq1    O5  141   0.551   3.869  10.874 -0.0838  0.3449  0.3321
    9TCq1    O6  142   0.746   3.914  10.802 -0.7069  0.1517 -0.1299
    9TCq1    H1  143   0.875   4.301  10.893  0.8909 -1.2436 -2.0438
    9TCq1    H2  144   0.790   4.140  10.791  1.0397  1.3084  0.3336
    9TCq1    H3  145   0.448   4.025  11.001 -2.5802  0.8348 -1.3121
    9TCq1    H4  146   0.505   4.438  10.943  0.7460  0.3926 -1.6988
   10MPD2     C  147   0.070   4.282  11.168 -0.6773  0.1151  0.0628
   10MPD2    C1  148   0.158   4.182  11.183  0.7104 -0.0483  0.1309
   10MPD2    C2  149   0.129   4.085  11.282  0.2488  0.4403  0.1438
   10MPD2    C3  150   0.007   4.078  11.340 -0.7506 -0.2475 -0.0993
   10MPD2    C4  151   4.640   4.177  11.317 -0.3555  0.3082 -0.2642
   10MPD2    C5  152   4.670   4.280  11.230  0.0693 -0.0643 -0.0849
   10MPD2     H  153   0.199   4.007  11.309  1.5801  0.9095 -1.9346
   10MPD2    H1  154   4.542   4.185  11.362 -1.1567  0.3818 -2.0007
   10MPD2    H2  155   0.077   4.373  11.108  0.0781 -0.8528 -1.3163
   10MPD2    H3  156   4.605   4.365  11.211 -0.7803 -1.1527 -2.0839
   10MPD2     N  157   4.707   3.982  11.435  0.2047  0.1233 -0.3701
   10MPD2    H5  158   0.067   3.936  11.467 -1.0580 -1.9518  0.0201
   10MPD2    N1  159   0.279   4.171  11.107  0.6277 -0.0334 -0.3554
   10MPD2    H7  160   0.332   4.085  11.118  1.7723  0.5909 -1.0272
   11TCq1    O1  161   1.396   3.919  13.463 -0.2743  0.0824  0.0162
   11TCq1    C1  162   1.315   3.935  13.358  0.1850 -0.2923  0.6813
   11TCq1    O2  163   1.231   3.856  13.319  0.0942 -0.2450  0.2387
   11TCq1    C2  164   1.322   4.076  13.314 -0.1704  0.1624 -0.1724
   11TCq1    C3  165   1.437   4.146  13.346 -0.3001 -0.2382  0.3028
   11TCq1    C4  166   1.437   4.278  13.350 -0.0455  0.6338 -0.4318
   11TCq1    C5  167   1.327   4.347  13.347  0.0993  0.6185  0.5398
   11TCq1    C6  168   1.208   4.277  13.326  1.0345  0.2054 -0.2200
   11TCq1    C7  169   1.205   4.141  13.298 -0.1031 -0.2608  0.4644
   11TCq1    C8  170   1.087   4.343  13.355 -0.3539 -0.3530  0.0546
   11TCq1    O4  171   1.088   4.466  13.368 -0.4980 -0.2171 -0.3250
   11TCq1    C9  172   1.558   4.347  13.385  0.9189  0.0970 -0.7524
   11TCq1    O5  173   1.632   4.297  13.473 -0.6696  0.0453  0.4740
   11TCq1    O6  174   1.569   4.469  13.353  0.9666 -0.0711 -0.0519
   11TCq1    H1  175   1.431   4.006  13.492 -0.1616  0.3785 -1.0311
   11TCq1    H2  176   1.532   4.094  13.358 -0.3461 -0.6586 -1.1418
   11TCq1    H3  177   1.330   4.450  13.380  0.1906  0.4529  1.0428
   11TCq1    H4  178   1.122   4.092  13.248  0.3151  0.7128 -1.1845
   12MPD2     C  179   0.809   4.403  13.440 -0.2408  0.1815 -0.3200
   12MPD2    C1  180   0.862   4.277  13.431  0.1067  0.2186 -0.7221
   12MPD2    C2  181   0.774   4.171  13.465 -0.7077 -0.7407  0.2491
   12MPD2    C3  182   0.649   4.195  13.516  1.6533 -0.4686 -0.0441
   12MPD2    C4  183   0.601   4.327  13.524 -0.7902 -0.3953 -0.0014
   12MPD2    C5  184   0.682   4.429  13.485 -0.4385  0.4395 -0.4674
   12MPD2     H  185   0.812   4.069  13.469 -2.0271 -1.2169  0.5286
   12MPD2    H1  186   0.508   4.351  13.575 -0.7559  1.0379 -0.6195
   12MPD2    H2  187   0.852   4.498  13.411 -0.0849  0.2289  0.0708
   12MPD2    H3  188   0.653   4.533  13.491  1.1675  0.8575  0.2467
   12MPD2     N  189   0.561   4.089  13.561  0.6140  0.0793 -0.0800
   12MPD2    H5  190   0.460   4.099  13.564  0.8446  2.4987 -0.4662
   12MPD2    N1  191   0.992   4.246  13.377 -0.6047  0.2897 -0.2532
   12MPD2    H7  192   1.016   4.148  13.388  1.4803  0.9884  1.3996
   13TCq1    O1  193   4.480   3.182  11.338  0.6051 -0.0186  0.1835
   13TCq1    C1  194   4.547   3.233  11.444  0.4964  0.5022 -0.4507
   13TCq1    O2  195   4.599   3.170  11.532 -0.3905  0.3875  0.1377
   13TCq1    C2  196   4.495   3.371  11.451 -0.7636  0.2110  0.3823
   13TCq1    C3  197   4.515   3.449  11.337  0.7661 -0.4510 -0.7294
   13TCq1    C4  198   4.441   3.566  11.329 -0.4750 -0.0114 -0.0508
   13TCq1    C5  199   4.371   3.609  11.442 -1.2502 -0.3784  0.1789
   13TCq1    C6  200   4.361   3.529  11.552  0.4702 -0.0188 -0.2829
   13TCq1    C7  201   4.417   3.402  11.552  0.1377  0.2201 -0.2377
   13TCq1    C8  202   4.247   3.557  11.643  0.2122 -0.2617 -0.1120
   13TCq1    O4  203   4.208   3.672  11.649  0.1456  0.1500 -0.1100
   13TCq1    C9  204   4.452   3.653  11.211 -0.1855 -0.1066 -0.4599
   13TCq1    O5  205   4.379   3.755  11.214  0.3318 -0.3182  0.0554
   13TCq1    O6  206   4.527   3.610  11.117 -0.1685 -0.1770  0.4326
   13TCq1    H1  207   4.427   3.251  11.293  2.9323  1.9902  0.4914
   13TCq1    H2  208   4.584   3.423  11.258  2.6774  2.5069 -0.0207
   13TCq1    H3  209   4.321   3.706  11.434 -0.3343 -0.0729 -1.9338
   13TCq1    H4  210   4.419   3.331  11.635  0.6302  2.2001  1.4427
   14MPD2     C  211   3.968   3.330  11.715 -0.4221  0.3006  0.1480
   14MPD2    C1  212   4.040   3.446  11.722 -0.1999 -0.2643 -0.5612
   14MPD2    C2  213   3.991   3.548  11.804  0.0374 -0.1497 -0.2816
   14MPD2    C3  214   3.882   3.528  11.887  0.0723 -0.7512 -0.5941
   14MPD2    C4  215   3.809   3.412  11.883 -0.3671  0.1505 -0.4607
   14MPD2    C5  216   3.858   3.314  11.794  0.4406  0.4877  0.3878
   14MPD2     H  217   4.048   3.639  11.822 -1.2115  0.3155  1.2823
   14MPD2    H1  218   3.713   3.400  11.932 -0.8852 -3.7563 -2.3859
   14MPD2    H2  219   3.994   3.242  11.656  2.9125  0.0394  2.0045
   14MPD2    H3  220   3.802   3.222  11.786 -0.0381  0.6508  1.8794
   14MPD2     N  221   3.839   3.642  11.966 -0.0144  0.3542  0.1731
   14MPD2    H5  222   3.899   3.723  11.962 -1.1336  1.1443 -0.4381
   14MPD2    N1  223   4.165   3.445  11.662  0.0557  0.7006 -0.0849
   14MPD2    H7  224   4.189   3.356  11.619 -1.7433 -1.2487  2.9981
   15TCq1    O1  225   1.299   4.042   2.268  0.0182  0.1054 -0.4126
   15TCq1    C1  226   1.375   3.949   2.195  0.1948 -0.0664  0.0003
   15TCq1    O2  227   1.484   3.900   2.224 -0.4025 -0.0273  0.1561
   15TCq1    C2  228   1.321   3.949   2.057  0.1122  0.1245  0.7245
   15TCq1    C3  229   1.232   4.043   2.018 -0.6946  0.2747  0.4449
   15TCq1    C4  230   1.159   4.020   1.906 -0.4668  0.6275  0.0341
   15TCq1    C5  231   1.161   3.900   1.842 -0.7955  0.0676  0.2232
   15TCq1    C6  232   1.256   3.808   1.885  1.1149 -0.6343 -0.5043
   15TCq1    C7  233   1.341   3.834   1.985 -0.1935 -0.8227  0.0524
   15TCq1    C8  234   1.302   3.698   1.801 -0.1941 -0.6930  0.2239
   15TCq1    O4  235   1.379   3.616   1.851  0.8468 -0.1299  0.5943
   15TCq1    C9  236   1.065   4.121   1.854 -0.9303  0.6966  0.1734
   15TCq1    O5  237   0.988   4.086   1.765  0.4450  0.0543  0.0786
   15TCq1    O6  238   1.055   4.230   1.926  0.3505 -0.5713 -0.1789
   15TCq1    H1  239   1.206   4.047   2.236 -0.3175 -0.4459  0.4746
   15TCq1    H2  240   1.238   4.148   2.046 -0.6936  0.2775  0.4340
   15TCq1    H3  241   1.080   3.865   1.779  0.7019  0.6364 -2.0188
   15TCq1    H4  242   1.412   3.762   2.025 -0.7367 -1.1523  0.4336
   16MPD2     C  243   1.220   3.656   1.446  0.1036  0.0370 -0.2015
   16MPD2    C1  244   1.266   3.615   1.568  0.4663 -0.6119 -0.3151
   16MPD2    C2  245   1.350   3.501   1.577  0.6893 -0.1935 -0.4110
   16MPD2    C3  246   1.359   3.413   1.467  0.3577 -0.5708 -0.0894
   16MPD2    C4  247   1.293   3.440   1.352 -0.2501  0.1603  0.1502
   16MPD2    C5  248   1.236   3.566   1.344 -0.7224  0.0728  0.2354
   16MPD2     H  249   1.407   3.467   1.663  0.4955 -1.2643 -0.7119
   16MPD2    H1  250   1.305   3.376   1.265  3.2834  1.8797 -0.6371
   16MPD2    H2  251   1.163   3.747   1.432  0.9201  0.5921  0.0522
   16MPD2    H3  252   1.196   3.605   1.251  3.1158 -0.2332 -1.5365
   16MPD2     N  253   1.439   3.298   1.478 -0.2074  0.2128 -0.3128
   16MPD2    H5  254   1.478   3.278   1.569 -0.0082 -0.1296 -0.4716
   16MPD2    N1  255   1.242   3.702   1.680  0.5648  0.3996  0.4268
   16MPD2    H7  256   1.175   3.777   1.666 -0.7426 -0.7049  0.8078
   17TCq1    O1  257   4.320   2.834  11.833  0.1874 -0.2238 -0.0882
   17TCq1    C1  258   4.266   2.945  11.782 -0.2371 -0.2241  0.3421
   17TCq1    O2  259   4.210   3.032  11.846  0.0863  0.8562  0.5446
   17TCq1    C2  260   4.273   2.944  11.633 -0.1627  0.0470  0.2686
   17TCq1    C3  261   4.214   3.051  11.575 -0.6646  0.6291 -0.9095
   17TCq1    C4  262   4.185   3.041  11.444  0.4131 -0.2835  0.1738
   17TCq1    C5  263   4.206   2.926  11.376 -0.9244 -0.4650 -0.1152
   17TCq1    C6  264   4.245   2.810  11.438 -0.3063 -0.1510 -0.1674
   17TCq1    C7  265   4.280   2.824  11.568 -0.4736  0.1208  0.8930
   17TCq1    C8  266   4.260   2.687  11.366  0.3090  0.2082 -0.3055
   17TCq1    O4  267   4.240   2.585  11.427 -0.1083  0.0583  0.7909
   17TCq1    C9  268   4.125   3.150  11.381  0.4331  0.3179  0.8781
   17TCq1    O5  269   4.109   3.153  11.251  0.0723 -0.3328  0.0942
   17TCq1    O6  270   4.098   3.254  11.451  0.1263  0.0437  0.5162
   17TCq1    H1  271   4.383   2.790  11.773  0.0272 -0.9792  0.3042
   17TCq1    H2  272   4.200   3.141  11.633  1.2825  0.0710  0.4036
   17TCq1    H3  273   4.158   2.922  11.278 -1.5076 -2.0056  0.2253
   17TCq1    H4  274   4.311   2.729  11.610 -0.0132 -1.1009 -2.1746
   18MPD2     C  275   4.287   2.467  11.166 -0.7117  0.2237 -0.2684
   18MPD2    C1  276   4.308   2.601  11.132 -0.3913 -0.1057  0.1431
   18MPD2    C2  277   4.351   2.631  11.002 -0.5162  1.2325  0.1527
   18MPD2    C3  278   4.365   2.534  10.904  0.1749  0.2493  0.7190
   18MPD2    C4  279   4.341   2.410  10.943 -0.1228  0.5882 -0.0709
   18MPD2    C5  280   4.304   2.375  11.066  0.3901  0.0025  0.4810
   18MPD2     H  281   4.383   2.731  10.976  2.3323  0.4122  0.5335
   18MPD2    H1  282   4.328   2.341  10.860  1.9982  0.7857 -0.5892
   18MPD2    H2  283   4.269   2.428  11.265  0.4098 -0.3009 -0.2693
   18MPD2    H3  284   4.273   2.274  11.087 -3.5122  1.5294  2.0165
   18MPD2     N  285   4.404   2.557  10.771  0.3715 -0.2318  0.0511
   18MPD2    H5  286   4.437   2.483  10.710 -1.3080 -1.6110  0.8319
   18MPD2    N1  287   4.289   2.702  11.231  0.0401 -0.2642 -0.1336
   18MPD2    H7  288   4.298   2.799  11.202 -0.1531 -0.0840  0.4261
   19TMC2    C1  289   1.335   3.821  13.966 -0.5039  0.1484  0.5546
   19TMC2    C2  290   1.280   3.916  13.875 -0.0041 -0.5726  0.0848
   19TMC2    C3  291   1.223   3.850  13.768  1.0352 -0.0377 -1.1278
   19TMC2    C4  292   1.352   3.685  13.943  0.0675  0.1587 -0.0398
   19TMC2    C5  293   1.305   3.630  13.833 -0.1339  1.0908 -0.6471
   19TMC2    C6  294   1.235   3.711  13.743  0.2616  0.0993  0.0158
   19TMC2     C  295   1.441   3.873  14.039  0.6610 -0.7004  0.2142
   19TMC2     O  296   1.487   3.975  13.987  0.1751 -0.4483 -0.1322
   19TMC2     H  297   1.271   4.023  13.892 -0.4328 -0.6752  0.4930
   19TMC2    H1  298   1.410   3.629  14.015 -1.0634 -0.4294  0.4198
   19TMC2    H2  299   1.186   3.663  13.658 -1.0594 -0.6325  1.1897
   19TMC2    C7  300   1.238   3.504  13.849  0.0911  0.0057  0.9830
   19TMC2    C8  301   1.122   3.917  13.681  0.4030 -0.0187 -1.1596
   19TMC2    O1  302   1.210   3.469  13.967  0.1807  1.2027 -0.6993
   19TMC2    O2  303   1.036   3.856  13.621  0.3855 -0.1568 -0.5199
   19TMC2    O5  304   1.153   4.045  13.642 -0.0353  0.1029 -0.2048
   19TMC2    H5  305   1.238   4.064  13.688 -0.3276  0.8442  0.0292
   20MPD2     C  306   1.630   3.945  14.241 -0.8675  0.4809  0.5345
   20MPD2    C1  307   1.542   3.848  14.255  0.4058  0.3385  0.8043
   20MPD2    C2  308   1.531   3.787  14.383 -0.1104  1.1010  0.3064
   20MPD2    C3  309   1.617   3.829  14.487 -0.3160 -0.4653 -0.6891
   20MPD2    C4  310   1.709   3.928  14.472 -0.3782  0.2026 -0.5106
   20MPD2    C5  311   1.711   3.986  14.348 -0.2669 -0.7020  0.1765
   20MPD2     H  312   1.463   3.705  14.406  3.5376 -1.7685  0.9386
   20MPD2    H1  313   1.781   3.958  14.548 -0.2640  0.0606 -0.5636
   20MPD2    H2  314   1.658   3.995  14.149 -2.8125  2.9235  1.2712
   20MPD2    H3  315   1.788   4.058  14.325  0.5162 -1.6444 -0.1639
   20MPD2     N  316   1.631   3.753  14.611 -0.9858  0.0837  0.0726
   20MPD2    H5  317   1.702   3.792  14.672 -0.2224 -1.6112  0.2590
   20MPD2    N1  318   1.459   3.813  14.150 -0.6343  0.1723  0.2676
   20MPD2    H7  319   1.390   3.742  14.167  0.1718  0.2272  3.7219
   21MPD2     C  320   3.859   0.274  14.270  0.5099 -0.1761 -0.3245
   21MPD2    C1  321   3.915   0.154  14.316 -0.3284  0.2239  0.4976
   21MPD2    C2  322   3.861   0.084  14.419 -0.2858  0.0833 -0.9631
   21MPD2    C3  323   3.737   0.118  14.472 -1.0998 -0.6204  0.1255
   21MPD2    C4  324   3.682   0.236  14.431 -0.0302 -0.3091  0.0844
   21MPD2    C5  325   3.742   0.310  14.331 -0.0662 -0.3623  0.8922
   21MPD2     H  326   3.908   4.715  14.446  0.5764  1.1047  1.0275
   21MPD2    H1  327   3.587   0.277  14.464  1.5191  1.4431  2.3786
   21MPD2    H2  328   3.904   0.339  14.195 -0.7477 -0.8160 -1.6274
   21MPD2    H3  329   3.697   0.403  14.297  0.6355 -1.3247 -2.6343
   21MPD2     N  330   3.669   0.034  14.567 -0.1539 -0.3615 -0.4009
   21MPD2    H5  331   3.575   0.069  14.587  0.7601  3.0502 -2.1340
   21MPD2    N1  332   4.039   0.113  14.272  0.2582 -0.0392 -0.0999
   21MPD2    H7  333   4.081   0.028  14.307  0.9405  0.2851 -0.1250
   22TCq2    C1  334   3.720   4.645  14.626 -0.3506 -0.0797 -0.0109
   22TCq2    O2  335   3.826   4.588  14.600  0.3069 -0.6449 -0.5312
   22TCq2    C2  336   3.630   4.579  14.713 -0.1796 -0.9159 -0.5866
   22TCq2    C3  337   3.652   4.447  14.748  0.3193 -0.1073  0.2400
   22TCq2    C4  338   3.599   4.386  14.857 -0.3376  0.1929  0.0702
   22TCq2    C5  339   3.512   4.453  14.935 -0.1999 -0.0058 -0.1449
   22TCq2    C6  340   3.488   4.588  14.905 -0.2813  0.0985  0.3915
   22TCq2    C7  341   3.541   4.656  14.791 -0.5438 -0.1505 -0.5593
   22TCq2    C8  342   3.390   4.660  14.983 -0.1516  0.1982 -0.1753
   22TCq2    O4  343   3.391   4.636  15.104 -0.6169 -0.3108  0.1756
   22TCq2    C9  344   3.618   4.244  14.885  0.0242  0.4065  0.4696
   22TCq2    O5  345   3.697   4.183  14.806 -0.3423 -0.0632  0.0039
   22TCq2    O6  346   3.592   4.209  15.008  0.1947 -0.0721  0.1405
   22TCq2    H2  347   3.722   4.387  14.691  0.1276  1.4046 -1.5876
   22TCq2    H3  348   3.463   4.405  15.019  1.0705 -1.4085 -0.2152
   22TCq2    H4  349   3.534   0.040  14.790  0.0147 -0.1354 -2.8365
   23MPD2     C  350   0.543   0.314  14.493  0.3887 -0.3414  0.5515
   23MPD2    C1  351   0.464   0.372  14.584  1.1430  0.1866  0.3630
   23MPD2    C2  352   0.378   0.474  14.547 -0.5475  0.6019  0.1715
   23MPD2    C3  353   0.367   0.507  14.410  0.6385 -0.1951  0.2915
   23MPD2    C4  354   0.444   0.437  14.316 -0.1360 -0.4411 -0.0725
   23MPD2    C5  355   0.529   0.342  14.362 -0.7695 -0.0181 -0.3359
   23MPD2     H  356   0.321   0.533  14.618 -0.3314  2.2997 -1.0690
   23MPD2    H1  357   0.435   0.451  14.209 -1.7223 -0.3313  0.0768
   23MPD2    H2  358   0.617   0.240  14.520 -1.2145 -2.3384 -0.5122
   23MPD2    H3  359   0.588   0.289  14.288 -1.1755 -0.1367 -0.5773
   23MPD2     N  360   0.289   0.610  14.357  0.2016  0.3324  0.4313
   23MPD2    H5  361   0.287   0.618  14.256  1.8063  0.4449  0.4025
   23MPD2    N1  362   0.481   0.348  14.725 -0.3897  0.0901 -0.3253
   23MPD2    H7  363   0.429   0.415  14.781  0.9638 -1.6538  3.0047
   24TCq2    C1  364   0.224   0.704  14.438 -0.3142 -0.0137  0.1414
   24TCq2    O2  365   0.230   0.738  14.557 -0.2950  0.0224 -0.3107
   24TCq2    C2  366   0.135   0.782  14.357 -0.0067  0.7393 -0.5815
   24TCq2    C3  367   0.096   0.740  14.228  0.2965 -0.2511  0.4472
   24TCq2    C4  368   0.005   0.814  14.163 -0.5439  0.4062  0.5467
   24TCq2    C5  369   4.682   0.924  14.222 -0.9353 -0.1571  1.1023
   24TCq2    C6  370   4.715   0.961  14.349  1.3776 -0.2577  0.6305
   24TCq2    C7  371   0.079   0.891  14.424 -0.2507  0.4466 -0.2622
   24TCq2    C8  372   4.657   1.085  14.405 -1.0652 -0.3253 -0.5852
   24TCq2    O4  373   0.001   1.142  14.491  0.4501  0.3766 -0.1398
   24TCq2    C9  374   4.683   0.771  14.034 -0.5829 -0.1063 -0.9836
   24TCq2    O5  375   0.013   0.676  13.976 -0.3040 -0.8715 -0.5530
   24TCq2    O6  376   4.571   0.815  14.003  0.0356  0.1044  0.3864
   24TCq2    H2  377   0.140   0.652  14.182 -0.2155  0.3491 -1.1630
   24TCq2    H3  378   4.620   0.990  14.161  0.8241  0.6351  0.1659
   24TCq2    H4  379   0.120   0.931  14.516 -1.4979  2.2206 -0.4723
   25TMC2    C1  380   4.370   2.084  11.695  0.4506 -0.5602 -0.7570
   25TMC2    C2  381   4.462   2.097  11.796 -0.1981  0.3255 -0.7885
   25TMC2    C3  382   4.465   2.214  11.868 -0.3209  0.0805  0.0710
   25TMC2    C4  383   4.274   2.180  11.678  0.0200  0.2613 -0.2598
   25TMC2    C5  384   4.279   2.298  11.744  0.1970 -0.0215 -0.2077
   25TMC2    C6  385   4.375   2.315  11.842 -0.2742 -0.4807 -0.1572
   25TMC2     C  386   4.367   1.955  11.631  0.1607  0.7610 -0.5889
   25TMC2     O  387   4.465   1.886  11.641  0.9428  0.5282  0.5364
   25TMC2     H  388   4.532   2.020  11.828  1.1829  1.6824 -0.5918
   25TMC2    H1  389   4.214   2.180  11.587 -2.7824 -1.2057  1.6045
   25TMC2    H2  390   4.378   2.408  11.898 -1.5501 -1.1460  1.0002
   25TMC2    C7  391   4.175   2.394  11.715 -0.0725  0.2154 -0.0514
   25TMC2    C8  392   4.539   2.209  11.993 -0.2841  0.2170 -0.2257
   25TMC2    O1  393   4.100   2.364  11.621  0.1322 -0.1441 -0.1145
   25TMC2    O2  394   4.536   2.106  12.060  0.1758  0.1491 -0.2640
   25TMC2    O5  395   4.549   2.332  12.041  0.4025 -0.6592  0.2392
   25TMC2    H5  396   4.562   2.399  11.971 -2.7033 -1.8342 -1.4820
   26MPD2     C  397   4.163   1.661  11.260 -0.4740  0.0246  0.1435
   26MPD2    C1  398   4.068   1.755  11.299  0.2329 -0.2191 -0.2802
   26MPD2    C2  399   4.102   1.849  11.397 -0.4299  0.0622  0.8031
   26MPD2    C3  400   4.223   1.838  11.468  0.3785 -0.4424 -0.1864
   26MPD2    C4  401   4.317   1.745  11.424 -0.0280 -0.5106 -0.0238
   26MPD2    C5  402   4.288   1.656  11.325  0.2720 -0.3509 -1.1102
   26MPD2     H  403   4.022   1.909  11.441  0.2170  1.4371  0.1127
   26MPD2    H1  404   4.413   1.737  11.472  0.9074 -0.2705 -1.8567
   26MPD2    H2  405   4.143   1.596  11.175 -0.3769 -0.1647  0.2650
   26MPD2    H3  406   4.360   1.585  11.286  1.6910  1.0424 -1.0234
   26MPD2     N  407   4.249   1.938  11.564 -0.4586 -0.3035 -0.6779
   26MPD2    H5  408   4.170   1.999  11.580 -0.2878 -0.0217 -0.9086
   26MPD2    N1  409   3.931   1.753  11.260  0.3525 -0.0340 -0.2783
   26MPD2    H7  410   3.875   1.828  11.299 -0.1084 -0.2415 -0.5277
   27TMC2    C1  411   3.028   4.413  12.326 -0.0884  0.9703  0.6533
   27TMC2    C2  412   3.107   4.351  12.233 -0.4722  0.0281 -0.3925
   27TMC2    C3  413   3.134   4.419  12.116  0.8211 -0.2218  0.0430
   27TMC2    C4  414   2.972   4.539  12.302 -0.5429  0.1045 -0.2427
   27TMC2    C5  415   2.999   4.603  12.183 -0.9538  0.0884  0.1407
   27TMC2    C6  416   3.080   4.545  12.086 -0.3982  0.3310 -0.3775
   27TMC2     C  417   3.008   4.343  12.443  0.2640  0.9315  0.2103
   27TMC2     O  418   3.101   4.284  12.497  0.1950 -0.3202  0.0334
   27TMC2     H  419   3.160   4.262  12.265 -2.7043 -1.0307  0.4306
   27TMC2    H1  420   2.911   4.593  12.374 -1.0343 -1.8900  0.8184
   27TMC2    H2  421   3.107   4.603  11.999  0.0032  2.7092  1.3514
   27TMC2    C7  422   2.910   4.715  12.153 -0.5917 -0.0788  0.2171
   27TMC2    C8  423   3.216   4.341  12.021  0.8494  0.9084  0.0418
   27TMC2    O1  424   2.850   0.053  12.238 -0.2884  0.0527  0.2191
   27TMC2    O2  425   3.253   4.227  12.053  0.2313 -0.2613  0.4604
   27TMC2    O5  426   3.295   4.423  11.946  0.0366  0.0927 -0.9442
   27TMC2    H5  427   3.264   4.515  11.927 -0.1099  0.3279  0.4900
   28MPD2     C  428   2.711   4.243  12.847  0.4675  0.4217 -0.3883
   28MPD2    C1  429   2.647   4.344  12.779 -0.1218 -0.3809  0.2640
   28MPD2    C2  430   2.707   4.373  12.657  0.0624  0.2717 -0.6025
   28MPD2    C3  431   2.824   4.314  12.606  0.6486  0.4843 -0.1984
   28MPD2    C4  432   2.880   4.218  12.680 -0.0885 -0.2327 -0.4089
   28MPD2    C5  433   2.828   4.192  12.802  0.0872  0.0590 -0.2187
   28MPD2     H  434   2.670   4.461  12.605  0.6180  1.0661  0.3448
   28MPD2    H1  435   2.975   4.180  12.644 -0.1537 -1.1295  0.3676
   28MPD2    H2  436   2.668   4.215  12.943 -2.1376 -0.3591 -1.7817
   28MPD2    H3  437   2.873   4.126  12.875 -0.0802  2.1396  1.7734
   28MPD2     N  438   2.884   4.372  12.488 -0.0538  0.4981  0.2647
   28MPD2    H5  439   2.820   4.438  12.445  0.4964  0.0508 -1.2490
   28MPD2    N1  440   2.531   4.405  12.826 -0.0810 -0.6867  0.0395
   28MPD2    H7  441   2.510   4.376  12.921  0.1666 -0.1714  0.2502
   29MPD2     C  442   2.061   2.596  14.466 -0.3402 -0.2385 -0.0897
   29MPD2    C1  443   2.165   2.564  14.551 -0.6160  0.3964 -0.0097
   29MPD2    C2  444   2.207   2.659  14.649  0.3487  0.5426  0.1434
   29MPD2    C3  445   2.145   2.781  14.658 -0.0202  0.1412 -0.6603
   29MPD2    C4  446   2.030   2.801  14.581  0.6246  0.1728  0.3643
   29MPD2    C5  447   1.991   2.717  14.487  0.4367  0.0894 -0.0700
   29MPD2     H  448   2.297   2.636  14.706 -0.7341  0.3946  1.7718
   29MPD2    H1  449   1.960   2.883  14.586 -0.7393 -1.0351  1.1306
   29MPD2    H2  450   2.021   2.528  14.392  0.2229  0.0005 -0.6105
   29MPD2    H3  451   1.905   2.742  14.426 -0.7761 -1.1592  1.1352
   29MPD2     N  452   2.188   2.896  14.737 -0.6510  0.4306 -0.5222
   29MPD2    H5  453   2.142   2.987  14.728 -0.9725  0.2216 -0.9563
   29MPD2    N1  454   2.233   2.445  14.533 -0.1215 -0.3969 -0.2821
   29MPD2    H7  455   2.316   2.442  14.592  1.2459  2.2176 -2.1059
   30TCq2    C1  456   2.289   2.889  14.823 -0.4271 -0.0393  0.0142
   30TCq2    O2  457   2.328   2.788  14.881  0.4726 -0.0561  0.2058
   30TCq2    C2  458   2.315   3.019  14.879 -0.0772 -0.6486 -0.0301
   30TCq2    C3  459   2.332   3.035  15.010  0.0263 -0.6942  0.1282
   30TCq2    C4  460   2.370   3.154  15.054 -0.0400  0.1800 -0.2297
   30TCq2    C5  461   2.412   3.257  14.974 -0.1752 -0.0980  0.7759
   30TCq2    C6  462   2.393   3.235  14.837  0.2954 -1.0013  0.7674
   30TCq2    C7  463   2.339   3.119  14.790 -0.4922  0.7682 -0.2625
   30TCq2    C8  464   2.403   3.344  14.735 -0.7042  0.4308 -0.2485
   30TCq2    O4  465   2.342   3.335  14.627 -0.1445 -0.7339  0.1677
   30TCq2    C9  466   2.383   3.160  15.198 -0.3001 -0.5205  0.3429
   30TCq2    O5  467   2.341   3.062  15.260  0.2783 -0.5713 -0.0336
   30TCq2    O6  468   2.426   3.268  15.258  0.8470  0.2758 -0.6315
   30TCq2    H2  469   2.292   2.958  15.075  1.0546 -2.8547 -1.7805
   30TCq2    H3  470   2.449   3.353  15.008  1.5382 -0.1210 -1.0417
   30TCq2    H4  471   2.321   3.110  14.683 -0.6126 -1.8322 -0.0316
   31MPD2     C  472   0.283   1.814  14.945 -0.6153  0.4304 -0.3796
   31MPD2    C1  473   0.163   1.869  14.931  0.1804 -0.2674 -0.2189
   31MPD2    C2  474   0.073   1.868  15.035 -0.0237 -0.7054  0.1288
   31MPD2    C3  475   0.113   1.805  15.159 -0.3732  0.3553  0.1992
   31MPD2    C4  476   0.232   1.746  15.159 -0.7398  0.3596  0.4629
   31MPD2    C5  477   0.320   1.756  15.061 -0.3985 -0.3983 -0.1155
   31MPD2     H  478   4.697   1.904  15.018  0.6150  0.9695 -0.0123
   31MPD2    H1  479   0.263   1.682  15.241 -0.9709 -0.9820 -0.4876
   31MPD2    H2  480   0.354   1.821  14.863  0.1362 -1.6487  0.1001
   31MPD2    H3  481   0.418   1.712  15.076 -0.8559 -0.9411  1.3078
   31MPD2     N  482   0.031   1.784  15.273  0.3194 -0.1610  0.1984
   31MPD2    H5  483   0.074   1.735  15.351 -0.5255 -0.6323  0.3658
   31MPD2    N1  484   0.137   1.927  14.801  0.1750  0.2010  0.1166
   31MPD2    H7  485   0.209   1.905  14.734  0.3047  0.3687  0.2007
   32TCq2    C1  486   4.616   1.805  15.276 -0.3213 -0.2249  0.0469
   32TCq2    O2  487   4.547   1.843  15.184 -0.0440  0.1295 -0.0993
   32TCq2    C2  488   4.546   1.754  15.396  0.6021  0.7674 -0.2060
   32TCq2    C3  489   4.411   1.775  15.408  0.3697 -0.3609 -0.0271
   32TCq2    C4  490   4.344   1.731  15.513  0.1850 -0.8181  0.0078
   32TCq2    C5  491   4.412   1.680  15.623 -0.1947  0.4778  0.2556
   32TCq2    C6  492   4.543   1.655  15.614  1.2885 -0.2934 -0.0626
   32TCq2    C7  493   4.615   1.687  15.502  1.2049 -0.0872 -0.9491
   32TCq2    C8  494   4.614   1.577  15.712  0.5149  0.1003  0.0467
   32TCq2    O4  495   4.703   1.503  15.669  0.2124 -0.1452 -0.3358
   32TCq2    C9  496   4.200   1.734  15.508  0.2328 -0.5601  0.0220
   32TCq2    O5  497   4.143   1.699  15.617 -0.5151  0.4412 -0.7641
   32TCq2    O6  498   4.152   1.723  15.388  0.6558  0.2471  0.0635
   32TCq2    H2  499   4.349   1.817  15.329 -1.7451 -2.9978  0.2256
   32TCq2    H3  500   4.354   1.656  15.711 -1.1603 -0.0528 -0.5285
   32TCq2    H4  501   4.723   1.675  15.499  1.1720 -1.0850  1.8202
   33MPD2     C  502   4.588   3.311  10.611 -0.2953 -0.4161  0.4546
   33MPD2    C1  503   4.635   3.226  10.515 -0.3002  0.5724 -0.1521
   33MPD2    C2  504   4.687   3.278  10.395  0.4617 -0.7748 -0.1706
   33MPD2    C3  505   4.699   3.413  10.383 -0.4797 -0.9226  0.0064
   33MPD2    C4  506   4.659   3.494  10.481  0.3124 -0.0633 -0.2006
   33MPD2    C5  507   4.608   3.446  10.595  0.5726 -0.6455  0.6743
   33MPD2     H  508   4.702   3.208  10.313  2.6225 -0.8844  0.3253
   33MPD2    H1  509   4.671   3.602  10.478 -0.0684 -0.0437 -0.9057
   33MPD2    H2  510   4.540   3.276  10.702 -0.1235 -0.2243  0.6186
   33MPD2    H3  511   4.573   3.512  10.673  1.4064 -1.1223  1.4575
   33MPD2     N  512   0.033   3.470  10.264 -0.3021 -0.5318  0.1500
   33MPD2    H5  513   0.037   3.570  10.252 -0.7817 -0.6121 -0.6671
   33MPD2    N1  514   4.607   3.085  10.527  0.1484 -0.7839  0.3166
   33MPD2    H7  515   4.547   3.057  10.604 -0.8710 -0.6313 -0.4229
   34TCq2    C1  516   0.062   3.397  10.148 -0.2388  0.2802 -0.4216
   34TCq2    O2  517   0.045   3.279  10.127  0.1072 -0.5953  0.4270
   34TCq2    C2  518   0.112   3.473  10.033 -0.1911 -0.1263  0.2342
   34TCq2    C3  519   0.111   3.405   9.917  0.5308  0.3909 -0.1277
   34TCq2    C4  520   0.186   3.457   9.807 -0.3114 -0.5560  0.9267
   34TCq2    C5  521   0.246   3.579   9.827  0.4493  0.4423  0.2705
   34TCq2    C6  522   0.242   3.645   9.947  0.0722  1.5223  0.5531
   34TCq2    C7  523   0.172   3.595  10.053  0.5808  0.0749 -0.2670
   34TCq2    C8  524   0.319   3.772   9.966  0.5333  0.1879 -0.5820
   34TCq2    O4  525   0.313   3.830  10.074  0.2411 -0.0150 -0.2056
   34TCq2    C9  526   0.194   3.390   9.679 -0.4064 -0.4357  0.4160
   34TCq2    O5  527   0.118   3.290   9.665  0.0050  0.5877 -0.4503
   34TCq2    O6  528   0.281   3.429   9.597 -0.3091 -0.5209  0.5240
   34TCq2    H2  529   0.055   3.313   9.899  1.1438 -0.2041  1.0332
   34TCq2    H3  530   0.289   3.624   9.738 -1.9597  0.3994 -0.9075
   34TCq2    H4  531   0.177   3.644  10.149  1.5347 -1.2218  0.3397
   35MPD2     C  532   1.947   0.360  11.950  0.5191 -0.9443 -0.2869
   35MPD2    C1  533   1.937   0.253  12.041 -0.5258  0.6307 -0.5906
   35MPD2    C2  534   1.816   0.183  12.039  0.7104  0.2298 -0.2033
   35MPD2    C3  535   1.704   0.220  11.965  0.1127 -0.0192  0.0943
   35MPD2    C4  536   1.719   0.327  11.875  0.0526  0.1922  0.4111
   35MPD2    C5  537   1.840   0.399  11.871  0.2567  0.2137  0.2024
   35MPD2     H  538   1.801   0.105  12.113 -2.3202  0.9863 -0.0321
   35MPD2    H1  539   1.636   0.364  11.817 -1.3199  0.1353  2.3286
   35MPD2    H2  540   2.035   0.423  11.946 -0.3665  0.3066 -0.3656
   35MPD2    H3  541   1.859   0.470  11.792  0.9715  1.9012  1.9050
   35MPD2     N  542   1.585   0.151  11.985  0.3818 -0.4289 -0.6192
   35MPD2    H5  543   1.578   0.076  12.053  0.6230  0.0833 -0.0306
   35MPD2    N1  544   2.038   0.223  12.137 -0.0026 -0.4480 -0.0186
   35MPD2    H7  545   2.111   0.290  12.155  0.0103 -0.7095  0.9172
   36TCq2    C1  546   1.471   0.178  11.912 -0.6697  0.4871  0.8380
   36TCq2    O2  547   1.462   0.248  11.814  0.4090  1.1720 -0.4064
   36TCq2    C2  548   1.352   0.103  11.952  0.6107  0.0129 -0.3869
   36TCq2    C3  549   1.241   0.178  11.958 -0.7729 -0.5413 -0.3296
   36TCq2    C4  550   1.141   0.145  12.041 -0.0187 -0.6366 -0.5269
   36TCq2    C5  551   1.145   0.034  12.125 -0.1855 -0.5341  0.0814
   36TCq2    C6  552   1.263   4.686  12.112  0.0959 -0.0425  0.5959
   36TCq2    C7  553   1.370   0.002  12.040 -0.6329 -0.8184  0.0674
   36TCq2    C8  554   1.273   4.553  12.176 -0.7977 -0.9794 -0.5511
   36TCq2    O4  555   1.384   4.519  12.208 -0.1518 -0.1067  0.1086
   36TCq2    C9  556   1.025   0.222  12.046 -0.0150 -0.6880  0.0673
   36TCq2    O5  557   1.005   0.313  11.960 -0.6025 -0.1103 -0.3922
   36TCq2    O6  558   0.938   0.185  12.135 -0.0071 -0.1362  0.2426
   36TCq2    H2  559   1.234   0.276  11.912  1.1594 -1.0367 -1.6775
   36TCq2    H3  560   1.067   0.012  12.197  0.4301 -3.2297 -0.0995
   36TCq2    H4  561   1.440   4.645  12.021 -0.9505 -0.7042 -1.5331
   37TMC2    C1  562   3.784   0.511  11.457 -0.0120 -0.0164 -0.1413
   37TMC2    C2  563   3.770   0.506  11.327  0.4370  0.6276  0.0301
   37TMC2    C3  564   3.879   0.501  11.246  0.0184  0.1368  0.5497
   37TMC2    C4  565   3.907   0.519  11.520 -0.7636 -0.3112 -0.1470
   37TMC2    C5  566   4.013   0.524  11.434  0.5318  0.2882  0.5253
   37TMC2    C6  567   4.004   0.504  11.302  0.1603 -0.4508 -0.6004
   37TMC2     C  568   3.664   0.539  11.538 -0.0015  0.2393  0.3374
   37TMC2     O  569   3.558   0.578  11.487 -0.2085  0.3419 -0.2267
   37TMC2     H  570   3.670   0.512  11.284 -1.1190  1.7735  3.7851
   37TMC2    H1  571   3.919   0.542  11.625  1.4271  0.3352 -0.5391
   37TMC2    H2  572   4.094   0.493  11.241  0.5887 -0.7249  0.0789
   37TMC2    C7  573   4.142   0.528  11.499 -0.0853  0.3644  0.0000
   37TMC2    C8  574   3.868   0.457  11.103 -0.0460  0.7283  0.4099
   37TMC2    O1  575   4.137   0.499  11.619  0.1600 -0.2936  0.3385
   37TMC2    O2  576   3.841   0.342  11.072 -0.1562 -0.5282  0.0329
   37TMC2    O5  577   3.954   0.533  11.031  0.5939  0.1676  0.4564
   37TMC2    H5  578   3.965   0.624  11.068 -4.3424  1.7036 -1.8944
   38MPD2     C  579   3.429   0.564  11.994  0.3567 -0.1868  0.0115
   38MPD2    C1  580   3.544   0.489  12.013 -1.0163  0.0829  0.5098
   38MPD2    C2  581   3.626   0.461  11.901  0.2671  0.6991  0.0832
   38MPD2    C3  582   3.588   0.507  11.775  0.6329 -0.1188  0.4108
   38MPD2    C4  583   3.462   0.567  11.761  0.1370  0.1114  0.0074
   38MPD2    C5  584   3.391   0.600  11.866  0.5291 -0.2020  0.1487
   38MPD2     H  585   3.721   0.409  11.916 -1.4778 -2.3183  0.6912
   38MPD2    H1  586   3.433   0.585  11.658  0.1538 -1.7630 -0.3362
   38MPD2    H2  587   3.358   0.586  12.073 -1.2575  0.3955 -1.5948
   38MPD2    H3  588   3.300   0.658  11.859 -0.3252 -1.0618  4.0577
   38MPD2     N  589   3.679   0.488  11.661  0.1434 -0.2470 -0.1354
   38MPD2    H5  590   3.759   0.430  11.683 -0.1708  0.0100  1.6919
   38MPD2    N1  591   3.598   0.444  12.135  0.3637  0.0984 -0.6464
   38MPD2    H7  592   3.687   0.397  12.149 -1.1255 -2.5743  0.0947
   39MPD2     C  593   2.027   2.459   1.496 -1.2126 -0.5685  0.1693
   39MPD2    C1  594   1.969   2.561   1.560  0.3010 -0.5044 -0.3419
   39MPD2    C2  595   1.837   2.591   1.523 -0.5146 -0.2621 -0.7109
   39MPD2    C3  596   1.768   2.515   1.436  0.4784 -0.3714 -0.6261
   39MPD2    C4  597   1.827   2.410   1.377 -0.0977 -0.2478 -0.0356
   39MPD2    C5  598   1.954   2.381   1.404 -0.8830 -0.1265 -0.1111
   39MPD2     H  599   1.788   2.679   1.560 -1.3336  0.0318 -2.4952
   39MPD2    H1  600   1.774   2.358   1.299 -2.7942 -0.0646  1.6815
   39MPD2    H2  601   2.127   2.427   1.525 -0.0923  2.8224 -0.0080
   39MPD2    H3  602   1.995   2.297   1.348  1.7449  1.3742 -0.4429
   39MPD2     N  603   1.633   2.541   1.392  0.2654  0.5861  0.0974
   39MPD2    H5  604   1.599   2.493   1.309  0.1645 -1.3581  1.2749
   39MPD2    N1  605   2.042   2.624   1.664  0.5316 -0.0781 -0.4708
   39MPD2    H7  606   2.141   2.603   1.658  0.7168  0.5161  0.4885
   40TCq2    C1  607   1.995   2.714   1.760  1.1921  0.0885  0.1562
   40TCq2    O2  608   1.881   2.753   1.779 -0.3389  0.0600 -0.6873
   40TCq2    C2  609   2.100   2.772   1.848  0.0611  0.9899 -0.1620
   40TCq2    C3  610   2.066   2.796   1.979 -0.4809 -0.0983  0.3761
   40TCq2    C4  611   2.160   2.847   2.063 -0.5430 -0.2232  0.1905
   40TCq2    C5  612   2.294   2.854   2.025  0.4991 -0.0146 -0.2491
   40TCq2    C6  613   2.325   2.825   1.892  0.7448  0.7145  0.1822
   40TCq2    C7  614   2.231   2.766   1.803  0.2612  0.4402  0.4676
   40TCq2    C8  615   2.459   2.855   1.844 -0.4937 -0.1289 -0.0005
   40TCq2    O4  616   2.501   2.787   1.749 -0.2815 -0.1344  0.0882
   40TCq2    C9  617   2.132   2.895   2.198 -0.2125 -0.4842 -0.2830
   40TCq2    O5  618   2.007   2.884   2.232 -0.2769 -0.2513 -0.2603
   40TCq2    O6  619   2.218   2.962   2.263 -0.1695  0.1493  0.1690
   40TCq2    H2  620   1.961   2.796   2.006 -0.5232 -0.2585  0.2177
   40TCq2    H3  621   2.369   2.889   2.096 -0.7454  2.5921 -0.2204
   40TCq2    H4  622   2.257   2.757   1.698 -0.8670  0.4615  0.1883
   41TMC2    C1  623   1.458   0.548  14.260  0.2856 -0.1958 -0.3266
   41TMC2    C2  624   1.530   0.661  14.242 -0.1252  0.1731 -0.3851
   41TMC2    C3  625   1.575   0.692  14.118 -0.0037 -0.5105  0.6073
   41TMC2    C4  626   1.426   0.472  14.147  0.1828 -0.1803 -0.1517
   41TMC2    C5  627   1.462   0.509  14.026  0.0098 -1.2077  0.5067
   41TMC2    C6  628   1.544   0.615  14.010 -0.2339  0.2643  0.6595
   41TMC2     C  629   1.375   0.536  14.382  0.3211 -0.1440 -0.6579
   41TMC2     O  630   1.336   0.429  14.414 -0.4196 -0.4540  0.1338
   41TMC2     H  631   1.549   0.725  14.327 -0.6496  1.8126 -1.4887
   41TMC2    H1  632   1.354   0.392  14.154  1.1161 -1.0441 -0.5580
   41TMC2    H2  633   1.564   0.653  13.911  1.4576  1.6800  1.5415
   41TMC2    C7  634   1.398   0.442  13.912  0.2986 -0.7695 -0.2778
   41TMC2    C8  635   1.665   0.809  14.101  0.0196 -0.5598 -0.1809
   41TMC2    O1  636   1.390   0.322  13.929 -0.4364  0.1990 -0.2455
   41TMC2    O2  637   1.678   0.886  14.196 -0.1470  0.1476 -0.6476
   41TMC2    O5  638   1.768   0.757  14.029 -0.4382  0.2611  0.7369
   41TMC2    H5  639   1.738   0.736  13.938 -0.3984  1.4932  0.4322
   42MPD2     C  640   1.177   0.592  14.603  0.5620  0.7717  0.8889
   42MPD2    C1  641   1.234   0.690  14.520 -0.7389 -0.4333  0.0355
   42MPD2    C2  642   1.197   0.823  14.528  0.0096  0.1779  0.4083
   42MPD2    C3  643   1.099   0.868  14.615  0.0026 -0.3181 -0.5339
   42MPD2    C4  644   1.045   0.773  14.695 -0.1440  0.4309  0.3907
   42MPD2    C5  645   1.082   0.637  14.693  0.8005  0.2491  0.2447
   42MPD2     H  646   1.254   0.892  14.466  0.5783 -3.1693 -2.7823
   42MPD2    H1  647   0.960   0.806  14.753 -0.3953  1.9319 -0.8486
   42MPD2    H2  648   1.193   0.486  14.594 -2.8308  0.4987 -1.9939
   42MPD2    H3  649   1.020   0.568  14.749  0.1120  0.6512 -0.0205
   42MPD2     N  650   1.071   1.003  14.631 -0.6481  0.0855  0.2309
   42MPD2    H5  651   1.009   1.032  14.705  1.0203  1.5369  1.0606
   42MPD2    N1  652   1.326   0.658  14.417  0.1545 -0.7064 -0.2929
   42MPD2    H7  653   1.346   0.738  14.357 -0.9886  0.8635  1.3877
   43MPD2     C  654   2.384   4.292   0.938 -0.0283 -0.1983  0.2623
   43MPD2    C1  655   2.469   4.200   1.011  0.8080  0.1671  0.0866
   43MPD2    C2  656   2.444   4.179   1.146 -0.4094  0.1590  0.8072
   43MPD2    C3  657   2.339   4.252   1.208 -0.6821 -0.4886  0.2347
   43MPD2    C4  658   2.270   4.347   1.132  0.6067 -0.0399 -0.2148
   43MPD2    C5  659   2.292   4.366   1.001 -0.1012 -0.2961 -0.0952
   43MPD2     H  660   2.498   4.101   1.198  2.1764  0.0949 -2.0155
   43MPD2    H1  661   2.189   4.409   1.170  1.5971  0.6241  0.8323
   43MPD2    H2  662   2.388   4.310   0.832  2.6558  0.0139  0.4092
   43MPD2    H3  663   2.224   4.431   0.948  0.8581  0.5040 -0.3378
   43MPD2     N  664   2.304   4.244   1.344  0.0271  0.2907  0.0643
   43MPD2    H5  665   2.222   4.294   1.377 -0.2704  0.4472 -0.9183
   43MPD2    N1  666   2.574   4.123   0.955  0.3692  0.2627  0.5943
   43MPD2    H7  667   2.631   4.071   1.022  0.3702  0.6328  0.8827
   44TCq2    C1  668   2.450   4.260   1.889  0.7101  0.7661  0.3338
   44TCq2    O2  669   2.562   4.296   1.861  0.1048  0.4178 -0.0639
   44TCq2    C2  670   2.372   4.190   1.791 -0.2393  0.5663 -0.3910
   44TCq2    C3  671   2.240   4.159   1.820  0.4900 -0.0668  0.2238
   44TCq2    C4  672   2.154   4.129   1.718 -0.5743  0.3693  0.2418
   44TCq2    C5  673   2.194   4.147   1.588 -0.2874  1.1213  0.0886
   44TCq2    C6  674   2.326   4.195   1.564  0.4837 -0.4055 -0.0536
   44TCq2    C7  675   2.418   4.209   1.664 -0.2900  0.3554  0.3558
   44TCq2    C8  676   2.379   4.179   1.437 -0.1433 -0.7458  0.4405
   44TCq2    O4  677   2.483   4.115   1.422  1.0198  0.0804  0.8394
   44TCq2    C9  678   2.017   4.091   1.740  0.0111  0.2095 -0.4149
   44TCq2    O5  679   1.965   4.024   1.648 -0.2161  0.1778  0.0086
   44TCq2    O6  680   1.986   4.113   1.863  0.2150 -0.1230  0.4342
   44TCq2    H2  681   2.198   4.142   1.918 -0.3765 -0.8749 -0.2868
   44TCq2    H3  682   2.121   4.123   1.512 -0.1246 -2.5117  1.0666
   44TCq2    H4  683   2.520   4.239   1.641 -0.8994  0.9399 -1.5751
   45TMC2    C1  684   2.935   0.754   9.432  0.3165 -0.7317 -0.1134
   45TMC2    C2  685   2.837   0.848   9.409  0.5172  0.1067  0.0987
   45TMC2    C3  686   2.872   0.980   9.414 -0.4192  0.3219 -0.4278
   45TMC2    C4  687   3.068   0.781   9.440 -0.1839 -0.1640 -1.1992
   45TMC2    C5  688   3.095   0.916   9.441 -0.4753 -0.2347 -0.0145
   45TMC2    C6  689   3.005   1.016   9.430  0.0810  0.0049  0.0350
   45TMC2     C  690   2.897   0.614   9.431  0.2085  0.4261 -0.4493
   45TMC2     O  691   2.982   0.529   9.459  0.8561 -0.1057  0.6579
   45TMC2     H  692   2.730   0.831   9.397  0.6751 -1.8564  1.4670
   45TMC2    H1  693   3.138   0.698   9.441 -0.0184 -0.0435 -2.8707
   45TMC2    H2  694   3.044   1.116   9.413 -1.3042  0.1128 -2.5128
   45TMC2    C7  695   3.234   0.953   9.474 -0.2452  0.0838 -0.2806
   45TMC2    C8  696   2.775   1.083   9.377 -0.5150  0.1030 -0.5111
   45TMC2    O1  697   3.319   0.864   9.461 -0.5642  0.7361 -0.5227
   45TMC2    O2  698   2.675   1.055   9.315 -0.1888  0.6317 -0.1960
   45TMC2    O5  699   2.811   1.197   9.435  0.0566  0.3500 -0.0580
   45TMC2    H5  700   2.888   1.190   9.495 -0.4018  2.1064  0.7426
   46MPD2     C  701   2.756   0.366   9.430 -0.3242 -0.1619  0.7187
   46MPD2    C1  702   2.709   0.474   9.364 -0.1817 -0.8287 -0.0230
   46MPD2    C2  703   2.581   0.471   9.308 -0.7121  0.0851  0.0744
   46MPD2    C3  704   2.500   0.359   9.323 -0.0060  0.0862  0.1212
   46MPD2    C4  705   2.554   0.245   9.380  0.5735 -0.5147 -0.3728
   46MPD2    C5  706   2.677   0.258   9.435 -0.8068  0.8683 -0.4891
   46MPD2     H  707   2.548   0.560   9.255  0.0875  0.4347  0.1573
   46MPD2    H1  708   2.496   0.153   9.380 -0.3622  0.0732  0.0087
   46MPD2    H2  709   2.858   0.360   9.464 -0.2349 -0.9822  0.2907
   46MPD2    H3  710   2.717   0.173   9.490 -0.2087  0.7563 -1.0967
   46MPD2     N  711   2.367   0.364   9.276  0.1995  0.8465 -0.1126
   46MPD2    H5  712   2.338   0.454   9.239  0.1461  0.2684 -1.4934
   46MPD2    N1  713   2.776   0.595   9.371 -0.3860 -0.0689 -0.3443
   46MPD2    H7  714   2.723   0.673   9.332 -0.1884  0.3794  0.2914
   47TMC2    C1  715   1.661   4.636   9.232  0.5104 -1.1716  0.7513
   47TMC2    C2  716   1.786   4.654   9.278 -0.3390 -0.3935  0.0326
   47TMC2    C3  717   1.870   4.547   9.268 -0.1792 -0.4487 -0.1314
   47TMC2    C4  718   1.615   4.517   9.188  0.5199 -0.7001  0.5677
   47TMC2    C5  719   1.708   4.415   9.178 -0.3619 -0.3002 -0.0379
   47TMC2    C6  720   1.844   4.427   9.209  1.1066 -0.3678 -0.1528
   47TMC2     C  721   1.561   0.014   9.239 -0.7142  0.2915 -0.6526
   47TMC2     O  722   1.451   4.717   9.181  0.0863  0.1063  0.3906
   47TMC2     H  723   1.827   0.030   9.284  0.3663 -0.6223 -0.9112
   47TMC2    H1  724   1.510   4.491   9.176 -0.0050  1.7049 -0.0452
   47TMC2    H2  725   1.927   4.359   9.192 -0.5287 -3.0012  2.3652
   47TMC2    C7  726   1.659   4.295   9.113 -0.6160 -0.2273  0.3167
   47TMC2    C8  727   2.011   4.559   9.284 -0.3072 -0.2281 -0.7273
   47TMC2    O1  728   1.545   4.294   9.069 -0.3782  0.2196  0.8389
   47TMC2    O2  729   2.064   4.570   9.390 -0.2139  0.2824  0.1157
   47TMC2    O5  730   2.029   4.640   9.178  0.4151 -0.0385  0.0637
   47TMC2    H5  731   1.964   4.630   9.104 -0.4316  3.2778  0.3764
   48MPD2     C  732   1.424   0.276   9.232  1.1714 -0.0272 -0.1916
   48MPD2    C1  733   1.503   0.220   9.333  0.6378 -0.2145  0.5028
   48MPD2    C2  734   1.494   0.274   9.460  0.2550  0.0270  0.0634
   48MPD2    C3  735   1.403   0.368   9.497 -0.2071  0.4676  0.6194
   48MPD2    C4  736   1.315   0.407   9.400  0.0815 -0.2755 -0.3653
   48MPD2    C5  737   1.328   0.365   9.271  0.0833  0.1929 -0.4758
   48MPD2     H  738   1.566   0.237   9.533  0.1230 -0.2576  0.0520
   48MPD2    H1  739   1.223   0.461   9.419 -0.0658 -0.5252 -0.3589
   48MPD2    H2  740   1.425   0.234   9.132 -0.6169  1.4046 -0.8081
   48MPD2    H3  741   1.242   0.384   9.208  0.1576  0.7258 -0.4139
   48MPD2     N  742   1.389   0.408   9.638  0.8467  0.1888 -0.0676
   48MPD2    H5  743   1.450   0.360   9.703  0.5265  0.2877  0.3036
   48MPD2    N1  744   1.594   0.118   9.318 -0.3592  0.2441  0.1200
   48MPD2    H7  745   1.660   0.098   9.393 -1.7127  0.1745  1.2888
   49MPD2     C  746   4.322   3.015  10.337 -0.0752 -0.3697  0.2150
   49MPD2    C1  747   4.278   2.889  10.302 -0.2134 -0.4771  0.7290
   49MPD2    C2  748   4.193   2.824  10.390 -0.3928 -0.1258 -0.3570
   49MPD2    C3  749   4.162   2.882  10.513  0.1119 -0.0400  0.1549
   49MPD2    C4  750   4.210   3.007  10.546  0.5961  0.3336 -0.5637
   49MPD2    C5  751   4.287   3.072  10.459 -0.3626 -0.1680 -0.2576
   49MPD2     H  752   4.140   2.738  10.353  2.2399 -1.0538 -1.9966
   49MPD2    H1  753   4.193   3.054  10.643 -0.4868 -0.6887 -0.2558
   49MPD2    H2  754   4.377   3.074  10.264  0.3450 -0.2651  0.6151
   49MPD2    H3  755   4.319   3.175  10.474  1.2515 -0.7164 -0.0165
   49MPD2     N  756   4.082   2.816  10.611 -0.0549 -0.2560 -0.4917
   49MPD2    H5  757   4.070   2.860  10.702  0.6728  1.8011 -1.3903
   49MPD2    N1  758   4.313   2.824  10.179 -0.2468 -0.5276  0.1907
   49MPD2    H7  759   4.261   2.739  10.160 -2.3568  0.8390 -0.1260
   50TCq2    C1  760   4.397   2.876  10.081  0.8725  0.1639  0.2991
   50TCq2    O2  761   4.481   2.966  10.084  0.4114 -0.4955 -0.0602
   50TCq2    C2  762   4.381   2.804   9.953 -0.2109 -0.3110 -0.2001
   50TCq2    C3  763   4.491   2.779   9.879 -0.2656  0.0414 -0.2273
   50TCq2    C4  764   4.477   2.717   9.757 -0.5320 -0.2451  0.8177
   50TCq2    C5  765   4.357   2.685   9.706  0.2499 -0.1094 -0.2519
   50TCq2    C6  766   4.250   2.715   9.783 -0.7238  1.1006  0.1195
   50TCq2    C7  767   4.260   2.766   9.908 -0.1159  0.3419  0.5790
   50TCq2    C8  768   4.120   2.709   9.722 -0.2278  0.8315 -0.4208
   50TCq2    O4  769   4.100   2.635   9.622 -0.0119  0.6848 -0.6334
   50TCq2    C9  770   4.593   2.697   9.674  0.7301 -0.6050 -0.3548
   50TCq2    O5  771   4.698   2.755   9.720 -0.2643 -0.3204 -0.0383
   50TCq2    O6  772   4.582   2.641   9.562 -0.1883 -0.3324  0.1007
   50TCq2    H2  773   4.585   2.819   9.914 -0.2106 -1.1337  0.9743
   50TCq2    H3  774   4.346   2.647   9.605 -1.0578  2.3109 -1.0253
   50TCq2    H4  775   4.174   2.776   9.973 -0.1579  1.5144  0.3439
   51MPD2     C  776   4.375   2.343   1.015 -0.4549 -0.0122 -0.1550
   51MPD2    C1  777   4.235   2.374   1.022  0.2209 -0.2711  0.3064
   51MPD2    C2  778   4.193   2.463   1.127  0.6251  0.0657  0.6776
   51MPD2    C3  779   4.290   2.523   1.209  0.7800 -0.4199 -0.2407
   51MPD2    C4  780   4.421   2.484   1.203 -0.7653  0.1296  0.1594
   51MPD2    C5  781   4.458   2.391   1.115  0.0995  0.9474  0.0797
   51MPD2     H  782   4.090   2.496   1.137  0.0658 -1.3160 -0.6203
   51MPD2    H1  783   4.492   2.518   1.277 -1.4651  0.4085  0.6973
   51MPD2    H2  784   4.427   2.271   0.953 -1.5935  0.1497 -1.3241
   51MPD2    H3  785   4.563   2.362   1.117 -0.2564 -0.4375 -1.7522
   51MPD2     N  786   4.266   2.630   1.294 -0.9642 -0.4527 -0.2091
   51MPD2    H5  787   4.346   2.667   1.343 -0.0865 -3.0750  0.3516
   51MPD2    N1  788   4.135   2.306   0.950 -0.3630 -0.8382 -0.2767
   51MPD2    H7  789   4.040   2.337   0.966  0.3048  0.2852  1.4693
   52TCq2    C1  790   4.146   2.692   1.307  0.4123  0.2528 -0.0221
   52TCq2    O2  791   4.039   2.663   1.254 -0.4560 -0.3089  0.0294
   52TCq2    C2  792   4.138   2.766   1.427 -0.3258  1.0576 -0.8440
   52TCq2    C3  793   4.034   2.751   1.513  0.0993  0.2489  0.4740
   52TCq2    C4  794   4.024   2.841   1.611  0.1096 -0.5290 -0.2970
   52TCq2    C5  795   4.124   2.920   1.644 -0.7470 -0.2628  0.3295
   52TCq2    C6  796   4.235   2.919   1.566  0.4382  0.4950  0.6657
   52TCq2    C7  797   4.247   2.844   1.455  0.1591 -0.4982 -0.0893
   52TCq2    C8  798   4.345   3.004   1.606 -0.2028  0.4241  0.0726
   52TCq2    O4  799   4.340   3.054   1.718  0.3772  0.3151 -0.2743
   52TCq2    C9  800   3.908   2.847   1.697  0.4538 -0.3746 -0.8930
   52TCq2    O5  801   3.863   2.743   1.744  0.5096 -0.1444 -0.3894
   52TCq2    O6  802   3.893   2.954   1.755  0.0993 -0.0705 -1.0078
   52TCq2    H2  803   3.954   2.683   1.484  1.0810 -0.7150  0.0337
   52TCq2    H3  804   4.110   2.987   1.727 -1.6839 -2.1230  1.6652
   52TCq2    H4  805   4.313   2.866   1.372 -1.0089 -0.6380 -1.0529
   53TMC2    C1  806   4.701   0.505  11.976  0.4017 -0.2916 -0.3791
   53TMC2    C2  807   0.092   0.555  12.026 -0.2409 -0.3728 -0.0725
   53TMC2    C3  808   0.089   0.618  12.148 -0.0739  0.6066 -0.2508
   53TMC2    C4  809   4.585   0.504  12.050  0.0998 -0.2418  0.2004
   53TMC2    C5  810   4.584   0.560  12.174  0.4796 -0.5031 -0.5686
   53TMC2    C6  811   4.697   0.619  12.222  0.1103  0.2199  0.1107
   53TMC2     C  812   4.695   0.484  11.833 -0.3042 -0.4903  1.0260
   53TMC2     O  813   0.075   0.442  11.786  0.9725 -0.6462  0.0179
   53TMC2     H  814   0.185   0.545  11.972 -0.6300  0.1719 -0.8439
   53TMC2    H1  815   4.491   0.469  12.010  0.2116 -0.2718 -0.0369
   53TMC2    H2  816   4.695   0.671  12.317 -0.2520  2.1049 -0.9320
   53TMC2    C7  817   4.450   0.574  12.234 -0.5124 -0.4059 -0.1824
   53TMC2    C8  818   0.216   0.624  12.222 -0.1416 -0.4219 -0.0145
   53TMC2    O1  819   4.348   0.530  12.176 -0.3077  0.2106 -0.1169
   53TMC2    O2  820   0.218   0.711  12.307 -0.2367  0.2985 -0.3943
   53TMC2    O5  821   0.247   0.496  12.259 -0.2309  0.1114  0.6603
   53TMC2    H5  822   0.209   0.427  12.200 -0.2702  0.3289  0.4303
   54MPD2     C  823   4.652   0.467  11.536 -0.5305  0.2770 -0.0486
   54MPD2    C1  824   4.551   0.509  11.628 -0.1082  0.0468 -0.2549
   54MPD2    C2  825   4.425   0.540  11.588  0.0366 -0.4452 -0.1209
   54MPD2    C3  826   4.389   0.506  11.458  0.3109  0.4964 -0.1511
   54MPD2    C4  827   4.488   0.459  11.368 -0.2885 -0.0382  0.1815
   54MPD2    C5  828   4.620   0.441  11.405 -0.0087  0.3558  0.3679
   54MPD2     H  829   4.357   0.578  11.664 -0.1149 -0.6918 -0.1347
   54MPD2    H1  830   4.454   0.428  11.270 -0.1404 -1.3598  0.5490
   54MPD2    H2  831   0.031   0.450  11.562 -0.1436  0.2916 -1.5695
   54MPD2    H3  832   4.700   0.416  11.337  0.7560  2.4675  0.4682
   54MPD2     N  833   4.258   0.526  11.414  0.0113  0.1702  0.2588
   54MPD2    H5  834   4.235   0.521  11.316  2.0500 -0.7856 -0.1741
   54MPD2    N1  835   4.580   0.525  11.770 -0.3838 -0.8573 -0.3794
   54MPD2    H7  836   4.509   0.556  11.836  0.7103 -0.8025  0.7894
   55MPD2     C  837   0.456   3.658   0.606 -0.5903  0.1149 -0.7351
   55MPD2    C1  838   0.373   3.552   0.621  0.2555 -0.1382  0.0755
   55MPD2    C2  839   0.239   3.574   0.641 -0.4786 -0.1504 -0.0403
   55MPD2    C3  840   0.198   3.706   0.648 -0.3042 -0.6852 -0.1074
   55MPD2    C4  841   0.285   3.814   0.630  0.3932 -0.3068 -0.4114
   55MPD2    C5  842   0.413   3.784   0.604  0.0949  0.3950  0.3002
   55MPD2     H  843   0.161   3.499   0.639  2.1408 -2.8914  1.0403
   55MPD2    H1  844   0.250   3.916   0.615  0.8500 -0.1300 -0.2830
   55MPD2    H2  845   0.562   3.643   0.589 -0.4672  0.0635  0.0855
   55MPD2    H3  846   0.485   3.863   0.586  0.0152  0.2188 -0.7764
   55MPD2     N  847   0.056   3.724   0.666  0.2679  0.2965  0.1282
   55MPD2    H5  848   0.006   3.637   0.674 -1.5897  1.5159  1.7163
   55MPD2    N1  849   0.436   3.423   0.600 -0.4699 -0.1752  0.0807
   55MPD2    H7  850   0.537   3.417   0.593 -0.6454 -1.7487 -0.9954
   56TCq2    C1  851   0.373   3.302   0.584 -0.0436  0.0241 -0.3952
   56TCq2    O2  852   0.256   3.280   0.578 -0.2714  0.1007 -0.1228
   56TCq2    C2  853   0.464   3.191   0.567 -0.5839  0.5643 -0.1527
   56TCq2    C3  854   0.552   3.177   0.673  0.1259 -0.5601  0.1278
   56TCq2    C4  855   0.610   3.057   0.689 -0.2382  0.0389  0.3970
   56TCq2    C5  856   0.575   2.947   0.615 -0.0848 -0.1721  0.0218
   56TCq2    C6  857   0.475   2.960   0.519  0.4654 -0.7086 -0.5944
   56TCq2    C7  858   0.414   3.081   0.503 -0.2429  0.6881  0.2977
   56TCq2    C8  859   0.401   2.836   0.496 -0.0401 -0.1562  0.2661
   56TCq2    O4  860   0.464   2.741   0.458 -0.7517  0.1663  0.2754
   56TCq2    C9  861   0.725   3.042   0.772 -0.0840  0.4421  0.3086
   56TCq2    O5  862   0.808   2.959   0.728  0.5280  0.0160  0.8865
   56TCq2    O6  863   0.736   3.119   0.870 -0.0123  0.2393  0.9952
   56TCq2    H2  864   0.579   3.259   0.739  0.6539 -0.9957  0.4484
   56TCq2    H3  865   0.633   2.858   0.637  1.4001  1.0597  1.1190
   56TCq2    H4  866   0.333   3.097   0.433 -2.1370  1.9628  2.7330
   57TMC2    C1  867   4.276   4.318  13.247  0.1635 -0.6516 -0.1462
   57TMC2    C2  868   4.207   4.206  13.207  0.4307 -0.1130  0.2985
   57TMC2    C3  869   4.242   4.141  13.088  0.5986  0.0965  0.1609
   57TMC2    C4  870   4.393   4.362  13.187  0.7755  0.5283  0.9336
   57TMC2    C5  871   4.426   4.287  13.081  0.1428  0.0400 -0.0593
   57TMC2    C6  872   4.356   4.180  13.026 -0.2630  0.5508  0.4693
   57TMC2     C  873   4.232   4.387  13.370 -0.4182  0.4712  0.4624
   57TMC2     O  874   4.241   4.507  13.376 -0.0560  0.2336 -0.5547
   57TMC2     H  875   4.118   4.169  13.256  0.0113  0.9773  0.3644
   57TMC2    H1  876   4.451   4.449  13.216  0.4618  0.5755  1.4106
   57TMC2    H2  877   4.386   4.148  12.927 -0.0495  0.1969  0.6477
   57TMC2    C7  878   4.543   4.320  13.004 -0.3906 -0.0082  0.5297
   57TMC2    C8  879   4.233   4.000  13.103  0.7331 -0.0353 -0.0431
   57TMC2    O1  880   4.562   4.441  13.003  0.2259  0.2182  0.3301
   57TMC2    O2  881   4.333   3.934  13.091 -0.0458  0.6592 -0.4313
   57TMC2    O5  882   4.112   3.980  13.054  0.1616 -0.3550  0.3102
   57TMC2    H5  883   4.043   4.049  13.058 -0.7225 -1.0939 -2.2153
   58MPD2     C  884   4.034   4.385  13.840 -0.4470 -1.1081 -0.3536
   58MPD2    C1  885   4.056   4.487  13.757  0.0250 -0.1481 -0.6753
   58MPD2    C2  886   4.109   4.465  13.632 -0.3638  0.0929  0.2224
   58MPD2    C3  887   4.129   4.337  13.586 -0.8479 -0.5085  0.2371
   58MPD2    C4  888   4.098   4.236  13.674  0.2304 -0.2110  0.3064
   58MPD2    C5  889   4.051   4.258  13.797  0.2506 -0.1729  0.6473
   58MPD2     H  890   4.124   4.549  13.566  0.3726 -0.6528 -0.5727
   58MPD2    H1  891   4.123   4.133  13.653  0.4744 -0.1733  0.4101
   58MPD2    H2  892   3.987   4.398  13.937  0.1975 -1.0194 -0.0596
   58MPD2    H3  893   4.046   4.175  13.867  0.0216 -0.9319 -0.2650
   58MPD2     N  894   4.183   4.296  13.458 -0.0483  0.7768  0.7188
   58MPD2    H5  895   4.189   4.197  13.437  1.4285  0.9476  0.3333
   58MPD2    N1  896   4.024   4.623  13.799 -0.6089  0.1403  0.4618
   58MPD2    H7  897   4.050   4.696  13.733 -1.0102  2.0225  2.4012
   59MPD2     C  898   2.043   4.125  13.470 -0.9081  0.3011  0.2619
   59MPD2    C1  899   2.115   4.170  13.357 -0.1216 -0.4919  0.3464
   59MPD2    C2  900   2.198   4.283  13.374  0.5410  0.3493 -0.6700
   59MPD2    C3  901   2.220   4.342  13.499 -0.4071  0.0784 -0.0549
   59MPD2    C4  902   2.149   4.287  13.605  0.5228  0.0708 -0.2036
   59MPD2    C5  903   2.061   4.186  13.592 -0.3583 -0.0541 -0.1309
   59MPD2     H  904   2.260   4.310  13.289 -0.0437 -1.4507 -1.6789
   59MPD2    H1  905   2.165   4.323  13.706 -1.4744  1.0244 -0.2311
   59MPD2    H2  906   1.975   4.042  13.455  0.4491 -0.6869 -0.5201
   59MPD2    H3  907   2.013   4.161  13.685 -2.7195 -0.2698 -1.4257
   59MPD2     N  908   2.332   4.427  13.515  0.0567  0.2977  0.5874
   59MPD2    H5  909   2.365   4.448  13.609  2.1187 -0.7301  0.0947
   59MPD2    N1  910   2.122   4.094  13.236  0.7118  0.6453  0.3852
   59MPD2    H7  911   2.176   4.141  13.165  1.3261 -1.0460 -0.2576
   60TCq2    C1  912   2.055   3.980  13.208  0.1129  0.1409 -0.0439
   60TCq2    O2  913   1.972   3.912  13.274 -0.6268  0.3547 -0.1574
   60TCq2    C2  914   2.082   3.928  13.072  1.3706 -0.3540  0.0505
   60TCq2    C3  915   2.023   3.814  13.028  0.5744  0.6376  0.1108
   60TCq2    C4  916   2.077   3.738  12.930  0.5094  0.6685 -0.4317
   60TCq2    C5  917   2.182   3.777  12.860 -0.7033  0.1880 -0.4014
   60TCq2    C6  918   2.234   3.903  12.890  0.6722 -0.2896 -0.0797
   60TCq2    C7  919   2.187   3.977  12.996 -0.3594 -0.2000 -0.4904
   60TCq2    C8  920   2.318   3.963  12.792 -0.5910  0.5661 -0.1298
   60TCq2    O4  921   2.380   3.890  12.715  0.2289  0.8547 -0.5032
   60TCq2    C9  922   2.032   3.601  12.925  0.0531 -0.7910 -0.3953
   60TCq2    O5  923   2.088   3.527  12.842 -0.1191  0.3404  0.2911
   60TCq2    O6  924   1.948   3.571  13.016  0.3029  0.2863  0.1716
   60TCq2    H2  925   1.938   3.776  13.083 -0.2100  1.4035 -0.5739
   60TCq2    H3  926   2.216   3.720  12.774  0.2246  0.2113 -0.0521
   60TCq2    H4  927   2.252   4.056  13.033 -1.6201  0.2139  0.8579
   61MPD2     C  928   1.760   1.152  15.537  0.5343 -0.5831  0.3405
   61MPD2    C1  929   1.642   1.191  15.474 -0.2212  0.6053  0.9716
   61MPD2    C2  930   1.633   1.320  15.417 -0.4321  0.7654  0.2645
   61MPD2    C3  931   1.745   1.403  15.423 -0.2969 -0.4750  0.7267
   61MPD2    C4  932   1.855   1.367  15.492  0.3885  0.1530  0.2782
   61MPD2    C5  933   1.864   1.238  15.536  0.0048  0.2577 -0.1362
   61MPD2     H  934   1.542   1.356  15.370  1.0658  0.6028 -2.7812
   61MPD2    H1  935   1.943   1.426  15.514  0.4480 -0.4811  1.7923
   61MPD2    H2  936   1.776   1.051  15.575 -1.8435 -1.1243 -0.1250
   61MPD2    H3  937   1.953   1.206  15.590 -0.1643 -0.7881 -0.4841
   61MPD2     N  938   1.749   1.524  15.353  0.0947  0.3807  0.7032
   61MPD2    H5  939   1.838   1.574  15.351 -0.7528  1.8864  0.6998
   61MPD2    N1  940   1.527   1.111  15.456 -0.3169  0.0291  0.0858
   61MPD2    H7  941   1.447   1.150  15.406  0.2043  0.5296 -0.3560
   62TCq2    C1  942   1.514   0.985  15.496  0.7332  0.7860  1.1473
   62TCq2    O2  943   1.609   0.916  15.536  0.2178 -0.4039 -0.4117
   62TCq2    C2  944   1.384   0.929  15.470 -1.3902  0.3938  0.0964
   62TCq2    C3  945   1.370   0.794  15.431  0.4798  0.5595 -0.2393
   62TCq2    C4  946   1.252   0.767  15.368  0.1970  0.4859 -0.2172
   62TCq2    C5  947   1.161   0.857  15.343 -0.0669  0.0162  0.8221
   62TCq2    C6  948   1.172   0.986  15.390 -0.0653  0.0987 -0.2798
   62TCq2    C7  949   1.289   1.026  15.454 -0.5927 -0.8162  0.1489
   62TCq2    C8  950   1.101   1.100  15.336 -0.1877 -0.6041 -0.5243
   62TCq2    O4  951   1.156   1.207  15.348  0.1455  0.1490  0.5626
   62TCq2    C9  952   1.233   0.633  15.323 -0.2336 -0.6171  1.0100
   62TCq2    O5  953   1.334   0.559  15.304  0.1433 -0.3409  0.1293
   62TCq2    O6  954   1.113   0.602  15.298  0.1833 -0.2963 -0.0260
   62TCq2    H2  955   1.450   0.721  15.429 -0.6383 -0.6983  0.7113
   62TCq2    H3  956   1.082   0.819  15.280  1.6304  0.5419 -1.5983
   62TCq2    H4  957   1.305   1.125  15.494 -0.1175 -1.0895  0.6335
   63TMC2    C1  958   1.165   0.793  11.139  0.1682  0.1140  0.6428
   63TMC2    C2  959   1.279   0.859  11.172 -0.1886 -0.5089  0.7037
   63TMC2    C3  960   1.352   0.909  11.069 -0.8933 -0.1846  0.2889
   63TMC2    C4  961   1.107   0.807  11.011  0.0648 -0.2379 -0.2861
   63TMC2    C5  962   1.187   0.861  10.914 -0.0856 -0.1205 -0.2201
   63TMC2    C6  963   1.301   0.927  10.946 -0.3496 -0.2445  0.1144
   63TMC2     C  964   1.083   0.729  11.241  0.1673 -0.1687 -0.3395
   63TMC2     O  965   1.100   0.770  11.355 -0.1646  0.2720  0.0965
   63TMC2     H  966   1.312   0.868  11.275 -0.4252 -1.4607  0.8726
   63TMC2    H1  967   1.012   0.763  10.983 -0.2780  0.2510  0.1024
   63TMC2    H2  968   1.369   0.967  10.872  1.0213 -1.0891  0.9110
   63TMC2    C7  969   1.111   0.901  10.799 -0.5034  0.0840  0.1774
   63TMC2    C8  970   1.402   1.033  11.122  0.3910 -0.1149  0.6620
   63TMC2    O1  971   1.005   0.846  10.765  0.3605 -0.2065  0.6906
   63TMC2    O2  972   1.374   1.147  11.074  0.2271 -0.5443  0.1091
   63TMC2    O5  973   1.492   1.000  11.214 -0.7565 -0.2606  0.7124
   63TMC2    H5  974   1.518   0.906  11.221  0.2481 -0.0769 -0.4878
   64MPD2     C  975   0.792   0.337  11.389 -0.5283  0.4272 -0.9365
   64MPD2    C1  976   0.824   0.319  11.253  0.1754 -0.3063  0.0671
   64MPD2    C2  977   0.906   0.415  11.196 -0.5717 -0.7300  0.0561
   64MPD2    C3  978   0.948   0.525  11.271  0.5822 -0.5938 -0.5801
   64MPD2    C4  979   0.912   0.544  11.411 -0.4950  0.8234  0.9677
   64MPD2    C5  980   0.839   0.438  11.463  0.4751 -0.7836  0.2697
   64MPD2     H  981   0.943   0.405  11.095 -2.9458 -2.3098 -0.6471
   64MPD2    H1  982   0.956   0.628  11.463  0.0881  1.3478 -0.3558
   64MPD2    H2  983   0.742   0.256  11.440 -0.6013  0.3537 -1.1250
   64MPD2    H3  984   0.809   0.443  11.568  2.9714 -0.2202  0.9553
   64MPD2     N  985   1.030   0.614  11.198 -0.2844 -0.4078 -0.1333
   64MPD2    H5  986   1.041   0.597  11.099  1.1232  0.4000 -0.1227
   64MPD2    N1  987   0.803   0.198  11.178  0.1928  0.1640  0.3377
   64MPD2    H7  988   0.838   0.204  11.083 -0.0137  1.8200  0.3552
   65MPD2     C  989   1.823   0.459  15.572  0.2332  0.2772  0.1348
   65MPD2    C1  990   1.948   0.447  15.516  0.0992 -0.2654  0.3635
   65MPD2    C2  991   1.986   0.332  15.450 -0.4408  0.5087 -0.4059
   65MPD2    C3  992   1.900   0.226  15.437 -0.5572 -0.0360  0.0107
   65MPD2    C4  993   1.767   0.239  15.482  0.1827 -0.5145 -0.0475
   65MPD2    C5  994   1.732   0.357  15.555  1.2286 -0.2985 -0.8212
   65MPD2     H  995   2.088   0.329  15.413 -1.5282  2.5868 -3.5698
   65MPD2    H1  996   1.694   0.162  15.460 -0.5869  0.3188 -0.4040
   65MPD2    H2  997   1.793   0.545  15.631 -1.0172  0.2293 -0.4465
   65MPD2    H3  998   1.629   0.369  15.587  1.4062 -0.1654 -0.3019
   65MPD2     N  999   1.935   0.105  15.375 -0.0318  0.2812 -0.6621
   65MPD2    H5 1000   1.865   0.033  15.367 -0.3712  0.4813  0.5694
   65MPD2    N1 1001   2.043   0.554  15.520  0.0957  0.7934  0.1422
   65MPD2    H7 1002   2.139   0.533  15.497 -0.5340 -0.3652 -1.4578
   66TCq2    C1 1003   2.015   0.679  15.558 -0.2274  0.0750 -0.2881
   66TCq2    O2 1004   1.907   0.736  15.569 -0.1045 -0.4076  0.3471
   66TCq2    C2 1005   2.128   0.767  15.560 -0.2347  0.1199  0.5056
   66TCq2    C3 1006   2.228   0.742  15.474 -0.1139  0.1474  0.3444
   66TCq2    C4 1007   2.311   0.850  15.443  0.1171 -0.5320  0.2446
   66TCq2    C5 1008   2.300   0.971  15.503  0.2341 -0.0610 -0.4579
   66TCq2    C6 1009   2.203   0.989  15.594 -0.3663 -0.2857 -0.4769
   66TCq2    C7 1010   2.115   0.888  15.620 -0.7230  0.0331  0.5862
   66TCq2    C8 1011   2.186   1.119  15.658  0.1514 -0.3357  0.0720
   66TCq2    O4 1012   2.254   1.207  15.609 -0.4363 -0.9267  0.3800
   66TCq2    C9 1013   2.431   0.812  15.367  0.3148  0.5042  0.6166
   66TCq2    O5 1014   2.460   0.690  15.356  0.3820  0.4136  0.6799
   66TCq2    O6 1015   2.490   0.907  15.310  0.5799  0.1806  0.2017
   66TCq2    H2 1016   2.232   0.654  15.412 -1.0775 -0.5623  1.3028
   66TCq2    H3 1017   2.372   1.049  15.481 -1.7868  1.5478 -1.4432
   66TCq2    H4 1018   2.022   0.898  15.675 -1.0524 -1.6060  0.3248
   67MPD2     C 1019   2.000   4.604  14.090 -0.3105 -0.3732 -0.7002
   67MPD2    C1 1020   2.006   0.009  14.125 -0.5695  0.5498 -0.9187
   67MPD2    C2 1021   1.944   0.105  14.042 -0.3872  0.0762  0.2596
   67MPD2    C3 1022   1.907   0.060  13.913 -0.1367 -0.4994 -0.1660
   67MPD2    C4 1023   1.923   4.656  13.871  0.1835 -0.2316  0.3015
   67MPD2    C5 1024   1.972   4.561  13.959 -0.5748 -0.6496  0.0664
   67MPD2     H 1025   1.929   0.204  14.082 -0.9704 -0.6222  1.7780
   67MPD2    H1 1026   1.896   4.624  13.771  1.2207 -0.1456 -0.0033
   67MPD2    H2 1027   2.033   4.533  14.165 -2.1310 -0.9842 -0.4613
   67MPD2    H3 1028   1.985   4.458  13.926 -1.0152 -0.0210 -2.0671
   67MPD2     N 1029   1.838   0.147  13.823  0.6840 -0.0792  0.2647
   67MPD2    H5 1030   1.781   0.101  13.754  1.9809  0.0836 -0.9059
   67MPD2    N1 1031   2.043   0.045  14.255 -0.2094  0.5390 -0.7101
   67MPD2    H7 1032   2.010   0.134  14.291  1.1254  0.4528  0.7142
   68TCq2    C1 1033   2.134   4.703  14.337 -0.0688 -0.0538 -0.1099
   68TCq2    O2 1034   2.220   4.615  14.314  0.3483  0.0447  0.4137
   68TCq2    C2 1035   2.142   0.037  14.472  0.8540 -0.0677 -0.4291
   68TCq2    C3 1036   2.033   0.109  14.521  0.2512 -0.3500  0.1034
   68TCq2    C4 1037   2.034   0.134  14.651  0.2564 -0.5049  0.4928
   68TCq2    C5 1038   2.136   0.101  14.739 -0.3475 -0.7789 -0.4606
   68TCq2    C6 1039   2.244   0.043  14.687 -0.5159  0.0364  0.5146
   68TCq2    C7 1040   2.252   0.012  14.552 -0.2331  0.1932 -0.3783
   68TCq2    C8 1041   2.362   0.003  14.763 -0.1119  0.3182  0.4305
   68TCq2    O4 1042   2.462   4.689  14.703 -0.8218 -0.0858 -0.0638
   68TCq2    C9 1043   1.914   0.201  14.703  0.0203  0.6305 -0.3703
   68TCq2    O5 1044   1.905   0.210  14.828  0.0255  0.1329 -0.4374
   68TCq2    O6 1045   1.839   0.260  14.624  0.5514 -0.0779 -0.0169
   68TCq2    H2 1046   1.952   0.134  14.453 -0.1852 -1.5604  0.1639
   68TCq2    H3 1047   2.122   0.110  14.846  0.3503 -1.1678 -0.3400
   68TCq2    H4 1048   2.336   4.685  14.507  0.9671  0.5683  1.3767
   69TMC2    C1 1049   3.621   1.125  12.018 -0.3657  1.1994  0.1755
   69TMC2    C2 1050   3.503   1.132  11.957 -0.4376  0.2398 -0.1809
   69TMC2    C3 1051   3.511   1.165  11.824 -0.3619  0.2144 -0.0346
   69TMC2    C4 1052   3.744   1.126  11.946 -0.0541  0.6866 -0.2127
   69TMC2    C5 1053   3.741   1.164  11.812 -0.6267 -0.1372  0.2298
   69TMC2    C6 1054   3.626   1.192  11.751  0.2832 -0.1806 -0.1513
   69TMC2     C 1055   3.624   1.116  12.160 -0.2788 -0.1203 -0.1646
   69TMC2     O 1056   3.533   1.070  12.226 -0.0518 -0.1781  0.4136
   69TMC2     H 1057   3.417   1.130  12.023  0.2930  0.0717  0.7703
   69TMC2    H1 1058   3.835   1.083  11.986  0.8479  1.3449 -1.5471
   69TMC2    H2 1059   3.615   1.208  11.644 -3.7474  1.0389  0.4490
   69TMC2    C7 1060   3.868   1.171  11.747  0.2001 -0.6076  0.2128
   69TMC2    C8 1061   3.392   1.163  11.739  0.7472  0.0270  0.3555
   69TMC2    O1 1062   3.965   1.135  11.808  0.1904  0.1991  0.2295
   69TMC2    O2 1063   3.390   1.221  11.627  0.0938  0.5713  0.2359
   69TMC2    O5 1064   3.288   1.111  11.805  0.4798 -0.0040  0.1244
   69TMC2    H5 1065   3.309   1.041  11.871 -0.7309 -1.1018 -0.6756
   70MPD2     C 1066   3.934   1.197  12.337  0.9392 -0.5719 -0.1784
   70MPD2    C1 1067   3.807   1.137  12.330 -0.2998  0.2728  0.4599
   70MPD2    C2 1068   3.745   1.098  12.449 -0.0847 -0.2004 -0.6047
   70MPD2    C3 1069   3.827   1.102  12.563  0.3106  0.2550  0.5275
   70MPD2    C4 1070   3.957   1.131  12.555 -0.8296  0.4682  0.1832
   70MPD2    C5 1071   4.014   1.183  12.442 -0.6162  0.4368  0.2319
   70MPD2     H 1072   3.643   1.063  12.457  0.1526 -0.6878  0.2431
   70MPD2    H1 1073   4.019   1.121  12.643 -1.3937  2.4456  0.8018
   70MPD2    H2 1074   3.982   1.250  12.256  0.3254 -1.3765 -1.0804
   70MPD2    H3 1075   4.114   1.222  12.436 -1.4845  3.0849  2.6785
   70MPD2     N 1076   3.778   1.069  12.687  0.9576 -0.5820 -0.2974
   70MPD2    H5 1077   3.840   1.071  12.768 -0.9178  0.9237  1.0863
   70MPD2    N1 1078   3.746   1.159  12.203 -0.3936  0.0755  0.3008
   70MPD2    H7 1079   3.804   1.201  12.131  0.7911 -2.3129 -0.1396
   71TMC2    C1 1080   1.092   2.454   1.566  0.0280 -0.0711  0.1349
   71TMC2    C2 1081   1.166   2.537   1.639  0.2685  0.6701  0.6503
   71TMC2    C3 1082   1.112   2.582   1.759 -0.3058 -0.5739  0.4682
   71TMC2    C4 1083   0.970   2.410   1.610  0.3235  0.9887  0.3398
   71TMC2    C5 1084   0.924   2.465   1.727  0.9792 -0.1114  0.5037
   71TMC2    C6 1085   0.989   2.549   1.810 -0.0962  0.1395  0.0033
   71TMC2     C 1086   1.139   2.388   1.444 -0.4486 -0.0811 -0.4003
   71TMC2     O 1087   1.262   2.395   1.427 -0.3419 -0.2152 -0.7433
   71TMC2     H 1088   1.270   2.553   1.614 -0.5976  1.8530 -2.3251
   71TMC2    H1 1089   0.920   2.327   1.561  4.4116 -1.6545  0.6020
   71TMC2    H2 1090   0.951   2.587   1.905 -0.0943 -1.1009  0.4927
   71TMC2    C7 1091   0.790   2.428   1.765  0.6761  0.4885 -0.3322
   71TMC2    C8 1092   1.191   2.692   1.815  0.8380 -0.1873 -0.3703
   71TMC2    O1 1093   0.760   2.422   1.886 -0.4811  0.1690 -0.0427
   71TMC2    O2 1094   1.270   2.751   1.746 -0.1807  0.1036 -0.1221
   71TMC2    O5 1095   1.134   2.742   1.927  0.5799 -0.2560  0.4513
   71TMC2    H5 1096   1.083   2.675   1.977  0.1715 -0.9253 -0.8627
   72MPD2     C 1097   1.073   2.081   1.040  0.1108 -0.6564 -0.2377
   72MPD2    C1 1098   1.186   2.139   1.096 -0.0917 -0.2327  0.0288
   72MPD2    C2 1099   1.182   2.212   1.217 -0.0702 -0.7990 -0.1516
   72MPD2    C3 1100   1.057   2.247   1.261 -0.0892  0.2449  0.6572
   72MPD2    C4 1101   0.938   2.205   1.197 -0.2193 -0.1791 -0.4988
   72MPD2    C5 1102   0.953   2.125   1.086  0.0635  0.1009 -0.0191
   72MPD2     H 1103   1.270   2.252   1.265 -0.3101 -0.1064 -0.2914
   72MPD2    H1 1104   0.836   2.231   1.220  0.3174  1.7073 -0.2474
   72MPD2    H2 1105   1.069   2.019   0.951 -1.0190 -1.3783  0.3115
   72MPD2    H3 1106   0.862   2.093   1.035  0.8505  1.5635 -2.3463
   72MPD2     N 1107   1.039   2.346   1.358 -0.1343 -0.1441  0.1914
   72MPD2    H5 1108   0.949   2.388   1.379  0.9029  1.3793  1.6054
   72MPD2    N1 1109   1.312   2.130   1.036 -0.5388  0.0603  0.0918
   72MPD2    H7 1110   1.389   2.179   1.081  0.1011 -1.7451  0.9221
   73TMC2    C1 1111   1.584   3.344  14.236 -0.7872 -0.2746  0.6080
   73TMC2    C2 1112   1.616   3.214  14.200 -0.0695  0.1036 -0.2014
   73TMC2    C3 1113   1.712   3.147  14.277  0.0580 -0.1041  0.1615
   73TMC2    C4 1114   1.637   3.399  14.350  0.4561  0.3102  0.2786
   73TMC2    C5 1115   1.730   3.329  14.424 -0.1738  0.4507  0.3427
   73TMC2    C6 1116   1.761   3.197  14.396 -0.2324  0.2795 -0.3690
   73TMC2     C 1117   1.617   3.436  14.129 -0.3750 -1.1068 -0.0848
   73TMC2     O 1118   1.693   3.526  14.158  0.0325  0.4388 -0.4621
   73TMC2     H 1119   1.578   3.163  14.112 -0.0028  1.2200 -0.8737
   73TMC2    H1 1120   1.602   3.498  14.374 -1.4513 -0.6431  1.4129
   73TMC2    H2 1121   1.842   3.148  14.449 -0.0569 -0.5965 -1.4547
   73TMC2    C7 1122   1.834   3.410  14.491 -0.2050 -0.6029 -0.5168
   73TMC2    C8 1123   1.706   3.003  14.263  0.0997  0.2861 -0.2140
   73TMC2    O1 1124   1.910   3.369  14.572  0.4182  0.0762 -0.3955
   73TMC2    O2 1125   1.606   2.948  14.213 -0.0438 -0.6542  0.1139
   73TMC2    O5 1126   1.832   2.961  14.261  0.3996 -0.1047 -0.4443
   73TMC2    H5 1127   1.898   3.032  14.278  0.7906 -1.0455  1.9581
   74MPD2     C 1128   1.723   3.552  13.657  0.0381  0.1498 -0.3240
   74MPD2    C1 1129   1.732   3.631  13.769  0.2848 -0.4861  0.1612
   74MPD2    C2 1130   1.674   3.581  13.881  0.7672  1.1297  0.6329
   74MPD2    C3 1131   1.600   3.462  13.888  0.3673 -0.7830  0.1229
   74MPD2    C4 1132   1.579   3.393  13.776 -0.4122 -0.3477  0.2309
   74MPD2    C5 1133   1.648   3.437  13.659 -0.3256 -0.9023 -0.0451
   74MPD2     H 1134   1.673   3.648  13.966 -0.0013  0.3555  1.2400
   74MPD2    H1 1135   1.518   3.304  13.763 -1.9259  0.7411 -0.2338
   74MPD2    H2 1136   1.779   3.573  13.566  0.7436  0.7476  0.2484
   74MPD2    H3 1137   1.650   3.375  13.569 -2.5506  0.4942 -1.0735
   74MPD2     N 1138   1.559   3.404  14.008 -0.5084 -0.0108 -0.2144
   74MPD2    H5 1139   1.495   3.327  13.996 -0.0361 -0.3556 -0.5436
   74MPD2    N1 1140   1.818   3.743  13.771  0.1342  0.0360  0.4348
   74MPD2    H7 1141   1.846   3.781  13.681 -0.8019  1.3070  0.6843
   75TCq2    C1 1142   1.848   0.287  13.826  0.1623  0.2494  0.2764
   75TCq2    O2 1143   1.933   0.350  13.888 -0.3136 -0.3176  0.4411
   75TCq2    C2 1144   1.763   0.354  13.728  0.4378  0.3396  0.2286
   75TCq2    C3 1145   1.745   0.491  13.745 -0.1582  0.0782  0.1956
   75TCq2    C4 1146   1.680   0.568  13.645 -0.3471  0.6899  0.1910
   75TCq2    C5 1147   1.625   0.504  13.538  0.2868  0.6523  0.7984
   75TCq2    C6 1148   1.646   0.369  13.526  0.8550  0.6099  0.3361
   75TCq2    C7 1149   1.707   0.289  13.623 -0.2207 -0.2926  0.0433
   75TCq2    C8 1150   1.591   0.301  13.412  0.2758  0.5146 -0.3364
   75TCq2    O4 1151   1.585   0.176  13.417 -0.5474 -0.0372 -0.6393
   75TCq2    C9 1152   1.670   0.712  13.658  0.6838 -0.4214  0.3374
   75TCq2    O5 1153   1.718   0.757  13.766 -0.4701 -0.2419  0.0484
   75TCq2    O6 1154   1.620   0.782  13.565  0.2464 -0.2437  0.3700
   75TCq2    H2 1155   1.788   0.547  13.827  0.3150 -1.1849  0.7980
   75TCq2    H3 1156   1.570   0.569  13.471  0.4625 -1.1015 -1.0443
   75TCq2    H4 1157   1.730   0.184  13.613  0.9165 -0.0658  0.2834
   76MPD2     C 1158   0.289   1.160  11.894 -0.2725 -0.1460 -0.2855
   76MPD2    C1 1159   0.288   1.024  11.850  0.0998  0.5666  0.0774
   76MPD2    C2 1160   0.389   0.943  11.884  0.6781 -0.3116  0.1202
   76MPD2    C3 1161   0.480   0.984  11.977  0.1527  0.1792 -0.1971
   76MPD2    C4 1162   0.483   1.112  12.025 -0.2623  0.5047 -0.0903
   76MPD2    C5 1163   0.395   1.202  11.981 -0.0223 -0.1940 -0.3980
   76MPD2     H 1164   0.379   0.841  11.847 -0.9543 -0.0880 -0.0633
   76MPD2    H1 1165   0.567   1.152  12.082  0.2361 -0.2230 -0.3117
   76MPD2    H2 1166   0.223   1.235  11.854 -1.5378 -0.8280  0.5497
   76MPD2    H3 1167   0.414   1.304  12.012  0.9581 -0.2157 -0.9337
   76MPD2     N 1168   0.577   0.897  12.023 -0.7113 -0.6852 -0.2617
   76MPD2    H5 1169   0.653   0.941  12.074 -0.2665 -1.1871 -0.4884
   76MPD2    N1 1170   0.188   0.980  11.759 -0.6611 -0.1139 -0.7308
   76MPD2    H7 1171   0.202   0.889  11.716  0.4044  0.2755 -1.2254
   77TCq2    C1 1172   0.568   0.761  12.028 -1.2248  0.0559 -0.6320
   77TCq2    O2 1173   0.481   0.686  11.987 -0.5494 -0.1844 -0.1181
   77TCq2    C2 1174   0.683   0.703  12.103  0.0179 -0.8020  0.2374
   77TCq2    C3 1175   0.656   0.586  12.167  0.8591  0.1457  0.0666
   77TCq2    C4 1176   0.742   0.538  12.267  0.1287  0.4547 -0.3008
   77TCq2    C5 1177   0.847   0.612  12.310 -0.2281  0.3404 -0.4540
   77TCq2    C6 1178   0.875   0.729  12.244  0.3655  0.2098  0.2905
   77TCq2    C7 1179   0.793   0.777  12.143 -0.3242 -0.2731 -0.3809
   77TCq2    C8 1180   0.984   0.816  12.282 -1.2329  0.2330 -0.0037
   77TCq2    O4 1181   1.025   0.883  12.190  0.2226 -0.4672  0.2502
   77TCq2    C9 1182   0.713   0.403  12.321  0.0461 -0.1650 -0.2169
   77TCq2    O5 1183   0.784   0.363  12.419 -0.3793  1.0836 -0.2521
   77TCq2    O6 1184   0.647   0.325  12.250 -0.0400  0.1612 -0.3608
   77TCq2    H2 1185   0.568   0.529  12.140  0.2331  0.0461  2.3374
   77TCq2    H3 1186   0.903   0.570  12.393  0.7778  1.5668 -0.5157
   77TCq2    H4 1187   0.824   0.862  12.082  0.9085 -0.5180 -0.1054
   78MPD1     C 1188   3.137   4.361   2.099  0.0457  0.1680 -0.5226
   78MPD1    C1 1189   3.039   4.438   2.146 -0.0590  0.1482 -0.5461
   78MPD1    C2 1190   3.066   4.563   2.179 -0.1559  0.8440 -0.9153
   78MPD1    C3 1191   3.183   4.629   2.153  0.8669 -0.6213  0.2348
   78MPD1    C4 1192   3.290   4.550   2.112 -0.6565 -0.2690 -0.0831
   78MPD1    C5 1193   3.262   4.412   2.091  0.0131 -0.6701 -0.2309
   78MPD1     H 1194   2.990   4.622   2.230  0.5586 -1.7244  3.0993
   78MPD1    H1 1195   3.391   4.586   2.096 -0.8321  0.0789 -0.4454
   78MPD1    H2 1196   3.122   4.259   2.066 -0.8445 -0.2080  1.0340
   78MPD1    H3 1197   3.340   4.348   2.052  0.3492 -1.5213  1.8114
   78MPD1     N 1198   3.212   0.040   2.172 -0.1204  0.1692 -0.5595
   78MPD1    H5 1199   3.311   0.058   2.165 -0.1936  1.2574  1.2119
   78MPD1    N1 1200   2.910   4.396   2.158 -0.4743  0.4922 -0.5307
   78MPD1    H6 1201   2.849   4.469   2.121 -1.5074 -0.7054 -1.1837
   78MPD1    H7 1202   2.889   4.319   2.095 -0.4981 -0.2086  0.3246
   79TCq2    C1 1203   3.117   0.133   2.204 -0.3123 -0.4766  0.2015
   79TCq2    O2 1204   2.999   0.118   2.234  0.1662  0.0337  0.3476
   79TCq2    C2 1205   3.174   0.264   2.214  0.4325 -0.3058  0.4527
   79TCq2    C3 1206   3.306   0.269   2.243  0.6227 -1.0227 -0.7301
   79TCq2    C4 1207   3.365   0.393   2.239  0.0403  0.0185  0.4193
   79TCq2    C5 1208   3.296   0.507   2.199 -0.6361 -0.5344  0.2194
   79TCq2    C6 1209   3.159   0.496   2.170 -0.1139  0.3135 -0.2343
   79TCq2    C7 1210   3.095   0.376   2.191  0.1172 -1.1207 -0.3119
   79TCq2    C8 1211   3.091   0.618   2.121 -0.1956 -0.6432 -0.0070
   79TCq2    O4 1212   3.169   0.708   2.106  0.1095 -0.5303  0.2387
   79TCq2    C9 1213   3.505   0.402   2.284 -0.4484 -0.0038 -0.2078
   79TCq2    O5 1214   3.566   0.508   2.262 -0.3779 -0.2358  1.2875
   79TCq2    O6 1215   3.554   0.308   2.352  0.3510 -0.1973 -0.3017
   79TCq2    H2 1216   3.368   0.183   2.266  0.7659 -0.5137  0.7849
   79TCq2    H3 1217   3.351   0.600   2.186 -3.7220  1.3240  0.3087
   79TCq2    H4 1218   2.994   0.353   2.158  0.2037 -2.4872  0.3856
   80MPD2     C 1219   4.429   0.312  12.644  0.0842  0.2512 -0.0484
   80MPD2    C1 1220   4.371   0.310  12.521  0.1045 -0.1982 -0.6386
   80MPD2    C2 1221   4.240   0.334  12.503 -0.1551  0.0847 -0.2875
   80MPD2    C3 1222   4.154   0.358  12.605  0.2554 -0.8036  0.6930
   80MPD2    C4 1223   4.207   0.364  12.734 -0.1083 -0.2709 -0.8336
   80MPD2    C5 1224   4.346   0.341  12.750 -0.0380 -0.0562  1.1051
   80MPD2     H 1225   4.209   0.330  12.399 -1.2060  0.4983  0.0099
   80MPD2    H1 1226   4.144   0.396  12.816  2.2202  2.0580  0.0853
   80MPD2    H2 1227   4.533   0.290  12.663  0.3158  1.3918 -0.0109
   80MPD2    H3 1228   4.390   0.339  12.849  0.4423 -1.6195  0.8589
   80MPD2     N 1229   4.014   0.383  12.590  0.0235  0.6170 -0.0081
   80MPD2    H5 1230   3.960   0.408  12.673 -2.0106 -1.6123 -0.6625
   80MPD2    N1 1231   4.444   0.265  12.409  0.3474  0.0562  0.4503
   80MPD2    H7 1232   4.390   0.252  12.324 -0.2457 -0.2527  0.8767
   81TCq2    C1 1233   4.585   0.252  12.406  0.0001  0.1619 -0.9988
   81TCq2    O2 1234   4.677   0.302  12.472  0.0741 -0.3295 -0.0744
   81TCq2    C2 1235   4.630   0.187  12.284 -0.2348 -1.3930  0.3938
   81TCq2    C3 1236   0.008   0.237  12.217  0.4412 -0.3687  0.3326
   81TCq2    C4 1237   0.050   0.174  12.103 -0.3652  0.6842  0.0522
   81TCq2    C5 1238   4.706   0.076  12.045  0.1891  1.1716  0.1978
   81TCq2    C6 1239   4.594   0.039  12.108 -0.1031  0.1259  0.0089
   81TCq2    C7 1240   4.548   0.098  12.222  0.3876  0.6113  0.3871
   81TCq2    C8 1241   4.542   4.633  12.060 -0.8095 -0.0462 -0.3190
   81TCq2    O4 1242   4.569   4.608  11.945 -0.2103 -0.1731 -0.3056
   81TCq2    C9 1243   0.181   0.201  12.053 -0.4669 -0.8779  0.0265
   81TCq2    O5 1244   0.209   0.143  11.945  0.2446  0.1294  0.2595
   81TCq2    O6 1245   0.254   0.283  12.118 -0.5332 -0.0171  0.2542
   81TCq2    H2 1246   0.073   0.307  12.269 -0.8657 -0.1775  1.6938
   81TCq2    H3 1247   0.025   0.035  11.956  0.2633  0.1521  0.7037
   81TCq2    H4 1248   4.459   0.061  12.271  0.7161 -1.3651 -0.5415
   82MPD2     C 1249   3.237   4.211  10.765  0.0474  0.2009  0.7868
   82MPD2    C1 1250   3.129   4.130  10.782  0.0350 -0.5894  0.1871
   82MPD2    C2 1251   3.151   3.995  10.821  0.7517  0.2495 -0.5007
   82MPD2    C3 1252   3.279   3.951  10.841 -0.0062  0.0978 -0.4080
   82MPD2    C4 1253   3.385   4.031  10.817  0.7639 -0.4043 -0.8090
   82MPD2    C5 1254   3.362   4.159  10.774  0.2765  0.5387  0.0440
   82MPD2     H 1255   3.064   3.933  10.838  1.4692 -0.4122  0.6921
   82MPD2    H1 1256   3.484   3.987  10.824  1.1040  0.6900  1.4423
   82MPD2    H2 1257   3.237   4.318  10.747 -1.6757 -0.2919 -2.0421
   82MPD2    H3 1258   3.448   4.223  10.755  0.4103  0.0776 -0.9294
   82MPD2     N 1259   3.312   3.819  10.874  0.8263  0.2445 -0.7089
   82MPD2    H5 1260   3.411   3.798  10.874  0.6459 -0.6042  0.0177
   82MPD2    N1 1261   2.998   4.191  10.768  0.0893 -0.4507 -0.1119
   82MPD2    H7 1262   2.996   4.289  10.742  3.1260  0.6515  3.8629
   83TCq2    C1 1263   3.218   3.740  10.943 -0.3444 -0.0879 -0.0802
   83TCq2    O2 1264   3.109   3.769  10.989  0.2158  0.1908  0.1938
   83TCq2    C2 1265   3.259   3.604  10.967  0.4662  0.1918  0.1934
   83TCq2    C3 1266   3.364   3.554  10.892 -0.2629 -0.3658  0.7326
   83TCq2    C4 1267   3.368   3.425  10.876  0.3668  0.2468  0.2852
   83TCq2    C5 1268   3.293   3.346  10.953 -0.1773  0.7948  0.0989
   83TCq2    C6 1269   3.192   3.402  11.032  1.0579  0.7576 -0.6955
   83TCq2    C7 1270   3.172   3.534  11.042  0.0677  0.4714 -0.0127
   83TCq2    C8 1271   3.116   3.310  11.121  0.2579 -0.1398  0.3172
   83TCq2    O4 1272   3.144   3.193  11.111  0.0626  0.2145  0.0221
   83TCq2    C9 1273   3.468   3.364  10.788 -0.5264 -0.1790  0.0387
   83TCq2    O5 1274   3.450   3.245  10.748  0.1525 -0.1293  0.1739
   83TCq2    O6 1275   3.552   3.444  10.732 -0.5393  1.3575  0.4055
   83TCq2    H2 1276   3.448   3.609  10.851 -0.2552 -0.0374  1.1845
   83TCq2    H3 1277   3.310   3.239  10.948 -0.8853  0.6917 -0.1729
   83TCq2    H4 1278   3.087   3.583  11.089 -0.1347 -1.2329  1.4194
   84TCq2    C1 1279   4.020   2.698  10.591 -0.2896  0.0489 -0.0535
   84TCq2    O2 1280   4.007   2.631  10.492 -0.2691 -0.4439 -0.2012
   84TCq2    C2 1281   3.958   2.653  10.720  0.5601  0.3037 -0.7186
   84TCq2    C3 1282   3.950   2.522  10.734  0.5097 -0.1700  0.2697
   84TCq2    C4 1283   3.955   2.471  10.863 -0.0654  0.1375  0.3897
   84TCq2    C5 1284   3.963   2.547  10.975 -0.2839 -0.0988  0.7969
   84TCq2    C6 1285   3.962   2.681  10.949 -0.1388  0.3704 -0.0231
   84TCq2    C7 1286   3.960   2.741  10.825 -0.3987  0.4503  0.6519
   84TCq2    C8 1287   3.937   2.768  11.058  0.2080 -0.3311  0.9111
   84TCq2    O4 1288   3.978   2.884  11.045  0.5346  0.5001  0.4021
   84TCq2    C9 1289   3.958   2.330  10.879  0.4989  0.2777 -0.3005
   84TCq2    O5 1290   3.964   2.260  10.780  0.7074  0.3798  0.4782
   84TCq2    O6 1291   3.925   2.301  11.001 -0.0146 -0.4649  0.4878
   84TCq2    H2 1292   3.952   2.458  10.646 -0.7303 -0.2166  0.2760
   84TCq2    H3 1293   3.982   2.504  11.072 -0.0412 -1.6543  0.0557
   84TCq2    H4 1294   3.955   2.849  10.818 -0.5591  0.5339  2.1581
   85MPD2     C 1295   4.283   1.708  16.318 -0.4642  0.2682  0.7819
   85MPD2    C1 1296   4.189   1.757  16.230 -0.3301 -0.2312  0.1479
   85MPD2    C2 1297   4.216   1.873  16.162  0.5964  0.5718  0.2098
   85MPD2    C3 1298   4.329   1.950  16.193  0.1940  0.2271 -0.1187
   85MPD2    C4 1299   4.425   1.901  16.275  0.0806  0.5528 -0.2897
   85MPD2    C5 1300   4.398   1.784  16.341 -0.2419 -0.2304 -0.4477
   85MPD2     H 1301   4.146   1.919  16.092 -0.0777  0.5872  0.8977
   85MPD2    H1 1302   4.508   1.959  16.315  2.1698 -1.3110 -1.9417
   85MPD2    H2 1303   4.265   1.618  16.375  2.5796  0.2300  1.7024
   85MPD2    H3 1304   4.467   1.750  16.417 -0.6382 -1.5577 -0.6847
   85MPD2     N 1305   4.350   2.073  16.135  0.8898 -0.1210 -0.2193
   85MPD2    H5 1306   4.445   2.109  16.139  0.8321 -0.1216  1.3162
   85MPD2    N1 1307   4.069   1.694  16.211 -0.1404 -0.1948  0.3720
   85MPD2    H7 1308   4.013   1.722  16.131  0.9385  0.5953 -0.1049
   86TCq2    C1 1309   4.258   2.157  16.069 -0.2453  0.3005  0.5399
   86TCq2    O2 1310   4.137   2.155  16.082  0.4096 -0.4185 -0.3422
   86TCq2    C2 1311   4.312   2.275  16.002  0.1632 -0.2855 -0.1867
   86TCq2    C3 1312   4.226   2.365  15.940 -0.4740 -0.1263  0.6107
   86TCq2    C4 1313   4.278   2.456  15.852  0.6837 -0.3951 -0.0573
   86TCq2    C5 1314   4.412   2.457  15.826  0.6056 -0.3948 -0.3235
   86TCq2    C6 1315   4.487   2.366  15.878  0.2981  0.2463  0.1195
   86TCq2    C7 1316   4.444   2.269  15.966  0.6197  0.6703  0.2807
   86TCq2    C8 1317   4.587   2.314  15.786  0.7171  0.2374  0.1039
   86TCq2    O4 1318   4.684   2.255  15.839  0.4611  0.3907  0.1053
   86TCq2    C9 1319   4.195   2.562  15.806 -0.2778 -0.0417 -0.9669
   86TCq2    O5 1320   4.106   2.594  15.882  0.1605 -0.4786  0.0068
   86TCq2    O6 1321   4.253   2.655  15.745  0.0325  0.6841 -0.0367
   86TCq2    H2 1322   4.120   2.379  15.961 -0.8634 -1.0612 -0.6820
   86TCq2    H3 1323   4.454   2.538  15.767 -1.4564  0.6781 -0.2840
   86TCq2    H4 1324   4.507   2.184  15.991 -0.4442 -0.1893  0.0863
   87MPD2     C 1325   1.155   0.971   1.558  0.0686 -0.1887  1.0706
   87MPD2    C1 1326   1.184   0.876   1.459  0.2424  0.8871  0.1247
   87MPD2    C2 1327   1.147   0.903   1.333 -1.0203 -0.3903 -0.0940
   87MPD2    C3 1328   1.077   1.015   1.295 -0.3796 -0.2849 -0.6792
   87MPD2    C4 1329   1.044   1.102   1.391  0.1649 -0.1149  0.0395
   87MPD2    C5 1330   1.089   1.082   1.516  0.4502 -1.2705 -0.5042
   87MPD2     H 1331   1.182   0.839   1.253 -0.5535  0.4213 -0.5486
   87MPD2    H1 1332   0.982   1.187   1.367  2.0048  0.2061 -3.6049
   87MPD2    H2 1333   1.168   0.968   1.665 -0.6986 -0.2635  1.1600
   87MPD2    H3 1334   1.061   1.158   1.588 -0.3997 -0.7965 -1.3426
   87MPD2     N 1335   1.054   1.051   1.158  0.1311  0.1215 -0.4678
   87MPD2    H5 1336   1.020   1.144   1.135 -0.0794  0.2685  0.4256
   87MPD2    N1 1337   1.242   0.757   1.503 -0.0660 -0.6283 -0.0795
   87MPD2    H7 1338   1.248   0.741   1.603 -1.3469 -1.9827 -0.2120
   88TCq2    C1 1339   1.287   0.656   1.419  0.4080 -0.4989 -0.1918
   88TCq2    O2 1340   1.308   0.655   1.299  0.6967  0.5889 -0.3111
   88TCq2    C2 1341   1.343   0.542   1.481 -0.0373  0.5150 -0.3437
   88TCq2    C3 1342   1.309   0.514   1.609  0.0710 -0.1189  0.5899
   88TCq2    C4 1343   1.374   0.424   1.678 -0.3642 -1.2608 -0.4092
   88TCq2    C5 1344   1.480   0.353   1.621 -0.3020  0.4543 -0.3504
   88TCq2    C6 1345   1.509   0.383   1.486  0.1967  0.4498 -0.7631
   88TCq2    C7 1346   1.447   0.479   1.419 -0.3492  0.6994 -0.6085
   88TCq2    C8 1347   1.606   0.306   1.412  0.1872 -0.5080 -0.4175
   88TCq2    O4 1348   1.612   0.337   1.291 -0.2299  0.2464  0.3946
   88TCq2    C9 1349   1.335   0.392   1.814 -0.5761 -0.7366 -0.6683
   88TCq2    O5 1350   1.269   0.478   1.876 -0.0517 -0.3899 -0.2011
   88TCq2    O6 1351   1.413   0.304   1.864  0.3209  0.5661  0.5893
   88TCq2    H2 1352   1.221   0.559   1.653 -0.5764  0.9736 -1.8616
   88TCq2    H3 1353   1.541   0.283   1.676 -0.3610 -0.1050 -0.9937
   88TCq2    H4 1354   1.490   0.516   1.327 -3.8625  0.0345 -2.5289
   89MPD2     C 1355   2.741   2.909   1.856  0.6113 -0.4802 -0.0323
   89MPD2    C1 1356   2.650   2.991   1.917  0.4130 -0.0974 -0.0530
   89MPD2    C2 1357   2.696   3.115   1.964 -0.3684  0.0703 -0.3047
   89MPD2    C3 1358   2.831   3.136   1.983  0.2774  0.7812  0.1691
   89MPD2    C4 1359   2.919   3.044   1.941 -0.3638  0.1130  0.8888
   89MPD2    C5 1360   2.868   2.934   1.874  0.3973 -0.3317 -0.3275
   89MPD2     H 1361   2.621   3.185   1.997 -0.0890  0.5079 -0.5974
   89MPD2    H1 1362   3.027   3.052   1.951 -0.3429  1.7358 -0.5144
   89MPD2    H2 1363   2.706   2.828   1.793 -0.7252 -0.5005  0.7372
   89MPD2    H3 1364   2.935   2.857   1.836 -0.2874 -1.0600 -0.0683
   89MPD2     N 1365   2.871   3.259   2.044  0.2146  0.0058 -0.5673
   89MPD2    H5 1366   2.798   3.326   2.064  0.7585  0.8830 -1.5091
   89MPD2    N1 1367   2.512   2.966   1.913  0.0897  0.3064  0.1799
   89MPD2    H7 1368   2.451   3.017   1.977  1.6215  0.5257  1.4698
   90TCq2    C1 1369   2.999   3.307   2.051 -0.8678 -0.5052  0.2718
   90TCq2    O2 1370   3.102   3.250   2.033  0.1585  0.1604 -0.1097
   90TCq2    C2 1371   3.016   3.450   2.077  0.0612 -0.1907  0.3961
   90TCq2    C3 1372   3.143   3.484   2.113 -0.4226  0.0801  0.3821
   90TCq2    C4 1373   3.190   3.610   2.075  0.3069  0.7064 -0.6049
   90TCq2    C5 1374   3.112   3.690   1.993  0.3703  0.4187  0.0726
   90TCq2    C6 1375   2.990   3.647   1.953 -0.6197 -0.0869  0.1739
   90TCq2    C7 1376   2.931   3.533   2.005 -0.1805  0.3559  0.6938
   90TCq2    C8 1377   2.900   3.740   1.891 -0.0786  0.0297 -0.6974
   90TCq2    O4 1378   2.779   3.722   1.914 -0.6235  0.3389 -0.2970
   90TCq2    C9 1379   3.325   3.645   2.121 -0.5501 -0.4709 -1.0321
   90TCq2    O5 1380   3.377   3.562   2.201  0.7033 -0.1991 -0.0067
   90TCq2    O6 1381   3.351   3.766   2.110 -0.1458 -0.1212  0.4193
   90TCq2    H2 1382   3.212   3.419   2.167  2.0909  1.3648 -1.2721
   90TCq2    H3 1383   3.148   3.792   1.983  0.3605  0.4859  0.7426
   90TCq2    H4 1384   2.844   3.496   1.952 -0.4288  1.6475  0.2075
   91TMC2    C1 1385   4.326   3.176  16.681 -0.0651  0.3451 -0.4321
   91TMC2    C2 1386   4.333   3.274  16.778 -0.0106  0.4246 -0.8742
   91TMC2    C3 1387   4.223   3.304  16.854 -0.2537 -0.1348 -0.0111
   91TMC2    C4 1388   4.209   3.110  16.655  0.0496  0.6223  0.5969
   91TMC2    C5 1389   4.105   3.136  16.741  0.0095 -0.1625  0.4687
   91TMC2    C6 1390   4.113   3.223  16.845  0.2844 -0.4116  0.7747
   91TMC2     C 1391   4.438   3.090  16.652 -0.4078 -0.0051  0.2303
   91TMC2     O 1392   4.424   3.027  16.552  0.2420  0.4083 -0.4053
   91TMC2     H 1393   4.428   3.326  16.788  1.6479 -2.3013 -2.5356
   91TMC2    H1 1394   4.209   3.043  16.570  1.7094 -1.5034  2.2981
   91TMC2    H2 1395   4.026   3.229  16.909 -0.9433  0.1850 -0.9247
   91TMC2    C7 1396   3.996   3.033  16.743  0.6300  0.5766  0.0928
   91TMC2    C8 1397   4.255   3.391  16.959  0.7384  0.2537  0.4700
   91TMC2    O1 1398   3.974   2.989  16.854  0.1508  0.3165  0.3751
   91TMC2    O2 1399   4.368   3.419  16.980 -0.4622 -0.0703 -0.2486
   91TMC2    O5 1400   4.158   3.369  17.050  0.1231  0.1089  0.2962
   91TMC2    H5 1401   4.068   3.351  17.015  0.5351 -0.0721 -0.6840
   92MPD2     C 1402   4.662   2.886  16.684 -0.5631  0.3760  0.3769
   92MPD2    C1 1403   4.637   2.989  16.771  0.2133 -0.0254  0.0132
   92MPD2    C2 1404   4.723   3.008  16.872 -0.6012 -0.4734  0.6496
   92MPD2    C3 1405   0.107   2.924  16.900 -0.2318 -0.0489 -0.1251
   92MPD2    C4 1406   0.133   2.821  16.811 -0.2012  0.1704  0.3170
   92MPD2    C5 1407   0.039   2.794  16.711 -0.5975 -0.4429 -0.0534
   92MPD2     H 1408   4.705   3.081  16.951 -0.8483  1.4739 -1.2171
   92MPD2    H1 1409   0.209   2.747  16.832 -0.3079  0.0523  0.2937
   92MPD2    H2 1410   4.600   2.867  16.596 -0.0864 -0.5239  0.2358
   92MPD2    H3 1411   0.034   2.704  16.651  0.4146 -0.7100  0.2648
   92MPD2     N 1412   0.186   2.962  17.014 -0.9321  0.1460 -0.2542
   92MPD2    H5 1413   0.146   3.038  17.068 -1.0011  1.3191 -1.9264
   92MPD2    N1 1414   4.530   3.085  16.748 -0.6807 -0.3437  0.5658
   92MPD2    H7 1415   4.505   3.150  16.821  0.0482 -0.3842  0.8512
   93MPD2     C 1416   0.997   2.414  14.071 -0.3222 -0.5670  0.3999
   93MPD2    C1 1417   1.011   2.464  13.939  0.7987  0.4444 -0.1030
   93MPD2    C2 1418   0.901   2.467  13.860 -0.6522 -0.5659  0.4789
   93MPD2    C3 1419   0.786   2.410  13.907  0.7766  0.4320  0.2766
   93MPD2    C4 1420   0.774   2.343  14.031  0.6013  0.0043  0.0933
   93MPD2    C5 1421   0.880   2.364  14.120  0.2019  0.1616 -0.1378
   93MPD2     H 1422   0.909   2.515  13.763 -1.5632  0.5509  0.9607
   93MPD2    H1 1423   0.678   2.308  14.068  0.4220  0.7680  0.3541
   93MPD2    H2 1424   1.086   2.410  14.133  0.6456 -2.0237 -1.0624
   93MPD2    H3 1425   0.872   2.334  14.224 -0.1927 -0.3405 -0.3173
   93MPD2     N 1426   0.665   2.423  13.840  0.2421 -0.1131  0.1893
   93MPD2    H5 1427   0.583   2.396  13.893 -0.3015  0.3623 -0.4043
   93MPD2    N1 1428   1.129   2.515  13.877 -0.0808  0.3244  0.4503
   93MPD2    H7 1429   1.123   2.529  13.776 -2.0090 -0.8002  0.4137
   94TCq2    C1 1430   1.250   2.544  13.942  0.4358  0.4350 -0.8307
   94TCq2    O2 1431   1.262   2.548  14.060  0.0414 -0.2792 -0.1691
   94TCq2    C2 1432   1.351   2.599  13.853 -0.6036 -0.1024 -0.1357
   94TCq2    C3 1433   1.322   2.631  13.727  0.0528  0.1169  0.0392
   94TCq2    C4 1434   1.405   2.711  13.649 -0.0684  0.0590 -0.8076
   94TCq2    C5 1435   1.511   2.770  13.712 -0.3585  0.0576 -0.8851
   94TCq2    C6 1436   1.530   2.741  13.848 -0.0595 -0.3036 -0.5308
   94TCq2    C7 1437   1.457   2.655  13.914  0.2317  0.6829 -0.4385
   94TCq2    C8 1438   1.662   2.773  13.902 -0.4229  0.5899  0.1575
   94TCq2    O4 1439   1.734   2.693  13.959  0.5773  0.0280 -0.0357
   94TCq2    C9 1440   1.380   2.733  13.507  0.0199  0.0048  0.0261
   94TCq2    O5 1441   1.464   2.814  13.459 -0.1557 -0.0897 -0.7115
   94TCq2    O6 1442   1.301   2.658  13.445 -0.0627 -0.0283  0.1468
   94TCq2    H2 1443   1.237   2.586  13.677 -1.1313  1.0294  1.2487
   94TCq2    H3 1444   1.564   2.843  13.652  1.5433 -0.3229  0.3357
   94TCq2    H4 1445   1.487   2.632  14.016  0.6852  0.3601 -0.6459
   95TMC2    C1 1446   1.204   4.442  15.648 -0.2916  0.9204 -0.3683
   95TMC2    C2 1447   1.139   4.470  15.527  0.2886  0.1061 -0.2874
   95TMC2    C3 1448   1.003   4.474  15.544 -0.4381  0.1768  0.5102
   95TMC2    C4 1449   1.142   4.415  15.766  0.4327 -0.1486 -0.6735
   95TMC2    C5 1450   1.005   4.420  15.773 -0.0534  0.0854 -0.9320
   95TMC2    C6 1451   0.932   4.453  15.657 -0.8448 -0.1096 -0.4725
   95TMC2     C 1452   1.346   4.443  15.642  0.1375 -0.2694 -0.2000
   95TMC2     O 1453   1.392   4.528  15.568 -0.0172  0.3158 -0.5943
   95TMC2     H 1454   1.201   4.498  15.442  0.9465  0.8476  0.4412
   95TMC2    H1 1455   1.199   4.389  15.856  1.5514 -1.3972 -1.7374
   95TMC2    H2 1456   0.829   4.485  15.662 -1.6166 -2.7066  0.2821
   95TMC2    C7 1457   0.944   4.410  15.910 -0.5100 -0.4562 -0.1987
   95TMC2    C8 1458   0.918   4.460  15.432 -0.4625 -0.8349 -0.7801
   95TMC2    O1 1459   1.020   4.397  16.005  0.3623  0.1974  0.3925
   95TMC2    O2 1460   0.814   4.524  15.412 -0.6118 -0.2732 -0.1657
   95TMC2    O5 1461   0.997   4.403  15.333 -0.2865  0.3270 -0.0317
   95TMC2    H5 1462   1.027   4.320  15.376  2.9990 -0.9626 -4.7503
   96MPD2     C 1463   1.783   4.184  15.649  0.5840  0.0377 -0.3396
   96MPD2    C1 1464   1.744   4.284  15.564 -0.2410  0.3422  0.0734
   96MPD2    C2 1465   1.616   4.334  15.585 -0.2840  0.0299 -0.1217
   96MPD2    C3 1466   1.530   4.277  15.678  0.3740  0.5010  0.8323
   96MPD2    C4 1467   1.574   4.168  15.752 -0.7026 -0.1361  0.4015
   96MPD2    C5 1468   1.705   4.124  15.739  0.1648 -0.1117 -0.8615
   96MPD2     H 1469   1.588   4.430  15.542 -1.3863 -0.3030 -0.1447
   96MPD2    H1 1470   1.501   4.115  15.812 -0.4787  0.2859  1.0331
   96MPD2    H2 1471   1.889   4.159  15.656  1.1066  2.2921 -0.3106
   96MPD2    H3 1472   1.738   4.046  15.807  0.3509  0.5440 -0.1996
   96MPD2     N 1473   1.404   4.330  15.702  0.4673  0.0932 -0.3417
   96MPD2    H5 1474   1.347   4.278  15.768  1.4967  3.1705  2.9500
   96MPD2    N1 1475   1.836   4.332  15.468  0.5928 -0.6884 -0.0919
   96MPD2    H7 1476   1.934   4.317  15.490  1.4092  2.5105 -1.4911
   97MPD2     C 1477   3.627   2.324   0.876  0.0053 -1.0057 -0.2484
   97MPD2    C1 1478   3.495   2.296   0.897  0.5550 -0.2953 -0.4181
   97MPD2    C2 1479   3.412   2.292   0.788 -0.5033  0.3216 -0.2630
   97MPD2    C3 1480   3.461   2.318   0.660 -0.0096 -0.1401  0.0996
   97MPD2    C4 1481   3.598   2.342   0.637  0.0956  0.5493 -0.1432
   97MPD2    C5 1482   3.673   2.349   0.752 -0.6169 -0.7574 -0.1235
   97MPD2     H 1483   3.306   2.272   0.797 -0.3723 -0.0256  0.5299
   97MPD2    H1 1484   3.631   2.377   0.540  0.5531  0.8856  0.1299
   97MPD2    H2 1485   3.702   2.317   0.955  0.0498  0.9043 -0.1292
   97MPD2    H3 1486   3.775   2.385   0.742 -1.3805  1.4273  0.0266
   97MPD2     N 1487   3.378   2.310   0.544  0.1189 -0.4223 -0.0463
   97MPD2    H5 1488   3.423   2.335   0.457  2.4870 -4.4159  0.0704
   97MPD2    N1 1489   3.453   2.274   1.032  0.9168 -1.1405 -0.4015
   97MPD2    H7 1490   3.529   2.287   1.098 -0.6789 -0.5780  1.3011
   98TCq2    C1 1491   3.240   2.275   0.539 -0.1513 -0.2517 -0.0758
   98TCq2    O2 1492   3.166   2.229   0.624  0.7091  0.1067 -0.3886
   98TCq2    C2 1493   3.168   2.315   0.416 -0.9177 -0.7084  1.1100
   98TCq2    C3 1494   3.036   2.288   0.424 -0.0590 -0.7091  0.0096
   98TCq2    C4 1495   2.947   2.380   0.379  0.5327  0.0345  0.6334
   98TCq2    C5 1496   2.983   2.502   0.339 -0.2268  0.0202  0.5242
   98TCq2    C6 1497   3.116   2.524   0.328 -1.5578 -0.3039 -0.1732
   98TCq2    C7 1498   3.217   2.433   0.363 -0.3440  0.2174  0.6944
   98TCq2    C8 1499   3.162   2.656   0.298 -1.1516  0.0969 -0.0926
   98TCq2    O4 1500   3.280   2.661   0.282 -0.4748  0.2373 -0.0147
   98TCq2    C9 1501   2.805   2.350   0.383  0.8571  0.0842  0.0155
   98TCq2    O5 1502   2.726   2.450   0.393 -0.3237 -0.2322 -0.2243
   98TCq2    O6 1503   2.768   2.241   0.334 -0.1462  0.1075 -0.4403
   98TCq2    H2 1504   3.000   2.192   0.458  0.4600 -0.3067  1.7300
   98TCq2    H3 1505   2.907   2.564   0.295  1.0407  1.3133  0.1405
   98TCq2    H4 1506   3.323   2.455   0.356 -0.0615 -1.5288 -0.7014
   99MPD2     C 1507   2.473   4.463   2.362 -0.4527  0.0855  0.9634
   99MPD2    C1 1508   2.341   4.431   2.334 -0.3468 -0.1305  0.4906
   99MPD2    C2 1509   2.316   4.376   2.206 -0.4069  0.3619  0.6047
   99MPD2    C3 1510   2.415   4.351   2.114 -0.0106  0.3040 -0.1644
   99MPD2    C4 1511   2.548   4.372   2.148  0.3770 -1.1088 -0.0773
   99MPD2    C5 1512   2.572   4.443   2.265  0.3769  0.1535  0.5992
   99MPD2     H 1513   2.213   4.351   2.184 -0.0679  0.8735 -1.5346
   99MPD2    H1 1514   2.633   4.350   2.085 -0.9131 -0.0017 -2.2212
   99MPD2    H2 1515   2.504   4.521   2.449 -2.3171 -2.0901  3.0495
   99MPD2    H3 1516   2.670   4.481   2.289 -0.9684  2.0775  3.0521
   99MPD2     N 1517   2.376   4.300   1.994  0.7955 -0.3258  0.2294
   99MPD2    H5 1518   2.277   4.283   1.988  0.9854 -1.2167 -0.3842
   99MPD2    N1 1519   2.236   4.448   2.430  0.5678 -0.3092 -0.8212
   99MPD2    H7 1520   2.141   4.423   2.406  0.4046  1.5364 -2.0650
  100TCq2    C1 1521   2.245   4.502   2.558  0.4707 -0.0806  0.4811
  100TCq2    O2 1522   2.344   4.541   2.622  0.6472 -0.2727 -0.6434
  100TCq2    C2 1523   2.117   4.494   2.634  0.0079 -0.2776 -0.4026
  100TCq2    C3 1524   2.133   4.489   2.775  0.3068  0.5413  0.4016
  100TCq2    C4 1525   2.026   4.459   2.845 -0.5494 -0.3008 -0.9483
  100TCq2    C5 1526   1.902   4.483   2.791  0.0534  0.2764 -0.0577
  100TCq2    C6 1527   1.883   4.500   2.658  0.4062  0.2573 -0.3662
  100TCq2    C7 1528   1.990   4.486   2.570  0.4278 -0.0544 -0.4625
  100TCq2    C8 1529   1.753   4.502   2.613  0.3269  0.9707 -0.5715
  100TCq2    O4 1530   1.667   4.524   2.696  0.2537  0.0486  0.5671
  100TCq2    C9 1531   2.036   4.431   2.986 -0.8400  0.4883 -0.7983
  100TCq2    O5 1532   1.935   4.411   3.055  0.3505 -0.0660  0.3855
  100TCq2    O6 1533   2.157   4.420   3.028  0.2480 -0.1238 -0.9170
  100TCq2    H2 1534   2.226   4.502   2.830  0.2856 -2.5655  1.1937
  100TCq2    H3 1535   1.827   4.514   2.863  0.0256 -0.6425  0.3008
  100TCq2    H4 1536   1.978   4.504   2.463 -0.9725  1.4587 -0.0512
  101MPD2     C 1537   2.975   0.327  12.986  0.3434  0.1438 -0.7360
  101MPD2    C1 1538   2.853   0.385  13.024  0.1207 -0.3877  0.0512
  101MPD2    C2 1539   2.757   0.316  13.098 -0.4918 -0.3467  0.5022
  101MPD2    C3 1540   2.775   0.182  13.121 -0.3148  0.2564  0.4992
  101MPD2    C4 1541   2.884   0.114  13.070  0.2752 -0.4985  0.7626
  101MPD2    C5 1542   2.984   0.192  13.012 -0.2135  0.0215  0.2517
  101MPD2     H 1543   2.674   0.373  13.138  1.9310  3.8402 -0.5556
  101MPD2    H1 1544   2.907   0.009  13.085 -0.6124 -0.8435 -0.2997
  101MPD2    H2 1545   3.055   0.363  12.923  0.4214  0.0405 -0.6966
  101MPD2    H3 1546   3.075   0.143  12.980  1.1221  1.4811  1.8013
  101MPD2     N 1547   2.692   0.114  13.209 -0.4157  0.1536 -0.2069
  101MPD2    H5 1548   2.708   0.014  13.212 -1.4870 -0.0563 -2.0000
  101MPD2    N1 1549   2.839   0.518  12.987 -0.0205 -0.0899  0.8094
  101MPD2    H7 1550   2.910   0.560  12.927 -1.9125 -0.3106 -1.5588
  102TCq2    C1 1551   2.924   0.861  12.661  0.5676  0.0101 -0.3175
  102TCq2    O2 1552   3.021   0.788  12.678 -0.2237 -0.1624  0.0746
  102TCq2    C2 1553   2.810   0.853  12.761 -0.5492 -0.6184  0.2239
  102TCq2    C3 1554   2.691   0.914  12.736 -0.1806  0.2375 -0.1714
  102TCq2    C4 1555   2.584   0.882  12.808 -0.0987 -0.1534  0.1470
  102TCq2    C5 1556   2.593   0.777  12.899  0.4101 -0.4165  0.9500
  102TCq2    C6 1557   2.706   0.712  12.914 -0.2533  0.0536  0.0107
  102TCq2    C7 1558   2.821   0.754  12.855  0.4424 -0.7411 -0.2067
  102TCq2    C8 1559   2.721   0.597  13.007 -0.0872 -0.2911 -0.1274
  102TCq2    O4 1560   2.620   0.578  13.074 -0.7024 -0.7581 -0.1073
  102TCq2    C9 1561   2.456   0.944  12.799  0.7248 -0.0393  0.2557
  102TCq2    O5 1562   2.453   1.062  12.750  1.3184 -0.2103 -0.7212
  102TCq2    O6 1563   2.356   0.883  12.842  0.2488  0.2846 -0.3673
  102TCq2    H2 1564   2.674   0.991  12.662  1.5243 -0.4580 -1.2837
  102TCq2    H3 1565   2.510   0.745  12.962 -2.0981  3.0531 -0.5734
  102TCq2    H4 1566   2.920   0.714  12.873  0.6199 -0.3452 -0.2984
  103TMC2    C1 1567   1.152   0.922  13.064 -0.5470 -0.1069  0.1751
  103TMC2    C2 1568   1.146   1.057  13.095  0.1424  0.0959 -0.0996
  103TMC2    C3 1569   1.183   1.097  13.217 -0.4751 -1.3025 -0.5128
  103TMC2    C4 1570   1.195   0.838  13.154 -0.2675 -0.4431  0.5223
  103TMC2    C5 1571   1.238   0.889  13.274 -0.5989  0.4511  0.8934
  103TMC2    C6 1572   1.236   1.020  13.312  0.1412 -0.7216 -0.0825
  103TMC2     C 1573   1.152   0.883  12.926 -0.0640 -0.2723  0.4587
  103TMC2     O 1574   1.114   0.770  12.901 -0.0427  0.2644  0.2839
  103TMC2     H 1575   1.083   1.111  13.026 -0.0647  2.2325  1.7866
  103TMC2    H1 1576   1.197   0.732  13.130  0.8032  0.0410 -1.4792
  103TMC2    H2 1577   1.273   1.052  13.408 -0.4360 -2.9120  0.8682
  103TMC2    C7 1578   1.279   0.797  13.386  0.1832  0.4461 -0.4208
  103TMC2    C8 1579   1.166   1.241  13.246  0.3615 -0.5629  0.4968
  103TMC2    O1 1580   1.333   0.849  13.481  0.3369 -0.2849 -0.3185
  103TMC2    O2 1581   1.075   1.305  13.201 -0.0416  0.0090 -0.3784
  103TMC2    O5 1582   1.238   1.282  13.343  0.7306 -0.3121  0.4255
  103TMC2    H5 1583   1.324   1.236  13.341  1.5779  1.3142  0.3019
  104MPD2     C 1584   1.260   1.061  12.628  0.6138  0.8243 -0.3472
  104MPD2    C1 1585   1.178   0.979  12.698  0.8523 -0.0157 -0.5017
  104MPD2    C2 1586   1.097   0.886  12.626  0.0502  0.4104  0.7663
  104MPD2    C3 1587   1.106   0.884  12.487 -0.3273 -0.2255  0.1743
  104MPD2    C4 1588   1.187   0.973  12.424 -0.5071 -0.5394 -0.2359
  104MPD2    C5 1589   1.258   1.062  12.491  0.1405 -0.0599  0.1939
  104MPD2     H 1590   1.031   0.818  12.678  1.8920 -2.3469 -0.4936
  104MPD2    H1 1591   1.205   0.974  12.317 -0.2756  0.9970 -0.1767
  104MPD2    H2 1592   1.327   1.138  12.665  0.8057  0.1874  0.6138
  104MPD2    H3 1593   1.321   1.130  12.436 -1.2214  1.2021  0.2122
  104MPD2     N 1594   1.015   0.802  12.417  0.9961 -0.3620  1.4541
  104MPD2    H5 1595   0.957   0.739  12.472 -0.2825 -1.6733 -1.4012
  104MPD2    N1 1596   1.187   0.987  12.843 -0.2946 -0.1274  0.3725
  104MPD2    H7 1597   1.245   1.058  12.886 -1.6461  0.8707  0.5363
  105MPD2     C 1598   2.512   4.543   0.197 -0.3353 -0.5515  0.1998
  105MPD2    C1 1599   2.440   4.658   0.166  0.5426 -0.3248  0.8258
  105MPD2    C2 1600   2.348   4.705   0.253 -0.1389 -0.1543  0.0590
  105MPD2    C3 1601   2.353   4.663   0.386  0.3885  0.1341 -0.1642
  105MPD2    C4 1602   2.421   4.547   0.410 -0.4736  0.2356  0.1574
  105MPD2    C5 1603   2.508   4.498   0.318 -0.1560  0.0819  0.7172
  105MPD2     H 1604   2.275   0.059   0.232  1.1032  1.9912  3.8034
  105MPD2    H1 1605   2.435   4.507   0.510 -2.9151 -0.1343  0.3503
  105MPD2    H2 1606   2.600   4.518   0.138 -1.0401 -2.0552 -0.2246
  105MPD2    H3 1607   2.562   4.408   0.344  2.2745  1.1489 -0.6450
  105MPD2     N 1608   2.259   4.718   0.478  0.3586 -0.1919  0.0868
  105MPD2    H5 1609   2.193   0.061   0.440 -0.0664 -0.0908  1.0237
  105MPD2    N1 1610   2.441   4.710   0.032  0.1287  0.0193  0.0120
  105MPD2    H7 1611   2.369   0.057   0.023  1.3054  1.2562  0.4813
  106TCq2    C1 1612   2.242   4.665   0.606  0.7684  0.4198 -1.0130
  106TCq2    O2 1613   2.299   4.575   0.664 -0.0150  0.0172 -0.1100
  106TCq2    C2 1614   2.126   4.720   0.673  0.0595 -0.3019 -0.1428
  106TCq2    C3 1615   2.036   0.085   0.615 -0.2059 -0.1220  0.6206
  106TCq2    C4 1616   1.932   0.130   0.690  0.0254 -0.1066  1.0235
  106TCq2    C5 1617   1.905   0.086   0.814 -0.1737  0.3086 -0.1057
  106TCq2    C6 1618   1.998   4.724   0.871 -0.3098 -0.0118  0.5705
  106TCq2    C7 1619   2.102   4.672   0.800 -0.2927  0.4288 -0.5795
  106TCq2    C8 1620   1.985   4.684   1.009  0.1289  0.5759  0.0219
  106TCq2    O4 1621   2.054   4.591   1.050  0.3854  0.0681  0.3494
  106TCq2    C9 1622   1.856   0.242   0.634  0.3578 -0.6289  0.0153
  106TCq2    O5 1623   1.791   0.310   0.721 -0.6534 -0.2360  0.0043
  106TCq2    O6 1624   1.872   0.271   0.514 -0.6783 -0.5784  0.2535
  106TCq2    H2 1625   2.058   0.125   0.517 -0.4509  1.6641  1.2978
  106TCq2    H3 1626   1.814   0.124   0.859  0.7636 -0.0315  2.0257
  106TCq2    H4 1627   2.165   4.594   0.841  0.2893  1.0018 -0.3887
  107TMC2    C1 1628   3.693   3.559  11.576 -0.6998  0.2771 -0.5130
  107TMC2    C2 1629   3.814   3.606  11.526  0.8389 -0.1449 -0.3209
  107TMC2    C3 1630   3.887   3.515  11.449 -1.0491 -0.2032 -0.7375
  107TMC2    C4 1631   3.644   3.438  11.541 -0.0159 -1.0537 -1.0849
  107TMC2    C5 1632   3.720   3.351  11.465 -0.0023  0.7117  0.1648
  107TMC2    C6 1633   3.846   3.385  11.416 -1.0621  0.5068  0.2290
  107TMC2     C 1634   3.626   3.638  11.675 -0.5849  0.4947  0.8124
  107TMC2     O 1635   3.521   3.594  11.720  0.5444 -0.3094 -0.2346
  107TMC2     H 1636   3.866   3.699  11.542 -1.3961  1.2129 -0.9165
  107TMC2    H1 1637   3.538   3.418  11.555 -0.2230 -1.0611 -2.6046
  107TMC2    H2 1638   3.898   3.314  11.353 -2.0641  0.1667 -0.2326
  107TMC2    C7 1639   3.685   3.207  11.482 -0.4488  0.4434 -0.7603
  107TMC2    C8 1640   3.993   3.580  11.373  0.6997 -0.2855  0.3216
  107TMC2    O1 1641   3.616   3.175  11.577 -0.0607 -0.6597  0.6992
  107TMC2    O2 1642   3.996   3.699  11.360  0.5278 -0.0039  0.2980
  107TMC2    O5 1643   4.072   3.483  11.325 -0.3114 -0.5462  0.1051
  107TMC2    H5 1644   4.067   3.400  11.378  1.0960  0.3637  1.6616
  108MPD2     C 1645   3.660   4.004  11.714 -0.3960  1.1586  0.3132
  108MPD2    C1 1646   3.626   3.876  11.758  0.1990 -0.3548 -0.1569
  108MPD2    C2 1647   3.535   3.868  11.860 -0.1328  0.4833  0.0652
  108MPD2    C3 1648   3.471   3.981  11.910 -0.3760  0.5106 -0.1810
  108MPD2    C4 1649   3.506   4.110  11.860 -0.3136  0.4127  0.3934
  108MPD2    C5 1650   3.601   4.118  11.765  0.2266  0.9182  0.5645
  108MPD2     H 1651   3.518   3.770  11.902  0.7325  1.1823  2.0719
  108MPD2    H1 1652   3.459   4.202  11.894  0.4257  0.5899  0.9409
  108MPD2    H2 1653   3.737   4.012  11.638  0.4690 -0.7224  1.0019
  108MPD2    H3 1654   3.650   4.204  11.720  3.5944  0.8295  4.0371
  108MPD2     N 1655   3.363   3.980  12.005  1.0012  0.0016  0.7332
  108MPD2    H5 1656   3.323   4.071  12.028  1.3148  0.2814  0.1677
  108MPD2    N1 1657   3.684   3.761  11.687 -0.6276  0.0949  0.2358
  108MPD2    H7 1658   3.748   3.792  11.614  1.4957 -1.0324  1.5880
  109MPD2     C 1659   3.598   1.244   2.110  0.1347 -0.4166  0.0742
  109MPD2    C1 1660   3.539   1.365   2.068 -0.0069 -0.1454 -0.1409
  109MPD2    C2 1661   3.619   1.481   2.038 -0.1323  0.1919  0.1844
  109MPD2    C3 1662   3.750   1.481   2.076  0.1472 -0.4371  0.3861
  109MPD2    C4 1663   3.807   1.363   2.117  0.2163 -0.3011  0.1905
  109MPD2    C5 1664   3.733   1.247   2.136  0.8282 -0.0912  0.0164
  109MPD2     H 1665   3.580   1.578   2.012 -0.1673  0.4611  1.2266
  109MPD2    H1 1666   3.915   1.367   2.131  0.3290  2.3274 -1.4861
  109MPD2    H2 1667   3.545   1.150   2.115  1.2986 -1.2188 -2.4711
  109MPD2    H3 1668   3.783   1.153   2.159  1.3024 -0.0911 -0.9850
  109MPD2     N 1669   3.818   1.607   2.087  0.3169 -0.9481  0.0886
  109MPD2    H5 1670   3.767   1.685   2.045  2.1592 -0.6439 -1.5324
  109MPD2    N1 1671   3.404   1.366   2.035  0.1661 -0.3219  0.0071
  109MPD2    H7 1672   3.354   1.279   2.047  0.8905 -0.5658  1.2162
  110TCq2    C1 1673   3.948   1.638   2.114 -0.8841  0.6333  0.0046
  110TCq2    O2 1674   4.040   1.569   2.162 -0.1975 -0.0337 -0.0108
  110TCq2    C2 1675   3.982   1.776   2.103 -0.1722 -0.7109  0.3114
  110TCq2    C3 1676   4.083   1.832   2.174  0.4517  0.4961 -0.4138
  110TCq2    C4 1677   4.114   1.966   2.167  0.4052  0.2982  0.0923
  110TCq2    C5 1678   4.040   2.043   2.086  0.0584  0.3093  0.6332
  110TCq2    C6 1679   3.944   1.983   2.002 -0.4792 -0.2974  0.4250
  110TCq2    C7 1680   3.912   1.854   2.012  0.1988  0.0885  0.8631
  110TCq2    C8 1681   3.864   2.068   1.916 -0.3683 -0.8092 -0.5284
  110TCq2    O4 1682   3.796   2.009   1.832 -0.1508 -0.0505  0.0546
  110TCq2    C9 1683   4.237   2.023   2.219  0.2633 -0.6340  0.0185
  110TCq2    O5 1684   4.304   1.947   2.292 -0.3248  0.3836  0.1113
  110TCq2    O6 1685   4.261   2.140   2.186  0.2216 -0.1013  0.3089
  110TCq2    H2 1686   4.131   1.765   2.244 -0.3777 -1.8034 -2.0673
  110TCq2    H3 1687   4.070   2.146   2.069 -0.4499  0.2408 -0.6926
  110TCq2    H4 1688   3.834   1.818   1.946  0.9634 -0.9534  0.5266
  111TMC2    C1 1689   3.393   1.021  11.236 -0.2024  1.3749  0.7278
  111TMC2    C2 1690   3.439   0.943  11.128  0.4442 -0.4047 -0.0362
  111TMC2    C3 1691   3.549   0.865  11.149 -0.4128  0.1030 -0.6419
  111TMC2    C4 1692   3.442   1.009  11.362 -0.3392 -0.2765  0.1884
  111TMC2    C5 1693   3.549   0.930  11.380 -0.7645 -1.0119  0.2016
  111TMC2    C6 1694   3.598   0.843  11.275 -0.5155 -0.9727 -0.0355
  111TMC2     C 1695   3.280   1.117  11.203 -0.4054 -0.5537 -0.2560
  111TMC2     O 1696   3.220   1.109  11.094  0.0704  0.2154  0.1258
  111TMC2     H 1697   3.412   0.951  11.023  0.9886 -0.3678 -0.1754
  111TMC2    H1 1698   3.402   1.052  11.453 -0.1095 -1.8752  1.0218
  111TMC2    H2 1699   3.683   0.779  11.297 -0.8893 -0.9583  1.4301
  111TMC2    C7 1700   3.598   0.912  11.518 -0.4346 -0.0473  0.0229
  111TMC2    C8 1701   3.602   0.783  11.040 -0.5401  0.1284 -0.5734
  111TMC2    O1 1702   3.522   0.943  11.612 -0.3560  0.0634 -0.0932
  111TMC2    O2 1703   3.702   0.711  11.050 -0.2579  0.2197  0.2560
  111TMC2    O5 1704   3.518   0.774  10.931  0.6116  0.0642  0.2555
  111TMC2    H5 1705   3.432   0.819  10.941  0.7916  0.0486  1.8920
  112MPD2     C 1706   3.013   1.539  11.296 -0.7424 -0.5375 -0.6409
  112MPD2    C1 1707   2.999   1.449  11.198  0.3081  0.2281  0.6339
  112MPD2    C2 1708   3.088   1.345  11.199 -0.2066 -0.2414  0.0480
  112MPD2    C3 1709   3.164   1.309  11.310 -0.1328 -0.2098 -0.4195
  112MPD2    C4 1710   3.165   1.389  11.419  0.4318 -0.0154  0.2513
  112MPD2    C5 1711   3.091   1.501  11.401  0.0157  0.3966 -0.0327
  112MPD2     H 1712   3.077   1.280  11.113  1.6519 -0.8683  0.2845
  112MPD2    H1 1713   3.208   1.364  11.515  0.2011  0.3519  0.4498
  112MPD2    H2 1714   2.963   1.635  11.295  2.5245  1.1585 -0.1868
  112MPD2    H3 1715   3.085   1.574  11.482  1.3661 -0.6108  0.9771
  112MPD2     N 1716   3.259   1.200  11.309 -0.3267 -0.5144 -0.2696
  112MPD2    H5 1717   3.304   1.186  11.399 -2.5561  0.6511  1.0354
  112MPD2    N1 1718   2.907   1.458  11.092 -0.1714  0.4689  0.1564
  112MPD2    H7 1719   2.925   1.392  11.016  0.1608 -0.5133  1.0884
  113MPD2     C 1720   1.672   4.045   1.163  0.4691  0.0801  0.3764
  113MPD2    C1 1721   1.610   4.169   1.163 -0.0393  0.4285  0.3209
  113MPD2    C2 1722   1.560   4.228   1.046  0.3779 -0.1100 -0.1134
  113MPD2    C3 1723   1.571   4.157   0.929 -0.6233  0.4737  1.0037
  113MPD2    C4 1724   1.638   4.031   0.926  0.0352 -0.3893 -0.5856
  113MPD2    C5 1725   1.683   3.975   1.042  0.2397 -0.2414  0.2365
  113MPD2     H 1726   1.516   4.327   1.053  0.3535 -0.2648  1.9387
  113MPD2    H1 1727   1.645   3.986   0.828 -1.1976  3.1828 -2.3092
  113MPD2    H2 1728   1.722   4.006   1.250  0.3328 -2.1593 -0.5690
  113MPD2    H3 1729   1.745   3.887   1.042  0.3572 -0.1575  0.9037
  113MPD2     N 1730   1.527   4.201   0.800 -0.0921 -0.1141  0.0725
  113MPD2    H5 1731   1.527   4.142   0.717  0.0916  1.5942 -1.1364
  113MPD2    N1 1732   1.611   4.253   1.273 -0.3449  0.4164 -0.3519
  113MPD2    H7 1733   1.572   4.346   1.257 -1.3647  0.3994  1.9378
  114TCq2    C1 1734   1.462   4.319   0.773  0.5779 -0.2739  0.1142
  114TCq2    O2 1735   1.456   4.423   0.839 -0.2784  0.2605 -0.2307
  114TCq2    C2 1736   1.384   4.312   0.651 -0.1194  0.2392  0.0069
  114TCq2    C3 1737   1.344   4.421   0.589  0.2304  0.2162 -0.4820
  114TCq2    C4 1738   1.249   4.413   0.491 -0.2033 -0.7916  0.0285
  114TCq2    C5 1739   1.185   4.300   0.465 -0.2027  0.3602  0.9127
  114TCq2    C6 1740   1.226   4.187   0.533 -0.3250  0.6135  0.0358
  114TCq2    C7 1741   1.328   4.189   0.628  0.3533 -0.3420 -0.2696
  114TCq2    C8 1742   1.131   4.079   0.553  1.0776 -0.3610 -0.8585
  114TCq2    O4 1743   1.049   4.080   0.462  0.3249  0.5245 -0.5515
  114TCq2    C9 1744   1.204   4.535   0.433  0.3971  0.5762 -1.0321
  114TCq2    O5 1745   1.141   4.529   0.324 -0.3547  0.3623 -0.8753
  114TCq2    O6 1746   1.211   4.640   0.503 -0.0714 -0.4614  0.7323
  114TCq2    H2 1747   1.395   4.516   0.604 -0.3577  0.2148  1.5550
  114TCq2    H3 1748   1.100   4.292   0.397 -0.7385 -0.3836  1.6646
  114TCq2    H4 1749   1.355   4.099   0.681  0.9975  0.5456  0.9207
  115TMC2    C1 1750   2.389   2.195   0.026 -0.2142  0.4329  0.3591
  115TMC2    C2 1751   2.489   2.103   0.039 -0.3601  0.9793  0.3244
  115TMC2    C3 1752   2.618   2.141   0.062 -0.0574  0.0404 -0.5996
  115TMC2    C4 1753   2.425   2.326   0.006  0.2337 -0.5318 -0.1490
  115TMC2    C5 1754   2.559   2.361   0.029 -0.3793  0.5107 -0.3340
  115TMC2    C6 1755   2.661   2.267   0.066 -0.2678 -0.2783  0.0785
  115TMC2     C 1756   2.256   2.149  17.692 -0.3198  0.3526 -0.0295
  115TMC2     O 1757   2.238   2.035  17.655 -0.0105  0.0698 -0.4301
  115TMC2     H 1758   2.465   1.999   0.020  0.0723  0.9166  0.1147
  115TMC2    H1 1759   2.351   2.399  17.673  0.4993 -0.9439 -1.7164
  115TMC2    H2 1760   2.767   2.290   0.068 -0.0273 -1.2195 -1.3753
  115TMC2    C7 1761   2.592   2.491   0.035 -0.3011  0.1966  0.5898
  115TMC2    C8 1762   2.715   2.030   0.075  0.4092 -1.0670 -0.2957
  115TMC2    O1 1763   2.710   2.516   0.017 -0.2608  0.5169  0.0253
  115TMC2    O2 1764   2.705   1.925   0.004  0.2398  0.3001  0.1876
  115TMC2    O5 1765   2.816   2.067   0.157 -0.1227 -0.6102 -0.0046
  115TMC2    H5 1766   2.785   2.142   0.213 -0.5107 -1.9391  1.5570
  116MPD2     C 1767   1.757   2.253   0.023  0.5083 -0.0863  0.0519
  116MPD2    C1 1768   1.819   2.137  17.683 -0.7493 -0.4550 -0.0090
  116MPD2    C2 1769   1.959   2.129  17.687 -0.2860  0.0737 -0.3786
  116MPD2    C3 1770   2.033   2.241   0.024 -0.2387  0.3227 -0.3289
  116MPD2    C4 1771   1.969   2.360   0.052 -0.0118 -0.0876 -0.3033
  116MPD2    C5 1772   1.830   2.365   0.054  0.3663  0.3328  1.2575
  116MPD2     H 1773   2.008   2.033  17.678 -0.4835  0.2145 -3.0025
  116MPD2    H1 1774   2.017   2.456   0.068  0.2392 -0.6497  2.4349
  116MPD2    H2 1775   1.650   2.269   0.019  0.4806 -0.9989 -2.7907
  116MPD2    H3 1776   1.785   2.463   0.057 -0.8313 -0.1161 -1.7681
  116MPD2     N 1777   2.170   2.245   0.037  0.0581 -0.2810  0.0924
  116MPD2    H5 1778   2.215   2.329   0.073 -0.0174  0.0976 -0.6959
  116MPD2    N1 1779   1.728   2.037  17.633 -0.4850  0.4069  0.3360
  116MPD2    H7 1780   1.630   2.062  17.643  0.0807  1.6264  2.7730
  117TMC2    C1 1781   0.678   2.971  14.163 -0.5932  0.0258  0.2729
  117TMC2    C2 1782   0.688   2.858  14.233  0.2818 -0.2839  0.5472
  117TMC2    C3 1783   0.788   2.776  14.203  0.8218 -0.0813 -0.3285
  117TMC2    C4 1784   0.764   3.009  14.061 -0.5825  0.4990  0.0423
  117TMC2    C5 1785   0.855   2.911  14.030 -0.2491  0.4887  0.1810
  117TMC2    C6 1786   0.878   2.789  14.102 -0.5460 -0.7612 -0.5575
  117TMC2     C 1787   0.545   3.034  14.174  0.3377 -0.4681 -0.0662
  117TMC2     O 1788   0.458   2.968  14.221 -0.5846  0.0837 -0.6136
  117TMC2     H 1789   0.607   2.817  14.293 -0.1764 -1.0026 -0.5585
  117TMC2    H1 1790   0.738   3.090  13.993 -0.6528  1.1886  0.8819
  117TMC2    H2 1791   0.950   2.716  14.066  1.3271  1.2940 -0.9543
  117TMC2    C7 1792   0.929   2.941  13.913 -0.3139 -0.2983 -0.8153
  117TMC2    C8 1793   0.795   2.658  14.287 -1.2262  0.3142 -0.2335
  117TMC2    O1 1794   0.979   2.845  13.858 -0.1868 -0.5395 -0.4787
  117TMC2    O2 1795   0.706   2.617  14.357  0.1740 -0.7005  0.7794
  117TMC2    O5 1796   0.929   2.650  14.305  0.2242 -0.4883 -0.5366
  117TMC2    H5 1797   0.975   2.726  14.263 -0.4402  0.3515  0.2641
  118MPD2     C 1798   1.063   3.060  13.691 -0.2587  0.3236  0.3034
  118MPD2    C1 1799   1.046   3.130  13.806 -0.2125  0.1583  0.2391
  118MPD2    C2 1800   1.090   3.257  13.819  0.5958  0.2186  0.6632
  118MPD2    C3 1801   1.168   3.310  13.715  0.0773 -0.2322  0.1476
  118MPD2    C4 1802   1.184   3.244  13.595 -0.2144  0.0222 -0.1313
  118MPD2    C5 1803   1.134   3.115  13.587 -0.7517  0.2547  0.1942
  118MPD2     H 1804   1.059   3.305  13.911 -0.2443  0.2992  0.3422
  118MPD2    H1 1805   1.241   3.276  13.508 -1.6910  1.5527 -0.5262
  118MPD2    H2 1806   1.039   2.955  13.677  0.2343  0.1017  1.1475
  118MPD2    H3 1807   1.153   3.060  13.495  1.3383  1.2094  0.0464
  118MPD2     N 1808   1.236   3.436  13.731  0.1740  0.1982  0.0596
  118MPD2    H5 1809   1.292   3.476  13.657  2.7289 -2.0260  0.7901
  118MPD2    N1 1810   0.968   3.072  13.908  0.7701  0.3216  0.5099
  118MPD2    H7 1811   0.945   3.137  13.983 -0.6063 -0.1997  0.5389
  119MPD2     C 1812   4.049   0.136  13.321  0.1311 -0.6005  0.0265
  119MPD2    C1 1813   3.987   0.156  13.439  0.0876 -0.3850  0.5726
  119MPD2    C2 1814   3.911   0.041  13.482 -0.3076  0.2610  0.2742
  119MPD2    C3 1815   3.899   4.646  13.413  0.6532  0.0607 -0.0668
  119MPD2    C4 1816   3.964   4.641  13.298  0.5310  0.2285 -0.4564
  119MPD2    C5 1817   4.045   0.016  13.263  0.3206  0.7481  0.3907
  119MPD2     H 1818   3.857   0.056  13.575 -0.8481 -2.2252  0.3410
  119MPD2    H1 1819   3.969   4.552  13.237  0.6161 -0.2273  0.2236
  119MPD2    H2 1820   4.114   0.210  13.276  0.3153  0.6031  2.2714
  119MPD2    H3 1821   4.096   0.014  13.167  0.7428 -1.5895  0.6626
  119MPD2     N 1822   3.840   4.529  13.463  0.0140  0.2584  0.2602
  119MPD2    H5 1823   3.838   4.453  13.396 -1.7656  0.6643 -0.1563
  119MPD2    N1 1824   4.004   0.284  13.504 -0.3092 -0.0716 -0.6056
  119MPD2    H7 1825   4.060   0.346  13.446 -0.4347  0.8644  0.2777
  120TCq2    C1 1826   3.764   4.526  13.580  0.3579  0.3641 -0.4693
  120TCq2    O2 1827   3.726   4.618  13.655  0.0844 -0.4950  0.3115
  120TCq2    C2 1828   3.716   4.397  13.616 -0.2463  0.7658 -0.4522
  120TCq2    C3 1829   3.755   4.289  13.545  0.5074  0.2063  0.5601
  120TCq2    C4 1830   3.746   4.161  13.605  0.1719  0.0983 -0.4279
  120TCq2    C5 1831   3.684   4.151  13.724  0.0038 -0.0171 -0.8836
  120TCq2    C6 1832   3.647   4.260  13.795  0.4981  0.1085  0.5091
  120TCq2    C7 1833   3.658   4.387  13.743  0.7462 -0.2645 -0.3443
  120TCq2    C8 1834   3.553   4.226  13.901  0.6229  0.0930  0.2856
  120TCq2    O4 1835   3.581   4.130  13.974  0.3422  0.0751 -0.1387
  120TCq2    C9 1836   3.794   4.045  13.526  0.0223  0.8196  0.3531
  120TCq2    O5 1837   3.776   3.930  13.580 -0.0762  0.2363  0.3587
  120TCq2    O6 1838   3.833   4.065  13.408  1.0803  0.3618 -0.1636
  120TCq2    H2 1839   3.796   4.292  13.444  0.9695  1.4576  0.7814
  120TCq2    H3 1840   3.673   4.051  13.763  0.3941  0.3583  0.1913
  120TCq2    H4 1841   3.649   4.472  13.809 -0.0073 -1.0206  0.5130
  121TMC2    C1 1842   0.798   1.543  14.395 -0.5918  0.0991 -0.3957
  121TMC2    C2 1843   0.699   1.577  14.484  0.0382  0.2202  0.3188
  121TMC2    C3 1844   0.585   1.508  14.464  0.1148 -0.4006 -0.1414
  121TMC2    C4 1845   0.779   1.465  14.281 -0.2043  0.9965  0.2989
  121TMC2    C5 1846   0.656   1.415  14.257  0.5982 -0.3370  0.9781
  121TMC2    C6 1847   0.560   1.444  14.345 -0.4776  0.6441 -0.3480
  121TMC2     C 1848   0.903   1.637  14.402 -0.1104 -0.7917  0.4154
  121TMC2     O 1849   0.937   1.666  14.515  0.0146 -0.0086  0.0492
  121TMC2     H 1850   0.716   1.645  14.566 -2.8923  2.1058 -0.6392
  121TMC2    H1 1851   0.848   1.470  14.198 -0.9843  2.1019 -0.2769
  121TMC2    H2 1852   0.472   1.383  14.325  0.3817 -1.4412  2.1604
  121TMC2    C7 1853   0.632   1.353  14.126  0.7455  0.7048  0.6320
  121TMC2    C8 1854   0.464   1.569  14.522  0.0091  1.1733  0.0065
  121TMC2    O1 1855   0.724   1.283  14.085  0.3628  0.3468 -0.6962
  121TMC2    O2 1856   0.354   1.587  14.477  0.2608  0.0648 -0.4626
  121TMC2    O5 1857   0.494   1.594  14.650  0.2056 -0.0682  0.2789
  121TMC2    H5 1858   0.584   1.562  14.674  1.2088  1.0612 -1.9120
  122MPD2     C 1859   1.088   1.853  14.358  0.0023 -0.3869 -0.2555
  122MPD2    C1 1860   1.009   1.802  14.259 -0.1157 -1.0218 -0.1774
  122MPD2    C2 1861   1.017   1.863  14.133 -0.8900 -0.6081  0.2919
  122MPD2    C3 1862   1.109   1.960  14.103  0.0818 -1.0989 -0.0512
  122MPD2    C4 1863   1.197   2.003  14.202  0.2684  0.2471  0.4341
  122MPD2    C5 1864   1.183   1.945  14.323  0.2058 -0.2508  0.0156
  122MPD2     H 1865   0.951   1.829  14.055 -3.1416 -0.3121  2.0467
  122MPD2    H1 1866   1.295   2.048  14.198 -0.1565  1.1024 -0.5081
  122MPD2    H2 1867   1.084   1.826  14.463  0.5895  1.1710  0.1639
  122MPD2    H3 1868   1.261   1.972  14.394  0.5611 -0.7791 -0.1806
  122MPD2     N 1869   1.134   2.012  13.970  0.0696  0.2365  0.4355
  122MPD2    H5 1870   1.194   2.092  13.959  1.2664 -0.5987  0.8838
  122MPD2    N1 1871   0.916   1.701  14.283 -0.1465  0.5997 -0.2771
  122MPD2    H7 1872   0.856   1.667  14.209  1.3503 -1.3020 -0.6172
  123MPD2     C 1873   3.674   3.993  10.118  0.3998 -0.1201  1.0125
  123MPD2    C1 1874   3.782   3.908  10.111 -0.0725  0.2200 -0.0217
  123MPD2    C2 1875   3.904   3.962  10.062 -0.3290 -0.0093  0.3025
  123MPD2    C3 1876   3.923   4.093  10.023 -0.8164 -0.3721  1.3229
  123MPD2    C4 1877   3.818   4.177  10.049 -0.2664  0.1876  0.1245
  123MPD2    C5 1878   3.696   4.130  10.093 -0.3027  0.2136 -0.0223
  123MPD2     H 1879   3.996   3.905  10.053 -1.3935 -1.5085 -0.9688
  123MPD2    H1 1880   3.833   4.284  10.053  1.2250 -0.0896  2.2840
  123MPD2    H2 1881   3.578   3.963  10.158  0.0834 -0.4276  0.0188
  123MPD2    H3 1882   3.610   4.195  10.103 -1.5333 -1.6449  1.5056
  123MPD2     N 1883   4.054   4.126   9.980 -0.8715 -0.7641 -0.1452
  123MPD2    H5 1884   4.118   4.050   9.962  0.8010  0.9473 -1.4332
  123MPD2    N1 1885   3.763   3.775  10.145 -0.3856  0.0209 -0.0036
  123MPD2    H7 1886   3.665   3.758  10.164 -0.5454  0.5352 -0.3481
  124TCq2    C1 1887   4.097   4.255   9.967  0.5265  0.6716 -0.1731
  124TCq2    O2 1888   4.033   4.358   9.974 -0.3339  0.3807  0.2073
  124TCq2    C2 1889   4.242   4.266   9.943 -0.3640  0.7071 -0.6382
  124TCq2    C3 1890   4.270   4.370   9.859 -0.0695 -0.1654  0.4274
  124TCq2    C4 1891   4.385   4.364   9.781  0.0670 -0.5669  0.1703
  124TCq2    C5 1892   4.462   4.258   9.780 -0.0807 -0.1031 -0.0155
  124TCq2    C6 1893   4.434   4.151   9.856  0.8572 -0.0163 -0.5309
  124TCq2    C7 1894   4.325   4.154   9.942 -1.2245  0.1642 -0.2780
  124TCq2    C8 1895   4.489   4.012   9.832 -0.2435  0.8567 -0.3506
  124TCq2    O4 1896   4.439   3.931   9.908  0.1790 -0.6777  0.4467
  124TCq2    C9 1897   4.419   4.477   9.698 -0.0520 -0.4026  0.0439
  124TCq2    O5 1898   4.533   4.489   9.643 -0.0781 -0.0251  0.1851
  124TCq2    O6 1899   4.343   4.576   9.713  0.0753  0.3425  0.6027
  124TCq2    H2 1900   4.211   4.461   9.865  2.2020  1.1175  3.2578
  124TCq2    H3 1901   4.541   4.256   9.706  0.1110  0.6762  0.1741
  124TCq2    H4 1902   4.306   4.075  10.013 -1.8601 -0.6080 -1.2949
  125TMC2    C1 1903   1.222   3.863   8.528  0.2388 -0.2026  0.6821
  125TMC2    C2 1904   1.231   3.789   8.412 -0.8719  1.0368  0.0470
  125TMC2    C3 1905   1.344   3.718   8.399 -0.3500  0.0237 -0.5864
  125TMC2    C4 1906   1.319   3.860   8.628 -0.5176  0.3443 -0.4024
  125TMC2    C5 1907   1.433   3.790   8.604 -0.0093 -0.9580  0.0082
  125TMC2    C6 1908   1.444   3.715   8.493  0.1261  0.3384  0.2955
  125TMC2     C 1909   1.097   3.928   8.558  0.1848 -0.4285  0.5990
  125TMC2     O 1910   1.109   4.031   8.621 -0.1085 -0.4817 -0.2575
  125TMC2     H 1911   1.174   3.801   8.320  3.0772 -1.3179 -2.6987
  125TMC2    H1 1912   1.310   3.910   8.723  0.2182 -1.2296  0.4966
  125TMC2    H2 1913   1.512   3.631   8.483 -0.4375  0.0960 -1.5129
  125TMC2    C7 1914   1.549   3.777   8.698  0.5275  0.0622 -0.1254
  125TMC2    C8 1915   1.361   3.634   8.278 -0.2323  0.4814  0.7437
  125TMC2    O1 1916   1.634   3.696   8.671  0.1602  0.2645  0.2839
  125TMC2    O2 1917   1.267   3.605   8.208  0.0831  0.2013 -1.3470
  125TMC2    O5 1918   1.485   3.670   8.240  0.3570  0.4053  0.5801
  125TMC2    H5 1919   1.538   3.720   8.306 -0.0230  2.2737 -0.4983
  126MPD1     C 1920   0.593   4.020   8.450 -0.1591  0.2004 -0.1711
  126MPD1    C1 1921   0.624   3.885   8.430 -0.1955 -0.1080  0.4793
  126MPD1    C2 1922   0.759   3.852   8.426  0.7916  0.0417 -0.2103
  126MPD1    C3 1923   0.855   3.940   8.479  0.0505  0.0783  0.3873
  126MPD1    C4 1924   0.822   4.066   8.520 -0.1838  0.3108  0.0777
  126MPD1    C5 1925   0.693   4.104   8.497 -0.2327 -0.3497 -0.0474
  126MPD1     H 1926   0.783   3.749   8.400  0.6647  0.1365 -0.6946
  126MPD1    H1 1927   0.896   4.133   8.560 -0.3580  1.4685 -1.5473
  126MPD1    H2 1928   0.491   4.054   8.434 -0.0256  1.1216  0.9321
  126MPD1    H3 1929   0.662   4.205   8.521  1.1350  0.0313  0.1233
  126MPD1     N 1930   0.991   3.877   8.492  0.1966  0.0975 -0.4371
  126MPD1    H5 1931   1.005   3.784   8.455  0.6326 -0.3741  0.9040
  126MPD1    N1 1932   0.528   3.805   8.368 -0.1176  0.2849 -0.2226
  126MPD1    H6 1933   0.559   3.710   8.390  0.8716  0.2438 -1.8232
  126MPD1    H7 1934   0.437   3.817   8.411 -0.7878  0.3801 -1.6813
  127MPD2     C 1935   1.247   0.012  10.416  0.6446 -0.0674  0.0669
  127MPD2    C1 1936   1.170   0.022  10.303  0.0524 -0.6740  0.3570
  127MPD2    C2 1937   1.185   0.124  10.209  0.4825  0.5512 -0.4513
  127MPD2    C3 1938   1.274   0.226  10.242  0.3537 -0.1402 -1.0576
  127MPD2    C4 1939   1.349   0.220  10.361  0.0816  0.0775 -1.1114
  127MPD2    C5 1940   1.345   0.109  10.442  1.6314  0.5620 -0.7022
  127MPD2     H 1941   1.122   0.135  10.122 -0.5861 -0.4636  0.1961
  127MPD2    H1 1942   1.416   0.297  10.397  1.1319 -0.9002 -0.9900
  127MPD2    H2 1943   1.240   4.659  10.491 -0.7568 -1.3600 -1.4024
  127MPD2    H3 1944   1.418   0.104  10.522 -0.4614  1.4144  1.2386
  127MPD2     N 1945   1.284   0.335  10.150  0.9408  0.4392 -0.3321
  127MPD2    H5 1946   1.216   0.331  10.075  0.7567  1.3497 -0.2250
  127MPD2    N1 1947   1.070   4.646  10.297  0.0280 -0.0070  0.4136
  127MPD2    H7 1948   1.055   4.588  10.380 -1.2065  0.1179  0.2843
  128TCq2    C1 1949   0.970   4.640  10.203  0.0791 -0.0571  0.3795
  128TCq2    O2 1950   0.941   4.722  10.118  0.0503 -0.7410 -0.0364
  128TCq2    C2 1951   0.875   4.533  10.239 -1.0105 -0.9282  0.4748
  128TCq2    C3 1952   0.749   4.580  10.289 -0.3524  0.3251 -0.1019
  128TCq2    C4 1953   0.644   4.490  10.286  0.0486  0.2388 -0.2028
  128TCq2    C5 1954   0.654   4.368  10.219  0.0462 -0.3723  0.3792
  128TCq2    C6 1955   0.775   4.340  10.158 -0.2307  0.3486  0.0486
  128TCq2    C7 1956   0.891   4.419  10.178 -0.5700  0.5265  0.1820
  128TCq2    C8 1957   0.785   4.243  10.054  0.6234  0.4320  0.0838
  128TCq2    O4 1958   0.888   4.242   9.989 -0.1398  0.4479 -0.3113
  128TCq2    C9 1959   0.523   4.527  10.356 -0.3513 -0.2185  0.6229
  128TCq2    O5 1960   0.444   4.429  10.382  0.1845  0.5637  0.1203
  128TCq2    O6 1961   0.503   4.645  10.399  0.3645 -0.1744  1.0962
  128TCq2    H2 1962   0.744   4.673  10.344 -3.7092  1.0771 -1.6980
  128TCq2    H3 1963   0.564   4.309  10.207  1.4977 -2.5414  0.1603
  128TCq2    H4 1964   0.988   4.396  10.135 -1.1669 -1.8656  0.0664
  129MPD2     C 1965   3.482   1.840   1.295 -0.1263 -0.6695  0.6643
  129MPD2    C1 1966   3.615   1.834   1.318  0.7646 -0.6352 -0.0440
  129MPD2    C2 1967   3.701   1.884   1.224  0.1556  0.2874  0.9008
  129MPD2    C3 1968   3.650   1.939   1.109 -0.2042 -0.7056 -0.6698
  129MPD2    C4 1969   3.516   1.943   1.086  0.2346  0.5131 -0.1341
  129MPD2    C5 1970   3.432   1.894   1.180  0.2841  0.8558 -0.0819
  129MPD2     H 1971   3.808   1.884   1.246  0.5771  3.2535 -1.1374
  129MPD2    H1 1972   3.459   1.971   0.998  0.8894 -0.7817 -0.9693
  129MPD2    H2 1973   3.411   1.800   1.367 -1.5513 -0.6119 -0.6959
  129MPD2    H3 1974   3.325   1.894   1.169  0.3884  0.8993 -1.0867
  129MPD2     N 1975   3.746   1.971   1.010 -0.0782 -0.1187  0.5515
  129MPD2    H5 1976   3.840   1.971   1.048 -0.3131 -1.1364  1.1328
  129MPD2    N1 1977   3.673   1.771   1.432 -0.2520 -0.1321  0.1235
  129MPD2    H7 1978   3.774   1.773   1.428 -0.2216 -1.5944  0.2058
  130TCq2    C1 1979   3.607   1.686   1.511  0.1723 -0.2171 -0.2357
  130TCq2    O2 1980   3.489   1.656   1.512 -0.3434  0.3884  0.4857
  130TCq2    C2 1981   3.695   1.614   1.605  0.7385  0.1532 -0.6922
  130TCq2    C3 1982   3.820   1.656   1.637 -0.1673  0.0024 -0.3522
  130TCq2    C4 1983   3.908   1.582   1.708 -0.5860 -0.2563 -1.0384
  130TCq2    C5 1984   3.873   1.448   1.729 -0.1236 -0.6786 -0.2301
  130TCq2    C6 1985   3.745   1.410   1.705 -0.7754 -0.0768  0.4508
  130TCq2    C7 1986   3.655   1.484   1.632 -0.2787 -0.2982  0.2112
  130TCq2    C8 1987   3.694   1.281   1.759  0.8484  0.4737 -0.2831
  130TCq2    O4 1988   3.578   1.244   1.732 -0.0079 -0.3800  0.3756
  130TCq2    C9 1989   4.027   1.645   1.761 -0.1150  0.7582 -0.5925
  130TCq2    O5 1990   4.112   1.572   1.812  0.0729  0.6857  0.2445
  130TCq2    O6 1991   4.049   1.760   1.715  0.1580  0.5081  0.1339
  130TCq2    H2 1992   3.846   1.755   1.603 -0.8782  1.2625  2.7587
  130TCq2    H3 1993   3.948   1.390   1.782  1.6768  2.0211  0.1575
  130TCq2    H4 1994   3.553   1.461   1.604 -0.1244  0.5726 -1.0686
  131MPD2     C 1995   4.077   3.183   9.483 -0.3902  0.4735 -0.2372
  131MPD2    C1 1996   4.114   3.309   9.521 -0.3985  0.1918 -0.3742
  131MPD2    C2 1997   4.041   3.364   9.629 -0.8805  0.0006  0.4759
  131MPD2    C3 1998   3.942   3.288   9.692  0.0062 -0.2875 -0.1144
  131MPD2    C4 1999   3.920   3.157   9.658 -0.0009 -0.2685  0.1480
  131MPD2    C5 2000   3.987   3.111   9.548  0.5312  0.5245 -0.1579
  131MPD2     H 2001   4.046   3.467   9.661 -1.2376 -0.3546  1.6656
  131MPD2    H1 2002   3.845   3.083   9.683 -1.2665  0.4644 -1.4856
  131MPD2    H2 2003   4.134   3.142   9.400  2.2575  0.2126  1.7143
  131MPD2    H3 2004   3.977   3.006   9.526  0.9608  0.1911  1.2577
  131MPD2     N 2005   3.884   3.345   9.803  0.4094  0.6868  0.0050
  131MPD2    H5 2006   3.910   3.438   9.833  2.1366 -0.0131  0.6347
  131MPD2    N1 2007   4.222   3.378   9.456  0.2495  0.2305  0.3158
  131MPD2    H7 2008   4.260   3.332   9.374  0.2928  2.0240 -0.6615
  132TCq2    C1 2009   4.640   3.415   9.200  0.2424  0.4208 -0.1623
  132TCq2    O2 2010   4.654   3.303   9.250  0.1728  0.4428  0.5244
  132TCq2    C2 2011   4.529   3.500   9.234  0.3386 -0.0624  0.5921
  132TCq2    C3 2012   4.530   3.635   9.196 -0.3834  0.1156 -0.3477
  132TCq2    C4 2013   4.467   3.728   9.277 -0.3592  0.1127  0.2557
  132TCq2    C5 2014   4.370   3.686   9.365 -0.5610 -0.2272  0.0182
  132TCq2    C6 2015   4.368   3.553   9.400 -0.2128 -0.2643  0.2769
  132TCq2    C7 2016   4.457   3.465   9.343  0.7204 -0.2040  0.2263
  132TCq2    C8 2017   4.264   3.505   9.483 -0.2539  0.4425 -0.5204
  132TCq2    O4 2018   4.204   3.585   9.556  0.1503 -0.1569 -0.1919
  132TCq2    C9 2019   4.474   3.864   9.245 -0.0492  0.5376  0.1166
  132TCq2    O5 2020   4.565   3.895   9.169  0.5147  0.3934 -0.3662
  132TCq2    O6 2021   4.383   3.934   9.294  0.2121 -0.4185  0.0528
  132TCq2    H2 2022   4.599   3.666   9.118  1.1530  1.5037  1.5411
  132TCq2    H3 2023   4.306   3.759   9.413 -0.8721 -0.0156 -0.7239
  132TCq2    H4 2024   4.471   3.371   9.394  1.1482  0.6958  1.7562
  133MPD2     C 2025   1.966   1.121   9.082  0.8330  0.1093  0.1407
  133MPD2    C1 2026   2.073   1.066   9.140 -0.3267  0.7786  0.7948
  133MPD2    C2 2027   2.081   0.926   9.143  0.9964 -0.0755  0.1233
  133MPD2    C3 2028   1.978   0.847   9.087 -0.2613  0.2234 -0.9776
  133MPD2    C4 2029   1.868   0.907   9.037  0.4280  0.2786 -0.9441
  133MPD2    C5 2030   1.860   1.052   9.031 -0.7726  0.2403  0.2914
  133MPD2     H 2031   2.171   0.883   9.185  0.3676  1.9249  3.5751
  133MPD2    H1 2032   1.784   0.856   8.992  0.1156  0.5224 -0.6382
  133MPD2    H2 2033   1.950   1.229   9.083 -1.1605 -0.2001  1.4253
  133MPD2    H3 2034   1.769   1.107   9.013 -0.3740  0.5868 -0.6924
  133MPD2     N 2035   1.967   0.707   9.095  0.3251 -0.2587  0.6816
  133MPD2    H5 2036   1.874   0.666   9.090  0.3629 -0.2169 -0.3278
  133MPD2    N1 2037   2.167   1.149   9.212 -0.4873  0.6163 -0.7053
  133MPD2    H7 2038   2.158   1.249   9.202  1.5789  0.9015  0.2637
  134TCq2    C1 2039   2.268   1.101   9.294  0.1980  0.4674 -0.5929
  134TCq2    O2 2040   2.320   0.992   9.309 -0.3167 -0.0431 -0.1309
  134TCq2    C2 2041   2.326   1.222   9.356 -0.0173 -0.1423  0.1955
  134TCq2    C3 2042   2.388   1.313   9.271 -0.2795  0.2210  0.2997
  134TCq2    C4 2043   2.490   1.391   9.317 -0.7073  0.0691 -0.0864
  134TCq2    C5 2044   2.527   1.384   9.445  0.3564  0.6879  0.1946
  134TCq2    C6 2045   2.483   1.282   9.521  0.1066 -0.3587 -0.0407
  134TCq2    C7 2046   2.387   1.198   9.474 -0.2736  0.2975 -0.4033
  134TCq2    C8 2047   2.534   1.267   9.657 -0.1179  0.3938  0.2047
  134TCq2    O4 2048   2.504   1.161   9.715 -0.2088  0.1154  0.1745
  134TCq2    C9 2049   2.541   1.495   9.227 -0.2151  0.2768 -0.7016
  134TCq2    O5 2050   2.496   1.497   9.112 -0.2449 -0.0316  0.5069
  134TCq2    O6 2051   2.651   1.552   9.264  0.0224 -0.0618  0.0208
  134TCq2    H2 2052   2.357   1.318   9.168 -0.2727  1.7674  0.3683
  134TCq2    H3 2053   2.601   1.459   9.469  2.7000 -1.1065 -1.3432
  134TCq2    H4 2054   2.357   1.116   9.537 -1.5600 -0.4987 -2.0728
  135MPD2     C 2055   0.441   0.797   9.475 -0.0208  0.4466  0.2002
  135MPD2    C1 2056   0.487   0.856   9.358  0.5512 -0.1782  0.4640
  135MPD2    C2 2057   0.621   0.861   9.330  1.1328  0.6777 -0.3816
  135MPD2    C3 2058   0.716   0.826   9.429 -0.2631 -0.0457  0.2449
  135MPD2    C4 2059   0.669   0.764   9.547 -0.3090  0.0148  0.5660
  135MPD2    C5 2060   0.532   0.757   9.567 -0.5484  0.2321  0.0500
  135MPD2     H 2061   0.652   0.883   9.229 -0.0266  0.5822 -0.7536
  135MPD2    H1 2062   0.739   0.724   9.619  0.9313  0.8435 -0.1847
  135MPD2    H2 2063   0.337   0.778   9.499  0.2287 -0.4074  0.5973
  135MPD2    H3 2064   0.491   0.715   9.657  1.6240 -0.7267  0.5988
  135MPD2     N 2065   0.855   0.813   9.404 -0.3822 -0.0786  0.2435
  135MPD2    H5 2066   0.922   0.785   9.475  0.0828  1.0811  0.2542
  135MPD2    N1 2067   0.394   0.895   9.257 -0.5157 -0.1308 -0.2817
  135MPD2    H7 2068   0.418   0.914   9.160 -2.1633  0.7436 -0.5201
  136TCq2    C1 2069   0.265   0.935   9.288 -0.4027  0.3307 -0.3216
  136TCq2    O2 2070   0.205   0.945   9.395  0.0317  0.3685  0.1038
  136TCq2    C2 2071   0.185   0.970   9.166  0.2116 -0.5115  0.2888
  136TCq2    C3 2072   0.094   1.066   9.179  0.0571 -0.5647  0.1627
  136TCq2    C4 2073   0.027   1.111   9.067  0.3676 -0.1689  0.3113
  136TCq2    C5 2074   0.052   1.042   8.946  0.0324 -0.5234 -0.2343
  136TCq2    C6 2075   0.140   0.942   8.933 -0.1447  0.3708 -0.0931
  136TCq2    C7 2076   0.204   0.901   9.046  0.0053  0.0283 -0.1009
  136TCq2    C8 2077   0.160   0.884   8.798  0.0286 -0.2360  0.5795
  136TCq2    O4 2078   0.122   0.953   8.707 -0.1346  0.0933  0.5953
  136TCq2    C9 2079   4.674   1.229   9.069  0.1868 -0.2630 -0.1272
  136TCq2    O5 2080   4.653   1.283   8.959  0.1212  0.2245 -0.3141
  136TCq2    O6 2081   4.640   1.275   9.184  0.0709  0.7637  0.0391
  136TCq2    H2 2082   0.082   1.119   9.273 -1.4840  1.1771 -0.9994
  136TCq2    H3 2083   4.724   1.076   8.857  0.2539  1.5900  0.4253
  136TCq2    H4 2084   0.281   0.824   9.042 -0.7492 -0.8999  2.6542
  137MPD2     C 2085   1.731   4.294   9.593 -0.0065 -0.2902  0.5803
  137MPD2    C1 2086   1.637   4.264   9.500 -0.5677 -0.0908 -0.6892
  137MPD2    C2 2087   1.526   4.345   9.473 -0.0257 -0.9336  0.1585
  137MPD2    C3 2088   1.524   4.468   9.537  0.4710 -0.3941 -0.2179
  137MPD2    C4 2089   1.627   4.508   9.625  0.4505 -0.3427  0.2268
  137MPD2    C5 2090   1.726   4.422   9.652  0.9181  0.4012 -0.0265
  137MPD2     H 2091   1.454   4.328   9.394 -0.0399 -0.7096  0.1224
  137MPD2    H1 2092   1.635   4.605   9.674 -0.3138 -1.4540  2.5475
  137MPD2    H2 2093   1.810   4.226   9.623 -0.5191 -0.8415  0.6644
  137MPD2    H3 2094   1.797   4.448   9.730  0.7300  0.9049 -0.0185
  137MPD2     N 2095   1.416   4.553   9.504  0.6924  0.7208  0.0200
  137MPD2    H5 2096   1.345   4.512   9.446  1.4523  0.1710 -0.5122
  137MPD2    N1 2097   1.634   4.135   9.456 -0.0161  1.0074 -0.2843
  137MPD2    H7 2098   1.712   4.079   9.489 -0.7541 -0.1013 -0.4056
  138TCq2    C1 2099   1.544   4.072   9.377 -0.2442  0.3444  0.6279
  138TCq2    O2 2100   1.440   4.122   9.332  0.1286 -0.2128  0.4195
  138TCq2    C2 2101   1.571   3.930   9.357 -0.2155 -0.3473 -0.8504
  138TCq2    C3 2102   1.634   3.869   9.454 -0.2471  0.3149  0.4247
  138TCq2    C4 2103   1.657   3.732   9.446 -0.1066 -0.4495 -0.0545
  138TCq2    C5 2104   1.610   3.661   9.340 -0.4973 -0.2328  0.7660
  138TCq2    C6 2105   1.552   3.735   9.241 -0.3407 -0.0572 -0.7481
  138TCq2    C7 2106   1.535   3.872   9.243 -0.0241  0.2513 -0.2272
  138TCq2    C8 2107   1.492   3.657   9.138 -0.3581  0.0377 -0.0186
  138TCq2    O4 2108   1.524   3.539   9.128 -0.5134  0.6329 -0.2239
  138TCq2    C9 2109   1.728   3.673   9.556  0.3893 -1.2331  0.2746
  138TCq2    O5 2110   1.812   3.751   9.608 -0.8451  0.2350 -0.2365
  138TCq2    O6 2111   1.735   3.551   9.556 -0.1025 -0.2030 -0.6282
  138TCq2    H2 2112   1.668   3.916   9.545  3.3043  0.0790 -0.7751
  138TCq2    H3 2113   1.632   3.555   9.334  0.3425 -0.1123  1.6404
  138TCq2    H4 2114   1.493   3.936   9.166  3.2441  1.7938 -0.7525
  139TMC2    C1 2115   0.455   4.257  13.149  0.3036  0.1426  0.5049
  139TMC2    C2 2116   0.500   4.349  13.060 -0.1578  0.6191 -0.2964
  139TMC2    C3 2117   0.431   4.466  13.037 -0.3351  0.3639 -0.3123
  139TMC2    C4 2118   0.339   4.281  13.210  0.4516 -0.6046 -1.0124
  139TMC2    C5 2119   0.266   4.392  13.175 -0.3227 -0.1273 -0.3289
  139TMC2    C6 2120   0.306   4.482  13.086 -0.3467  0.5797  0.3840
  139TMC2     C 2121   0.520   4.126  13.153  0.1789 -0.2433  0.8873
  139TMC2     O 2122   0.633   4.116  13.098 -0.0563  0.1293  0.0066
  139TMC2     H 2123   0.596   4.341  13.011  0.4524 -1.9181  1.3119
  139TMC2    H1 2124   0.306   4.218  13.290  1.3115 -1.0848 -1.0327
  139TMC2    H2 2125   0.247   4.564  13.048  0.3423  0.9296  0.0767
  139TMC2    C7 2126   0.153   4.436  13.246 -0.2532 -0.0993  0.4966
  139TMC2    C8 2127   0.521   4.579  13.058 -0.2469  0.1118 -0.1451
  139TMC2    O1 2128   0.133   4.558  13.243  0.5093 -0.5646  0.6145
  139TMC2    O2 2129   0.645   4.561  13.072 -0.5488 -0.3235  0.2086
  139TMC2    O5 2130   0.443   4.662  13.128 -0.2799  0.7613  0.0272
  139TMC2    H5 2131   0.357   4.690  13.089 -1.5534 -0.0431  2.2441
  140MPD2     C 2132   0.358   3.802  13.250 -0.0427  0.1111 -0.9105
  140MPD2    C1 2133   0.458   3.896  13.235  0.1633 -0.0478  0.7348
  140MPD2    C2 2134   0.590   3.861  13.270 -0.7291 -0.6854 -0.2355
  140MPD2    C3 2135   0.619   3.734  13.317 -0.4340 -0.5476 -0.3434
  140MPD2    C4 2136   0.509   3.643  13.321 -0.5126  0.0327  0.7584
  140MPD2    C5 2137   0.384   3.679  13.293  1.0104  0.3847  0.5405
  140MPD2     H 2138   0.674   3.928  13.261 -0.7793 -0.6613 -0.5092
  140MPD2    H1 2139   0.508   3.551  13.378  2.2839 -0.6914 -0.3782
  140MPD2    H2 2140   0.255   3.833  13.234 -0.5681  0.7008  3.6147
  140MPD2    H3 2141   0.312   3.601  13.316  1.0125  0.4341  0.7168
  140MPD2     N 2142   0.758   3.692  13.345 -0.4372  0.1988 -0.2079
  140MPD2    H5 2143   0.829   3.762  13.327 -0.5711  0.8320  1.6809
  140MPD2    N1 2144   0.431   4.031  13.203 -0.5511 -0.3436 -1.0057
  140MPD2    H7 2145   0.336   4.065  13.217  0.3258  1.6325  0.1802
  141TCq2    C1 2146   1.105   1.108  14.558  0.4358 -0.6970 -0.4788
  141TCq2    O2 2147   1.195   1.115  14.477  0.4433  0.5405  0.0756
  141TCq2    C2 2148   1.051   1.226  14.616 -0.3061  0.2703  0.3119
  141TCq2    C3 2149   0.921   1.233  14.656  0.7494 -0.2652 -0.5388
  141TCq2    C4 2150   0.873   1.346  14.705  0.1388  0.2756  0.1802
  141TCq2    C5 2151   0.950   1.452  14.709 -0.6658  0.5728  0.0571
  141TCq2    C6 2152   1.089   1.442  14.687  0.2748 -0.3483 -0.1543
  141TCq2    C7 2153   1.141   1.328  14.639 -1.0265 -0.0256  0.4223
  141TCq2    C8 2154   1.182   1.542  14.736  0.1702 -0.3734  0.0843
  141TCq2    O4 2155   1.290   1.503  14.783  0.5089  0.4557 -0.4644
  141TCq2    C9 2156   0.739   1.358  14.745 -0.5476 -0.6018 -0.2390
  141TCq2    O5 2157   0.672   1.254  14.735 -0.2277  0.3090 -0.2795
  141TCq2    O6 2158   0.694   1.472  14.760  0.2841 -0.7590 -0.0281
  141TCq2    H2 2159   0.850   1.152  14.654 -0.4565  0.6826  4.0686
  141TCq2    H3 2160   0.906   1.550  14.727  1.3622  1.5306 -0.1583
  141TCq2    H4 2161   1.248   1.320  14.625 -1.0079  0.8248  0.0580
  142MPD2     C 2162   3.906   3.127  10.379 -0.5814 -0.2605 -0.9268
  142MPD2    C1 2163   3.918   3.028  10.284 -0.5459 -0.1568 -0.3724
  142MPD2    C2 2164   4.006   3.048  10.182 -0.1384  0.8768  0.1997
  142MPD2    C3 2165   4.068   3.174  10.166  0.5332 -0.4474 -0.6357
  142MPD2    C4 2166   4.052   3.269  10.257  0.7520  0.3138  0.2331
  142MPD2    C5 2167   3.965   3.249  10.360  0.9445  0.0513  0.9039
  142MPD2     H 2168   4.020   2.975  10.104  1.2602 -1.7060  2.8853
  142MPD2    H1 2169   4.100   3.365  10.243  1.0768  0.1519  0.2516
  142MPD2    H2 2170   3.832   3.115  10.457 -0.3304  2.9442 -0.1979
  142MPD2    H3 2171   3.948   3.327  10.433 -1.9483 -0.0082  0.2836
  142MPD2     N 2172   4.155   3.205  10.060 -0.4831  0.6718 -0.1467
  142MPD2    H5 2173   4.209   3.291  10.066  1.3781 -0.7349  3.0509
  142MPD2    N1 2174   3.844   2.908  10.310 -0.3389  0.6687 -0.6301
  142MPD2    H7 2175   3.782   2.902  10.391  0.7344  1.1979  0.2261
  143TCq2    C1 2176   4.168   3.134   9.941  0.4736 -0.2615 -0.7974
  143TCq2    O2 2177   4.094   3.042   9.899 -0.3015 -0.7075 -0.0855
  143TCq2    C2 2178   4.277   3.177   9.852 -0.3312  0.1234 -0.8006
  143TCq2    C3 2179   4.308   3.104   9.741  0.6064  0.7085  0.3973
  143TCq2    C4 2180   4.426   3.134   9.681  0.7614  0.7549 -0.1307
  143TCq2    C5 2181   4.502   3.240   9.711  0.1507 -0.4103  0.2447
  143TCq2    C6 2182   4.465   3.319   9.817 -0.5557  0.2542 -0.4638
  143TCq2    C7 2183   4.349   3.291   9.883  0.6153 -0.1486  0.2224
  143TCq2    C8 2184   4.497   3.462   9.809 -0.3247 -0.6424 -0.3068
  143TCq2    O4 2185   4.436   3.533   9.890  0.1704 -0.0568  0.0766
  143TCq2    C9 2186   4.471   3.048   9.571 -0.0876  0.3796  0.4777
  143TCq2    O5 2187   4.562   3.097   9.498  0.3677 -0.3219  0.4673
  143TCq2    O6 2188   4.390   2.966   9.523  0.1927 -0.0099 -0.0780
  143TCq2    H2 2189   4.238   3.028   9.706  2.1131 -1.4892  2.1488
  143TCq2    H3 2190   4.596   3.256   9.660  0.1073  2.4493  1.0520
  143TCq2    H4 2191   4.318   3.346   9.971 -0.4167  0.3680 -0.4648
  144MPD2     C 2192   1.397   3.621   1.012 -0.4244 -0.7151 -0.3827
  144MPD2    C1 2193   1.399   3.489   1.001  0.6134 -0.2770 -0.6452
  144MPD2    C2 2194   1.503   3.414   1.053 -0.3489  0.1690 -0.5929
  144MPD2    C3 2195   1.603   3.477   1.118  0.1667  0.1154 -0.2399
  144MPD2    C4 2196   1.596   3.614   1.139 -0.2547 -0.4243  0.2396
  144MPD2    C5 2197   1.496   3.686   1.084 -0.1923 -0.3328 -0.1347
  144MPD2     H 2198   1.500   3.306   1.040  2.2759 -0.0370  0.4758
  144MPD2    H1 2199   1.687   3.656   1.179 -0.1760 -0.0241 -0.3687
  144MPD2    H2 2200   1.315   3.686   0.982  0.3190  1.3092  2.0292
  144MPD2    H3 2201   1.492   3.794   1.079 -0.1338 -0.3449 -0.4144
  144MPD2     N 2202   1.703   3.409   1.195 -0.5938  0.6738  0.1452
  144MPD2    H5 2203   1.751   3.467   1.263 -1.5999  1.1482  0.4480
  144MPD2    N1 2204   1.296   3.426   0.928 -0.3850  0.0626  0.5283
  144MPD2    H7 2205   1.286   3.325   0.932 -0.1738  0.0809  1.4289
  145TCq2    C1 2206   1.744   3.282   1.171  0.6677 -0.4643  0.1268
  145TCq2    O2 2207   1.712   3.215   1.076  0.7598  0.5948 -0.6467
  145TCq2    C2 2208   1.863   3.249   1.250  0.4216  0.3612  1.2260
  145TCq2    C3 2209   1.953   3.179   1.176  0.1473 -0.5150  0.3895
  145TCq2    C4 2210   2.075   3.166   1.236 -0.0856  0.2271  0.1265
  145TCq2    C5 2211   2.114   3.223   1.360 -0.7578 -0.2263  0.3146
  145TCq2    C6 2212   2.014   3.298   1.420 -0.9103  0.0132 -0.3678
  145TCq2    C7 2213   1.893   3.317   1.366 -0.4042  0.1295 -0.6678
  145TCq2    C8 2214   2.059   3.398   1.521  0.5266 -0.2440  0.1388
  145TCq2    O4 2215   2.180   3.405   1.545 -0.6103  0.3266 -0.5439
  145TCq2    C9 2216   2.166   3.072   1.176 -0.3723  0.3031 -0.0530
  145TCq2    O5 2217   2.130   3.027   1.063  0.0230  0.4826 -0.0409
  145TCq2    O6 2218   2.258   3.032   1.251 -0.2190 -0.8367  0.4065
  145TCq2    H2 2219   1.932   3.133   1.080 -0.0194  1.5782 -0.5665
  145TCq2    H3 2220   2.213   3.199   1.397 -0.7970  0.4220  0.8359
  145TCq2    H4 2221   1.811   3.370   1.412  1.1081  1.0094  1.0422
  146TMC2    C1 2222   2.839   1.784  11.933 -0.2219  0.3686 -0.2401
  146TMC2    C2 2223   2.764   1.767  11.822 -0.4377  0.0771  0.2497
  146TMC2    C3 2224   2.776   1.661  11.742  0.2466 -0.7172 -0.6735
  146TMC2    C4 2225   2.939   1.700  11.957  0.0269  0.1676 -0.5688
  146TMC2    C5 2226   2.954   1.591  11.875 -0.0087 -0.5933 -0.2550
  146TMC2    C6 2227   2.878   1.573  11.765  0.0038  0.0381  0.3406
  146TMC2     C 2228   2.744   1.792  12.037  0.2856  0.3833  0.1186
  146TMC2     O 2229   2.636   1.738  12.003 -0.0168 -0.7223  0.0346
  146TMC2     H 2230   2.698   1.850  11.803  0.6261  0.2372 -2.6366
  146TMC2    H1 2231   3.008   1.722  12.039  0.5681  2.4254 -1.6338
  146TMC2    H2 2232   2.894   1.489  11.698 -2.3030 -1.3945  1.5676
  146TMC2    C7 2233   3.086   1.529  11.879 -0.6144 -0.0210 -0.6371
  146TMC2    C8 2234   2.657   1.612  11.683  0.4577 -0.7429 -0.3125
  146TMC2    O1 2235   3.133   1.520  11.766  0.4629 -0.2878 -0.5724
  146TMC2    O2 2236   2.657   1.532  11.590  0.0217  0.4130  0.0179
  146TMC2    O5 2237   2.551   1.653  11.764  0.2022  0.1446 -0.2107
  146TMC2    H5 2238   2.588   1.707  11.836  0.4832 -1.0416  0.5385
  147MPD2     C 2239   3.542   1.437  12.098  0.1587 -0.2317 -0.2686
  147MPD2    C1 2240   3.445   1.435  12.198  0.1027 -0.0710 -0.1502
  147MPD2    C2 2241   3.314   1.468  12.162  0.7052 -0.4366  0.3680
  147MPD2    C3 2242   3.277   1.485  12.026  0.0832  0.4834  0.5103
  147MPD2    C4 2243   3.374   1.481  11.934 -0.3954 -0.1307  0.0812
  147MPD2    C5 2244   3.506   1.464  11.964 -0.0809  0.5122  0.0779
  147MPD2     H 2245   3.239   1.475  12.240  1.0147  0.3019  0.5941
  147MPD2    H1 2246   3.356   1.509  11.830 -0.0299 -2.3485 -0.5722
  147MPD2    H2 2247   3.643   1.411  12.125 -0.5198 -1.2350  1.3485
  147MPD2    H3 2248   3.581   1.462  11.885  0.1463 -1.1096  0.3430
  147MPD2     N 2249   3.140   1.520  12.001 -0.3489  0.1933  0.2558
  147MPD2    H5 2250   3.076   1.538  12.078 -0.2300 -0.5436  0.5171
  147MPD2    N1 2251   3.488   1.390  12.327 -0.0024 -0.0147 -0.3708
  147MPD2    H7 2252   3.588   1.373  12.329  0.0737  0.6709  3.0440
  148MPD2     C 2253   3.958   3.913  10.447 -0.1959  0.5306 -0.4650
  148MPD2    C1 2254   3.880   4.023  10.429  0.0556 -0.6389 -0.1017
  148MPD2    C2 2255   3.747   4.001  10.440 -0.1562 -0.2673 -0.1341
  148MPD2    C3 2256   3.688   3.883  10.466 -0.3816 -0.2264 -0.0219
  148MPD2    C4 2257   3.769   3.772  10.486 -0.1465 -0.1038  0.2860
  148MPD2    C5 2258   3.904   3.791  10.474  0.1912 -0.2216 -0.1783
  148MPD2     H 2259   3.689   4.087  10.410  0.9038  0.6466  0.4103
  148MPD2    H1 2260   3.731   3.674  10.512 -1.2561  0.6155  1.3777
  148MPD2    H2 2261   4.066   3.907  10.447 -0.3595 -2.2091  3.2590
  148MPD2    H3 2262   3.968   3.707  10.499 -2.4274 -2.5242 -1.2263
  148MPD2     N 2263   3.550   3.862  10.459 -0.2766 -0.5176 -0.7444
  148MPD2    H5 2264   3.514   3.767  10.470 -0.3114 -0.2619  1.3137
  148MPD2    N1 2265   3.929   4.154  10.417 -0.1089 -0.0677 -0.1604
  148MPD2    H7 2266   3.863   4.231  10.419  2.1174  1.7613  2.5449
  149TCq2    C1 2267   4.056   4.202  10.401 -0.0274  0.7103  0.6852
  149TCq2    O2 2268   4.165   4.145  10.410 -0.8850 -0.4624 -0.0113
  149TCq2    C2 2269   4.063   4.345  10.388  0.9072  0.2187 -0.1142
  149TCq2    C3 2270   4.108   4.419  10.493  0.2990 -0.0532  0.0487
  149TCq2    C4 2271   4.076   4.551  10.511  0.1213 -0.5945 -0.8271
  149TCq2    C5 2272   3.973   4.603  10.434  0.4599 -0.6449 -0.1945
  149TCq2    C6 2273   3.912   4.517  10.338 -0.3032 -0.6163 -0.2643
  149TCq2    C7 2274   3.964   4.394  10.308  0.8961  0.1211  0.6279
  149TCq2    C8 2275   3.778   4.537  10.286  0.3278 -0.5383  0.6854
  149TCq2    O4 2276   3.759   4.472  10.184  0.4005  0.6451 -0.2572
  149TCq2    C9 2277   4.087   4.607  10.642  0.0607  0.7468  0.3465
  149TCq2    O5 2278   4.145   4.542  10.728  0.6032 -0.5895  0.6309
  149TCq2    O6 2279   4.027   4.717  10.660  0.4083 -0.4623  0.1125
  149TCq2    H2 2280   4.170   4.375  10.570  0.3080 -0.2462 -0.0698
  149TCq2    H3 2281   3.928   4.698  10.460 -0.0385 -0.9024 -0.1088
  149TCq2    H4 2282   3.914   4.327  10.239 -0.2951  2.3416 -0.6886
  150MPD2     C 2283   0.460   3.878  11.912 -1.4991 -0.8554 -0.0008
  150MPD2    C1 2284   0.349   3.963  11.919  0.7250 -0.3463  0.1852
  150MPD2    C2 2285   0.366   4.084  11.985  0.2100  0.4100  0.4575
  150MPD2    C3 2286   0.488   4.116  12.047  0.0156  0.5110 -0.6822
  150MPD2    C4 2287   0.585   4.022  12.042 -0.1716 -0.2909 -0.4112
  150MPD2    C5 2288   0.575   3.910  11.971 -0.1022  0.4807  0.2274
  150MPD2     H 2289   0.275   4.143  11.990  0.0995  0.3059 -0.2665
  150MPD2    H1 2290   0.682   4.038  12.088 -0.1992 -0.4092 -0.3120
  150MPD2    H2 2291   0.450   3.780  11.868 -1.8609 -1.1523  0.7505
  150MPD2    H3 2292   0.656   3.840  11.953  0.6429  1.6985 -1.1488
  150MPD2     N 2293   0.496   4.241  12.116  0.0175  1.0453  0.4518
  150MPD2    H5 2294   0.421   4.304  12.092  0.5229  0.6038 -2.3231
  150MPD2    N1 2295   0.222   3.927  11.866  0.1374 -1.0340  0.6511
  150MPD2    H7 2296   0.223   3.839  11.815 -1.7021 -0.3180 -0.6353
  151TCq2    C1 2297   0.592   4.275  12.208 -0.1030 -0.0157 -0.3959
  151TCq2    O2 2298   0.638   4.197  12.289  0.7930  0.0862  0.3373
  151TCq2    C2 2299   0.597   4.417  12.234 -0.8572 -0.6299  0.1386
  151TCq2    C3 2300   0.553   4.508  12.135  0.5188  0.9659 -0.2794
  151TCq2    C4 2301   0.581   4.641  12.146 -0.2432  0.0466 -0.2259
  151TCq2    C5 2302   0.657   4.687  12.250  0.0240  0.1670 -0.4895
  151TCq2    C6 2303   0.704   4.594  12.338  0.5614 -0.5364 -0.5361
  151TCq2    C7 2304   0.676   4.460  12.330 -0.1156  1.4323  0.1940
  151TCq2    C8 2305   0.829   4.632  12.403 -0.5284 -0.2040 -0.8735
  151TCq2    O4 2306   0.856   0.028  12.412 -0.5848  0.2623 -0.0351
  151TCq2    C9 2307   0.523   0.006  12.054  0.0050  0.0589 -0.3402
  151TCq2    O5 2308   0.535   0.125  12.087  0.9258  0.2114  0.9747
  151TCq2    O6 2309   0.454   4.691  11.962  0.0884  0.3760  0.5159
  151TCq2    H2 2310   0.500   4.478  12.046  2.4882 -2.0949 -0.4218
  151TCq2    H3 2311   0.662   0.068  12.274  1.9103 -0.2724  1.0562
  151TCq2    H4 2312   0.709   4.384  12.400 -1.0640 -1.6532 -2.6910
  152MPD2     C 2313   4.550   3.779  12.783  0.2007  0.6020 -0.0665
  152MPD2    C1 2314   4.552   3.896  12.705 -0.6064  0.1136  0.7070
  152MPD2    C2 2315   4.434   3.957  12.667  0.9551 -1.1681  0.5076
  152MPD2    C3 2316   4.312   3.901  12.708  0.0638  0.1955 -0.4326
  152MPD2    C4 2317   4.308   3.786  12.787 -0.8066  0.0489 -0.3817
  152MPD2    C5 2318   4.425   3.734  12.833 -0.1162 -0.1202 -0.0831
  152MPD2     H 2319   4.440   4.047  12.607 -1.3385 -1.0365  0.4626
  152MPD2    H1 2320   4.212   3.738  12.799 -0.7822 -0.0305 -0.5067
  152MPD2    H2 2321   4.643   3.728  12.804  0.2167 -0.2781 -2.2445
  152MPD2    H3 2322   4.421   3.646  12.896  0.1608 -0.2172 -0.2015
  152MPD2     N 2323   4.197   3.962  12.657 -0.3701  0.0610  0.1095
  152MPD2    H5 2324   4.213   4.054  12.616  0.0032 -0.5139 -1.0340
  152MPD2    N1 2325   4.682   3.955  12.663  0.3683  0.0836 -0.0827
  152MPD2    H7 2326   0.040   3.919  12.709 -0.3439 -2.7093 -1.0037
  153TCq2    C1 2327   4.697   4.034  12.554 -0.5221  0.1317 -1.0348
  153TCq2    O2 2328   4.613   4.063  12.467  0.1449  0.7269 -0.6248
  153TCq2    C2 2329   0.109   4.044  12.509 -0.4481 -0.0243 -0.6169
  153TCq2    C3 2330   0.188   3.932  12.513 -0.4027  0.2956 -0.4915
  153TCq2    C4 2331   0.320   3.948  12.487  0.7660  0.1388  0.0296
  153TCq2    C5 2332   0.377   4.075  12.479 -0.3066 -0.9444 -0.5805
  153TCq2    C6 2333   0.299   4.179  12.498 -0.3919 -0.4415  0.1492
  153TCq2    C7 2334   0.156   4.173  12.498  0.4061  0.0390 -0.0495
  153TCq2    C8 2335   0.346   4.312  12.483  0.0074 -0.6045 -0.9671
  153TCq2    O4 2336   0.275   4.391  12.431 -0.3788  0.3397 -0.5411
  153TCq2    C9 2337   0.420   3.838  12.496  0.5143  0.1542 -1.2627
  153TCq2    O5 2338   0.534   3.870  12.536  0.0226  0.4839  0.3975
  153TCq2    O6 2339   0.368   3.723  12.486  0.1534 -0.2766  0.9709
  153TCq2    H2 2340   0.141   3.836  12.528  0.6780 -0.0717  0.4615
  153TCq2    H3 2341   0.480   4.078  12.445 -0.1738  1.6169  0.0765
  153TCq2    H4 2342   0.097   4.262  12.516  1.3664  1.0106 -1.6845
  154MPD2     C 2343   2.085   4.350   0.539 -0.4515  0.1427  0.0845
  154MPD2    C1 2344   2.016   4.319   0.649 -0.4962  0.3454  1.0085
  154MPD2    C2 2345   1.904   4.393   0.672 -0.1717  0.3535  0.3469
  154MPD2    C3 2346   1.860   4.491   0.589 -0.3299  0.5183  0.0752
  154MPD2    C4 2347   1.932   4.513   0.467 -0.6042  0.2565  0.4499
  154MPD2    C5 2348   2.038   4.436   0.450 -0.2072 -0.5874  0.2577
  154MPD2     H 2349   1.844   4.376   0.761  1.9552 -0.6573  1.5913
  154MPD2    H1 2350   1.902   4.585   0.392  1.3133 -1.4625 -1.9730
  154MPD2    H2 2351   2.170   4.292   0.507 -0.0088  0.6070  0.4275
  154MPD2    H3 2352   2.094   4.437   0.357  0.0944  0.4471  0.4517
  154MPD2     N 2353   1.745   4.564   0.622  0.3192  0.2138  0.2722
  154MPD2    H5 2354   1.718   4.550   0.719  0.7237  1.5500  0.5813
  154MPD2    N1 2355   2.067   4.217   0.736  0.9250  0.3867 -0.1261
  154MPD2    H7 2356   2.149   4.169   0.700  0.4159 -1.5666  1.2730
  155TCq2    C1 2357   2.007   4.175   0.850  0.3383 -0.7238 -0.3397
  155TCq2    O2 2358   1.918   4.227   0.912  0.2685  0.1013  0.2088
  155TCq2    C2 2359   2.078   4.073   0.927 -0.2726 -0.1917 -0.2060
  155TCq2    C3 2360   2.046   4.056   1.060 -0.0305  0.2531 -0.3388
  155TCq2    C4 2361   2.114   3.968   1.141  0.5693  0.3425  0.5029
  155TCq2    C5 2362   2.213   3.891   1.089  0.5268  0.0425 -0.6590
  155TCq2    C6 2363   2.245   3.899   0.955 -0.0397 -0.0133  0.2978
  155TCq2    C7 2364   2.170   3.986   0.872 -1.1367  0.3464 -0.1634
  155TCq2    C8 2365   2.346   3.814   0.901 -0.1374  0.2210  0.2761
  155TCq2    O4 2366   2.390   3.726   0.973 -0.2246  0.0262  0.2651
  155TCq2    C9 2367   2.080   3.961   1.274  0.5391  0.1587  0.4800
  155TCq2    O5 2368   1.990   4.031   1.311 -0.2365 -0.1703 -0.5367
  155TCq2    O6 2369   2.116   3.850   1.333  0.0124  0.3798 -0.5748
  155TCq2    H2 2370   1.969   4.119   1.101 -1.1796 -1.5430  0.2806
  155TCq2    H3 2371   2.269   3.827   1.155  0.7186  0.3623 -0.5126
  155TCq2    H4 2372   2.163   3.978   0.764 -2.0473 -1.1592  0.0033
  156MPD2     C 2373   0.818   1.888  12.448 -0.4408 -0.3893 -0.2635
  156MPD2    C1 2374   0.698   1.845  12.393  0.2831 -0.0499  0.2152
  156MPD2    C2 2375   0.584   1.824  12.470 -0.0597 -0.4473  0.1790
  156MPD2    C3 2376   0.596   1.848  12.607  0.5616 -0.2716 -0.2484
  156MPD2    C4 2377   0.726   1.868  12.662  0.1926  0.3118 -0.4608
  156MPD2    C5 2378   0.835   1.880  12.585  1.4404  0.4427  0.0086
  156MPD2     H 2379   0.488   1.805  12.424 -0.8631 -0.1988  1.7390
  156MPD2    H1 2380   0.742   1.864  12.769  0.4903 -3.1044 -0.6229
  156MPD2    H2 2381   0.903   1.901  12.382 -0.5131 -0.5245 -0.3831
  156MPD2    H3 2382   0.931   1.893  12.634  1.3743  0.3715  0.1558
  156MPD2     N 2383   0.479   1.862  12.682 -0.1770  0.1586 -0.2004
  156MPD2    H5 2384   0.391   1.843  12.635 -1.0734  1.4551  0.9457
  156MPD2    N1 2385   0.703   1.821  12.249 -0.5232 -0.1833  0.5207
  156MPD2    H7 2386   0.794   1.831  12.204 -1.1146  0.3208 -0.5458
  157TCq2    C1 2387   0.592   1.804  12.164 -0.5776 -0.6812  0.4134
  157TCq2    O2 2388   0.473   1.797  12.195 -0.2494 -0.0746 -0.3700
  157TCq2    C2 2389   0.618   1.779  12.030  0.7402 -0.3132  0.0508
  157TCq2    C3 2390   0.745   1.733  11.988 -0.1624 -0.2606  0.0966
  157TCq2    C4 2391   0.753   1.680  11.863  0.4782  0.0948  0.0731
  157TCq2    C5 2392   0.640   1.670  11.782 -0.4005 -0.1634 -0.2474
  157TCq2    C6 2393   0.523   1.726  11.819 -0.6476 -0.1655  0.8550
  157TCq2    C7 2394   0.510   1.777  11.947  0.0897 -0.1000  0.3479
  157TCq2    C8 2395   0.401   1.683  11.742 -0.1392 -0.5180  0.4358
  157TCq2    O4 2396   0.296   1.750  11.750  0.2299  0.0097 -0.1598
  157TCq2    C9 2397   0.873   1.604  11.836  0.2497  0.2205  0.2894
  157TCq2    O5 2398   0.886   1.558  11.716  0.6848 -0.0456  0.3207
  157TCq2    O6 2399   0.970   1.615  11.918  0.1184 -0.0672  0.4918
  157TCq2    H2 2400   0.831   1.741  12.054 -1.8126  1.7682  2.0058
  157TCq2    H3 2401   0.659   1.623  11.686  0.2322 -1.6848  0.6371
  157TCq2    H4 2402   0.412   1.807  11.983  0.7951 -1.3121  3.3330
  158TMC2    C1 2403   0.992   0.390  14.052 -0.5083 -0.1931 -0.5949
  158TMC2    C2 2404   1.069   0.502  14.075 -0.5085 -0.7526  0.3618
  158TMC2    C3 2405   1.061   0.610  13.991 -0.0013  0.3304 -0.1133
  158TMC2    C4 2406   0.925   0.380  13.934  0.1173 -0.0183 -0.2591
  158TMC2    C5 2407   0.930   0.484  13.841 -0.5920 -0.1466  0.0527
  158TMC2    C6 2408   0.992   0.606  13.870  0.7788 -0.1307 -0.0669
  158TMC2     C 2409   1.006   0.290  14.150  0.1231  0.5277  0.3027
  158TMC2     O 2410   1.115   0.271  14.198  0.3877  0.5775  0.2190
  158TMC2     H 2411   1.116   0.516  14.172  0.7107  0.5880 -0.4333
  158TMC2    H1 2412   0.866   0.290  13.923 -0.9576  0.8423 -1.5065
  158TMC2    H2 2413   0.994   0.690  13.801  2.4716  1.2312  1.6366
  158TMC2    C7 2414   0.827   0.493  13.742 -0.0167  0.3573  0.5250
  158TMC2    C8 2415   1.098   0.741  14.043  0.0447 -0.4394 -0.2705
  158TMC2    O1 2416   0.833   0.588  13.667  0.0812  0.8961  0.5404
  158TMC2    O2 2417   1.178   0.755  14.137 -0.3525 -0.0274  0.0607
  158TMC2    O5 2418   1.065   0.842  13.956  0.4845 -1.1384  0.2640
  158TMC2    H5 2419   0.987   0.813  13.904  1.5936 -2.2254 -0.7999
  159MPD2     C 2420   0.839   4.629  14.434  0.1956 -0.0441 -0.1435
  159MPD2    C1 2421   0.728   4.685  14.382 -0.1932 -0.5791  0.3012
  159MPD2    C2 2422   0.747   0.063  14.290  0.8980  0.3744 -0.1098
  159MPD2    C3 2423   0.880   0.109  14.264  0.3273 -0.1007 -0.2156
  159MPD2    C4 2424   0.983   0.052  14.330  0.4365  0.4151 -0.8294
  159MPD2    C5 2425   0.968   4.672  14.410 -0.6658  0.4773  0.0353
  159MPD2     H 2426   0.662   0.106  14.239  2.4543  3.1639 -0.3298
  159MPD2    H1 2427   1.086   0.080  14.312  0.5288  0.7502  0.1778
  159MPD2    H2 2428   0.835   4.541  14.497  0.5144  0.7608  0.9928
  159MPD2    H3 2429   1.050   4.629  14.467 -0.4658  0.9525  0.1043
  159MPD2     N 2430   0.893   0.220  14.174 -0.0125  0.0508  0.1386
  159MPD2    H5 2431   0.806   0.265  14.146 -0.9318 -2.8308 -1.6408
  159MPD2    N1 2432   0.596   4.653  14.426 -0.0173  0.0549  0.6842
  159MPD2    H7 2433   0.520   4.705  14.384  1.1185  0.5618 -0.7226
  160TMC2    C1 2434   0.270   3.695   1.411  0.0465 -0.1445  0.3180
  160TMC2    C2 2435   0.370   3.604   1.434  0.1358  0.1884  0.7177
  160TMC2    C3 2436   0.476   3.594   1.343  0.1976 -0.3168 -0.5220
  160TMC2    C4 2437   0.281   3.786   1.308 -0.3977 -0.6235 -1.1354
  160TMC2    C5 2438   0.402   3.784   1.235  0.0128 -0.5932  0.3929
  160TMC2    C6 2439   0.496   3.686   1.250 -0.6712  0.5096 -0.0398
  160TMC2     C 2440   0.138   3.642   1.442 -0.1672  0.2213 -0.1194
  160TMC2     O 2441   0.135   3.534   1.507 -0.0151 -0.8937 -0.0508
  160TMC2     H 2442   0.349   3.526   1.506 -1.0011 -1.0714 -0.9772
  160TMC2    H1 2443   0.203   3.859   1.288 -0.8314 -1.2302 -1.6671
  160TMC2    H2 2444   0.587   3.681   1.192  0.4661 -1.5784  1.8978
  160TMC2    C7 2445   0.404   3.860   1.118  0.0610  0.5867  0.2232
  160TMC2    C8 2446   0.545   3.471   1.328  0.0127  0.1999  0.5391
  160TMC2    O1 2447   0.295   3.858   1.058 -0.1296 -0.3839 -0.1107
  160TMC2    O2 2448   0.602   3.433   1.225  0.2114  0.5650  0.0444
  160TMC2    O5 2449   0.573   3.424   1.452 -0.0724  0.2357 -0.1942
  160TMC2    H5 2450   0.534   3.483   1.519 -1.5414  0.0910 -0.9235
  161MPD2     C 2451   4.578   3.606   1.509  0.3395 -0.2293  0.1936
  161MPD2    C1 2452   4.631   3.729   1.474  0.1091  0.0885  0.5078
  161MPD2    C2 2453   4.558   3.841   1.477 -0.1708  0.8824  0.2840
  161MPD2    C3 2454   4.431   3.842   1.525  0.4479  0.3387  0.0192
  161MPD2    C4 2455   4.372   3.728   1.567 -0.1899 -0.2787 -0.2251
  161MPD2    C5 2456   4.449   3.611   1.554  1.0944 -0.4972 -0.1976
  161MPD2     H 2457   4.596   3.930   1.428 -1.8366  1.2750 -0.2975
  161MPD2    H1 2458   4.271   3.727   1.604  0.0537 -0.7948  0.4315
  161MPD2    H2 2459   4.629   3.511   1.507  1.2549  0.2773 -0.4885
  161MPD2    H3 2460   4.411   3.513   1.582  1.4395 -1.5922 -3.5221
  161MPD2     N 2461   4.349   3.954   1.536  0.5373  0.5850 -0.4520
  161MPD2    H5 2462   4.250   3.943   1.557  1.2785 -0.0585  2.5830
  161MPD2    N1 2463   0.040   3.741   1.423 -0.0496 -0.1196 -1.0019
  161MPD2    H7 2464   0.068   3.829   1.382 -0.7774  1.2840  1.5416
  162TMC2    C1 2465   2.775   1.365   1.328  0.1023 -0.4565  0.2840
  162TMC2    C2 2466   2.691   1.472   1.317  0.1226  0.0827 -0.0300
  162TMC2    C3 2467   2.585   1.475   1.394 -0.0328  0.4557 -0.6397
  162TMC2    C4 2468   2.754   1.256   1.411  0.1021 -0.5188 -0.7321
  162TMC2    C5 2469   2.636   1.265   1.483 -0.8070 -0.2598 -0.0642
  162TMC2    C6 2470   2.551   1.371   1.485 -0.0186  0.0076 -0.6324
  162TMC2     C 2471   2.889   1.359   1.242  0.3358 -0.0026 -0.1114
  162TMC2     O 2472   2.879   1.417   1.136  0.1769  0.8022  0.2806
  162TMC2     H 2473   2.714   1.556   1.251  2.8633  0.0328  0.8534
  162TMC2    H1 2474   2.812   1.165   1.402  0.6253 -0.0669 -2.0105
  162TMC2    H2 2475   2.463   1.366   1.547 -1.4247  1.3239 -2.5046
  162TMC2    C7 2476   2.593   1.149   1.569  0.4830  1.0633  0.0305
  162TMC2    C8 2477   2.498   1.594   1.371  0.2436 -0.0446 -0.7784
  162TMC2    O1 2478   2.491   1.169   1.639 -0.6566  0.1006 -0.2886
  162TMC2    O2 2479   2.484   1.637   1.255 -0.0991  0.0059 -0.2480
  162TMC2    O5 2480   2.405   1.599   1.467  0.8402  0.3152  0.1985
  162TMC2    H5 2481   2.444   1.563   1.550  1.0916 -0.2651 -0.1670
  163MPD2     C 2482   3.347   1.194   1.121  0.0324  0.3004 -0.4476
  163MPD2    C1 2483   3.234   1.210   1.042  0.6451 -0.5838 -0.4699
  163MPD2    C2 2484   3.115   1.244   1.098  0.1503  0.0414  0.1786
  163MPD2    C3 2485   3.113   1.259   1.237 -0.1254  0.8773  0.3114
  163MPD2    C4 2486   3.218   1.228   1.317  0.0497  0.5860 -0.4309
  163MPD2    C5 2487   3.332   1.189   1.261  0.2719  0.6077 -0.0294
  163MPD2     H 2488   3.028   1.267   1.037 -0.2870 -1.5486  0.1977
  163MPD2    H1 2489   3.208   1.223   1.425  1.1278  0.8594 -0.3247
  163MPD2    H2 2490   3.446   1.183   1.078  0.8624  1.3986  1.1448
  163MPD2    H3 2491   3.419   1.150   1.312  0.5420  0.4228 -0.6328
  163MPD2     N 2492   2.992   1.290   1.301  0.1447  0.1419 -0.3858
  163MPD2    H5 2493   2.971   1.263   1.396 -1.5980 -0.4150 -0.9221
  163MPD2    N1 2494   3.254   1.211   0.902  0.3038 -0.2152  0.4899
  163MPD2    H7 2495   3.343   1.176   0.867  1.1478  1.6404  0.7854
  164TCq2    C1 2496   3.568   0.204  11.305  0.6649 -0.2073  0.1892
  164TCq2    O2 2497   3.505   0.155  11.400 -0.4233 -0.0936 -0.2240
  164TCq2    C2 2498   3.500   0.290  11.212  0.2937 -0.2374 -0.1092
  164TCq2    C3 2499   3.526   0.265  11.074  0.0398  0.2531  0.0769
  164TCq2    C4 2500   3.483   0.363  10.989  0.0632  0.2063 -0.1732
  164TCq2    C5 2501   3.421   0.476  11.030  0.2096 -0.5800 -0.0655
  164TCq2    C6 2502   3.394   0.494  11.163  0.5333 -0.6621  0.4426
  164TCq2    C7 2503   3.441   0.401  11.260 -0.4616  0.2676 -0.7238
  164TCq2    C8 2504   3.305   0.610  11.203 -0.2989  0.0075  0.0941
  164TCq2    O4 2505   3.239   0.670  11.116 -0.0567 -0.0473  0.7401
  164TCq2    C9 2506   3.528   0.352  10.850  0.1430 -0.2063 -1.1765
  164TCq2    O5 2507   3.604   0.258  10.827 -0.0166  0.1334 -0.0945
  164TCq2    O6 2508   3.491   0.437  10.765 -0.6168  0.1369 -0.0873
  164TCq2    H2 2509   3.566   0.174  11.031 -1.3525 -1.1851  1.8213
  164TCq2    H3 2510   3.379   0.550  10.963 -1.5791 -0.6398  1.0008
  164TCq2    H4 2511   3.400   0.402  11.360  0.2011  0.5026 -0.4606
  165MPD2     C 2512   4.686   2.997   1.501  0.5230 -0.9267  0.6259
  165MPD2    C1 2513   4.583   3.054   1.564  0.2931  0.1214 -0.2714
  165MPD2    C2 2514   4.588   3.172   1.634 -0.2186 -0.6146  0.4477
  165MPD2    C3 2515   4.708   3.246   1.634  0.3874  0.4637  1.0177
  165MPD2    C4 2516   0.083   3.189   1.557  0.6937 -0.3749 -0.1401
  165MPD2    C5 2517   0.078   3.067   1.497  0.6035  0.5410 -0.0497
  165MPD2     H 2518   4.502   3.207   1.690  0.1832  1.9474 -0.5508
  165MPD2    H1 2519   0.173   3.247   1.540  1.1068 -0.8557  0.3852
  165MPD2    H2 2520   4.667   2.910   1.439  1.0774 -0.2527 -0.4869
  165MPD2    H3 2521   0.168   3.030   1.447 -0.0878  0.7920 -1.4763
  165MPD2     N 2522   0.000   3.368   1.694 -0.2579  0.6447  0.0378
  165MPD2    H5 2523   0.083   3.419   1.665  1.2038 -2.1313 -0.6269
  165MPD2    N1 2524   4.463   2.980   1.537  0.1532  0.5962 -0.4857
  165MPD2    H7 2525   4.464   2.906   1.468 -0.4911 -1.0390  1.2625
  166TCq2    C1 2526   4.651   3.415   1.799  0.4122  0.2909  0.4268
  166TCq2    O2 2527   4.552   3.366   1.847  0.3929  0.1675 -0.5244
  166TCq2    C2 2528   4.687   3.550   1.839  0.4653  0.4709  1.0653
  166TCq2    C3 2529   4.574   3.627   1.870  0.7541  0.0240  0.8798
  166TCq2    C4 2530   4.589   3.764   1.881 -0.5127  0.6436 -0.3553
  166TCq2    C5 2531   4.706   3.818   1.843  0.0190 -0.6807 -0.3170
  166TCq2    C6 2532   0.085   3.737   1.806 -0.1087  0.0188 -0.4863
  166TCq2    C7 2533   0.086   3.604   1.808  0.1505 -0.0894  0.0304
  166TCq2    C8 2534   0.215   3.795   1.775  0.0842  0.3581  0.3396
  166TCq2    O4 2535   0.315   3.726   1.777 -0.3647  0.0860 -0.3498
  166TCq2    C9 2536   4.483   3.842   1.936  0.0109 -0.2644 -0.0457
  166TCq2    O5 2537   4.521   3.958   1.968 -0.2860  0.3060 -0.5050
  166TCq2    O6 2538   4.370   3.791   1.960  0.9263  0.0744 -0.2133
  166TCq2    H2 2539   4.482   3.574   1.891  0.5585 -0.6472 -1.7426
  166TCq2    H3 2540   4.721   3.924   1.858 -2.7590 -0.6606  2.4645
  166TCq2    H4 2541   0.174   3.547   1.783 -0.6500 -1.9633  1.4342
  167TMC2    C1 2542   2.610   0.643  12.168  0.2212  0.2059  0.2423
  167TMC2    C2 2543   2.588   0.782  12.158  0.4858 -0.3960  0.2874
  167TMC2    C3 2544   2.566   0.851  12.274 -0.3226 -0.5545  0.5872
  167TMC2    C4 2545   2.615   0.581  12.294 -0.3386 -0.3373 -0.1273
  167TMC2    C5 2546   2.600   0.656  12.402  0.0133  0.2351  0.4699
  167TMC2    C6 2547   2.575   0.790  12.391  0.1041 -0.1520  0.7662
  167TMC2     C 2548   2.638   0.571  12.040 -0.3366 -0.4923  0.5174
  167TMC2     O 2549   2.618   0.615  11.929  0.3730 -0.1798 -0.5724
  167TMC2     H 2550   2.596   0.837  12.065 -0.7026  0.7750  0.8799
  167TMC2    H1 2551   2.638   0.476  12.310 -0.9782 -0.3331  0.8357
  167TMC2    H2 2552   2.573   0.852  12.480 -0.1492  1.1843 -0.1674
  167TMC2    C7 2553   2.597   0.596  12.533 -0.1837 -0.3477 -0.3482
  167TMC2    C8 2554   2.598   0.994  12.281  0.3183 -0.6868 -0.2723
  167TMC2    O1 2555   2.509   0.636  12.609  0.0184 -0.2422  0.1906
  167TMC2    O2 2556   2.680   1.034  12.360  0.0785  0.2400 -0.0377
  167TMC2    O5 2557   2.566   1.063  12.171  0.2138  0.3807 -0.4880
  167TMC2    H5 2558   2.488   1.010  12.143  0.7800 -1.1945  0.8952
  168MPD2     C 2559   2.720   0.361  11.835  0.0834 -0.2763  0.0235
  168MPD2    C1 2560   2.755   0.354  11.971  0.1194 -0.0806 -0.5078
  168MPD2    C2 2561   2.810   0.240  12.027  0.1206  0.8923 -0.3251
  168MPD2    C3 2562   2.862   0.135  11.956  0.4956  0.0732  0.0397
  168MPD2    C4 2563   2.842   0.152  11.819  0.3455 -0.8846 -0.1643
  168MPD2    C5 2564   2.780   0.263  11.762  0.2983  0.4925  0.4892
  168MPD2     H 2565   2.831   0.235  12.133 -0.8387  0.2243 -0.1644
  168MPD2    H1 2566   2.880   0.076  11.752  3.8266 -1.8081  2.8573
  168MPD2    H2 2567   2.676   0.443  11.779 -1.3780 -1.1187 -0.0883
  168MPD2    H3 2568   2.770   0.289  11.657 -0.5053 -2.3035 -0.1352
  168MPD2     N 2569   2.913   0.022  12.018  0.3688 -0.0548  0.1014
  168MPD2    H5 2570   2.962   4.682  11.956  0.6059 -0.1792  0.4182
  168MPD2    N1 2571   2.703   0.452  12.067  0.8124  0.2716 -0.5902
  168MPD2    H7 2572   2.711   0.424  12.164  0.2845  1.2103 -0.2772
  169MPD1     C 2573   0.667   3.794   9.185  0.7737 -0.5825  0.3494
  169MPD1    C1 2574   0.639   3.713   9.293 -1.0117 -0.1376 -0.0977
  169MPD1    C2 2575   0.724   3.714   9.396 -0.1757 -0.3541 -0.2829
  169MPD1    C3 2576   0.837   3.797   9.406 -0.8066  0.2927 -0.8751
  169MPD1    C4 2577   0.853   3.881   9.297 -0.3920  0.0267 -0.7079
  169MPD1    C5 2578   0.770   3.883   9.189 -0.3903  0.2215 -0.2425
  169MPD1     H 2579   0.714   3.635   9.470 -3.4161  0.2937 -0.0259
  169MPD1    H1 2580   0.932   3.956   9.296 -0.5812  0.2222 -1.1229
  169MPD1    H2 2581   0.597   3.788   9.102 -1.7330  1.3344  2.3168
  169MPD1    H3 2582   0.789   3.964   9.119 -1.4764  0.7610  0.0826
  169MPD1     N 2583   0.918   3.797   9.523 -0.0289  0.7287  0.4426
  169MPD1    H5 2584   0.890   3.730   9.594  0.9086  0.7882  0.8671
  169MPD1    N1 2585   0.536   3.615   9.284 -0.1973 -0.6653 -0.1298
  169MPD1    H6 2586   0.459   3.635   9.221 -0.6953 -2.1272  0.0222
  169MPD1    H7 2587   0.500   3.602   9.378 -0.9226 -0.7610 -0.4238
  170MPD1     C 2588   3.100   2.382  13.042 -0.3125 -0.3710 -0.0000
  170MPD1    C1 2589   3.061   2.400  13.171  0.8523  0.3043 -0.6555
  170MPD1    C2 2590   3.148   2.467  13.254 -0.4395  0.0311  0.2252
  170MPD1    C3 2591   3.279   2.505  13.210 -0.0937  0.6915 -0.1484
  170MPD1    C4 2592   3.309   2.489  13.077 -0.0371  0.1313 -0.5750
  170MPD1    C5 2593   3.225   2.413  13.001  0.1266  0.5377  0.1489
  170MPD1     H 2594   3.119   2.478  13.358  3.0499  1.8806  1.0130
  170MPD1    H1 2595   3.396   2.534  13.029  2.6717 -2.0798  2.2062
  170MPD1    H2 2596   3.041   2.334  12.964  2.2225 -1.4783 -1.2388
  170MPD1    H3 2597   3.239   2.382  12.898 -0.8149 -1.2471  0.5603
  170MPD1     N 2598   3.361   2.578  13.295 -0.1244  0.4532 -0.1227
  170MPD1    H5 2599   3.323   2.603  13.386 -1.9757  0.8418 -1.0131
  170MPD1    N1 2600   2.930   2.379  13.213  0.1191  0.3612 -0.7791
  170MPD1    H6 2601   2.920   2.364  13.313  0.9387 -0.9020 -0.8943
  170MPD1    H7 2602   2.893   2.299  13.161 -0.6161 -0.6520  1.2725
  171MPD1     C 2603   2.488   4.086  15.253 -0.0501  0.6390 -0.3706
  171MPD1    C1 2604   2.611   4.028  15.259  0.1003 -0.1485 -0.0057
  171MPD1    C2 2605   2.636   3.942  15.367 -0.6110  0.1308 -0.2353
  171MPD1    C3 2606   2.533   3.884  15.438  0.6759 -0.3575  0.6236
  171MPD1    C4 2607   2.410   3.926  15.409 -0.0503 -0.0716 -0.0431
  171MPD1    C5 2608   2.385   4.026  15.316  0.5926 -0.3656  0.4850
  171MPD1     H 2609   2.729   3.887  15.374 -2.2873 -2.4888  1.3185
  171MPD1    H1 2610   2.327   3.876  15.458  1.0919 -2.2315 -0.2731
  171MPD1    H2 2611   2.455   4.154  15.175 -0.3844 -0.6178 -1.3222
  171MPD1    H3 2612   2.280   4.047  15.303  0.3216 -0.6268  2.2683
  171MPD1     N 2613   2.557   3.787  15.542 -0.5175  0.0641 -0.1667
  171MPD1    H5 2614   2.474   3.752  15.590 -0.1894 -0.8166 -0.2428
  171MPD1    N1 2615   2.711   4.080  15.182  0.1924  0.7370  0.1430
  171MPD1    H6 2616   2.787   4.013  15.170 -0.1898  0.0327  1.6205
  171MPD1    H7 2617   2.683   4.109  15.088  0.5375 -3.5213 -1.2744
  172MPD1     C 2618   1.567   2.917   0.511  0.5293  0.0394 -0.2164
  172MPD1    C1 2619   1.491   3.026   0.502  0.2164 -0.0704 -0.3759
  172MPD1    C2 2620   1.544   3.140   0.560  0.2072 -0.2325  0.6575
  172MPD1    C3 2621   1.658   3.143   0.645 -0.1737 -0.4195  0.4515
  172MPD1    C4 2622   1.722   3.021   0.659  0.3364 -0.4295  0.3450
  172MPD1    C5 2623   1.676   2.909   0.602  0.6395  0.1879 -0.4509
  172MPD1     H 2624   1.484   3.228   0.539  1.4858  0.5686  0.3595
  172MPD1    H1 2625   1.810   3.000   0.720  1.4460  2.2749 -0.3075
  172MPD1    H2 2626   1.541   2.827   0.456 -0.6271 -0.8461  1.8097
  172MPD1    H3 2627   1.722   2.812   0.612 -2.2306 -1.1103  0.3196
  172MPD1     N 2628   1.709   3.258   0.716 -0.2042 -0.2559 -0.9036
  172MPD1    H5 2629   1.787   3.243   0.780  0.2358 -0.9811 -1.6160
  172MPD1    N1 2630   1.379   3.026   0.418 -0.3044  0.3399  0.5245
  172MPD1    H6 2631   1.330   2.937   0.417 -0.8334  0.6308  0.9188
  172MPD1    H7 2632   1.309   3.079   0.468 -0.5006  1.6604 -1.1616
  173MPD1     C 2633   2.745   3.328  13.697 -0.2041  0.2819 -0.3854
  173MPD1    C1 2634   2.655   3.309  13.799 -0.0204  0.8022  0.9726
  173MPD1    C2 2635   2.686   3.214  13.893 -0.3147 -0.0749 -0.0659
  173MPD1    C3 2636   2.809   3.150  13.902 -0.2648 -0.3219 -1.2030
  173MPD1    C4 2637   2.899   3.180  13.806  0.7269  0.1262 -0.7258
  173MPD1    C5 2638   2.863   3.263  13.703 -0.0108 -0.4851 -0.0513
  173MPD1     H 2639   2.610   3.193  13.967  0.1812  0.3944  0.5749
  173MPD1    H1 2640   2.995   3.131  13.803  0.0341 -1.1729 -1.3683
  173MPD1    H2 2641   2.722   3.392  13.612 -0.8704  0.8910  0.2488
  173MPD1    H3 2642   2.928   3.297  13.622 -0.0056  2.2526  1.0807
  173MPD1     N 2643   2.829   3.053  14.000 -0.1463  0.0513 -0.4600
  173MPD1    H5 2644   2.754   3.043  14.067 -1.3573 -0.9009 -1.9457
  173MPD1    N1 2645   2.525   3.356  13.784 -0.3172 -0.4390  0.3262
  173MPD1    H6 2646   2.542   3.452  13.756 -0.3091 -0.8191 -0.9449
  173MPD1    H7 2647   2.476   3.367  13.873  0.8507 -0.1390  0.9378
  174MPD1     C 2648   3.596   2.587  14.641 -0.2091  0.1645  0.3352
  174MPD1    C1 2649   3.602   2.638  14.516  0.0970 -0.6365 -0.0641
  174MPD1    C2 2650   3.487   2.671  14.458  1.3752 -0.1533 -0.3820
  174MPD1    C3 2651   3.363   2.664  14.517 -0.1671  0.1701 -0.2498
  174MPD1    C4 2652   3.356   2.605  14.640 -0.0059  0.4924 -0.0950
  174MPD1    C5 2653   3.475   2.577  14.707 -0.3465  0.5104  0.1610
  174MPD1     H 2654   3.491   2.715  14.359  1.0715 -0.7444 -0.6573
  174MPD1    H1 2655   3.262   2.576  14.685  0.1474  3.1256  1.9502
  174MPD1    H2 2656   3.687   2.561  14.695 -0.6326  1.2744  1.5690
  174MPD1    H3 2657   3.478   2.540  14.809 -0.1827  0.4775  0.1444
  174MPD1     N 2658   3.241   2.698  14.457  0.1719 -0.3499  0.3045
  174MPD1    H5 2659   3.160   2.686  14.518 -0.4059 -0.2406 -0.4550
  174MPD1    N1 2660   3.729   2.673  14.465  0.5983  0.0061  0.0051
  174MPD1    H6 2661   3.807   2.614  14.494  1.0104  0.6848  0.2850
  174MPD1    H7 2662   3.735   2.679  14.363  1.8101  1.0562  0.1313
  175MPD1     C 2663   0.909   4.088  15.490 -0.2026 -0.2819  0.4820
  175MPD1    C1 2664   1.044   4.116  15.509  0.5551  0.0760 -0.3832
  175MPD1    C2 2665   1.101   4.116  15.638 -0.2333  0.2420 -0.4949
  175MPD1    C3 2666   1.020   4.090  15.745 -0.2935  0.2240 -0.7515
  175MPD1    C4 2667   0.886   4.063  15.724  0.3164  0.5387  0.1827
  175MPD1    C5 2668   0.827   4.057  15.607  0.3549  0.3703 -0.3384
  175MPD1     H 2669   1.206   4.140  15.642 -0.3120  0.2114  2.3125
  175MPD1    H1 2670   0.820   4.050  15.808 -0.1064  0.3130 -0.1880
  175MPD1    H2 2671   0.868   4.093  15.390 -1.7545  1.2381  1.1774
  175MPD1    H3 2672   0.721   4.036  15.595  0.3756  0.6985 -1.0989
  175MPD1     N 2673   1.057   4.086  15.878  0.0108 -0.1712 -0.0064
  175MPD1    H5 2674   0.985   4.058  15.943 -1.1759 -0.1546 -1.3314
  175MPD1    N1 2675   1.113   4.160  15.399  0.0410 -0.6269 -0.0616
  175MPD1    H6 2676   1.215   4.159  15.397  0.0675  1.2281  0.3925
  175MPD1    H7 2677   1.085   4.112  15.314  1.5700  0.1541 -1.0169
  176MPD1     C 2678   3.127   1.163  16.282  0.1627  0.2463  0.3415
  176MPD1    C1 2679   3.201   1.266  16.330 -0.5684  0.0609 -0.6968
  176MPD1    C2 2680   3.169   1.312  16.462 -0.3043  0.1005 -0.2743
  176MPD1    C3 2681   3.082   1.236  16.542  0.1084 -0.5767 -0.1234
  176MPD1    C4 2682   3.010   1.128  16.494 -0.3448 -0.5371  0.2278
  176MPD1    C5 2683   3.035   1.091  16.366  0.5114 -0.3696 -0.0172
  176MPD1     H 2684   3.212   1.405  16.498  0.2057 -0.3586  0.3173
  176MPD1    H1 2685   2.948   1.063  16.554 -0.2017 -0.2905  0.6470
  176MPD1    H2 2686   3.135   1.137  16.177 -0.1648 -0.1147  0.4062
  176MPD1    H3 2687   2.987   0.999  16.332 -0.2525 -0.0315  0.1336
  176MPD1     N 2688   3.055   1.281  16.672  0.1994  0.9029 -0.4544
  176MPD1    H5 2689   3.103   1.367  16.697  1.3658  0.3420 -0.7790
  176MPD1    N1 2690   3.283   1.337  16.242  0.2845 -0.0333 -0.2968
  176MPD1    H6 2691   3.328   1.270  16.180 -0.1070 -1.0685  0.5522
  176MPD1    H7 2692   3.355   1.390  16.290  0.1576 -0.5372  0.4407
  177MPD1     C 2693   1.031   1.313   9.906  0.2734  1.0379  0.6625
  177MPD1    C1 2694   1.039   1.243   9.788  0.1775 -0.6883 -0.4169
  177MPD1    C2 2695   1.099   1.115   9.787  1.2230  0.6935  0.3634
  177MPD1    C3 2696   1.171   1.072   9.900  0.3262  0.0381  0.5593
  177MPD1    C4 2697   1.152   1.139  10.016  0.5563 -0.1941  0.1859
  177MPD1    C5 2698   1.094   1.268  10.017  0.0363  0.4918 -0.2222
  177MPD1     H 2699   1.099   1.052   9.699 -1.4247 -0.3950  1.1482
  177MPD1    H1 2700   1.194   1.126  10.115 -0.6776 -2.4632  0.4063
  177MPD1    H2 2701   0.996   1.416   9.899  0.4917  1.0396 -0.4627
  177MPD1    H3 2702   1.099   1.327  10.107  1.8254  0.9810 -0.6379
  177MPD1     N 2703   1.226   0.949   9.889 -1.2058  0.0282 -0.4488
  177MPD1    H5 2704   1.217   0.895   9.804  0.5638  0.0448 -0.6539
  177MPD1    N1 2705   0.973   1.284   9.672  0.0628 -0.4187  0.5490
  177MPD1    H6 2706   0.952   1.383   9.672 -0.5994 -0.5604  0.6007
  177MPD1    H7 2707   1.013   1.245   9.586 -1.2293  0.8010 -0.5950
  178MPD1     C 2708   3.919   2.567   0.521 -0.0312 -0.0418 -0.1000
  178MPD1    C1 2709   3.852   2.599   0.408 -1.0704 -0.4932  0.1860
  178MPD1    C2 2710   3.863   2.523   0.295  0.1448  0.4158  0.1271
  178MPD1    C3 2711   3.927   2.402   0.304  0.0061  0.1128 -0.0536
  178MPD1    C4 2712   3.994   2.366   0.414  0.5400  0.1179 -0.1908
  178MPD1    C5 2713   3.992   2.449   0.521 -0.1751 -0.1067 -0.4279
  178MPD1     H 2714   3.842   2.559   0.195 -0.3697  0.3068  0.1975
  178MPD1    H1 2715   4.063   2.282   0.411  0.3608 -0.0666  0.7718
  178MPD1    H2 2716   3.921   2.627   0.611  1.4451 -2.1010  1.2409
  178MPD1    H3 2717   4.032   2.426   0.619 -0.6071 -0.0181 -0.2287
  178MPD1     N 2718   3.938   2.316   0.195  0.1507  0.0205  0.2537
  178MPD1    H5 2719   4.013   2.249   0.187 -1.5653 -1.8799  0.1594
  178MPD1    N1 2720   3.810   2.735   0.397  0.2853  0.0202  0.0969
  178MPD1    H6 2721   3.768   2.767   0.484  0.6916 -0.8022  0.6026
  178MPD1    H7 2722   3.737   2.740   0.327  1.7179 -2.3734 -1.5924
  179MPD1     C 2723   2.973   0.588  15.172 -0.2806  0.4754 -0.4258
  179MPD1    C1 2724   3.084   0.547  15.243  0.1423  0.2867  0.0719
  179MPD1    C2 2725   3.066   0.448  15.336  0.5940  0.5335 -0.1368
  179MPD1    C3 2726   2.943   0.390  15.362  0.4520  0.2480  0.0196
  179MPD1    C4 2727   2.831   0.434  15.290 -0.4567  0.2308  0.2882
  179MPD1    C5 2728   2.852   0.533  15.200 -0.2006  0.4473 -0.1883
  179MPD1     H 2729   3.154   0.430  15.396  0.4943 -3.8307 -1.2986
  179MPD1    H1 2730   2.731   0.397  15.312 -0.6358  0.8734  0.5591
  179MPD1    H2 2731   2.968   0.671  15.102  0.4180  0.1647 -0.8360
  179MPD1    H3 2732   2.763   0.574  15.153 -1.0293  0.0428  1.0296
  179MPD1     N 2733   2.928   0.289  15.461  0.0181 -0.7501 -0.3500
  179MPD1    H5 2734   2.834   0.252  15.473 -0.5426  1.2376  1.4124
  179MPD1    N1 2735   3.207   0.613  15.221 -0.1657  0.4390 -0.4571
  179MPD1    H6 2736   3.288   0.552  15.228 -0.1706  0.2573 -2.1634
  179MPD1    H7 2737   3.213   0.685  15.150 -0.7934  1.5567  0.6171
  180MPD1     C 2738   2.556   1.615  15.445 -0.0177  0.0577 -0.4866
  180MPD1    C1 2739   2.660   1.699  15.399 -0.5967  0.4588  0.8714
  180MPD1    C2 2740   2.700   1.688  15.270  0.1431  0.1356  0.3967
  180MPD1    C3 2741   2.637   1.604  15.177 -0.0164 -0.7252 -0.0704
  180MPD1    C4 2742   2.542   1.522  15.225 -0.0084  0.1417  0.1541
  180MPD1    C5 2743   2.494   1.533  15.355 -0.1089 -0.1412  0.4329
  180MPD1     H 2744   2.778   1.751  15.230  0.5708 -0.4595  0.2885
  180MPD1    H1 2745   2.496   1.449  15.159  0.0256  2.1989 -2.1339
  180MPD1    H2 2746   2.503   1.628  15.539  2.9821 -1.3668  1.3869
  180MPD1    H3 2747   2.410   1.475  15.390  0.1982  0.9429  2.9612
  180MPD1     N 2748   2.680   1.615  15.034  0.2633  0.7312 -0.3278
  180MPD1    H5 2749   2.772   1.653  15.018  0.1545  0.8425 -0.6964
  180MPD1    N1 2750   2.712   1.799  15.486  0.0779  0.2056 -0.6353
  180MPD1    H6 2751   2.811   1.812  15.468  0.3226  0.7172  1.0913
  180MPD1    H7 2752   2.712   1.760  15.580 -0.0209  1.1745 -0.2310
  181MPD1     C 2753   0.823   3.268   9.029  0.2091  0.1765  0.1216
  181MPD1    C1 2754   0.754   3.361   9.107  0.0085  0.3661 -0.2789
  181MPD1    C2 2755   0.763   3.336   9.246  0.5095  1.0292 -0.0224
  181MPD1    C3 2756   0.818   3.220   9.299 -0.2099  0.5029  0.9524
  181MPD1    C4 2757   0.867   3.121   9.215  0.2978 -0.3920 -0.0483
  181MPD1    C5 2758   0.862   3.143   9.080 -0.4275 -0.1231 -0.1388
  181MPD1     H 2759   0.728   3.415   9.312  0.3735 -0.4893  1.7311
  181MPD1    H1 2760   0.896   3.025   9.257  1.0691  1.1956  3.0945
  181MPD1    H2 2761   0.819   3.276   8.921 -0.5176  1.3817  0.2300
  181MPD1    H3 2762   0.903   3.068   9.014 -0.5225 -0.3963  0.1134
  181MPD1     N 2763   0.817   3.190   9.440 -0.8285  0.4688 -0.1731
  181MPD1    H5 2764   0.843   3.094   9.460  0.1420  1.0406  1.3230
  181MPD1    N1 2765   0.717   3.488   9.060 -0.0267  0.3300 -0.2376
  181MPD1    H6 2766   0.658   3.531   9.130 -2.6680  0.2358 -2.4205
  181MPD1    H7 2767   0.666   3.486   8.972 -0.9136  0.0259  0.2775
  182MPD1     C 2768   0.863   2.903   1.906 -0.3023 -0.4107 -0.5340
  182MPD1    C1 2769   0.748   2.881   1.980  0.4841  0.3221  0.3877
  182MPD1    C2 2770   0.642   2.829   1.912 -0.7220  0.0072  0.1337
  182MPD1    C3 2771   0.651   2.791   1.777  0.4564  0.0972 -0.1537
  182MPD1    C4 2772   0.775   2.808   1.712  0.7786 -0.5024 -0.3672
  182MPD1    C5 2773   0.874   2.869   1.778 -0.8455 -0.0670  0.6437
  182MPD1     H 2774   0.550   2.814   1.967  1.2311  0.6333  3.5466
  182MPD1    H1 2775   0.798   2.786   1.608 -1.2253 -0.8925 -0.7256
  182MPD1    H2 2776   0.958   2.926   1.953  0.0137 -1.0490 -0.8659
  182MPD1    H3 2777   0.967   2.889   1.727 -3.5308  1.0657 -3.8245
  182MPD1     N 2778   0.547   2.726   1.704  0.5495  0.7609 -0.1830
  182MPD1    H5 2779   0.564   2.696   1.608 -1.0933  0.6680 -0.4463
  182MPD1    N1 2780   0.737   2.922   2.116  0.2403 -0.7342 -0.6918
  182MPD1    H6 2781   0.666   2.864   2.160 -1.9833  0.5994 -2.4590
  182MPD1    H7 2782   0.824   2.918   2.169 -0.7793 -1.3530  0.9349
  183MPD1     C 2783   1.245   2.531   9.024  0.2792  0.1621 -0.1889
  183MPD1    C1 2784   1.221   2.647   9.095  0.0647  0.2634  0.1183
  183MPD1    C2 2785   1.218   2.649   9.235  0.5497  0.2076 -0.2505
  183MPD1    C3 2786   1.242   2.528   9.301  0.2899  0.2110 -0.1247
  183MPD1    C4 2787   1.265   2.417   9.222 -0.3607 -0.0722  0.3363
  183MPD1    C5 2788   1.269   2.418   9.086  0.2317  0.8376  0.1901
  183MPD1     H 2789   1.196   2.738   9.291  2.5155  2.4067 -2.9721
  183MPD1    H1 2790   1.286   2.319   9.262  0.5685 -0.9201 -2.2024
  183MPD1    H2 2791   1.244   2.541   8.916  2.4461 -0.9988 -0.3202
  183MPD1    H3 2792   1.293   2.333   9.024 -1.1578  1.8890 -1.7607
  183MPD1     N 2793   1.228   2.525   9.443  0.0094  0.0716 -0.4183
  183MPD1    H5 2794   1.204   2.611   9.491  1.4861  0.8315 -1.0430
  183MPD1    N1 2795   1.180   2.765   9.035  0.0542  0.2925  0.3535
  183MPD1    H6 2796   1.231   2.786   8.950  0.2101  0.8350  0.5838
  183MPD1    H7 2797   1.185   2.853   9.086 -0.2960  1.4501 -1.6205
  184MPD1     C 2798   4.681   4.294  10.047 -0.9187  0.1498 -0.4765
  184MPD1    C1 2799   0.077   4.240  10.076 -0.2118 -0.2542  0.1216
  184MPD1    C2 2800   0.189   4.315  10.046  0.3558 -0.0401  0.5504
  184MPD1    C3 2801   0.180   4.449  10.004 -0.6827 -0.0327  0.0964
  184MPD1    C4 2802   0.053   4.501   9.989  0.4965 -0.5421  0.3531
  184MPD1    C5 2803   4.662   4.422  10.008  0.3427 -1.1157 -0.0591
  184MPD1     H 2804   0.286   4.269  10.060 -0.0499 -0.4798  1.9640
  184MPD1    H1 2805   0.040   4.606   9.963  1.9723 -0.0906  1.4820
  184MPD1    H2 2806   4.589   4.237  10.054 -0.2404 -0.9380 -0.4075
  184MPD1    H3 2807   4.560   4.453   9.989  0.1577 -1.0296  1.0806
  184MPD1     N 2808   0.295   4.523   9.969 -0.5737 -0.0665 -0.1691
  184MPD1    H5 2809   0.284   4.622   9.947  1.0120  0.3170  0.7855
  184MPD1    N1 2810   0.088   4.107  10.100  0.6437 -0.2830 -0.7149
  184MPD1    H6 2811   0.182   4.081  10.129  1.6469  2.4498 -1.5637
  184MPD1    H7 2812   0.013   4.059  10.149 -0.0212 -0.0401 -1.4946
  185MPD1     C 2813   1.365   4.446   9.816 -0.0875 -0.3729 -0.0921
  185MPD1    C1 2814   1.258   4.372   9.758  0.5189 -0.7239 -0.4875
  185MPD1    C2 2815   1.130   4.418   9.771 -0.0693 -0.2972  0.1179
  185MPD1    C3 2816   1.096   4.520   9.860  0.5874 -0.4552 -0.4525
  185MPD1    C4 2817   1.203   4.594   9.909  0.7805  0.2853  0.3213
  185MPD1    C5 2818   1.327   4.558   9.888 -0.3892  0.1663  0.4345
  185MPD1     H 2819   1.053   4.368   9.713 -0.9752  2.4446 -1.0019
  185MPD1    H1 2820   1.176   4.678   9.972 -0.6514  1.1806 -1.4481
  185MPD1    H2 2821   1.465   4.406   9.819  0.4872  1.1375  1.0570
  185MPD1    H3 2822   1.405   4.621   9.930  1.1264  0.1261 -2.3319
  185MPD1     N 2823   0.964   4.573   9.871  0.2225  0.4315  0.1938
  185MPD1    H5 2824   0.953   4.642   9.944  0.0857 -0.6790  1.2349
  185MPD1    N1 2825   1.286   4.254   9.691  0.4322  0.1222 -0.1850
  185MPD1    H6 2826   1.217   4.230   9.619  0.5677 -1.1351  0.1188
  185MPD1    H7 2827   1.375   4.272   9.646  1.2529 -3.2901  0.1285
  186MPD1     C 2828   3.513   0.287  15.791  0.4128 -0.0675 -0.2615
  186MPD1    C1 2829   3.586   0.390  15.747  0.1097  0.0018  0.6938
  186MPD1    C2 2830   3.576   0.514  15.817 -0.0247  0.5190  0.3157
  186MPD1    C3 2831   3.516   0.515  15.939  0.5431 -0.0876 -0.0627
  186MPD1    C4 2832   3.453   0.404  15.986 -0.2536 -0.0826 -0.3144
  186MPD1    C5 2833   3.434   0.293  15.907 -0.3154  0.2297 -0.4998
  186MPD1     H 2834   3.635   0.598  15.782  0.4050  0.4383  0.8586
  186MPD1    H1 2835   3.400   0.404  16.080 -1.8738 -1.2992 -1.2207
  186MPD1    H2 2836   3.505   0.201  15.725  0.2635 -0.9617  0.9020
  186MPD1    H3 2837   3.363   0.217  15.935  0.2207 -0.3248 -0.6500
  186MPD1     N 2838   3.513   0.628  16.023 -0.1387  0.3024 -0.3200
  186MPD1    H5 2839   3.475   0.615  16.116 -2.3324 -1.4004 -1.4622
  186MPD1    N1 2840   3.650   0.380  15.621 -0.3771 -0.4866 -0.4716
  186MPD1    H6 2841   3.715   0.457  15.607 -0.0047 -0.7042  0.0876
  186MPD1    H7 2842   3.700   0.295  15.599 -0.4129 -0.4921 -0.5333
  187MPD1     C 2843   3.875   2.415  17.281  0.3958 -0.5575 -0.3250
  187MPD1    C1 2844   3.764   2.387  17.204  0.8453 -0.1912  0.6107
  187MPD1    C2 2845   3.642   2.399  17.272 -0.2658  0.0134 -0.6665
  187MPD1    C3 2846   3.622   2.447  17.400 -0.2230 -0.2113 -0.1899
  187MPD1    C4 2847   3.739   2.489  17.465  0.2607 -0.2586 -0.2639
  187MPD1    C5 2848   3.852   2.464  17.402  0.0419  0.2270  0.5021
  187MPD1     H 2849   3.560   2.359  17.214  0.0264 -0.5726 -0.6733
  187MPD1    H1 2850   3.738   2.541  17.560  0.4475 -1.8143  0.5953
  187MPD1    H2 2851   3.977   2.394  17.252  0.3102 -2.2067  0.5490
  187MPD1    H3 2852   3.940   2.485  17.462  0.1510  0.2962  0.3194
  187MPD1     N 2853   3.495   2.469  17.455 -0.4007 -0.2186  0.1767
  187MPD1    H5 2854   3.487   2.522  17.541 -0.9364 -1.5759  0.9545
  187MPD1    N1 2855   3.780   2.328  17.078 -0.1094  0.0446  0.0731
  187MPD1    H6 2856   3.710   2.352  17.008 -1.4911 -1.0615  1.0764
  187MPD1    H7 2857   3.872   2.344  17.038 -0.5732 -0.2324 -1.0988
  188MPD1     C 2858   2.884   1.875   9.889  0.2162  0.5470  0.0590
  188MPD1    C1 2859   2.814   1.820   9.784 -0.4012  0.3783  0.1265
  188MPD1    C2 2860   2.689   1.758   9.804 -0.9887 -0.1021 -0.6211
  188MPD1    C3 2861   2.649   1.734   9.939 -0.3034  0.3436 -0.0665
  188MPD1    C4 2862   2.738   1.765  10.041  0.0891  0.0429  0.1825
  188MPD1    C5 2863   2.855   1.843  10.019 -0.4547  0.0027  0.3162
  188MPD1     H 2864   2.631   1.731   9.717  0.5018 -1.6746 -1.1369
  188MPD1    H1 2865   2.709   1.758  10.145  1.8039  0.3181  0.6674
  188MPD1    H2 2866   2.969   1.941   9.877 -0.5395  1.4801 -0.1447
  188MPD1    H3 2867   2.921   1.880  10.097  0.4554 -3.4636  1.1753
  188MPD1     N 2868   2.527   1.677   9.974 -0.0440  0.5532 -0.3259
  188MPD1    H5 2869   2.501   1.674  10.072 -3.1918  1.4417 -1.1515
  188MPD1    N1 2870   2.845   1.854   9.652  0.5266 -0.8782 -0.3626
  188MPD1    H6 2871   2.853   1.772   9.592 -0.4037 -1.3959  0.2135
  188MPD1    H7 2872   2.938   1.893   9.640  0.5695 -0.7744  0.3156
  189MPD1     C 2873   4.373   2.828   0.544 -0.1923  0.3020  0.5294
  189MPD1    C1 2874   4.270   2.745   0.498  0.5434  0.2027  0.4622
  189MPD1    C2 2875   4.158   2.804   0.447  0.2024  0.3398  0.1685
  189MPD1    C3 2876   4.137   2.938   0.447 -0.2831  0.4962 -0.0846
  189MPD1    C4 2877   4.244   3.017   0.492  0.3742 -0.0897  0.3443
  189MPD1    C5 2878   4.362   2.964   0.536 -0.9378  0.4953 -0.3469
  189MPD1     H 2879   4.083   2.733   0.415  1.1245  0.1501 -1.5564
  189MPD1    H1 2880   4.237   3.125   0.493  0.7864 -0.0701  0.9134
  189MPD1    H2 2881   4.470   2.793   0.576 -0.0040 -0.5787 -0.9886
  189MPD1    H3 2882   4.454   3.021   0.547 -0.6178  0.3764 -2.4178
  189MPD1     N 2883   4.011   2.977   0.395 -0.7785 -0.0053 -0.3480
  189MPD1    H5 2884   3.943   2.906   0.373 -1.5452  0.6841 -0.1954
  189MPD1    N1 2885   4.289   2.607   0.500 -0.3857 -0.9622  0.4289
  189MPD1    H6 2886   4.359   2.578   0.568  0.4499  0.7202  0.2932
  189MPD1    H7 2887   4.205   2.556   0.526 -2.2557  2.0182  0.2496
  190MPD1     C 2888   2.865   1.056  15.896  0.4453  0.2497  0.4793
  190MPD1    C1 2889   2.908   1.149  15.985 -0.6482 -0.6627 -0.2550
  190MPD1    C2 2890   3.007   1.238  15.940  0.0637 -0.0994 -0.4274
  190MPD1    C3 2891   3.074   1.214  15.822 -0.3201 -0.0732  0.4764
  190MPD1    C4 2892   3.036   1.110  15.741  0.3407 -0.4973 -0.2835
  190MPD1    C5 2893   2.925   1.035  15.777  0.2536  0.0904  0.0593
  190MPD1     H 2894   3.017   1.332  15.994  2.4950  0.3357 -1.6046
  190MPD1    H1 2895   3.065   1.093  15.638  1.4656 -0.3686  0.0111
  190MPD1    H2 2896   2.780   0.990  15.913  0.3976 -0.4392 -2.4144
  190MPD1    H3 2897   2.880   0.965  15.708  1.3131 -2.1020  1.5813
  190MPD1     N 2898   3.169   1.309  15.792 -0.4565  0.9198  0.2296
  190MPD1    H5 2899   3.194   1.374  15.867  0.7104 -0.0563  0.6843
  190MPD1    N1 2900   2.828   1.164  16.101  0.0610  0.3782  0.1106
  190MPD1    H6 2901   2.795   1.075  16.138 -0.3414  0.9880  1.2193
  190MPD1    H7 2902   2.880   1.205  16.179  0.0719 -1.1074  0.8975
  191MPD1     C 2903   3.294   2.935  13.250  0.5618 -0.8047 -0.3122
  191MPD1    C1 2904   3.359   3.005  13.153  0.5600  0.0191  0.1489
  191MPD1    C2 2905   3.307   2.992  13.021  0.4186  0.3045 -0.1546
  191MPD1    C3 2906   3.188   2.919  12.995  0.3558 -0.2592  1.0727
  191MPD1    C4 2907   3.126   2.856  13.101  0.5238 -0.1778 -0.1309
  191MPD1    C5 2908   3.187   2.853  13.226  0.5426 -0.7948  0.1462
  191MPD1     H 2909   3.359   3.032  12.934  2.4257 -3.4607 -0.6749
  191MPD1    H1 2910   3.036   2.796  13.094  0.5111 -0.2673  0.8271
  191MPD1    H2 2911   3.340   2.929  13.348 -1.0807  1.6932  0.6026
  191MPD1    H3 2912   3.140   2.797  13.307 -1.9348  0.9979 -0.0255
  191MPD1     N 2913   3.139   2.924  12.866  0.0581  0.1539 -0.1164
  191MPD1    H5 2914   3.196   2.966  12.793  0.3182 -1.6234 -0.9414
  191MPD1    N1 2915   3.480   3.072  13.179  0.3077  0.1606 -0.0717
  191MPD1    H6 2916   3.496   3.112  13.271 -0.9391 -2.0060  1.0952
  191MPD1    H7 2917   3.528   3.124  13.106  0.0115 -0.1277 -0.4671
  192MPD1     C 2918   2.357   3.357  12.516 -0.5061  0.0294  0.1791
  192MPD1    C1 2919   2.343   3.233  12.574  0.0197  0.0124  0.3707
  192MPD1    C2 2920   2.439   3.139  12.556 -0.1097 -0.2905  0.2536
  192MPD1    C3 2921   2.556   3.163  12.490  0.0726 -0.6657  0.1444
  192MPD1    C4 2922   2.566   3.289  12.435  0.4667  0.4083 -0.0327
  192MPD1    C5 2923   2.470   3.385  12.449 -0.0466 -0.3230 -0.2975
  192MPD1     H 2924   2.418   3.050  12.614 -0.7759 -1.4618 -1.7815
  192MPD1    H1 2925   2.661   3.321  12.393  1.0775 -4.5421 -2.3391
  192MPD1    H2 2926   2.282   3.434  12.527  0.7827  1.3761 -0.4718
  192MPD1    H3 2927   2.486   3.488  12.418 -1.4383  0.2946  1.0437
  192MPD1     N 2928   2.662   3.070  12.468 -0.0301  0.1798  0.2916
  192MPD1    H5 2929   2.729   3.104  12.400  0.6246 -0.2136  0.7425
  192MPD1    N1 2930   2.215   3.201  12.619 -0.6214  0.0780  0.2948
  192MPD1    H6 2931   2.159   3.284  12.635 -1.5528 -0.9476  2.2609
  192MPD1    H7 2932   2.220   3.140  12.700  1.7135  1.1866  0.9825
  193MPD1     C 2933   2.410   3.422  16.366  0.0972  1.0352  0.0681
  193MPD1    C1 2934   2.337   3.495  16.453 -0.1266  0.3265  0.6320
  193MPD1    C2 2935   2.390   3.579  16.546  0.3804  0.7469 -0.4328
  193MPD1    C3 2936   2.523   3.621  16.528 -0.1444  0.1174 -0.6637
  193MPD1    C4 2937   2.592   3.560  16.431  0.2777  0.5417 -0.6647
  193MPD1    C5 2938   2.546   3.447  16.370 -0.6527  0.5229  0.2628
  193MPD1     H 2939   2.326   3.622  16.623 -0.3300 -3.6557  1.4301
  193MPD1    H1 2940   2.693   3.592  16.408  0.6686 -0.0835  0.1800
  193MPD1    H2 2941   2.363   3.351  16.298 -0.8154 -1.0868  2.9053
  193MPD1    H3 2942   2.604   3.401  16.290  1.6061  2.4745  0.7736
  193MPD1     N 2943   2.591   3.711  16.616  0.7413  0.1087 -0.7240
  193MPD1    H5 2944   2.687   3.731  16.591  0.0803  3.7845 -0.2492
  193MPD1    N1 2945   2.203   3.458  16.476 -0.5042 -0.3531 -0.1936
  193MPD1    H6 2946   2.152   3.533  16.521 -1.2347 -0.0467 -1.5358
  193MPD1    H7 2947   2.156   3.439  16.388  0.2947 -1.1694 -0.4493
  194MPD1     C 2948   0.340   1.597  16.690 -0.3345 -0.4943 -0.1432
  194MPD1    C1 2949   0.332   1.497  16.598  0.1219 -0.3051  0.5986
  194MPD1    C2 2950   0.362   1.368  16.638  0.6915  0.7949 -0.2481
  194MPD1    C3 2951   0.440   1.350  16.755  0.2556 -0.6803 -0.1851
  194MPD1    C4 2952   0.471   1.454  16.837  0.9818  0.2203  0.5534
  194MPD1    C5 2953   0.410   1.577  16.809  0.4332  0.6535  1.0569
  194MPD1     H 2954   0.324   1.282  16.585  1.1505  0.5466 -0.1762
  194MPD1    H1 2955   0.514   1.439  16.936  0.4117  1.6595  1.0292
  194MPD1    H2 2956   0.290   1.691  16.672  1.0108  0.0639 -0.9568
  194MPD1    H3 2957   0.415   1.662  16.876  2.7160  1.8500 -0.6145
  194MPD1     N 2958   0.487   1.217  16.786 -0.3338 -0.2791 -0.6391
  194MPD1    H5 2959   0.551   1.213  16.864 -0.0961 -1.0556 -0.8728
  194MPD1    N1 2960   0.249   1.520  16.488  0.1664  0.1401  0.5270
  194MPD1    H6 2961   0.287   1.453  16.422 -0.6606 -0.8634  1.0789
  194MPD1    H7 2962   0.255   1.616  16.455 -2.7646 -0.6217 -2.2509
  195MPD1     C 2963   2.949   2.149   0.851  0.6324  0.8801  0.3391
  195MPD1    C1 2964   2.980   2.016   0.871 -0.7463 -0.1375  0.0781
  195MPD1    C2 2965   2.917   1.915   0.798  0.5422  0.0414  0.2985
  195MPD1    C3 2966   2.824   1.962   0.708 -0.3336 -0.2994  0.2296
  195MPD1    C4 2967   2.808   2.094   0.678 -0.7399 -0.5335 -0.1040
  195MPD1    C5 2968   2.877   2.189   0.747 -0.5083  0.1618  0.7950
  195MPD1     H 2969   2.915   1.809   0.822 -3.1387 -0.2298 -1.2388
  195MPD1    H1 2970   2.755   2.122   0.589  0.1689  0.4634 -0.3370
  195MPD1    H2 2971   2.985   2.220   0.924  2.5666  1.1238 -0.8472
  195MPD1    H3 2972   2.859   2.293   0.723  1.2396  0.1294 -0.6456
  195MPD1     N 2973   2.759   1.873   0.617  0.3794  0.8395 -0.1678
  195MPD1    H5 2974   2.688   1.915   0.558  0.4453  0.2959 -0.6424
  195MPD1    N1 2975   3.065   1.983   0.981  0.3505 -0.2994 -0.4566
  195MPD1    H6 2976   3.123   1.907   0.946 -0.9056 -2.3337  1.9171
  195MPD1    H7 2977   3.124   2.065   0.991 -1.2328  0.8014 -0.1725
  196MPD1     C 2978   2.146   1.696   0.573 -0.7034 -0.1866  0.1035
  196MPD1    C1 2979   2.015   1.662   0.587  0.1645 -0.2362  0.7923
  196MPD1    C2 2980   1.914   1.761   0.607 -0.2109  0.2914 -0.2956
  196MPD1    C3 2981   1.954   1.889   0.648  0.4159 -0.4228  0.4197
  196MPD1    C4 2982   2.090   1.912   0.656  0.2598  0.8994  1.0635
  196MPD1    C5 2983   2.181   1.819   0.614  0.0747 -0.4908 -0.1728
  196MPD1     H 2984   1.810   1.730   0.606  0.2116 -1.1328  0.3984
  196MPD1    H1 2985   2.129   2.005   0.694 -1.8557  2.3079 -0.1625
  196MPD1    H2 2986   2.220   1.618   0.554  0.5689  1.0445  0.0175
  196MPD1    H3 2987   2.286   1.848   0.612  0.6537 -2.6518 -0.8734
  196MPD1     N 2988   1.862   1.987   0.677  0.9530 -0.3689  0.0952
  196MPD1    H5 2989   1.909   2.072   0.705  1.5704 -0.3651 -0.9459
  196MPD1    N1 2990   1.973   1.534   0.548 -0.5013  0.1107 -0.0951
  196MPD1    H6 2991   2.039   1.458   0.562 -1.6464 -0.8398  0.0651
  196MPD1    H7 2992   1.880   1.506   0.579 -0.4180 -2.3244 -2.0874
  197MPD1     C 2993   1.579   4.422  17.688 -0.6882 -0.9839  0.1606
  197MPD1    C1 2994   1.577   4.561  17.673 -0.6012  0.0630  0.4093
  197MPD1    C2 2995   1.509   4.619  17.572  0.2933 -0.5628 -0.3860
  197MPD1    C3 2996   1.432   4.539  17.488 -0.2118 -0.3008  0.6801
  197MPD1    C4 2997   1.425   4.403  17.507 -0.3485 -0.3939 -0.1999
  197MPD1    C5 2998   1.506   4.347  17.603  0.2250 -0.1348  0.5630
  197MPD1     H 2999   1.503   0.003  17.571 -0.5518 -0.6207 -1.3104
  197MPD1    H1 3000   1.375   4.337  17.437 -0.9674 -1.9363  1.6914
  197MPD1    H2 3001   1.634   4.377   0.070  0.2560  1.7528  1.0240
  197MPD1    H3 3002   1.489   4.241  17.612  1.5555 -0.2143  2.1109
  197MPD1     N 3003   1.359   4.593  17.380 -0.3753 -0.1971 -0.2319
  197MPD1    H5 3004   1.309   4.525  17.324  2.1215  0.6015 -3.4392
  197MPD1    N1 3005   1.668   4.636   0.052 -0.6206 -0.2697  0.0370
  197MPD1    H6 3006   1.631   4.723   0.089  0.4874  0.7792 -1.3100
  197MPD1    H7 3007   1.703   4.581   0.131  1.8740  1.8450  0.4177
  198MPD1     C 3008   3.374   3.753  15.741 -0.0077  0.3566  0.0424
  198MPD1    C1 3009   3.489   3.682  15.714  0.5001 -0.0400 -0.6898
  198MPD1    C2 3010   3.510   3.572  15.799 -0.6022  0.4622  0.8966
  198MPD1    C3 3011   3.420   3.532  15.892  0.5193 -0.1937 -0.3656
  198MPD1    C4 3012   3.301   3.601  15.913  0.7199 -0.1388 -0.2652
  198MPD1    C5 3013   3.284   3.718  15.841 -0.1979  0.1909 -0.2435
  198MPD1     H 3014   3.597   3.510  15.782 -1.6727 -0.2424 -2.1317
  198MPD1    H1 3015   3.237   3.572  15.996  0.6043 -2.4917 -1.1726
  198MPD1    H2 3016   3.355   3.842  15.682 -0.4191 -0.2896 -0.7998
  198MPD1    H3 3017   3.195   3.777  15.863 -0.9387 -1.0122 -0.0149
  198MPD1     N 3018   3.444   3.403  15.942  0.2649  0.1191 -0.4480
  198MPD1    H5 3019   3.521   3.357  15.895  0.5824 -0.9862  1.1607
  198MPD1    N1 3020   3.593   3.727  15.632 -0.2312  0.1227 -0.1716
  198MPD1    H6 3021   3.562   3.802  15.572 -1.3017 -2.3421 -2.6906
  198MPD1    H7 3022   3.644   3.655  15.581 -1.9298 -1.3250  0.1602
  199MPD1     C 3023   0.447   3.054   9.172  0.0597  0.4429  0.0154
  199MPD1    C1 3024   0.448   2.954   9.263  0.2383  0.6532  0.0808
  199MPD1    C2 3025   0.418   2.976   9.395  0.6503 -0.3996  0.4465
  199MPD1    C3 3026   0.398   3.103   9.447 -0.5796  0.3114 -0.4689
  199MPD1    C4 3027   0.411   3.210   9.361 -0.0849 -0.8990 -0.1039
  199MPD1    C5 3028   0.431   3.180   9.230  0.8138  0.0248 -0.1701
  199MPD1     H 3029   0.415   2.891   9.462  2.7134 -1.6071 -1.0096
  199MPD1    H1 3030   0.412   3.313   9.394  2.6582 -0.8942 -0.2196
  199MPD1    H2 3031   0.463   3.040   9.066  0.4056  2.0347 -0.1417
  199MPD1    H3 3032   0.443   3.267   9.167 -0.1074 -0.5189 -1.0899
  199MPD1     N 3033   0.362   3.130   9.575 -0.4534  0.3375  0.4976
  199MPD1    H5 3034   0.340   3.226   9.600 -0.2282  0.6770 -0.6546
  199MPD1    N1 3035   0.452   2.824   9.215  0.1186 -0.7947 -0.1228
  199MPD1    H6 3036   0.463   2.748   9.283 -0.2777  0.0885  0.9241
  199MPD1    H7 3037   0.509   2.806   9.133 -0.3426 -0.6457 -0.4744
  200MPD1     C 3038   3.962   3.661  14.550 -0.2630  0.5338 -0.5899
  200MPD1    C1 3039   4.034   3.624  14.444 -0.3585  0.8767 -0.6902
  200MPD1    C2 3040   4.164   3.664  14.442  0.1201  0.3873 -0.3491
  200MPD1    C3 3041   4.228   3.739  14.545 -0.1205  0.5750 -0.1851
  200MPD1    C4 3042   4.148   3.777  14.654  0.1448  0.0227  0.0558
  200MPD1    C5 3043   4.019   3.725  14.653  0.6612  0.8918  0.9116
  200MPD1     H 3044   4.219   3.624  14.358  0.5706  1.8195 -0.7317
  200MPD1    H1 3045   4.181   3.852  14.725 -1.8934  0.2148  0.8039
  200MPD1    H2 3046   3.861   3.625  14.568 -0.6943  1.0352 -1.9753
  200MPD1    H3 3047   3.955   3.758  14.734  0.0570 -1.1760  1.2810
  200MPD1     N 3048   4.359   3.786  14.517 -0.1530  0.0273  0.0111
  200MPD1    H5 3049   4.409   3.732  14.447 -0.3713  2.4901 -2.0410
  200MPD1    N1 3050   3.978   3.532  14.349 -0.1593 -0.0787 -0.4872
  200MPD1    H6 3051   3.876   3.537  14.345 -0.1040 -0.0253 -1.7967
  200MPD1    H7 3052   4.014   3.527  14.254 -0.8482 -0.9147 -0.7084
  201MPD1     C 3053   2.632   2.572  12.661 -0.6928  1.2479  0.0736
  201MPD1    C1 3054   2.500   2.566  12.690 -0.3487  0.2684  0.0624
  201MPD1    C2 3055   2.455   2.474  12.785 -0.3084  0.3709 -0.4284
  201MPD1    C3 3056   2.546   2.389  12.849 -0.4108  0.2648  0.6115
  201MPD1    C4 3057   2.678   2.398  12.823  0.5324  0.6429  0.4504
  201MPD1    C5 3058   2.722   2.495  12.738  0.0128 -0.7601 -0.2201
  201MPD1     H 3059   2.349   2.452  12.795 -0.7737  1.3405 -3.1000
  201MPD1    H1 3060   2.751   2.337  12.877 -0.3212 -0.1473  0.7108
  201MPD1    H2 3061   2.673   2.629  12.578 -0.8399  0.6767 -0.3871
  201MPD1    H3 3062   2.830   2.506  12.732 -0.0324  0.4914  1.2005
  201MPD1     N 3063   2.486   2.285  12.926 -0.0394  0.2186 -0.0285
  201MPD1    H5 3064   2.385   2.280  12.918 -0.0037  1.0829 -1.0654
  201MPD1    N1 3065   2.422   2.626  12.582 -0.0497 -0.1965 -0.5051
  201MPD1    H6 3066   2.344   2.672  12.628  0.6594 -0.4618  0.9908
  201MPD1    H7 3067   2.486   2.695  12.544  0.0409 -0.3619 -0.6539
  202MPD1     C 3068   1.670   1.281   9.358 -0.3235  1.0099 -0.2735
  202MPD1    C1 3069   1.700   1.417   9.355 -0.6307  1.2163  0.0782
  202MPD1    C2 3070   1.705   1.474   9.481 -0.0941  0.0060  0.2063
  202MPD1    C3 3071   1.738   1.396   9.593 -0.0525  0.0628  0.5988
  202MPD1    C4 3072   1.749   1.252   9.585  0.4710 -0.2777 -0.5769
  202MPD1    C5 3073   1.699   1.200   9.471  0.0163 -0.7470  0.0955
  202MPD1     H 3074   1.718   1.581   9.470 -0.0152  0.1934  2.3003
  202MPD1    H1 3075   1.779   1.197   9.673 -0.2510 -0.3931 -0.4025
  202MPD1    H2 3076   1.638   1.224   9.271 -0.1557  0.0869  0.2677
  202MPD1    H3 3077   1.692   1.093   9.459  0.8286 -0.6654 -1.0664
  202MPD1     N 3078   1.774   1.456   9.710 -0.0325 -0.0835  0.4715
  202MPD1    H5 3079   1.808   1.409   9.793  0.4602 -1.4992 -0.5411
  202MPD1    N1 3080   1.645   1.486   9.250  0.0495  0.3131  0.0372
  202MPD1    H6 3081   1.683   1.580   9.253  1.6690 -0.2610 -2.7744
  202MPD1    H7 3082   1.650   1.446   9.157 -1.5386 -2.4808  1.1392
  203MPD1     C 3083   0.513   2.896  12.540 -0.3863 -0.2653 -0.3436
  203MPD1    C1 3084   0.546   2.801  12.444  0.1057  0.4700  1.1645
  203MPD1    C2 3085   0.607   2.692  12.487 -0.9601 -0.1646  0.3255
  203MPD1    C3 3086   0.631   2.670  12.625 -0.1723 -0.4625  0.4913
  203MPD1    C4 3087   0.594   2.770  12.715 -0.8615  0.4139  0.2268
  203MPD1    C5 3088   0.523   2.876  12.671 -0.4269 -0.1462  1.0320
  203MPD1     H 3089   0.642   2.609  12.426 -0.0406 -1.7559  3.0320
  203MPD1    H1 3090   0.610   2.758  12.822 -1.4353 -0.0151  0.2647
  203MPD1    H2 3091   0.474   2.990  12.504  2.4266  0.5264 -1.3319
  203MPD1    H3 3092   0.483   2.949  12.741 -0.0246 -0.3023  1.4184
  203MPD1     N 3093   0.720   2.559  12.669  0.3285  0.7952 -0.3511
  203MPD1    H5 3094   0.743   2.490  12.599  1.7202  1.7714 -0.8497
  203MPD1    N1 3095   0.540   2.839  12.313 -0.1601 -0.6110  0.5185
  203MPD1    H6 3096   0.532   2.755  12.256  1.0447  1.0963 -2.1543
  203MPD1    H7 3097   0.464   2.900  12.286  0.1463  0.0983  1.2425
  204MPD1     C 3098   0.451   4.527   0.558  0.1332 -0.5481 -1.0820
  204MPD1    C1 3099   0.329   4.564   0.504  0.1862 -0.3398 -0.0182
  204MPD1    C2 3100   0.266   4.466   0.437 -0.4694 -0.3338 -0.8769
  204MPD1    C3 3101   0.316   4.336   0.422  0.2872 -0.1933  0.1096
  204MPD1    C4 3102   0.430   4.304   0.490  0.5977  0.2187  0.6198
  204MPD1    C5 3103   0.498   4.402   0.556  0.6739 -0.2758  0.2992
  204MPD1     H 3104   0.173   4.501   0.393 -1.3806 -2.4248 -0.6152
  204MPD1    H1 3105   0.478   4.207   0.487 -1.5647 -0.7919 -0.5914
  204MPD1    H2 3106   0.522   4.601   0.594  0.1614 -2.4107  2.6987
  204MPD1    H3 3107   0.584   4.385   0.619 -0.6105 -3.7682  1.1158
  204MPD1     N 3108   0.240   4.242   0.361  0.3490 -0.2300  0.6573
  204MPD1    H5 3109   0.147   4.264   0.326  0.1111 -1.7015  0.3628
  204MPD1    N1 3110   0.270   4.687   0.536 -0.7378  0.1769  0.2613
  204MPD1    H6 3111   0.204   4.717   0.465 -0.8280  0.4015  0.4390
  204MPD1    H7 3112   0.354   0.020   0.545 -0.6406  0.1675 -0.5992
  205MPD1     C 3113   4.134   2.643  17.252  0.3158  0.5903 -0.3346
  205MPD1    C1 3114   4.131   2.722  17.357 -0.2726 -0.8621  0.5375
  205MPD1    C2 3115   4.246   2.764  17.413  0.5666 -0.5147  0.3390
  205MPD1    C3 3116   4.375   2.733  17.366 -0.1500 -0.6723  1.0754
  205MPD1    C4 3117   4.377   2.638  17.261 -0.2274 -0.1083 -0.5513
  205MPD1    C5 3118   4.259   2.599  17.207  0.0433  0.1964 -0.0468
  205MPD1     H 3119   4.235   2.830  17.499 -1.0427  0.7991 -0.8921
  205MPD1    H1 3120   4.468   2.589  17.231 -0.3024 -1.2152  1.0488
  205MPD1    H2 3121   4.041   2.612  17.207  0.3664  2.7761 -1.9859
  205MPD1    H3 3122   4.266   2.548  17.111  0.7949  0.6287 -0.2253
  205MPD1     N 3123   4.494   2.795  17.404 -0.5963  0.1944 -0.2045
  205MPD1    H5 3124   4.580   2.767  17.359 -0.5052  1.2452 -0.6951
  205MPD1    N1 3125   4.011   2.760  17.418  0.3248 -0.1793  0.1734
  205MPD1    H6 3126   3.924   2.723  17.380 -0.7363  1.8179  0.6463
  205MPD1    H7 3127   4.008   2.833  17.490 -0.1111 -0.0207 -0.0005
  206MPD1     C 3128   0.921   0.924  16.544  0.6701  0.6881 -0.0032
  206MPD1    C1 3129   0.838   0.810  16.529 -0.4937 -0.2657  0.0173
  206MPD1    C2 3130   0.709   0.828  16.471  0.5055 -0.1529  0.1489
  206MPD1    C3 3131   0.657   0.951  16.443  0.0322 -0.0370 -0.5434
  206MPD1    C4 3132   0.744   1.059  16.455  0.2164  0.8593 -0.3313
  206MPD1    C5 3133   0.869   1.044  16.501  0.1401 -0.1820  0.4453
  206MPD1     H 3134   0.644   0.742  16.465  2.1956 -1.4745  1.0489
  206MPD1    H1 3135   0.708   1.161  16.444 -0.9123  0.4524 -0.4067
  206MPD1    H2 3136   1.025   0.919  16.572  0.6801  0.6115 -0.0549
  206MPD1    H3 3137   0.930   1.131  16.524 -0.4870  0.5470 -0.6687
  206MPD1     N 3138   0.529   0.967  16.388  0.3630 -0.3236  0.1523
  206MPD1    H5 3139   0.516   1.060  16.349 -0.6356 -0.6068 -0.1774
  206MPD1    N1 3140   0.889   0.683  16.540 -0.3948  0.2468 -0.2602
  206MPD1    H6 3141   0.960   0.668  16.611  0.6901  1.3175 -1.1168
  206MPD1    H7 3142   0.811   0.627  16.572  0.2452 -0.5409 -0.1030
  207MPD1     C 3143   3.574   2.194   9.638 -0.4664  0.0779  0.3542
  207MPD1    C1 3144   3.472   2.232   9.715  0.2218 -0.0135  0.6326
  207MPD1    C2 3145   3.497   2.294   9.836 -0.7683 -0.1028  0.0061
  207MPD1    C3 3146   3.624   2.337   9.873  0.5744 -0.5860  0.5231
  207MPD1    C4 3147   3.729   2.303   9.794  0.0978  0.6250 -0.4899
  207MPD1    C5 3148   3.698   2.226   9.683  0.6378  0.3783 -0.7067
  207MPD1     H 3149   3.412   2.321   9.897  0.2565  0.3576  1.2274
  207MPD1    H1 3150   3.832   2.321   9.819  1.2698 -3.0594 -2.5936
  207MPD1    H2 3151   3.550   2.128   9.555 -1.4240  1.7531 -0.6989
  207MPD1    H3 3152   3.778   2.192   9.618 -0.7208  0.9559 -2.6843
  207MPD1     N 3153   3.650   2.402   9.996  0.1649  0.1491  0.3190
  207MPD1    H5 3154   3.748   2.423  10.012 -0.5031  2.6624  1.1794
  207MPD1    N1 3155   3.350   2.174   9.675  0.5747 -0.2814  0.2049
  207MPD1    H6 3156   3.270   2.226   9.709  1.0580 -0.7137  1.9800
  207MPD1    H7 3157   3.331   2.155   9.577 -1.2522  0.3221  0.4436
  208MPD1     C 3158   1.357   3.046   0.926 -0.4016 -0.1208 -0.3961
  208MPD1    C1 3159   1.240   3.037   0.989  0.5250  0.0047  0.0552
  208MPD1    C2 3160   1.143   2.959   0.932  0.4862  0.1413  0.4232
  208MPD1    C3 3161   1.165   2.883   0.818 -0.2092  0.2929 -0.5408
  208MPD1    C4 3162   1.295   2.880   0.766  0.3362  0.5450 -0.2454
  208MPD1    C5 3163   1.384   2.966   0.820  0.3239 -0.1735 -0.7514
  208MPD1     H 3164   1.050   2.961   0.986  0.8969  0.6534  1.1074
  208MPD1    H1 3165   1.323   2.828   0.675 -2.2516  0.0181 -0.7330
  208MPD1    H2 3166   1.434   3.110   0.967 -1.2770  1.0815 -0.6332
  208MPD1    H3 3167   1.487   2.972   0.786 -0.2582 -1.5226 -2.7341
  208MPD1     N 3168   1.057   2.811   0.771 -0.3967  0.0233 -0.1796
  208MPD1    H5 3169   0.965   2.826   0.810 -0.4386 -1.4325  0.2704
  208MPD1    N1 3170   1.212   3.126   1.092 -0.0969  0.1981  0.6773
  208MPD1    H6 3171   1.299   3.154   1.138 -0.4776  2.8334 -0.1879
  208MPD1    H7 3172   1.152   3.093   1.167 -2.2096  2.7803  0.1220
  209MPD1     C 3173   3.188   2.727  11.848  0.2142 -0.0930  0.2171
  209MPD1    C1 3174   3.289   2.670  11.771  0.1645  0.4866  0.3502
  209MPD1    C2 3175   3.321   2.734  11.653 -0.2374 -0.6884  0.1712
  209MPD1    C3 3176   3.267   2.860  11.623  0.1142  0.2964  0.2488
  209MPD1    C4 3177   3.170   2.910  11.700 -0.1136  0.1120 -0.5324
  209MPD1    C5 3178   3.138   2.856  11.819 -0.7919 -1.2715 -0.0862
  209MPD1     H 3179   3.379   2.681  11.578  0.2368 -2.1733  1.5767
  209MPD1    H1 3180   3.134   3.012  11.692  1.1197  0.4561 -1.6855
  209MPD1    H2 3181   3.160   2.685  11.944  0.6842  0.4793  0.6044
  209MPD1    H3 3182   3.076   2.918  11.883  0.0252 -0.5225 -0.0111
  209MPD1     N 3183   3.303   2.919  11.505 -0.9488  0.2260  0.3054
  209MPD1    H5 3184   3.366   2.860  11.452  1.1781  1.0662  1.9235
  209MPD1    N1 3185   3.335   2.539  11.791  0.1218 -0.2793  0.5390
  209MPD1    H6 3186   3.339   2.521  11.891 -0.8225 -2.2647  0.2249
  209MPD1    H7 3187   3.431   2.537  11.756  0.1140  1.7868  0.3915
  210MPD1     C 3188   3.599   3.870  11.305  0.5271 -0.2544  0.0142
  210MPD1    C1 3189   3.666   3.790  11.215 -0.6088  0.4000  0.2619
  210MPD1    C2 3190   3.628   3.656  11.213 -0.2373 -0.5793  0.0454
  210MPD1    C3 3191   3.514   3.603  11.283  0.4164 -0.1364  0.3627
  210MPD1    C4 3192   3.445   3.696  11.358  0.4614  0.0746  0.0386
  210MPD1    C5 3193   3.489   3.826  11.374 -0.2640  0.1260 -0.3017
  210MPD1     H 3194   3.694   3.594  11.153  2.3580  0.5715  1.6827
  210MPD1    H1 3195   3.355   3.668  11.412  0.9940  0.3396  1.0600
  210MPD1    H2 3196   3.625   3.973  11.326  0.1448 -0.3370  0.8951
  210MPD1    H3 3197   3.432   3.892  11.438 -0.8584 -2.3621  1.7492
  210MPD1     N 3198   3.473   3.468  11.273 -0.0971  0.0900  0.3511
  210MPD1    H5 3199   3.392   3.436  11.326 -0.1519 -1.7196 -0.8401
  210MPD1    N1 3200   3.787   3.845  11.164  0.0368  0.1253  0.3754
  210MPD1    H6 3201   3.820   3.784  11.090 -1.5033 -0.0091 -0.2187
  210MPD1    H7 3202   3.775   3.942  11.134  1.6809  0.5908  1.2375
  211MPD1     C 3203   1.011   2.541  17.381  0.2804  0.0208 -0.3868
  211MPD1    C1 3204   0.922   2.512  17.285  0.5695  0.1270 -0.8502
  211MPD1    C2 3205   0.833   2.614  17.256  0.7190  0.2582 -0.1564
  211MPD1    C3 3206   0.824   2.724  17.337  0.3262  0.4527  0.7828
  211MPD1    C4 3207   0.901   2.739  17.454  0.2913  0.5406 -0.1476
  211MPD1    C5 3208   0.995   2.639  17.478 -0.0771 -0.3054 -0.0773
  211MPD1     H 3209   0.757   2.604  17.180  0.5781  1.3519 -0.1570
  211MPD1    H1 3210   0.888   2.828  17.515  0.5094 -0.5301  1.4336
  211MPD1    H2 3211   1.099   2.477  17.390  0.0472  0.0851  2.2343
  211MPD1    H3 3212   1.068   2.641  17.557 -0.5227 -2.7647  0.4128
  211MPD1     N 3213   0.719   2.813  17.304 -1.1074  0.1460 -0.7346
  211MPD1    H5 3214   0.666   2.788  17.221  0.5513  0.0716 -1.7727
  211MPD1    N1 3215   0.957   2.423  17.185 -0.4718  0.5047 -0.5469
  211MPD1    H6 3216   0.886   2.408  17.114  0.8979  0.3989 -1.9001
  211MPD1    H7 3217   1.007   2.339  17.212 -0.2365  0.5131 -0.9513
  212MPD1     C 3218   4.717   1.290  16.499  0.5498 -0.5418  0.1951
  212MPD1    C1 3219   4.689   1.337  16.622  0.2498  0.5566 -0.1372
  212MPD1    C2 3220   4.570   1.300  16.682  0.4992 -0.9333 -1.0364
  212MPD1    C3 3221   4.494   1.202  16.620  0.2350  0.0232 -0.8757
  212MPD1    C4 3222   4.526   1.150  16.500 -0.2252  0.2068  0.3510
  212MPD1    C5 3223   4.636   1.199  16.437 -0.2179  0.1770 -0.4562
  212MPD1     H 3224   4.553   1.330  16.785  1.0576  1.2451 -1.5675
  212MPD1    H1 3225   4.461   1.076  16.454  1.2145  0.4194 -2.0349
  212MPD1    H2 3226   0.089   1.310  16.454  0.3957  1.7159  0.8340
  212MPD1    H3 3227   4.674   1.160  16.343 -1.5771  0.2052 -1.0174
  212MPD1     N 3228   4.375   1.148  16.681  0.3720 -0.6679  0.0784
  212MPD1    H5 3229   4.315   1.086  16.628 -0.2919 -2.1309  2.5601
  212MPD1    N1 3230   0.060   1.402  16.692 -0.6189  0.3831 -0.5456
  212MPD1    H6 3231   0.029   1.452  16.775 -0.1520 -1.0490  0.4736
  212MPD1    H7 3232   0.130   1.446  16.632  1.9113 -0.2487  1.9184
  213MPD1     C 3233   3.378   2.142  16.101  0.4704 -0.3933  0.1907
  213MPD1    C1 3234   3.271   2.053  16.108  0.5120  0.3068 -0.5601
  213MPD1    C2 3235   3.166   2.066  16.018  0.1837  0.4068  0.4327
  213MPD1    C3 3236   3.180   2.141  15.899 -0.1710 -0.0161  0.2455
  213MPD1    C4 3237   3.301   2.208  15.881 -0.2544  0.1079  1.0472
  213MPD1    C5 3238   3.394   2.212  15.985  1.1905 -0.6465  0.2084
  213MPD1     H 3239   3.076   2.007  16.029  0.7511 -0.3868  0.8284
  213MPD1    H1 3240   3.331   2.272  15.799  1.6276 -1.2076  0.7037
  213MPD1    H2 3241   3.457   2.153  16.174  2.4553 -4.2238 -1.4009
  213MPD1    H3 3242   3.481   2.276  15.976  1.0260 -0.2401  1.3939
  213MPD1     N 3243   3.079   2.147  15.803  0.5279  0.5917 -0.3999
  213MPD1    H5 3244   2.988   2.109  15.826  0.8372  0.1275  0.0479
  213MPD1    N1 3245   3.245   2.000  16.230  0.0996 -0.2524 -0.0144
  213MPD1    H6 3246   3.328   1.995  16.289 -0.7635 -0.3972  1.1914
  213MPD1    H7 3247   3.190   1.915  16.234  1.3442 -0.9919  1.2869
  214MPD1     C 3248   2.122   2.068  15.531  0.1510  0.2774 -0.7362
  214MPD1    C1 3249   2.197   2.188  15.556  0.1880  0.3757  0.0490
  214MPD1    C2 3250   2.336   2.175  15.557 -0.3619 -0.0731 -0.5664
  214MPD1    C3 3251   2.400   2.060  15.510 -0.2064 -0.1471  0.1222
  214MPD1    C4 3252   2.326   1.954  15.479 -0.7781 -0.3351  0.7371
  214MPD1    C5 3253   2.195   1.954  15.494  0.1844  0.0163  0.6671
  214MPD1     H 3254   2.392   2.266  15.579  1.4003 -1.1526 -0.5788
  214MPD1    H1 3255   2.374   1.864  15.442 -0.3629 -0.6142  1.9354
  214MPD1    H2 3256   2.014   2.065  15.534  0.1000  1.1029 -1.9148
  214MPD1    H3 3257   2.135   1.871  15.460 -1.0426 -0.0058  2.9478
  214MPD1     N 3258   2.539   2.050  15.496  0.3212  0.3292  0.0820
  214MPD1    H5 3259   2.569   1.963  15.454 -0.9703 -0.2862  0.4242
  214MPD1    N1 3260   2.134   2.309  15.589 -0.1277 -0.1083 -0.2202
  214MPD1    H6 3261   2.039   2.318  15.552  0.0443  0.6754 -0.4589
  214MPD1    H7 3262   2.189   2.390  15.563  0.3599  0.0711  1.4056
  215MPD1     C 3263   3.372   1.466  10.839 -0.2857  0.0160  0.1718
  215MPD1    C1 3264   3.379   1.532  10.717  1.1267 -0.7839 -0.2324
  215MPD1    C2 3265   3.339   1.660  10.707 -0.5039 -0.3160 -0.1838
  215MPD1    C3 3266   3.299   1.732  10.815  0.0930  0.6300 -0.6275
  215MPD1    C4 3267   3.295   1.664  10.937  0.1843 -0.7468  0.3839
  215MPD1    C5 3268   3.336   1.534  10.953  0.1149  0.5664 -0.1638
  215MPD1     H 3269   3.339   1.713  10.612  0.1637 -1.1658 -0.6484
  215MPD1    H1 3270   3.268   1.715  11.028 -2.3950 -1.7269  0.1566
  215MPD1    H2 3271   3.395   1.362  10.853  0.9316 -0.1670 -3.1685
  215MPD1    H3 3272   3.321   1.485  11.049 -0.0763 -0.2309 -0.5968
  215MPD1     N 3273   3.273   1.864  10.804  0.0819 -0.4309  0.2516
  215MPD1    H5 3274   3.275   1.901  10.709  0.2053 -1.8583 -0.3054
  215MPD1    N1 3275   3.451   1.468  10.617 -0.1466  0.5218 -0.0250
  215MPD1    H6 3276   3.457   1.517  10.528 -2.6720 -0.6550 -0.8244
  215MPD1    H7 3277   3.424   1.370  10.608  0.6453  0.4028 -1.0257
  216MPD1     C 3278   0.027   0.893  16.432 -0.4239 -0.2585 -0.1980
  216MPD1    C1 3279   4.648   0.805  16.445 -0.2794 -0.2175  0.8484
  216MPD1    C2 3280   4.639   0.724  16.555 -0.2950  0.3552 -0.4024
  216MPD1    C3 3281   0.019   0.730  16.649  0.7226 -0.1604  0.5622
  216MPD1    C4 3282   0.109   0.835  16.646 -0.3691  0.5459  0.1104
  216MPD1    C5 3283   0.121   0.912  16.531 -0.9236 -0.2540  0.0084
  216MPD1     H 3284   4.578   0.635  16.565 -1.9630  1.3903 -1.4642
  216MPD1    H1 3285   0.182   0.847  16.726 -1.8127  1.1196  1.3334
  216MPD1    H2 3286   0.037   0.934  16.332 -1.8189 -0.5632 -0.4784
  216MPD1    H3 3287   0.198   0.988  16.524 -0.3548 -0.5240  3.1833
  216MPD1     N 3288   0.019   0.611  16.736 -0.2477 -0.1170 -0.4080
  216MPD1    H5 3289   4.672   0.540  16.721 -0.6309  0.3619 -0.8557
  216MPD1    N1 3290   4.563   0.777  16.332 -0.2367  0.6957  0.2106
  216MPD1    H6 3291   4.473   0.757  16.373 -0.6270 -0.5499 -1.2450
  216MPD1    H7 3292   4.546   0.863  16.281 -1.1856  1.6586  2.1488
  217MPD1     C 3293   1.331   0.331   8.666  0.0147  0.1315 -0.1972
  217MPD1    C1 3294   1.411   0.441   8.694 -0.2410 -0.5190 -0.4577
  217MPD1    C2 3295   1.372   0.523   8.805 -0.5875 -0.0580  0.0723
  217MPD1    C3 3296   1.259   0.495   8.883 -0.3436  0.5474  0.0302
  217MPD1    C4 3297   1.178   0.384   8.851 -0.5602 -1.2863 -0.5227
  217MPD1    C5 3298   1.216   0.306   8.737  0.0892 -0.2833 -0.5510
  217MPD1     H 3299   1.422   0.616   8.829 -1.9516  0.6609  0.0883
  217MPD1    H1 3300   1.084   0.360   8.900 -0.1618 -2.3940 -0.2981
  217MPD1    H2 3301   1.359   0.265   8.585 -1.2467  1.1399 -1.4489
  217MPD1    H3 3302   1.156   0.222   8.705 -1.4268  0.2931  0.7379
  217MPD1     N 3303   1.226   0.571   8.998  0.1042  0.5912 -0.1610
  217MPD1    H5 3304   1.128   0.572   9.023  0.2189  2.0929  0.2754
  217MPD1    N1 3305   1.540   0.458   8.643  0.5631  0.6157  0.0726
  217MPD1    H6 3306   1.554   0.437   8.544 -0.0188  0.6612 -0.0228
  217MPD1    H7 3307   1.586   0.548   8.658  0.9116  0.1333  1.9335
  218MPD1     C 3308   1.845   2.540  12.645 -0.3605 -0.2035  0.3555
  218MPD1    C1 3309   1.946   2.629  12.605 -0.0961 -0.1245 -0.1937
  218MPD1    C2 3310   2.076   2.582  12.594  1.0752 -0.0062 -0.0490
  218MPD1    C3 3311   2.097   2.447  12.594 -0.2158  0.7260 -0.5196
  218MPD1    C4 3312   1.992   2.364  12.633  0.6672  0.6534 -0.3817
  218MPD1    C5 3313   1.870   2.408  12.663 -0.2147  0.1078 -0.5142
  218MPD1     H 3314   2.149   2.654  12.558 -1.0770  1.2396 -2.0115
  218MPD1    H1 3315   2.004   2.261  12.665  0.0068  0.8577  0.5247
  218MPD1    H2 3316   1.742   2.571  12.655  0.4943  3.0391 -0.7337
  218MPD1    H3 3317   1.796   2.341  12.705  0.3522  0.5291  1.1347
  218MPD1     N 3318   2.224   2.394  12.558 -0.6035 -0.3355 -1.1507
  218MPD1    H5 3319   2.295   2.465  12.543 -0.5098 -0.3896 -0.9522
  218MPD1    N1 3320   1.914   2.768  12.590 -0.5104  0.2765 -0.0426
  218MPD1    H6 3321   1.982   2.832  12.548 -1.3039  0.4569 -1.0573
  218MPD1    H7 3322   1.827   2.782  12.539 -0.8308 -1.3210  0.0797
  219MPD1     C 3323   2.743   2.850  12.116 -0.8112  0.3571 -0.5394
  219MPD1    C1 3324   2.842   2.767  12.169 -0.5788  0.2551  0.8727
  219MPD1    C2 3325   2.793   2.661  12.235 -0.0267 -0.3076  0.5427
  219MPD1    C3 3326   2.660   2.637  12.263  0.4510  0.4325 -0.2848
  219MPD1    C4 3327   2.569   2.738  12.233 -0.3155  0.0409  1.1297
  219MPD1    C5 3328   2.615   2.840  12.159  0.2468 -0.2825  0.2833
  219MPD1     H 3329   2.860   2.579  12.260  0.1936 -0.5828 -1.0070
  219MPD1    H1 3330   2.462   2.728  12.240 -0.6118  0.9169 -2.3068
  219MPD1    H2 3331   2.757   2.940  12.058  1.4769  0.1961 -0.2346
  219MPD1    H3 3332   2.542   2.914  12.129 -0.7283 -1.8158 -1.1446
  219MPD1     N 3333   2.607   2.518  12.313 -0.2699  0.5808 -0.4665
  219MPD1    H5 3334   2.507   2.504  12.324  0.2717 -2.6081  0.3710
  219MPD1    N1 3335   2.979   2.758  12.125  0.1966  0.1436  0.2005
  219MPD1    H6 3336   3.049   2.733  12.195  0.5088 -0.7723 -0.4242
  219MPD1    H7 3337   3.015   2.846  12.089 -0.6948  1.5583  2.8268
  220MPD1     C 3338   2.186   2.089   9.280  0.2010  0.8125  0.1903
  220MPD1    C1 3339   2.111   2.115   9.388  0.0065 -0.0660  0.2560
  220MPD1    C2 3340   2.164   2.106   9.517  0.1541 -0.4938 -0.4077
  220MPD1    C3 3341   2.299   2.083   9.528  0.8299  0.5184  0.1321
  220MPD1    C4 3342   2.372   2.046   9.413 -0.0301 -0.2983 -0.3271
  220MPD1    C5 3343   2.313   2.048   9.289  0.0755  0.0119 -0.4790
  220MPD1     H 3344   2.096   2.122   9.600  0.3431 -2.6465  0.1700
  220MPD1    H1 3345   2.474   2.011   9.422 -1.1841 -3.4199  0.7105
  220MPD1    H2 3346   2.144   2.093   9.180  0.5670  3.5955  0.1339
  220MPD1    H3 3347   2.360   2.032   9.193  1.1604 -1.2068  0.2597
  220MPD1     N 3348   2.356   2.090   9.657 -0.1300  0.0664  0.5694
  220MPD1    H5 3349   2.298   2.124   9.733  0.2772  0.3751  0.7409
  220MPD1    N1 3350   1.968   2.119   9.372  0.2763 -0.2198  0.3441
  220MPD1    H6 3351   1.943   2.168   9.287 -0.2347 -1.9235 -0.4956
  220MPD1    H7 3352   1.916   2.165   9.446 -0.3511 -2.5788  1.3847
  221MPD1     C 3353   4.485   2.388  16.916 -1.1114  0.6382  0.1146
  221MPD1    C1 3354   4.531   2.290  16.837 -0.1239  0.7886 -0.3501
  221MPD1    C2 3355   4.663   2.284  16.798 -0.3210 -0.1880 -0.3110
  221MPD1    C3 3356   0.031   2.381  16.837 -0.3258  0.5753 -0.5723
  221MPD1    C4 3357   4.705   2.482  16.915 -0.7088 -0.1596 -0.2731
  221MPD1    C5 3358   4.575   2.488  16.956  0.4473  0.0461  0.4472
  221MPD1     H 3359   4.706   2.197  16.750  1.0909  1.4999 -2.0829
  221MPD1    H1 3360   0.046   2.562  16.948 -0.8913 -1.1691  2.5829
  221MPD1    H2 3361   4.386   2.397  16.959 -0.9723  2.7628  0.0016
  221MPD1    H3 3362   4.538   2.564  17.023 -2.9975 -1.2028 -0.0272
  221MPD1     N 3363   0.167   2.387  16.798  0.4454  0.4294  0.0097
  221MPD1    H5 3364   0.228   2.459  16.836  2.6970  0.7079 -4.1630
  221MPD1    N1 3365   4.449   2.182  16.795  0.0645  0.3518 -0.2900
  221MPD1    H6 3366   4.481   2.140  16.708 -2.3159 -0.6838 -0.6572
  221MPD1    H7 3367   4.357   2.219  16.773 -0.7125 -1.2888  0.2110
  222MPD1     C 3368   0.620   0.696  17.266  0.0468  0.7527 -0.1307
  222MPD1    C1 3369   0.615   0.833  17.281  0.0693  0.1094  0.2169
  222MPD1    C2 3370   0.511   0.896  17.211  0.3502 -0.5733  0.7421
  222MPD1    C3 3371   0.432   0.836  17.116 -1.0960 -0.1761  0.3316
  222MPD1    C4 3372   0.448   0.698  17.108 -0.3289  0.2412 -0.2281
  222MPD1    C5 3373   0.544   0.626  17.174  0.7123  0.0010  0.2220
  222MPD1     H 3374   0.498   1.002  17.233  0.4031 -0.7660  1.7132
  222MPD1    H1 3375   0.384   0.647  17.036  0.3836  1.0699 -1.4524
  222MPD1    H2 3376   0.697   0.638  17.316 -1.0715  1.0181  1.8719
  222MPD1    H3 3377   0.554   0.521  17.153 -0.2339  0.0496 -0.5032
  222MPD1     N 3378   0.330   0.897  17.029  0.4532 -0.2594 -0.0685
  222MPD1    H5 3379   0.280   0.827  16.975  0.0592  1.0164 -1.3463
  222MPD1    N1 3380   0.686   0.894  17.384 -0.4322  0.0699  0.0924
  222MPD1    H6 3381   0.702   0.994  17.370 -0.6368  0.3690  1.9285
  222MPD1    H7 3382   0.771   0.841  17.404  0.2622  1.2105  0.1682
  223MPD1     C 3383   4.159   0.715  17.217 -0.0849 -0.3635  0.7778
  223MPD1    C1 3384   4.158   0.846  17.259  0.5279  0.4679 -0.0268
  223MPD1    C2 3385   4.252   0.927  17.201  0.1076 -0.2299 -0.4687
  223MPD1    C3 3386   4.341   0.881  17.104  0.0620 -0.3721 -0.4939
  223MPD1    C4 3387   4.327   0.754  17.057  0.9047 -0.0119  0.6908
  223MPD1    C5 3388   4.227   0.673  17.109 -0.0837  0.1159 -0.0427
  223MPD1     H 3389   4.271   1.029  17.231 -2.5580  0.0172  0.3289
  223MPD1    H1 3390   4.387   0.720  16.974 -2.1310 -1.5832 -0.8324
  223MPD1    H2 3391   4.078   0.649  17.247 -0.9132  0.9912  1.5628
  223MPD1    H3 3392   4.206   0.572  17.076 -1.6897  0.2407  0.6044
  223MPD1     N 3393   4.439   0.972  17.050  0.6354  0.1882 -0.6864
  223MPD1    H5 3394   4.449   1.062  17.097  0.7088 -0.4339  0.5006
  223MPD1    N1 3395   4.101   0.889  17.375 -0.2249 -0.9571 -0.1485
  223MPD1    H6 3396   4.012   0.840  17.382  0.4955 -2.1547  0.6498
  223MPD1    H7 3397   4.088   0.989  17.388 -0.8713 -1.0483 -0.0871
  224MPD1     C 3398   0.989   2.293   8.752  0.4063  0.2111  0.3935
  224MPD1    C1 3399   1.062   2.187   8.791 -0.5583  0.3348  0.3491
  224MPD1    C2 3400   1.058   2.151   8.930 -0.6980 -0.0939  0.3913
  224MPD1    C3 3401   0.977   2.214   9.024 -0.4356 -0.1694  0.0934
  224MPD1    C4 3402   0.904   2.315   8.972  0.5790 -0.1884 -0.1228
  224MPD1    C5 3403   0.905   2.353   8.845  0.2789  0.7323 -0.6740
  224MPD1     H 3404   1.103   2.060   8.968  1.7810  1.5019  1.2986
  224MPD1    H1 3405   0.836   2.369   9.037  2.8186  2.7550 -0.2902
  224MPD1    H2 3406   1.002   2.339   8.654 -0.6773  0.1378  0.2152
  224MPD1    H3 3407   0.846   2.438   8.813 -0.7671  1.3338  2.9432
  224MPD1     N 3408   0.961   2.185   9.161 -0.4698  0.0324 -0.4785
  224MPD1    H5 3409   0.903   2.247   9.217 -1.6157 -0.9521 -0.5712
  224MPD1    N1 3410   1.149   2.126   8.696 -0.0261 -0.4045 -0.2980
  224MPD1    H6 3411   1.169   2.027   8.703 -2.1782 -0.9406 -1.8316
  224MPD1    H7 3412   1.098   2.135   8.608 -0.4521  0.8837  0.0807
  225MPD1     C 3413   2.977   3.631  12.239 -0.6851  0.5232 -0.1353
  225MPD1    C1 3414   2.917   3.579  12.136  0.2261 -0.2209  0.0169
  225MPD1    C2 3415   2.778   3.589  12.125 -0.2584  0.1450 -0.4706
  225MPD1    C3 3416   2.706   3.634  12.232 -0.3531 -0.4431 -0.8114
  225MPD1    C4 3417   2.771   3.679  12.344  0.1367  0.4860 -0.5033
  225MPD1    C5 3418   2.905   3.681  12.344  0.0799 -0.0818 -0.0209
  225MPD1     H 3419   2.727   3.549  12.038 -0.5316 -1.4342  0.4305
  225MPD1    H1 3420   2.729   3.724  12.432 -1.2137  1.4118 -1.6341
  225MPD1    H2 3421   3.085   3.641  12.248 -0.5164  0.7326 -2.3323
  225MPD1    H3 3422   2.953   3.731  12.427  0.4756 -2.3672  1.1355
  225MPD1     N 3423   2.563   3.646  12.234 -0.6211  0.7152 -0.8114
  225MPD1    H5 3424   2.533   3.701  12.314  1.4166  0.9883 -0.2159
  225MPD1    N1 3425   2.994   3.541  12.029  0.1980  0.0847  0.0959
  225MPD1    H6 3426   3.080   3.491  12.050 -0.1767 -1.0250 -1.0072
  225MPD1    H7 3427   2.949   3.474  11.967  0.5478  1.3014 -1.4719
  226MPD1     C 3428   1.245   3.524   9.439 -0.1486  0.0545  0.2192
  226MPD1    C1 3429   1.167   3.427   9.496 -0.2222  0.5411  0.6784
  226MPD1    C2 3430   1.181   3.398   9.631 -1.0140  0.0254 -0.1953
  226MPD1    C3 3431   1.267   3.472   9.711 -0.3417 -0.6890 -0.0347
  226MPD1    C4 3432   1.339   3.578   9.653 -0.3904  0.0474  0.1392
  226MPD1    C5 3433   1.323   3.600   9.521 -0.6350 -0.0280  0.6226
  226MPD1     H 3434   1.127   3.317   9.678  0.0125 -0.3363  0.3826
  226MPD1    H1 3435   1.404   3.647   9.706 -0.1754 -1.6917  2.1632
  226MPD1    H2 3436   1.249   3.543   9.332  0.0640  2.3622  0.6208
  226MPD1    H3 3437   1.364   3.689   9.476  0.0658 -0.1821  0.9561
  226MPD1     N 3438   1.266   3.445   9.849 -0.5247 -0.7510  0.1722
  226MPD1    H5 3439   1.198   3.373   9.872  0.9822 -1.9996  0.7651
  226MPD1    N1 3440   1.115   3.329   9.414 -0.8112 -1.0284  0.4909
  226MPD1    H6 3441   1.094   3.365   9.321  2.6135  1.9062  0.8706
  226MPD1    H7 3442   1.028   3.286   9.447 -0.5253 -0.2474  2.2417
  227MPD1     C 3443   1.664   3.711  10.849 -0.3772 -0.0885  0.2220
  227MPD1    C1 3444   1.558   3.620  10.864 -0.0101 -0.6446 -0.0226
  227MPD1    C2 3445   1.497   3.566  10.749 -0.1054 -0.1944  0.5028
  227MPD1    C3 3446   1.534   3.608  10.626 -0.4442  0.6415  0.3880
  227MPD1    C4 3447   1.642   3.701  10.614  0.2107  1.1389 -0.3030
  227MPD1    C5 3448   1.707   3.750  10.724  0.4830  0.8680  0.2977
  227MPD1     H 3449   1.417   3.493  10.758 -1.0679  0.6182 -1.5690
  227MPD1    H1 3450   1.670   3.735  10.515 -3.2400  0.8559 -1.3859
  227MPD1    H2 3451   1.715   3.752  10.936  1.2261 -0.7971 -0.3673
  227MPD1    H3 3452   1.793   3.813  10.710  1.8422 -1.5416 -2.0817
  227MPD1     N 3453   1.460   3.562  10.515 -0.5781 -0.2408  0.0158
  227MPD1    H5 3454   1.376   3.509  10.538 -1.3788  1.4785  1.0601
  227MPD1    N1 3455   1.539   3.563  10.992 -0.3232  0.0944  0.1630
  227MPD1    H6 3456   1.441   3.537  10.999  0.0755 -0.8698  2.1457
  227MPD1    H7 3457   1.569   3.633  11.061 -2.7411 -0.1037  1.4208
  228MPD1     C 3458   4.277   1.499  12.513  0.6389 -0.1144  0.4118
  228MPD1    C1 3459   4.188   1.561  12.428  0.1231 -0.0246 -0.4093
  228MPD1    C2 3460   4.055   1.538  12.453 -0.2756 -0.0534 -0.5022
  228MPD1    C3 3461   4.021   1.486  12.578 -0.5754 -0.5672  0.0096
  228MPD1    C4 3462   4.107   1.439  12.671  0.2837  0.1315  0.2498
  228MPD1    C5 3463   4.238   1.445  12.631 -0.0012  0.2680 -0.5381
  228MPD1     H 3464   3.977   1.583  12.392 -1.5337 -0.7151  0.6120
  228MPD1    H1 3465   4.087   1.392  12.766  2.1952 -1.6633 -0.2551
  228MPD1    H2 3466   4.383   1.498  12.490  0.5280 -0.7530 -0.0880
  228MPD1    H3 3467   4.312   1.407  12.701 -0.7811 -0.2663 -0.0026
  228MPD1     N 3468   3.878   1.470  12.595 -0.4095  0.2090 -0.7143
  228MPD1    H5 3469   3.814   1.493  12.520  0.7455 -1.4158 -2.1875
  228MPD1    N1 3470   4.236   1.616  12.307  0.0079 -0.1257  0.2245
  228MPD1    H6 3471   4.172   1.681  12.262  2.0881  0.8932 -1.2875
  228MPD1    H7 3472   4.323   1.665  12.331  0.4327 -0.8961  0.2785
  229MPD1     C 3473   3.932   0.761  14.188 -0.4473  0.2884 -0.2734
  229MPD1    C1 3474   4.001   0.669  14.254  0.1728 -0.6308  0.2483
  229MPD1    C2 3475   3.948   0.620  14.371 -0.1478 -0.8156 -0.2582
  229MPD1    C3 3476   3.831   0.656  14.422 -0.6841  0.1281  0.0478
  229MPD1    C4 3477   3.743   0.732  14.348 -0.7938 -0.6816 -0.2836
  229MPD1    C5 3478   3.802   0.785  14.231  0.6462 -0.0542 -0.1021
  229MPD1     H 3479   4.022   0.564  14.427  0.5784 -1.1969 -1.5942
  229MPD1    H1 3480   3.641   0.750  14.380 -0.4695  0.7133 -0.0624
  229MPD1    H2 3481   3.968   0.813  14.100 -1.4084  0.7104 -0.4258
  229MPD1    H3 3482   3.730   0.840  14.172 -2.0102 -1.0178  2.2124
  229MPD1     N 3483   3.774   0.600  14.542 -0.9004 -0.4510  0.0076
  229MPD1    H5 3484   3.681   0.637  14.564  0.0434  2.5859 -1.0733
  229MPD1    N1 3485   4.125   0.626  14.203 -0.1524 -0.4515 -0.2296
  229MPD1    H6 3486   4.186   0.695  14.161  1.8060 -3.1821 -1.8585
  229MPD1    H7 3487   4.178   0.583  14.279  0.9295  1.6623  0.1965
  230MPD1     C 3488   3.709   0.708  15.527  0.3119  0.3565  0.2545
  230MPD1    C1 3489   3.812   0.623  15.482  0.0369  0.0321 -0.1417
  230MPD1    C2 3490   3.790   0.551  15.366  0.4556 -0.3154  0.5952
  230MPD1    C3 3491   3.690   0.579  15.278  0.2993 -0.4326 -0.0072
  230MPD1    C4 3492   3.596   0.666  15.322  0.2522 -0.0580 -0.5144
  230MPD1    C5 3493   3.605   0.732  15.445 -0.0909  0.3874  0.0188
  230MPD1     H 3494   3.855   0.466  15.351 -0.3675 -0.7394 -0.5642
  230MPD1    H1 3495   3.519   0.695  15.251 -2.0809 -3.0544  0.8015
  230MPD1    H2 3496   3.708   0.763  15.620  2.4972 -0.0782  0.5432
  230MPD1    H3 3497   3.533   0.807  15.478 -2.3084 -1.2741 -1.0942
  230MPD1     N 3498   3.695   0.522  15.150  0.5505  0.8585 -0.1574
  230MPD1    H5 3499   3.756   0.443  15.134  0.1959  0.8093 -1.1979
  230MPD1    N1 3500   3.919   0.595  15.568  0.2129 -0.5648  0.4953
  230MPD1    H6 3501   4.001   0.562  15.518  0.2604  0.2683  0.0239
  230MPD1    H7 3502   3.942   0.678  15.621  0.5657 -0.2464 -0.1495
  231MPD1     C 3503   2.425   2.824  15.988 -0.5745 -0.5916  0.0964
  231MPD1    C1 3504   2.501   2.904  15.900 -0.0525 -0.3421 -0.1577
  231MPD1    C2 3505   2.485   2.887  15.760 -0.4265  0.1147  0.0545
  231MPD1    C3 3506   2.418   2.772  15.725 -0.3940  0.0510  0.0477
  231MPD1    C4 3507   2.327   2.701  15.819 -0.3191  0.3264  0.3603
  231MPD1    C5 3508   2.347   2.718  15.952 -0.5164 -0.1938  0.1228
  231MPD1     H 3509   2.547   2.945  15.693 -2.0666  2.6321  0.7024
  231MPD1    H1 3510   2.256   2.624  15.793 -0.0533  0.8784 -2.0298
  231MPD1    H2 3511   2.415   2.858  16.090  1.4554 -1.7673  0.6697
  231MPD1    H3 3512   2.282   2.663  16.019  0.8376 -0.7148  1.0225
  231MPD1     N 3513   2.419   2.742  15.590  0.2760  0.5228  1.0809
  231MPD1    H5 3514   2.457   2.805  15.520 -0.3152 -1.5290 -1.0880
  231MPD1    N1 3515   2.570   3.018  15.934  0.0274  0.3027 -0.8215
  231MPD1    H6 3516   2.620   3.005  16.022  0.1874 -0.0505 -0.9654
  231MPD1    H7 3517   2.635   3.053  15.864 -2.5091  0.5339 -3.0776
  232MPD1     C 3518   4.052   0.308   0.074 -0.4452  0.4321 -0.0127
  232MPD1    C1 3519   4.019   0.204   0.159  0.1832 -0.4689  0.3266
  232MPD1    C2 3520   3.905   0.192   0.226 -0.0384 -0.1268 -0.8293
  232MPD1    C3 3521   3.808   0.287   0.198  0.4793  0.0042 -0.0316
  232MPD1    C4 3522   3.838   0.390   0.113  0.2279  0.3051  0.5872
  232MPD1    C5 3523   3.956   0.402   0.051 -0.0593 -0.1170 -0.1895
  232MPD1     H 3524   3.892   0.111   0.296 -2.1436  1.8632  1.0788
  232MPD1    H1 3525   3.773   0.475   0.094 -1.5527 -1.3174 -0.6389
  232MPD1    H2 3526   4.143   0.313   0.015  0.5627  0.2667  1.5274
  232MPD1    H3 3527   3.976   0.485  17.684 -0.5842 -0.4815 -0.8070
  232MPD1     N 3528   3.688   0.285   0.275 -0.2159 -0.1188  0.1696
  232MPD1    H5 3529   3.691   0.228   0.359 -0.7211 -1.2636 -0.5837
  232MPD1    N1 3530   4.111   0.097   0.167 -0.2018  0.0399 -0.2652
  232MPD1    H6 3531   4.102   0.042   0.252 -1.1325  0.6932  0.0623
  232MPD1    H7 3532   4.210   0.118   0.162 -0.1054 -0.3968 -0.1455
  233MPD1     C 3533   3.429   2.692   1.377 -0.2321 -0.1943  0.3003
  233MPD1    C1 3534   3.445   2.616   1.262 -0.6808 -0.2021 -0.1651
  233MPD1    C2 3535   3.559   2.533   1.256 -0.0257 -0.9199  0.4621
  233MPD1    C3 3536   3.647   2.528   1.360 -0.0125  1.2681 -0.3208
  233MPD1    C4 3537   3.632   2.613   1.470  0.2264  0.4868 -0.1746
  233MPD1    C5 3538   3.520   2.691   1.479  0.1608 -0.1867 -0.5848
  233MPD1     H 3539   3.557   2.455   1.182  2.6357 -0.2667 -0.3163
  233MPD1    H1 3540   3.700   2.599   1.553 -0.1581  1.0958  0.2490
  233MPD1    H2 3541   3.346   2.760   1.395 -0.0106  0.0477  0.4043
  233MPD1    H3 3542   3.510   2.759   1.563  0.5607  0.2118 -0.8641
  233MPD1     N 3543   3.760   2.447   1.367  0.5049  0.5116  0.1954
  233MPD1    H5 3544   3.810   2.448   1.455  2.7729  0.0250 -1.0839
  233MPD1    N1 3545   3.332   2.585   1.183 -0.8473 -0.0623 -0.0334
  233MPD1    H6 3546   3.258   2.656   1.189  0.1370  0.9677 -0.0710
  233MPD1    H7 3547   3.353   2.585   1.084  1.4409 -0.9569  0.4488
  234MPD1     C 3548   2.039   0.994  10.573 -0.0841 -0.0458 -0.1606
  234MPD1    C1 3549   1.983   0.918  10.476 -0.3098  0.2634  0.5798
  234MPD1    C2 3550   1.879   0.965  10.402  0.5018  0.3335  0.7754
  234MPD1    C3 3551   1.846   1.093  10.423  0.1330 -0.2473  0.0158
  234MPD1    C4 3552   1.915   1.173  10.509 -0.6315 -0.9775  0.8029
  234MPD1    C5 3553   2.012   1.124  10.591 -0.0179  0.1993 -0.2089
  234MPD1     H 3554   1.823   0.891  10.345 -1.6744  2.1576  0.5305
  234MPD1    H1 3555   1.892   1.279  10.505 -2.1503 -1.3857 -1.3552
  234MPD1    H2 3556   2.124   0.956  10.629  1.6804  0.9279 -2.2009
  234MPD1    H3 3557   2.063   1.194  10.657 -0.2252  0.8735 -0.7611
  234MPD1     N 3558   1.750   1.146  10.337  0.0823  0.4049 -0.6187
  234MPD1    H5 3559   1.717   1.080  10.267 -1.2052  0.5372 -0.1292
  234MPD1    N1 3560   2.012   0.783  10.474  0.1532 -0.0611  0.3732
  234MPD1    H6 3561   2.016   0.745  10.379  1.5463  1.4177 -0.1586
  234MPD1    H7 3562   2.098   0.757  10.523 -0.1630  0.1128  1.0191
  235MPD1     C 3563   3.072   3.036  10.251  0.1156  0.4196  0.3510
  235MPD1    C1 3564   3.083   3.088  10.128  0.4269  0.4377  0.9080
  235MPD1    C2 3565   3.193   3.172  10.104  0.2630 -0.2489 -0.0591
  235MPD1    C3 3566   3.278   3.218  10.199  1.0405  0.5568 -0.1416
  235MPD1    C4 3567   3.265   3.167  10.329  0.2019  0.7726 -0.2473
  235MPD1    C5 3568   3.168   3.073  10.352  0.2255  0.1572  0.1226
  235MPD1     H 3569   3.210   3.210  10.004 -0.4568 -2.0328 -0.8569
  235MPD1    H1 3570   3.338   3.187  10.407  0.0365 -1.7940  0.5480
  235MPD1    H2 3571   3.008   2.954  10.281 -1.2597  2.1503  2.1718
  235MPD1    H3 3572   3.180   3.022  10.447 -1.0208 -1.9149 -0.8570
  235MPD1     N 3573   3.392   3.297  10.158 -0.1355  0.8848 -0.3976
  235MPD1    H5 3574   3.416   3.303  10.060  0.2123  0.4818 -0.3363
  235MPD1    N1 3575   3.005   3.039  10.019 -0.2048  0.2484 -0.1768
  235MPD1    H6 3576   2.919   3.006  10.062  0.0078 -0.8774 -0.6039
  235MPD1    H7 3577   2.993   3.099   9.938 -1.8290 -0.5746 -0.5547
  236MPD1     C 3578   2.596   4.365  10.213 -0.2631  0.0085  0.6248
  236MPD1    C1 3579   2.707   4.423  10.269  1.0545  0.1746 -0.4898
  236MPD1    C2 3580   2.807   4.344  10.328 -0.2968 -0.0134  0.0984
  236MPD1    C3 3581   2.789   4.203  10.334 -0.3307  0.3558  0.0517
  236MPD1    C4 3582   2.677   4.142  10.283  0.2427 -0.2272 -0.0762
  236MPD1    C5 3583   2.582   4.225  10.222  1.3840 -0.1345 -0.5418
  236MPD1     H 3584   2.903   4.389  10.352  0.7373 -1.9654 -0.3520
  236MPD1    H1 3585   2.653   4.037  10.287  2.2032 -0.6764  0.2904
  236MPD1    H2 3586   2.519   4.428  10.169 -0.1561 -1.4883 -1.6840
  236MPD1    H3 3587   2.489   4.191  10.179 -0.0395  1.6561  1.1308
  236MPD1     N 3588   2.894   4.114  10.363 -0.5462  0.3152  0.3589
  236MPD1    H5 3589   2.876   4.015  10.354 -0.9498  0.5640 -1.6522
  236MPD1    N1 3590   2.728   4.559  10.262 -0.5757  0.6211 -0.3760
  236MPD1    H6 3591   2.709   4.601  10.171  1.8962 -0.9766 -1.6160
  236MPD1    H7 3592   2.809   4.597  10.310  1.0857 -2.9326 -0.4030
  237MPD1     C 3593   2.037   3.412  15.739  0.6578  0.0230  0.1551
  237MPD1    C1 3594   1.986   3.338  15.845  0.0702 -0.4690 -0.2975
  237MPD1    C2 3595   1.847   3.326  15.850  0.9001 -0.5542  0.0892
  237MPD1    C3 3596   1.770   3.409  15.768  0.9892  0.7268  0.4588
  237MPD1    C4 3597   1.828   3.495  15.679  0.2658  0.7083 -0.3636
  237MPD1    C5 3598   1.959   3.495  15.664  0.2092  0.5970  0.0387
  237MPD1     H 3599   1.802   3.246  15.908  0.9648  0.4412  1.5095
  237MPD1    H1 3600   1.770   3.563  15.618 -1.7370  1.1448  2.0326
  237MPD1    H2 3601   2.144   3.422  15.720  0.5881 -2.3632 -1.4156
  237MPD1    H3 3602   2.002   3.564  15.592 -1.3623  0.1722 -1.3244
  237MPD1     N 3603   1.629   3.419  15.783 -0.0488  0.3475 -0.5609
  237MPD1    H5 3604   1.572   3.451  15.706 -1.4663 -1.8151 -0.4264
  237MPD1    N1 3605   2.065   3.241  15.911  0.6795  0.3579  0.1673
  237MPD1    H6 3606   2.163   3.268  15.923  0.9052 -1.1120  1.6202
  237MPD1    H7 3607   2.032   3.220  16.005  0.2650  1.3738  0.2578
  238MPD1     C 3608   4.155   2.203  15.048 -0.6402 -0.5269  0.5925
  238MPD1    C1 3609   4.124   2.114  15.153 -0.0285  0.0050 -0.1951
  238MPD1    C2 3610   3.998   2.076  15.151  0.1745 -0.0011  0.1849
  238MPD1    C3 3611   3.906   2.102  15.047 -0.2989 -1.1334 -0.5489
  238MPD1    C4 3612   3.946   2.175  14.940  0.6341  0.7431 -0.1041
  238MPD1    C5 3613   4.069   2.233  14.946  0.1277 -0.1440 -0.2056
  238MPD1     H 3614   3.959   2.031  15.241 -0.8459 -2.3134 -1.4207
  238MPD1    H1 3615   3.877   2.192  14.858 -1.1821  0.0937  1.2885
  238MPD1    H2 3616   4.247   2.259  15.047 -1.3489  0.6619  1.6390
  238MPD1    H3 3617   4.096   2.289  14.858 -1.3962 -0.8661 -1.1325
  238MPD1     N 3618   3.769   2.062  15.039 -0.0309  0.8616 -0.0733
  238MPD1    H5 3619   3.717   2.090  14.957 -1.4699  0.6118  0.7529
  238MPD1    N1 3620   4.208   2.106  15.268 -0.3570 -0.8970  0.6060
  238MPD1    H6 3621   4.299   2.111  15.223  0.1264 -0.2690  1.6595
  238MPD1    H7 3622   4.190   2.017  15.312 -1.9884 -0.4627  0.8078
  239MPD1     C 3623   4.448   2.872  14.823 -0.0395 -0.1952 -0.1947
  239MPD1    C1 3624   4.314   2.872  14.849 -0.2790 -0.0396 -0.1977
  239MPD1    C2 3625   4.227   2.875  14.740 -0.1289  0.1364 -0.0751
  239MPD1    C3 3626   4.279   2.866  14.610  0.6095 -0.1131 -0.0822
  239MPD1    C4 3627   4.419   2.856  14.591 -0.1933 -0.0110 -0.4910
  239MPD1    C5 3628   4.498   2.853  14.699  0.6106 -0.2958 -0.8254
  239MPD1     H 3629   4.121   2.883  14.762  0.1371  1.1600  0.7829
  239MPD1    H1 3630   4.465   2.856  14.493  0.2192 -4.2724 -0.3179
  239MPD1    H2 3631   4.522   2.881  14.902 -2.1417 -2.8916  2.0536
  239MPD1    H3 3632   4.605   2.835  14.687  1.0152  2.3377 -1.2539
  239MPD1     N 3633   4.204   2.872  14.490 -0.1141 -0.1967  0.1246
  239MPD1    H5 3634   4.257   2.869  14.404  0.5212 -1.5057  0.5696
  239MPD1    N1 3635   4.267   2.886  14.979  0.3124  0.2977  0.0755
  239MPD1    H6 3636   4.198   2.815  15.000 -0.6132  1.3896  0.7268
  239MPD1    H7 3637   4.346   2.868  15.041  1.0034  0.1137 -0.8583
  240MPD1     C 3638   3.903   1.975  13.931 -0.4283  0.2303 -0.2909
  240MPD1    C1 3639   3.893   1.903  14.042 -0.2983 -0.2101  0.9478
  240MPD1    C2 3640   3.826   1.953  14.153 -0.2662 -0.4661  0.1189
  240MPD1    C3 3641   3.769   2.079  14.142 -0.2701 -0.3379 -0.2595
  240MPD1    C4 3642   3.790   2.151  14.034  0.2970  0.1206  0.3504
  240MPD1    C5 3643   3.870   2.107  13.931 -0.3497 -0.1489 -0.2067
  240MPD1     H 3644   3.815   1.892  14.242  0.3409 -1.8037 -0.7117
  240MPD1    H1 3645   3.741   2.248  14.023  2.8475  1.2919 -0.7387
  240MPD1    H2 3646   3.946   1.942  13.838 -0.5674 -0.8075  0.0071
  240MPD1    H3 3647   3.879   2.167  13.842 -0.1397 -1.6074 -1.1556
  240MPD1     N 3648   3.680   2.125  14.242 -0.0391 -0.8196 -0.0978
  240MPD1    H5 3649   3.685   2.092  14.338 -0.7640 -1.8614 -0.4201
  240MPD1    N1 3650   3.926   1.768  14.034  0.0443  0.0173 -0.8390
  240MPD1    H6 3651   4.008   1.751  13.976  0.4873  0.7162 -0.4356
  240MPD1    H7 3652   3.946   1.733  14.128 -0.2526  0.1813 -0.7168
  241MPD1     C 3653   3.504   2.340  15.199 -0.7860  0.2000 -0.3679
  241MPD1    C1 3654   3.615   2.350  15.117 -0.6548  0.8035  0.2196
  241MPD1    C2 3655   3.594   2.334  14.980 -0.2166  0.2718  0.1033
  241MPD1    C3 3656   3.468   2.305  14.930 -0.4278  0.1831  0.0119
  241MPD1    C4 3657   3.360   2.322  15.014  0.6727  0.2231 -0.3810
  241MPD1    C5 3658   3.380   2.336  15.148 -0.5451 -0.8718  1.3666
  241MPD1     H 3659   3.679   2.338  14.913 -0.5665 -0.8150 -0.4088
  241MPD1    H1 3660   3.262   2.306  14.969  0.3671 -0.5348  0.5493
  241MPD1    H2 3661   3.513   2.347  15.307 -0.3988  1.3647 -0.4762
  241MPD1    H3 3662   3.289   2.351  15.206 -0.7099 -0.0318  0.8815
  241MPD1     N 3663   3.439   2.268  14.794 -0.2987  0.6894  0.1329
  241MPD1    H5 3664   3.342   2.265  14.765 -0.7396 -0.5653  1.7382
  241MPD1    N1 3665   3.742   2.371  15.165 -0.5748 -0.8474 -0.1663
  241MPD1    H6 3666   3.809   2.336  15.097 -0.4426  2.0365 -1.5300
  241MPD1    H7 3667   3.762   2.322  15.252  0.7080  0.6617  0.4040
  242MPD1     C 3668   2.903   0.523  15.938  0.2431 -0.1936  0.4509
  242MPD1    C1 3669   2.804   0.611  15.891 -0.5431 -0.4668 -0.3142
  242MPD1    C2 3670   2.818   0.687  15.774  0.6102  0.0028  0.2687
  242MPD1    C3 3671   2.919   0.658  15.687 -0.5166 -0.3885 -0.6142
  242MPD1    C4 3672   3.012   0.565  15.728 -0.6101  0.0369  0.8077
  242MPD1    C5 3673   3.008   0.505  15.851 -0.3030  0.6899  0.0728
  242MPD1     H 3674   2.738   0.758  15.754 -0.7093 -1.3002  0.8832
  242MPD1    H1 3675   3.090   0.536  15.658 -1.1213 -1.3822  0.8153
  242MPD1    H2 3676   2.891   0.470  16.032 -0.1158  1.0465  1.0910
  242MPD1    H3 3677   3.087   0.436  15.878 -1.2717 -0.4349  0.0178
  242MPD1     N 3678   2.938   0.733  15.567 -0.5143  0.6051 -0.0056
  242MPD1    H5 3679   3.021   0.705  15.516  0.0007 -2.1105  2.3288
  242MPD1    N1 3680   2.699   0.655  15.984 -0.5260  0.4315 -0.2149
  242MPD1    H6 3681   2.667   0.594  16.059  2.3781  1.0166  1.4821
  242MPD1    H7 3682   2.621   0.713  15.953 -0.2532  0.0525 -1.5944
  243MPD1     C 3683   0.498   4.132  17.043 -0.0601  0.4669 -0.6669
  243MPD1    C1 3684   0.409   4.205  17.111  0.1895 -0.3840 -0.6716
  243MPD1    C2 3685   0.292   4.243  17.051 -0.6469 -0.0165 -0.8299
  243MPD1    C3 3686   0.265   4.218  16.916  0.0199 -0.2092  0.4964
  243MPD1    C4 3687   0.359   4.148  16.848  0.3020  0.2937 -0.2349
  243MPD1    C5 3688   0.475   4.102  16.913  0.6157  1.0338  0.4910
  243MPD1     H 3689   0.217   4.276  17.123  1.8364 -0.2077  1.8289
  243MPD1    H1 3690   0.354   4.118  16.744  0.1497 -0.3226 -0.0530
  243MPD1    H2 3691   0.591   4.090  17.078 -1.1900 -0.5661  1.0551
  243MPD1    H3 3692   0.547   4.035  16.866 -0.8936 -0.5717  0.4578
  243MPD1     N 3693   0.137   4.251  16.856  0.0166 -0.1266  0.6128
  243MPD1    H5 3694   0.064   4.307  16.898 -0.7335 -0.4527 -0.2567
  243MPD1    N1 3695   0.420   4.202  17.254  0.1560  0.3180  0.7888
  243MPD1    H6 3696   0.355   4.251  17.314  1.3383  2.0203  0.7130
  243MPD1    H7 3697   0.510   4.221  17.298 -0.0665 -0.0286  1.3932
  244MPD1     C 3698   4.135   4.161  17.241  0.7840  0.0745  0.4527
  244MPD1    C1 3699   4.251   4.229  17.261  0.0116 -0.4196 -0.2316
  244MPD1    C2 3700   4.328   4.260  17.142 -0.0582  0.0712  0.8794
  244MPD1    C3 3701   4.294   4.211  17.019  0.1360  0.4656  0.2514
  244MPD1    C4 3702   4.184   4.126  17.005  1.0504 -0.0062 -0.1608
  244MPD1    C5 3703   4.102   4.111  17.119 -0.0294  0.3818  0.3743
  244MPD1     H 3704   4.418   4.317  17.160  0.8138 -0.4860 -1.7415
  244MPD1    H1 3705   4.159   4.067  16.918  2.0099 -0.1199 -0.3562
  244MPD1    H2 3706   4.074   4.137  17.328  0.6793  1.4781  0.7667
  244MPD1    H3 3707   4.013   4.050  17.105  0.4392  0.5181 -3.1027
  244MPD1     N 3708   4.384   4.226  16.912  0.3458 -0.4278 -0.1821
  244MPD1    H5 3709   4.467   4.284  16.916 -2.5150  3.6975 -1.1840
  244MPD1    N1 3710   4.281   4.276  17.381 -0.2150  0.6000 -0.5089
  244MPD1    H6 3711   4.380   4.302  17.390 -0.4942  0.5306  2.8659
  244MPD1    H7 3712   4.269   4.217  17.463 -2.3760  0.5881 -0.8395
  245MPD1     C 3713   1.881   4.585  13.281 -1.0924 -0.2124 -0.3641
  245MPD1    C1 3714   1.840   4.719  13.278  0.2492  0.5380 -0.3277
  245MPD1    C2 3715   1.905   0.090  13.349  0.3634 -0.3224  0.1484
  245MPD1    C3 3716   2.012   0.053  13.434  0.3252  0.2392  1.2795
  245MPD1    C4 3717   2.046   4.645  13.438  0.1900  0.0321  0.4149
  245MPD1    C5 3718   1.980   4.554  13.362 -0.4258 -0.2414  0.3073
  245MPD1     H 3719   1.874   0.194  13.337  1.1762 -0.1936 -0.8466
  245MPD1    H1 3720   2.132   4.614  13.497  0.2590 -0.8936 -0.1639
  245MPD1    H2 3721   1.828   4.505  13.230 -2.3295 -0.4698  1.3436
  245MPD1    H3 3722   2.002   4.449  13.374  1.2957  0.3119  2.0093
  245MPD1     N 3723   2.077   0.151  13.509  0.2886  0.6826 -0.4400
  245MPD1    H5 3724   2.049   0.245  13.481 -0.1507 -0.1021 -2.6334
  245MPD1    N1 3725   1.731   0.036  13.205 -0.4352  0.2113  0.0299
  245MPD1    H6 3726   1.724   4.721  13.111 -0.8151  0.0398  0.1302
  245MPD1    H7 3727   1.713   0.136  13.197  1.2399  0.5194 -0.0092
  246MPD1     C 3728   2.881   1.337  10.026  0.4271  0.3019 -0.0200
  246MPD1    C1 3729   2.886   1.449   9.951  0.2156 -0.0679 -0.3500
  246MPD1    C2 3730   2.819   1.442   9.829 -0.2637 -0.7488 -0.5537
  246MPD1    C3 3731   2.725   1.342   9.800  0.3894  0.5004  0.1647
  246MPD1    C4 3732   2.722   1.233   9.883  0.9901 -0.4394 -0.2361
  246MPD1    C5 3733   2.806   1.229   9.993  0.0471 -0.3587 -0.4979
  246MPD1     H 3734   2.812   1.533   9.772 -1.4161 -1.2953 -1.2753
  246MPD1    H1 3735   2.658   1.146   9.882 -2.3833  1.9982  1.4005
  246MPD1    H2 3736   2.932   1.335  10.121  1.2087 -0.0617 -0.4488
  246MPD1    H3 3737   2.802   1.147  10.063  1.4845 -1.0294 -1.2174
  246MPD1     N 3738   2.630   1.361   9.692 -0.5624  0.3724 -0.7554
  246MPD1    H5 3739   2.640   1.450   9.644 -1.0849  0.8496  0.0157
  246MPD1    N1 3740   2.967   1.556   9.983  0.2422 -0.1063  0.4821
  246MPD1    H6 3741   2.945   1.641   9.933 -1.5405 -1.0220 -0.3003
  246MPD1    H7 3742   2.970   1.579  10.082  1.4616  2.3473 -0.1412
  247MPD1     C 3743   0.558   4.358  16.222 -0.3130  0.9150  0.3104
  247MPD1    C1 3744   0.674   4.421  16.243 -0.1316  0.2450  0.0922
  247MPD1    C2 3745   0.769   4.419  16.139  1.4635  0.4685  0.3137
  247MPD1    C3 3746   0.740   4.359  16.023 -0.5071  0.5165  0.0464
  247MPD1    C4 3747   0.617   4.293  16.005 -0.3815 -0.4648 -0.4707
  247MPD1    C5 3748   0.533   4.295  16.104 -0.4912 -0.0740 -0.1019
  247MPD1     H 3749   0.862   4.472  16.155  0.1911  2.7876 -0.0196
  247MPD1    H1 3750   0.585   4.245  15.913 -0.3355  0.6413 -1.0665
  247MPD1    H2 3751   0.480   4.357  16.298 -0.9521  0.3862 -0.3558
  247MPD1    H3 3752   0.432   4.256  16.094 -1.0790  1.2200  0.7440
  247MPD1     N 3753   0.816   4.375  15.905 -0.2728  0.1351  0.1840
  247MPD1    H5 3754   0.776   4.352  15.815  0.8236 -0.6667 -0.0995
  247MPD1    N1 3755   0.700   4.496  16.361 -0.5040 -0.5100 -0.7281
  247MPD1    H6 3756   0.801   4.508  16.371 -1.0763  3.8479 -0.0183
  247MPD1    H7 3757   0.658   4.460  16.446  0.7468 -0.9062 -0.2799
  248MPD1     C 3758   2.695   3.655   0.559 -0.4071 -0.2153  0.2735
  248MPD1    C1 3759   2.628   3.766   0.505 -0.1355 -0.2746  0.1173
  248MPD1    C2 3760   2.531   3.829   0.582  0.1098 -0.4434 -0.3780
  248MPD1    C3 3761   2.499   3.785   0.707 -0.3218 -0.8641  0.0175
  248MPD1    C4 3762   2.572   3.677   0.753 -0.1421  0.7712 -0.5441
  248MPD1    C5 3763   2.675   3.618   0.686  0.6624  0.1800 -0.1226
  248MPD1     H 3764   2.473   3.904   0.532  1.0910  0.6418  0.1022
  248MPD1    H1 3765   2.555   3.651   0.857 -0.2805  2.1627 -0.2143
  248MPD1    H2 3766   2.753   3.598   0.487 -1.1964 -0.0435 -0.4946
  248MPD1    H3 3767   2.727   3.532   0.727 -1.3001 -0.5346  0.8936
  248MPD1     N 3768   2.393   3.848   0.779 -0.3114  0.6165  0.3078
  248MPD1    H5 3769   2.338   3.918   0.729 -1.3702 -1.0019 -0.7716
  248MPD1    N1 3770   2.640   3.791   0.368  0.5501  0.1357 -0.1703
  248MPD1    H6 3771   2.726   3.752   0.331  1.3412  2.3937 -0.7427
  248MPD1    H7 3772   2.633   3.891   0.347 -2.4344 -0.3761 -1.6223
  249MPD1     C 3773   3.607   2.749   9.761  0.4106  0.4387  0.7267
  249MPD1    C1 3774   3.669   2.850   9.824  0.0913  0.4820 -0.1411
  249MPD1    C2 3775   3.806   2.864   9.832 -0.0782 -0.7377 -0.1757
  249MPD1    C3 3776   3.890   2.777   9.762 -0.1056  0.6337  0.5845
  249MPD1    C4 3777   3.828   2.674   9.698  0.0483  0.0156 -0.7563
  249MPD1    C5 3778   3.692   2.656   9.705  0.4402 -0.6432  0.8750
  249MPD1     H 3779   3.862   2.941   9.884 -1.1133  0.6131 -1.1085
  249MPD1    H1 3780   3.877   2.589   9.652 -0.9992 -0.3442 -1.2018
  249MPD1    H2 3781   3.499   2.745   9.766  0.3347  0.5600 -0.6646
  249MPD1    H3 3782   3.648   2.564   9.670 -0.2443  0.1561 -0.3655
  249MPD1     N 3783   4.023   2.784   9.789 -0.1595 -0.3762  0.0193
  249MPD1    H5 3784   4.050   2.859   9.851 -0.6130  0.6020 -0.9862
  249MPD1    N1 3785   3.589   2.940   9.894 -0.3705  0.2314 -0.3905
  249MPD1    H6 3786   3.632   3.032   9.898  0.5503 -0.2486  0.9691
  249MPD1    H7 3787   3.495   2.946   9.856 -0.6496 -1.4912  0.0008
  250MPD2     C 3788   0.512   3.058  13.008  0.1224 -0.1884 -0.0927
  250MPD2    C1 3789   0.408   3.141  12.961 -0.2327 -0.2798  0.1746
  250MPD2    C2 3790   0.281   3.087  12.945 -0.0576  0.5651 -0.1149
  250MPD2    C3 3791   0.256   2.951  12.974 -1.0803  0.6084 -0.0949
  250MPD2    C4 3792   0.356   2.872  13.010 -0.4803  0.4766 -0.5846
  250MPD2    C5 3793   0.480   2.924  13.023  0.3447  0.3242 -0.4971
  250MPD2     H 3794   0.195   3.148  12.918 -1.0218 -1.2345 -1.1657
  250MPD2    H1 3795   0.357   2.765  13.029  4.8679  0.6337  0.1021
  250MPD2    H2 3796   0.611   3.098  13.027 -1.3541  2.2795  2.3106
  250MPD2    H3 3797   0.564   2.864  13.057 -0.1853 -0.7106 -0.9986
  250MPD2     N 3798   0.130   2.895  12.960  0.8022 -0.0634  0.1386
  250MPD2    H5 3799   0.112   2.805  13.005  2.2222 -0.1930  0.4807
  250MPD2    N1 3800   0.443   3.277  12.949 -0.7624  0.4581 -0.0998
  250MPD2    H7 3801   0.530   3.304  12.993 -0.3179  0.8117 -1.1847
  251TMC3    C1 3802   0.394   3.505  12.931 -0.2051  0.4581 -0.0740
  251TMC3    C2 3803   0.317   3.615  12.900  0.6031 -0.6133  0.7397
  251TMC3    C3 3804   0.367   3.742  12.911  0.1320  0.2765 -0.3729
  251TMC3    C4 3805   0.524   3.524  12.963  0.2923  0.1148  0.2817
  251TMC3    C5 3806   0.575   3.650  12.965 -0.3566 -0.3058  0.0271
  251TMC3    C6 3807   0.499   3.762  12.941 -0.0034 -0.2122 -0.1950
  251TMC3     C 3808   0.350   3.373  12.906 -0.0005 -0.4189 -0.6894
  251TMC3     O 3809   0.238   3.361  12.856  0.5051 -0.5635 -0.8705
  251TMC3     H 3810   0.213   3.596  12.874  0.5579 -1.5359  1.6144
  251TMC3    H1 3811   0.601   3.450  12.942 -0.5273 -1.3706  2.5148
  251TMC3    H2 3812   0.537   3.856  12.979  0.0740 -0.2560 -0.1636
  251TMC3    C7 3813   0.721   3.666  12.985  0.2416 -0.8140 -0.1114
  251TMC3    C8 3814   0.270   3.846  12.915 -0.3043  0.3844  0.4803
  251TMC3    O1 3815   0.776   3.570  13.034  0.5412  0.4682 -0.0232
  251TMC3    O2 3816   0.160   3.797  12.934  0.3022  0.1177  0.3862
  252TMC3    C1 3817   1.085   3.887   9.669 -0.2573 -0.3474  0.8673
  252TMC3    C2 3818   1.212   3.921   9.679 -0.2335 -0.5386  0.0510
  252TMC3    C3 3819   1.254   3.938   9.805 -0.2601 -0.0521 -0.2115
  252TMC3    C4 3820   0.994   3.867   9.770 -0.1666  0.5855  0.4883
  252TMC3    C5 3821   1.042   3.884   9.893  0.1178  1.3261  0.4190
  252TMC3    C6 3822   1.168   3.931   9.913  0.3786  0.3458  0.1190
  252TMC3     C 3823   1.033   3.881   9.537 -0.1740 -0.2354  0.6003
  252TMC3     O 3824   1.101   3.928   9.447 -0.2461  0.3289  0.0287
  252TMC3     H 3825   1.281   3.915   9.596 -0.3415  1.6888 -0.1909
  252TMC3    H1 3826   0.890   3.837   9.757  0.5840 -2.2174  0.9420
  252TMC3    H2 3827   1.206   3.954  10.012 -1.0824 -2.0016  1.2012
  252TMC3    C7 3828   0.960   3.866  10.012  0.2137 -0.1905 -0.0612
  252TMC3    C8 3829   1.396   3.969   9.826 -0.3016 -0.0034 -0.2116
  252TMC3    O1 3830   0.980   3.934  10.114 -0.0548 -0.0177 -0.0555
  252TMC3    O2 3831   1.478   3.924   9.745  0.2766  0.4636 -0.2154
  253MPD2     C 3832   1.669   3.784  15.813 -0.2247 -0.9473  0.5439
  253MPD2    C1 3833   1.536   3.783  15.824 -0.6975 -0.4078 -0.3778
  253MPD2    C2 3834   1.477   3.753  15.941 -0.5386 -0.1551 -0.2789
  253MPD2    C3 3835   1.555   3.728  16.053  0.1265 -0.2237  0.1455
  253MPD2    C4 3836   1.688   3.732  16.044  1.1587  0.3832  0.4046
  253MPD2    C5 3837   1.753   3.764  15.925 -0.4452  0.6253 -0.5897
  253MPD2     H 3838   1.370   3.738  15.932 -0.5871  0.7533 -1.0974
  253MPD2    H1 3839   1.749   3.709  16.130  2.4862 -0.7631 -0.8539
  253MPD2    H2 3840   1.732   3.790  15.724 -0.7984 -1.7608  0.0786
  253MPD2    H3 3841   1.860   3.753  15.921 -0.5294  0.2156 -1.5290
  253MPD2     N 3842   1.498   3.693  16.171  0.6361 -0.9504  0.1751
  253MPD2    H5 3843   1.559   3.679  16.251  2.6310  0.6557 -1.0795
  253MPD2    N1 3844   1.439   3.793  15.722 -0.6414  0.1665  0.9095
  253MPD2    H7 3845   1.346   3.818  15.754 -0.7038  1.7954 -0.5470
  254TMC3    C1 3846   1.329   3.683  16.342  0.2700  0.0239  0.0499
  254TMC3    C2 3847   1.190   3.675  16.361  0.3266  0.5242 -0.8048
  254TMC3    C3 3848   1.139   3.694  16.483  0.0902 -0.3348  0.0951
  254TMC3    C4 3849   1.408   3.735  16.436 -0.0830 -0.9763  0.5400
  254TMC3    C5 3850   1.352   3.756  16.558  0.7246 -0.0491  0.3921
  254TMC3    C6 3851   1.222   3.724  16.586  0.1007 -0.5026  0.2120
  254TMC3     C 3852   1.364   3.690  16.199 -0.5505  0.1100 -0.5512
  254TMC3     O 3853   1.270   3.692  16.120  0.3044  0.2858  0.0533
  254TMC3     H 3854   1.127   3.645  16.277 -1.4043  0.5567  0.4692
  254TMC3    H1 3855   1.513   3.746  16.410 -0.7419  2.8827 -0.4137
  254TMC3    H2 3856   1.174   3.741  16.682  1.2146  3.5466  0.0383
  254TMC3    C7 3857   1.437   3.805  16.675 -0.0810  0.4831 -0.4213
  254TMC3    C8 3858   0.992   3.681  16.498  0.4367 -0.1130  0.0684
  254TMC3    O1 3859   1.379   3.817  16.779  0.4884  0.0707  0.2395
  254TMC3    O2 3860   0.961   3.668  16.613  0.0485 -0.5666 -0.8649
  255MPD2     C 3861   1.183   4.662   8.692 -0.6140  0.0630 -1.2524
  255MPD2    C1 3862   1.073   4.716   8.751 -0.3452  0.1442  0.2698
  255MPD2    C2 3863   1.068   0.019   8.889  0.4066  0.5902  0.5735
  255MPD2    C3 3864   1.183   4.718   8.962  0.2632  0.2460 -0.5559
  255MPD2    C4 3865   1.301   4.678   8.899 -0.4747 -0.7796 -0.3590
  255MPD2    C5 3866   1.298   4.647   8.766  0.3128  0.7320  0.4927
  255MPD2     H 3867   0.977   0.044   8.942  1.4019  1.0221  2.0642
  255MPD2    H1 3868   1.394   4.662   8.952 -0.4979  1.6095  0.4099
  255MPD2    H2 3869   1.186   4.652   8.584 -0.8869 -1.6374 -1.1014
  255MPD2    H3 3870   1.383   4.596   8.723  0.3991 -0.2304  1.7950
  255MPD2     N 3871   1.188   0.009   9.100  0.5587  0.6425  0.2154
  255MPD2    H5 3872   1.285   0.009   9.132  1.8363 -0.3806 -3.6107
  255MPD2    N1 3873   0.962   0.012   8.667  0.0441  0.0371 -0.2340
  255MPD2    H7 3874   0.951   4.690   8.577  2.6960  0.3812 -0.7309
  256TMC3    C1 3875   0.736   0.091   8.614 -0.3072 -0.2331  0.2448
  256TMC3    C2 3876   0.642   0.186   8.616  0.4079 -0.1309 -0.1138
  256TMC3    C3 3877   0.515   0.162   8.572 -0.2161 -0.0817 -0.4943
  256TMC3    C4 3878   0.700   4.694   8.565 -0.3188 -0.0632  0.1124
  256TMC3    C5 3879   0.571   4.659   8.532 -0.1824 -0.5206 -0.2058
  256TMC3    C6 3880   0.477   0.037   8.534 -0.0192  0.4794  0.2111
  256TMC3     C 3881   0.859   0.097   8.698 -0.2151 -0.2841 -0.7280
  256TMC3     O 3882   0.849   0.188   8.777  0.6494  0.8190 -0.5200
  256TMC3     H 3883   0.670   0.284   8.651  1.2815 -0.2098 -0.5973
  256TMC3    H1 3884   0.773   4.614   8.569  1.0075  1.0967 -0.9441
  256TMC3    H2 3885   0.370   0.021   8.522  0.2672  0.2785 -2.1725
  256TMC3    C7 3886   0.541   4.523   8.563 -0.6018 -0.0641  0.2530
  256TMC3    C8 3887   0.451   0.275   8.514  0.2369 -0.5893  0.9612
  256TMC3    O1 3888   0.630   4.447   8.599  0.1759 -0.0509 -0.0953
  256TMC3    O2 3889   0.394   0.259   8.413  0.5291 -0.2908 -0.0105
  257MPD2     C 3890   4.023   3.363  13.164  0.0562  0.4234  0.0197
  257MPD2    C1 3891   3.954   3.288  13.064  0.2736 -0.6216 -0.0905
  257MPD2    C2 3892   3.886   3.173  13.104  0.3071  0.2127  0.3370
  257MPD2    C3 3893   3.884   3.139  13.235 -0.2831  0.5719  0.1428
  257MPD2    C4 3894   3.957   3.215  13.324  0.1159 -0.1620 -0.7006
  257MPD2    C5 3895   4.024   3.326  13.294  0.0161  0.0368  0.5499
  257MPD2     H 3896   3.844   3.117  13.021  1.6900  0.1054 -0.2912
  257MPD2    H1 3897   3.963   3.181  13.427  3.2578 -1.0685 -1.1901
  257MPD2    H2 3898   4.068   3.460  13.143 -1.6850  0.8058 -1.9858
  257MPD2    H3 3899   4.071   3.388  13.370  1.3590  1.5802 -1.5457
  257MPD2     N 3900   3.822   3.016  13.274  0.2902  0.4321  0.4647
  257MPD2    H5 3901   3.774   2.966  13.200 -0.6430  2.5787 -0.3820
  257MPD2    N1 3902   3.950   3.321  12.926  0.5305  0.0572 -0.0606
  257MPD2    H7 3903   3.903   3.256  12.864 -0.0408  0.3977  0.0224
  258TMC3    C1 3904   3.736   2.845  13.416 -0.5871 -0.1717  0.2830
  258TMC3    C2 3905   3.638   2.808  13.325 -0.3557 -0.0763 -0.5052
  258TMC3    C3 3906   3.538   2.723  13.363 -0.1903  0.1512  0.2009
  258TMC3    C4 3907   3.730   2.797  13.545  0.5385  0.3058 -0.7405
  258TMC3    C5 3908   3.633   2.704  13.571  1.3343 -0.4614  0.1313
  258TMC3    C6 3909   3.524   2.670  13.490  0.4284 -0.6255 -0.4583
  258TMC3     C 3910   3.820   2.965  13.398  0.5592  0.3986 -0.3075
  258TMC3     O 3911   3.864   2.997  13.506 -0.2376  0.1653 -0.0012
  258TMC3     H 3912   3.624   2.852  13.227  2.9479  1.1627 -0.4373
  258TMC3    H1 3913   3.804   2.816  13.622 -0.4254  0.7001  0.0880
  258TMC3    H2 3914   3.452   2.597  13.525 -0.5072  0.6702  0.3560
  258TMC3    C7 3915   3.612   2.665  13.713 -0.2685 -1.0811  0.5691
  258TMC3    C8 3916   3.482   2.633  13.259  0.3204  0.0590 -0.0999
  258TMC3    O1 3917   3.496   2.650  13.747 -0.3423 -0.0291  0.1752
  258TMC3    O2 3918   3.550   2.628  13.160 -0.5236 -0.0383 -0.5264
  259MPD2     C 3919   2.186   0.226   1.069  0.8963  0.3645  0.7454
  259MPD2    C1 3920   2.307   0.187   1.019 -0.4343  0.4336  0.0736
  259MPD2    C2 3921   2.346   0.214   0.888 -0.4745  0.3276  0.3729
  259MPD2    C3 3922   2.271   0.300   0.811  0.4320 -0.1947 -0.1039
  259MPD2    C4 3923   2.148   0.342   0.861 -0.0591 -0.1443 -0.5774
  259MPD2    C5 3924   2.108   0.302   0.990  0.2289 -0.0816  0.2702
  259MPD2     H 3925   2.432   0.169   0.841  0.8109  2.4287  0.7448
  259MPD2    H1 3926   2.076   0.403   0.808 -0.4806 -0.0107  0.1514
  259MPD2    H2 3927   2.159   0.202   1.171 -1.3363 -0.5330 -0.0617
  259MPD2    H3 3928   2.021   0.344   1.039 -0.6992 -1.6184 -0.0927
  259MPD2     N 3929   2.328   0.335   0.690 -0.6646 -0.2838  0.8267
  259MPD2    H5 3930   2.415   0.295   0.656 -0.4463  2.1620 -1.5048
  259MPD2    N1 3931   2.390   0.101   1.100 -0.8888  0.2071 -0.1838
  259MPD2    H7 3932   2.354   0.069   1.189  1.0128 -1.9972 -0.1987
  260TMC3    C1 3933   2.367   0.463   0.496  0.3834 -0.7412 -0.2791
  260TMC3    C2 3934   2.379   0.590   0.453  0.6276 -0.3437 -0.2050
  260TMC3    C3 3935   2.439   0.613   0.332  0.5963  0.1105  0.8668
  260TMC3    C4 3936   2.403   0.354   0.421  0.6088  0.2918 -0.0170
  260TMC3    C5 3937   2.452   0.373   0.295  0.1350  0.0751 -0.4086
  260TMC3    C6 3938   2.473   0.501   0.248  0.2681 -0.1456  0.8152
  260TMC3     C 3939   2.289   0.438   0.610  0.3752 -0.3554 -0.1031
  260TMC3     O 3940   2.204   0.522   0.642  0.0992  0.4370  0.0033
  260TMC3     H 3941   2.355   0.673   0.517 -1.5583 -1.3552  0.2821
  260TMC3    H1 3942   2.383   0.254   0.456  0.2149 -0.2894 -1.9055
  260TMC3    H2 3943   2.528   0.506   0.155  0.3669 -1.7357  0.7882
  260TMC3    C7 3944   2.540   0.276   0.240 -0.2369 -0.2709 -0.0630
  260TMC3    C8 3945   2.545   0.714   0.332 -0.4369 -0.3534 -0.1598
  260TMC3    O1 3946   2.559   0.269   0.117  0.8014  0.1154 -0.0234
  260TMC3    O2 3947   2.532   0.814   0.398 -0.4632  0.1422 -0.1022
  261MPD2     C 3948   4.284   2.674  12.548  0.8477  0.5141  0.6429
  261MPD2    C1 3949   4.361   2.785  12.571  0.3633  1.1580  0.1675
  261MPD2    C2 3950   4.438   2.834  12.465  0.2397 -0.5604  0.7014
  261MPD2    C3 3951   4.450   2.762  12.346 -0.2355 -1.0517  0.6549
  261MPD2    C4 3952   4.385   2.637  12.337 -0.1237 -0.1086 -0.1901
  261MPD2    C5 3953   4.296   2.601  12.434 -0.0764  0.3739  0.1347
  261MPD2     H 3954   4.490   2.929  12.472 -0.5485 -0.1839  1.4781
  261MPD2    H1 3955   4.401   2.565  12.257 -0.0816 -0.4628  0.1360
  261MPD2    H2 3956   4.217   2.636  12.625  0.0582 -0.7967 -0.6919
  261MPD2    H3 3957   4.244   2.507  12.432  1.2529 -0.3809  0.7442
  261MPD2     N 3958   4.529   2.821  12.237  0.0551  0.0960  0.2294
  261MPD2    H5 3959   4.558   2.918  12.243  0.3676 -0.0170  0.5591
  261MPD2    N1 3960   4.351   2.856  12.690 -0.1124  0.1851  0.2158
  261MPD2    H7 3961   4.415   2.934  12.701  0.0000 -0.0702  1.3578
  262TMC3    C1 3962   4.619   2.857  12.029  0.3793 -0.5848  0.4896
  262TMC3    C2 3963   4.580   2.985  12.038  0.5307  0.1976 -0.1711
  262TMC3    C3 3964   4.616   3.074  11.940 -0.2351  0.5144  0.0855
  262TMC3    C4 3965   4.682   2.817  11.913  0.3920  0.0345  0.7805
  262TMC3    C5 3966   0.002   2.903  11.818  0.3321 -0.3812 -0.5383
  262TMC3    C6 3967   4.688   3.039  11.829 -0.1262  0.5276 -0.2898
  262TMC3     C 3968   4.568   2.757  12.122 -0.7470 -0.0112  0.6138
  262TMC3     O 3969   4.562   2.640  12.090 -0.2117 -0.2957 -0.3793
  262TMC3     H 3970   4.531   3.019  12.129 -2.6794 -0.1225 -1.7575
  262TMC3    H1 3971   4.700   2.711  11.899  1.7230  0.2603  0.7780
  262TMC3    H2 3972   0.005   3.114  11.763  3.6925 -2.6272 -1.5389
  262TMC3    C7 3973   0.056   2.853  11.695 -0.1770  0.3053  0.4904
  262TMC3    C8 3974   4.583   3.210  11.961 -0.4089  0.3225 -0.4608
  262TMC3    O1 3975   0.085   2.736  11.699 -0.2893  0.4736  0.1960
  262TMC3    O2 3976   4.633   3.288  11.880  0.1703  0.7802  0.8264
  263MPD2     C 3977   0.580   2.165  11.547 -0.4764  0.5411  0.4833
  263MPD2    C1 3978   0.711   2.153  11.507 -0.5871  0.4452 -0.4985
  263MPD2    C2 3979   0.747   2.221  11.394  0.4321  0.9815  0.0363
  263MPD2    C3 3980   0.677   2.321  11.340  0.1805 -0.1961  0.3624
  263MPD2    C4 3981   0.552   2.339  11.389  0.5494 -0.0879 -0.7380
  263MPD2    C5 3982   0.499   2.265  11.489  0.1397 -0.9176  0.2639
  263MPD2     H 3983   0.845   2.212  11.350 -0.7502  0.0918 -2.4447
  263MPD2    H1 3984   0.478   2.406  11.347 -0.3308  0.5446  1.7744
  263MPD2    H2 3985   0.533   2.119  11.633 -0.5532 -0.4614 -0.0993
  263MPD2    H3 3986   0.403   2.287  11.533 -0.2471 -1.6115 -0.2296
  263MPD2     N 3987   0.728   2.398  11.234 -0.1398  0.5734 -0.3908
  263MPD2    H5 3988   0.827   2.382  11.214  0.1784 -0.3744  1.8932
  263MPD2    N1 3989   0.806   2.077  11.579 -0.3490 -0.4332  0.7956
  263MPD2    H7 3990   0.903   2.079  11.548 -0.3680 -0.3204  0.7435
  264TMC3    C1 3991   0.743   2.587  11.087  0.7741  0.5566 -0.1668
  264TMC3    C2 3992   0.733   2.720  11.118  0.3483 -0.0492  0.0918
  264TMC3    C3 3993   0.835   2.810  11.084 -0.5716  0.1571  0.6899
  264TMC3    C4 3994   0.846   2.534  11.017  0.4053 -0.5633  0.0983
  264TMC3    C5 3995   0.928   2.631  10.960  0.7410 -0.2579 -0.3785
  264TMC3    C6 3996   0.926   2.770  10.985 -0.2231 -0.5918 -0.1955
  264TMC3     C 3997   0.664   2.498  11.167  0.7377  0.4895 -0.6197
  264TMC3     O 3998   0.550   2.539  11.191  0.3093  0.0126 -0.4363
  264TMC3     H 3999   0.656   2.735  11.194  0.3187  0.3601 -0.0171
  264TMC3    H1 4000   0.845   2.430  10.989  1.5662 -0.3871 -0.6134
  264TMC3    H2 4001   1.000   2.835  10.939 -1.1101  0.8435  0.4350
  264TMC3    C7 4002   1.027   2.590  10.860 -0.8181  0.2774  0.2639
  264TMC3    C8 4003   0.811   2.950  11.103  0.5972 -0.0299  0.5174
  264TMC3    O1 4004   1.042   2.468  10.857 -0.5817  0.8316 -0.1206
  264TMC3    O2 4005   0.884   3.013  11.027 -0.2960  0.4001  0.3038
  265MPD2     C 4006   2.918   3.010  15.612 -0.5865 -0.3324  0.1824
  265MPD2    C1 4007   2.929   3.134  15.539 -0.3121  0.4221  0.0523
  265MPD2    C2 4008   2.970   3.136  15.409  0.5793  0.1586 -0.3125
  265MPD2    C3 4009   3.019   3.014  15.352 -0.1176 -0.2027  0.4968
  265MPD2    C4 4010   3.036   2.900  15.436  0.1170  0.1285  0.2311
  265MPD2    C5 4011   2.981   2.897  15.559 -0.5856  0.0786  0.3918
  265MPD2     H 4012   2.965   3.229  15.355 -0.5989  1.1324  1.4502
  265MPD2    H1 4013   3.081   2.813  15.391  1.3194  2.0009 -2.1618
  265MPD2    H2 4014   2.866   2.993  15.705 -1.5282  0.3022 -0.2270
  265MPD2    H3 4015   2.980   2.806  15.618 -0.8600 -0.7736 -0.9186
  265MPD2     N 4016   3.075   2.999  15.220 -0.8649 -0.5979 -0.0243
  265MPD2    H5 4017   3.103   2.902  15.207  1.2592  0.2354 -1.5682
  265MPD2    N1 4018   2.863   3.251  15.593 -0.6066 -0.2643 -0.0089
  265MPD2    H7 4019   2.864   3.339  15.541  0.3969 -0.8630 -1.0016
  266TMC3    C1 4020   2.722   3.387  15.719 -0.8163  0.3235  0.2386
  266TMC3    C2 4021   2.635   3.404  15.821  0.1572 -0.2460  0.4387
  266TMC3    C3 4022   2.567   3.517  15.849 -0.2072 -0.0925 -1.0298
  266TMC3    C4 4023   2.739   3.492  15.635  0.8826 -0.4389  0.2991
  266TMC3    C5 4024   2.656   3.606  15.659 -0.1123 -0.2513 -0.2649
  266TMC3    C6 4025   2.575   3.626  15.765  0.3477 -0.2234 -0.1911
  266TMC3     C 4026   2.793   3.258  15.708  0.4552 -0.6061 -0.1680
  266TMC3     O 4027   2.787   3.183  15.805  0.1846 -0.7076 -0.0066
  266TMC3     H 4028   2.612   3.313  15.876 -0.8611 -1.3346 -1.7703
  266TMC3    H1 4029   2.802   3.496  15.547 -0.0389 -0.7805 -0.3730
  266TMC3    H2 4030   2.509   3.711  15.776  0.4286 -0.0938 -0.6983
  266TMC3    C7 4031   2.677   3.718  15.567  0.0345 -0.3975  0.8504
  266TMC3    C8 4032   2.452   3.512  15.937 -0.0219 -0.1324  0.1396
  266TMC3    O1 4033   2.790   3.738  15.519 -0.2062 -0.1921  0.3004
  266TMC3    O2 4034   2.409   3.399  15.965  0.5014  0.1854 -0.5506
  267MPD2     C 4035   0.548   4.637  17.415 -0.3568 -0.2770 -0.1720
  267MPD2    C1 4036   0.546   0.045  17.424 -0.2688  0.3060  0.0742
  267MPD2    C2 4037   0.464   0.124  17.339 -0.1190  0.1702  0.1075
  267MPD2    C3 4038   0.388   0.057  17.249  0.1668 -1.0192 -0.2766
  267MPD2    C4 4039   0.391   4.645  17.243  0.1081  0.8338  0.0805
  267MPD2    C5 4040   0.470   4.573  17.329 -0.2911 -0.3150  0.6081
  267MPD2     H 4041   0.453   0.232  17.344 -0.8832  0.2009 -2.5214
  267MPD2    H1 4042   0.336   4.593  17.165  0.7644 -0.0174  0.1843
  267MPD2    H2 4043   0.602   4.569  17.480 -0.8657 -0.5275 -0.0106
  267MPD2    H3 4044   0.472   4.464  17.334 -2.2922 -0.3147  1.2714
  267MPD2     N 4045   0.300   0.120  17.149 -0.1285 -0.2084  0.3349
  267MPD2    H5 4046   0.239   0.061  17.092  0.4250  0.7243 -1.2293
  267MPD2    N1 4047   0.626   0.099  17.523  0.2234  0.0954 -0.6262
  267MPD2    H7 4048   0.675   0.034  17.584  2.0608 -0.7187 -2.9776
  268TMC3    C1 4049   0.782   0.271  17.591 -0.7090  0.1788 -0.4502
  268TMC3    C2 4050   0.833   0.389  17.556  0.8200 -0.3275 -0.4438
  268TMC3    C3 4051   0.956   0.417  17.598 -0.2186  0.0477  0.0042
  268TMC3    C4 4052   0.835   0.196  17.693  0.1699 -0.2321 -0.3356
  268TMC3    C5 4053   0.960   0.236   0.040 -0.1580 -0.2703 -0.5747
  268TMC3    C6 4054   1.024   0.346  17.692  0.6972 -0.1620 -1.4502
  268TMC3     C 4055   0.660   0.232  17.519 -0.4678 -0.6009 -0.1407
  268TMC3     O 4056   0.614   0.329  17.456  0.4700 -0.4863 -0.4454
  268TMC3     H 4057   0.788   0.463  17.491  0.0225  1.1858  1.8343
  268TMC3    H1 4058   0.781   0.109   0.030 -2.4320  1.1996 -0.7383
  268TMC3    H2 4059   1.126   0.369   0.023 -0.0112  2.1867 -0.8753
  268TMC3    C7 4060   1.001   0.191   0.169  0.2412  0.4363 -0.2759
  268TMC3    C8 4061   1.012   0.548  17.550  0.3342  0.6045  0.6329
  268TMC3    O1 4062   1.004   0.066   0.184  0.0320 -0.5471 -0.8397
  268TMC3    O2 4063   1.067   0.617  17.635  0.3698 -0.1814 -0.5336
  269MPD2     C 4064   0.335   3.760  15.991  0.3145  0.1091 -0.4244
  269MPD2    C1 4065   0.274   3.773  15.868  0.3629 -0.6027  0.4182
  269MPD2    C2 4066   0.251   3.897  15.829 -0.4958  0.2967 -0.1339
  269MPD2    C3 4067   0.258   4.008  15.906 -0.9370 -0.2790 -0.2013
  269MPD2    C4 4068   0.305   3.990  16.034  0.1512 -0.0270  0.2391
  269MPD2    C5 4069   0.347   3.868  16.075 -0.3253 -0.1156  0.6172
  269MPD2     H 4070   0.227   3.906  15.724  0.7556  0.9760 -0.3730
  269MPD2    H1 4071   0.309   4.077  16.100  0.8168  1.9594 -2.4254
  269MPD2    H2 4072   0.350   3.659  16.025 -0.3979 -0.9794 -3.2923
  269MPD2    H3 4073   0.383   3.853  16.176 -0.1058  1.0975  0.7219
  269MPD2     N 4074   0.243   4.127  15.847 -0.1275  0.2391  0.4237
  269MPD2    H5 4075   0.217   4.114  15.749 -0.2023  3.3728  0.0235
  269MPD2    N1 4076   0.263   3.664  15.781 -0.9694 -0.9975 -0.3481
  269MPD2    H7 4077   0.318   3.582  15.804  0.2960 -0.2072 -0.5534
  270TMC3    C1 4078   0.189   3.536  15.582  0.9718  0.3943  0.0381
  270TMC3    C2 4079   0.153   3.544  15.447 -0.6196 -0.4288 -0.1346
  270TMC3    C3 4080   0.143   3.416  15.387  0.2071 -1.0513  0.0726
  270TMC3    C4 4081   0.201   3.414  15.647  0.3396  0.2504 -0.3700
  270TMC3    C5 4082   0.177   3.297  15.584 -0.3220 -0.0697 -0.2916
  270TMC3    C6 4083   0.154   3.295  15.451 -0.6382  0.5210 -1.1562
  270TMC3     C 4084   0.179   3.663  15.665  0.1631 -0.2777  0.5041
  270TMC3     O 4085   0.094   3.744  15.628  0.0795  0.4585 -0.2207
  270TMC3     H 4086   0.138   3.640  15.400 -3.0170 -0.2770  0.9247
  270TMC3    H1 4087   0.219   3.408  15.753  2.3274  2.3472 -0.5767
  270TMC3    H2 4088   0.150   3.202  15.395 -0.1847 -1.6785  2.4724
  270TMC3    C7 4089   0.210   3.172  15.649  0.7402  0.3481  0.3055
  270TMC3    C8 4090   0.129   3.418  15.241 -0.1316 -0.1652 -0.2338
  270TMC3    O1 4091   0.260   3.185  15.762  0.8508  0.0357  0.0490
  270TMC3    O2 4092   0.185   3.507  15.176 -0.5825 -0.2315 -0.4564
  271MPD2     C 4093   4.263   3.501  13.794 -0.6841 -0.8309  0.4673
  271MPD2    C1 4094   4.233   3.387  13.863  0.2664 -1.1173 -0.5309
  271MPD2    C2 4095   4.144   3.298  13.815 -0.4493 -0.6918 -0.5624
  271MPD2    C3 4096   4.059   3.342  13.715  0.6591 -0.4388  0.4010
  271MPD2    C4 4097   4.097   3.453  13.644 -0.1595 -0.3394 -0.4438
  271MPD2    C5 4098   4.202   3.535  13.674 -0.2073 -0.4536  0.1599
  271MPD2     H 4099   4.126   3.204  13.867  0.4741 -0.1019  0.8354
  271MPD2    H1 4100   4.042   3.482  13.556  1.4518  0.1020 -1.3066
  271MPD2    H2 4101   4.341   3.572  13.820 -0.9589 -1.8388  3.9829
  271MPD2    H3 4102   4.240   3.619  13.618  0.0555  0.1968  1.3132
  271MPD2     N 4103   3.939   3.270  13.689  0.0983 -0.2288  0.2440
  271MPD2    H5 4104   3.884   3.315  13.616  3.5096  2.6248 -0.5602
  271MPD2    N1 4105   4.302   3.352  13.981 -0.1237 -0.1652  0.4209
  271MPD2    H7 4106   4.268   3.274  14.035  0.1468 -1.0072 -0.6162
  272TMC3    C1 4107   4.452   3.360  14.163  0.1192  1.1724  0.3541
  272TMC3    C2 4108   4.427   3.233  14.184  0.5485 -0.4058  0.2070
  272TMC3    C3 4109   4.429   3.190  14.314 -0.3821 -0.0941 -0.4219
  272TMC3    C4 4110   4.485   3.447  14.260  0.7118 -0.5945 -0.7969
  272TMC3    C5 4111   4.489   3.404  14.389 -0.1787 -0.1462  0.1279
  272TMC3    C6 4112   4.462   3.272  14.418 -0.7331  0.4408 -0.2008
  272TMC3     C 4113   4.392   3.434  14.049  0.7620 -0.4106  0.8768
  272TMC3     O 4114   4.401   3.557  14.031 -0.3737  0.0825  0.1633
  272TMC3     H 4115   4.418   3.161  14.103 -0.8908  0.8787 -0.7678
  272TMC3    H1 4116   4.496   3.552  14.235  1.9531 -0.6726 -0.5794
  272TMC3    H2 4117   4.472   3.226  14.515  0.8255 -0.0188 -0.5769
  272TMC3    C7 4118   4.524   3.496  14.491 -0.1104 -0.4805 -0.0993
  272TMC3    C8 4119   4.483   3.054  14.317 -0.9311  0.1677 -0.3241
  272TMC3    O1 4120   4.573   3.604  14.467  0.7494  0.5893  0.6527
  272TMC3    O2 4121   4.415   2.966  14.268 -0.1531  0.6124 -0.3981
  273MPD2     C 4122   1.395   0.937  12.155  0.4913 -0.8638 -0.1285
  273MPD2    C1 4123   1.461   1.049  12.117 -0.4323 -0.1894  0.1842
  273MPD2    C2 4124   1.458   1.108  11.989  0.1086 -0.0470  0.8492
  273MPD2    C3 4125   1.397   1.032  11.887  0.1478 -1.2003  0.1766
  273MPD2    C4 4126   1.319   0.925  11.928  0.0601 -0.1533 -0.3785
  273MPD2    C5 4127   1.315   0.879  12.060  0.1600 -0.4573 -0.2795
  273MPD2     H 4128   1.516   1.193  11.956  0.1097  0.0808  1.1877
  273MPD2    H1 4129   1.257   0.869  11.859 -0.5153  0.0645 -0.0369
  273MPD2    H2 4130   1.405   0.895  12.255 -2.4303 -1.7841 -0.2120
  273MPD2    H3 4131   1.246   0.804  12.096 -0.6228  0.1549 -0.4976
  273MPD2     N 4132   1.398   1.065  11.746 -0.0494  0.7269 -0.5410
  273MPD2    H5 4133   1.356   0.999  11.681  0.4368  0.5039 -0.6282
  273MPD2    N1 4134   1.534   1.110  12.223 -0.5353  0.0994 -0.5747
  273MPD2    H7 4135   1.534   1.067  12.314  2.5232  1.2798 -0.0020
  274TMC3    C1 4136   1.410   1.211  11.551 -0.0005 -0.0532  0.0741
  274TMC3    C2 4137   1.296   1.156  11.501  0.4076 -0.1688 -0.1141
  274TMC3    C3 4138   1.252   1.211  11.381 -0.4414  0.3970  0.1924
  274TMC3    C4 4139   1.469   1.320  11.497 -0.0902 -0.6679 -0.3264
  274TMC3    C5 4140   1.411   1.385  11.394 -1.1421 -0.2607  0.2382
  274TMC3    C6 4141   1.305   1.331  11.327 -0.0805  0.4307 -0.0409
  274TMC3     C 4142   1.424   1.193  11.695 -0.2615 -0.0951  0.1660
  274TMC3     O 4143   1.459   1.292  11.751  0.3783 -0.3161  0.1814
  274TMC3     H 4144   1.253   1.065  11.542  1.6302 -0.9732 -0.5870
  274TMC3    H1 4145   1.528   1.379  11.565  0.4651 -1.9015  0.2664
  274TMC3    H2 4146   1.243   1.398  11.269 -1.6574 -1.8234 -0.9442
  274TMC3    C7 4147   1.441   1.530  11.376 -0.5873 -0.3710 -0.1510
  274TMC3    C8 4148   1.130   1.160  11.318 -0.6612  0.1520  0.1664
  274TMC3    O1 4149   1.344   1.606  11.359  0.5526  0.3256 -0.0592
  274TMC3    O2 4150   1.054   1.090  11.378  0.5808 -0.6605 -0.1913
  275MPD2     C 4151   1.212   4.322  13.869 -0.2552 -0.3868 -0.1030
  275MPD2    C1 4152   1.138   4.263  13.974  0.8903 -0.0531 -0.4384
  275MPD2    C2 4153   0.999   4.273  13.971 -0.6023 -0.1315 -0.1090
  275MPD2    C3 4154   0.930   4.327  13.866 -0.1329  0.4601  1.0878
  275MPD2    C4 4155   1.001   4.369  13.756 -0.7594  0.3474  0.2362
  275MPD2    C5 4156   1.136   4.366  13.762  0.3209 -0.0883  0.2686
  275MPD2     H 4157   0.949   4.234  14.059  0.2008 -0.5903  0.1460
  275MPD2    H1 4158   0.959   4.418  13.669 -0.4936  0.1021 -0.0317
  275MPD2    H2 4159   1.320   4.324  13.866 -0.2740  1.2856 -0.0142
  275MPD2    H3 4160   1.190   4.415  13.682 -2.0109  0.2408 -1.0821
  275MPD2     N 4161   0.787   4.323  13.862 -0.5456  0.0822 -0.7719
  275MPD2    H5 4162   0.736   4.322  13.775  1.6179 -1.0840 -2.0000
  275MPD2    N1 4163   1.200   4.211  14.088  0.2079 -0.1923  0.7571
  275MPD2    H7 4164   1.146   4.173  14.165 -2.5221  2.2171  0.0544
  276TMC3    C1 4165   1.355   4.174  14.260  0.0795 -0.7766  0.1240
  276TMC3    C2 4166   1.280   4.079  14.324  0.4216  0.6832  0.8225
  276TMC3    C3 4167   1.286   4.062  14.456  0.0160  0.1423  0.7580
  276TMC3    C4 4168   1.449   4.247  14.331 -0.1350 -0.3124  1.0225
  276TMC3    C5 4169   1.442   4.236  14.470 -0.6222 -0.4340  1.0883
  276TMC3    C6 4170   1.367   4.141  14.535  0.8130 -0.1039  0.4717
  276TMC3     C 4171   1.328   4.233  14.132  0.0339 -0.0371  0.3873
  276TMC3     O 4172   1.418   4.285  14.065  0.3721 -0.1381  0.5317
  276TMC3     H 4173   1.213   4.020  14.262  2.3798 -0.0757 -0.5480
  276TMC3    H1 4174   1.505   4.323  14.280 -2.1416 -0.2149 -1.0325
  276TMC3    H2 4175   1.358   4.140  14.643 -0.4910 -2.6926  0.3401
  276TMC3    C7 4176   1.533   4.309  14.554  1.2892  0.9045 -0.0723
  276TMC3    C8 4177   1.220   3.944  14.518 -0.5806 -0.3805  0.4079
  276TMC3    O1 4178   1.502   4.329  14.671 -0.4028 -0.1933 -0.3538
  276TMC3    O2 4179   1.118   3.910  14.462 -0.0860 -0.4383  0.0223
  277MPD2     C 4180   3.006   3.101  13.388 -0.7570  0.8049 -0.3379
  277MPD2    C1 4181   2.874   3.126  13.362 -0.0638  0.1649 -0.1603
  277MPD2    C2 4182   2.782   3.065  13.445 -0.1636 -0.6617 -0.9770
  277MPD2    C3 4183   2.826   2.986  13.546 -0.3547 -0.8117 -0.6011
  277MPD2    C4 4184   2.956   2.946  13.556  0.7480 -0.8343  0.4950
  277MPD2    C5 4185   3.046   3.018  13.493  0.4741  0.9212 -0.0897
  277MPD2     H 4186   2.677   3.091  13.431 -0.7239 -1.7213  1.3317
  277MPD2    H1 4187   2.993   2.893  13.643 -2.0728  0.1399  2.2774
  277MPD2    H2 4188   3.087   3.150  13.335 -0.2354  0.2465 -0.0553
  277MPD2    H3 4189   3.151   3.001  13.513  0.5713  1.5105 -0.1012
  277MPD2     N 4190   2.722   2.938  13.632  0.1973  0.9820  0.0841
  277MPD2    H5 4191   2.627   2.971  13.618 -0.9647 -3.0219 -1.4056
  277MPD2    N1 4192   2.837   3.218  13.265 -0.1241  0.3257 -0.2483
  277MPD2    H7 4193   2.918   3.265  13.225 -0.3115 -0.7089 -1.8202
  278TMC3    C1 4194   2.626   2.818  13.814 -0.0702  0.4055 -0.3868
  278TMC3    C2 4195   2.606   2.685  13.829  0.3123 -0.2473 -0.4705
  278TMC3    C3 4196   2.485   2.650  13.877 -0.0955 -0.7632  0.1203
  278TMC3    C4 4197   2.526   2.914  13.837  0.0089  0.4913 -0.5977
  278TMC3    C5 4198   2.404   2.878  13.885 -0.2175 -0.1781  0.9084
  278TMC3    C6 4199   2.382   2.739  13.911 -0.1231 -0.9568 -0.5810
  278TMC3     C 4200   2.745   2.848  13.735  0.5359 -0.8897  0.0556
  278TMC3     O 4201   2.840   2.772  13.740  0.2186  0.4022  0.2606
  278TMC3     H 4202   2.680   2.607  13.817  0.8579  0.1452  0.3038
  278TMC3    H1 4203   2.557   3.017  13.846  1.6577  0.0746 -1.5722
  278TMC3    H2 4204   2.283   2.697  13.926 -0.7270  1.3220  1.8894
  278TMC3    C7 4205   2.295   2.976  13.887  0.2808  0.5180  0.0204
  278TMC3    C8 4206   2.451   2.509  13.877 -0.1693  0.7869  0.4065
  278TMC3    O1 4207   2.315   3.097  13.884  0.3632  0.2107  0.7425
  278TMC3    O2 4208   2.377   2.470  13.965 -0.4405 -0.1344  0.3960
  279MPD2     C 4209   2.302   3.351   0.909 -0.5638  0.2472  0.2329
  279MPD2    C1 4210   2.261   3.446   0.813  0.2623  0.0704 -0.1707
  279MPD2    C2 4211   2.322   3.455   0.693 -0.4780 -0.1913  0.0487
  279MPD2    C3 4212   2.426   3.375   0.665  0.6845  0.1605 -0.0416
  279MPD2    C4 4213   2.475   3.295   0.762 -0.3491  0.5218  1.1132
  279MPD2    C5 4214   2.413   3.281   0.888  0.1267 -0.1424  0.1188
  279MPD2     H 4215   2.285   3.529   0.623  3.0937  0.2148 -1.3935
  279MPD2    H1 4216   2.566   3.241   0.738  0.2305  0.5975  3.1375
  279MPD2    H2 4217   2.252   3.338   1.004 -0.3121  0.4691  0.3942
  279MPD2    H3 4218   2.457   3.219   0.965  2.8657  0.8669 -0.6497
  279MPD2     N 4219   2.486   3.368   0.536  0.0737 -0.0013 -0.2493
  279MPD2    H5 4220   2.563   3.306   0.514 -0.3301 -0.4275 -0.4460
  279MPD2    N1 4221   2.140   3.520   0.831  0.7804  0.2607 -0.3617
  279MPD2    H7 4222   2.098   3.564   0.750  0.7376  0.1093 -0.4236
  280TMC3    C1 4223   1.921   3.565   0.904  0.4629  0.3328  0.8010
  280TMC3    C2 4224   1.844   3.462   0.861  0.4001  0.3008  0.8343
  280TMC3    C3 4225   1.735   3.489   0.777 -0.0799 -0.1894 -0.0930
  280TMC3    C4 4226   1.902   3.690   0.849 -0.2912 -0.1622  0.3678
  280TMC3    C5 4227   1.790   3.716   0.771  0.7480  0.0056 -0.1937
  280TMC3    C6 4228   1.708   3.617   0.733 -0.3996  0.1973 -0.2475
  280TMC3     C 4229   2.055   3.524   0.938 -0.2810  0.0201  0.3757
  280TMC3     O 4230   2.076   3.484   1.054  0.2840 -0.6316  0.3305
  280TMC3     H 4231   1.866   3.362   0.897 -1.7411  0.1474  1.7237
  280TMC3    H1 4232   1.970   3.764   0.891  0.1720  0.6913 -1.8869
  280TMC3    H2 4233   1.632   3.631   0.658  2.0062 -0.7906 -2.8596
  280TMC3    C7 4234   1.803   3.839   0.697  0.3598 -0.4191 -0.0339
  280TMC3    C8 4235   1.654   3.388   0.712  0.4619 -0.6061  0.3583
  280TMC3    O1 4236   1.914   3.888   0.699 -0.2691 -0.3480  0.0734
  280TMC3    O2 4237   1.554   3.420   0.648 -0.5471 -0.2084  0.2592
  281TMC3    C1 4238   0.920   3.516  13.331 -0.2288  0.4644  0.7223
  281TMC3    C2 4239   1.004   3.597  13.254 -0.0344 -0.2588  0.5151
  281TMC3    C3 4240   1.105   3.530  13.180  0.6828  0.1244 -0.1561
  281TMC3    C4 4241   0.942   3.379  13.341 -0.5354 -0.4291  0.1372
  281TMC3    C5 4242   1.036   3.315  13.272 -0.6696  0.1167  0.2194
  281TMC3    C6 4243   1.119   3.391  13.192  0.0304  0.4453  0.0393
  281TMC3     C 4244   0.790   3.562  13.378  0.3827  0.3180  0.4532
  281TMC3     O 4245   0.721   3.482  13.441  0.3603  0.6595  0.1960
  281TMC3     H 4246   0.995   3.705  13.247 -1.3270 -0.2923  1.4676
  281TMC3    H1 4247   0.874   3.324  13.406  0.3778  0.7664  2.0989
  281TMC3    H2 4248   1.197   3.345  13.133  0.4374  0.5038  0.5284
  281TMC3    C7 4249   1.039   3.175  13.244 -0.4854  0.7780 -0.3625
  281TMC3    C8 4250   1.226   3.597  13.129 -0.4035 -0.5172  0.1491
  281TMC3    O1 4251   1.126   3.125  13.176 -0.3744 -0.5205 -0.0489
  281TMC3    O2 4252   1.322   3.532  13.152  0.5874 -0.3566 -0.1035
  282MPD2     C 4253   2.636   0.077  15.194  0.0630  0.5058 -0.5213
  282MPD2    C1 4254   2.500   0.094  15.221 -0.1578  0.2486  0.6369
  282MPD2    C2 4255   2.414   0.072  15.122  0.3784  0.0252 -0.1480
  282MPD2    C3 4256   2.446   0.037  14.995 -0.7699  0.3392 -0.0089
  282MPD2    C4 4257   2.580   4.724  14.973 -0.0118 -0.3714  0.1495
  282MPD2    C5 4258   2.670   0.021  15.074  0.0262  0.1511  0.0535
  282MPD2     H 4259   2.309   0.096  15.133  0.1412 -0.7256 -0.7396
  282MPD2    H1 4260   2.610   4.681  14.879  2.1121 -0.9291  1.0856
  282MPD2    H2 4261   2.718   0.092  15.263 -0.1035  0.0560 -0.2278
  282MPD2    H3 4262   2.776   0.008  15.055 -0.5931 -0.5932 -2.7851
  282MPD2     N 4263   2.348   0.023  14.899 -0.0385 -0.3025  0.5137
  282MPD2    H5 4264   2.252   0.039  14.926 -0.1246 -0.8540  0.5220
  282MPD2    N1 4265   2.446   0.153  15.345  0.3952  0.2893  0.1692
  282MPD2    H7 4266   2.346   0.163  15.357  0.1166 -2.1077 -0.1111
  283TMC3    C1 4267   2.427   0.217  15.572  0.4412  0.3725 -0.6409
  283TMC3    C2 4268   2.456   0.331  15.641 -0.7198 -0.5324  0.7828
  283TMC3    C3 4269   2.349   0.363  15.724 -0.2514 -0.4747  0.6438
  283TMC3    C4 4270   2.317   0.134  15.587  0.0381 -0.1274 -0.4152
  283TMC3    C5 4271   2.222   0.190  15.666  0.3775  0.4315 -0.7578
  283TMC3    C6 4272   2.229   0.307  15.724 -0.3719  0.0714 -0.6432
  283TMC3     C 4273   2.518   0.182  15.461  0.1049 -0.3797  0.6329
  283TMC3     O 4274   2.639   0.213  15.471  0.3783 -0.1436  0.2698
  283TMC3     H 4275   2.552   0.382  15.633 -2.6570  3.1189  0.8244
  283TMC3    H1 4276   2.307   0.039  15.536 -2.1868  0.1247 -0.4371
  283TMC3    H2 4277   2.149   0.351  15.784 -0.9956  0.3137 -1.6448
  283TMC3    C7 4278   2.110   0.109  15.693 -0.1609 -0.0095 -0.3033
  283TMC3    C8 4279   2.362   0.471  15.818 -0.2329 -0.2605 -0.6322
  283TMC3    O1 4280   2.015   0.177  15.731 -0.1159 -0.7085  0.1899
  283TMC3    O2 4281   2.287   0.466  15.917  0.1997 -0.4211  0.2987
  284MPD2     C 4282   1.233   3.343  12.429  0.6895  0.1641  0.6515
  284MPD2    C1 4283   1.220   3.388  12.295  0.2710  0.9532  0.0619
  284MPD2    C2 4284   1.119   3.332  12.220 -0.4435 -0.8351 -0.1176
  284MPD2    C3 4285   1.035   3.226  12.273  0.3760 -0.3061  0.4816
  284MPD2    C4 4286   1.060   3.183  12.402 -0.2321 -0.4481 -0.4999
  284MPD2    C5 4287   1.154   3.240  12.479 -0.6372 -0.0581  0.9185
  284MPD2     H 4288   1.100   3.377  12.123  0.6949 -0.8827 -0.3551
  284MPD2    H1 4289   0.994   3.114  12.453 -2.1794  2.5954  1.0804
  284MPD2    H2 4290   1.322   3.368  12.485  0.8347  1.1531 -0.0115
  284MPD2    H3 4291   1.178   3.204  12.578  3.2019 -2.4447 -0.8935
  284MPD2     N 4292   0.922   3.169  12.204 -0.3053 -0.1448  0.2577
  284MPD2    H5 4293   0.871   3.096  12.253  2.5584 -3.3029 -1.4510
  284MPD2    N1 4294   1.295   3.489  12.239  0.1403  0.2693 -0.3023
  284MPD2    H7 4295   1.270   3.516  12.144  1.5382  1.4216 -0.3475
  285TMC3    C1 4296   1.414   3.692  12.218  0.2826 -0.2571 -0.2179
  285TMC3    C2 4297   1.430   3.681  12.083  0.1032  0.4205  0.0371
  285TMC3    C3 4298   1.478   3.799  12.025 -0.1057 -0.2274  0.7249
  285TMC3    C4 4299   1.442   3.802  12.297 -0.0767  0.3737 -0.1896
  285TMC3    C5 4300   1.486   3.910  12.242 -0.2126 -0.0961 -0.1293
  285TMC3    C6 4301   1.496   3.909  12.109  0.3913 -0.1368 -0.4332
  285TMC3     C 4302   1.385   3.573  12.301 -0.6166 -0.1094  0.8060
  285TMC3     O 4303   1.412   3.567  12.419 -0.1088 -0.3267  0.5920
  285TMC3     H 4304   1.408   3.598  12.016  0.6557  0.4146 -0.1391
  285TMC3    H1 4305   1.408   3.805  12.400 -1.8778 -1.7026 -0.7235
  285TMC3    H2 4306   1.530   4.003  12.066 -0.4301 -0.4609 -1.7744
  285TMC3    C7 4307   1.424   4.041  12.277 -0.2278 -0.0035 -0.0489
  285TMC3    C8 4308   1.460   3.805  11.881 -0.3948 -0.3322 -0.6803
  285TMC3    O1 4309   1.503   4.133  12.274 -0.7165 -0.3568 -0.1762
  285TMC3    O2 4310   1.376   3.728  11.838  0.0054 -0.1103 -0.0178
  286MPD2     C 4311   1.045   3.288   1.714  0.9264 -0.3113  0.1538
  286MPD2    C1 4312   1.010   3.277   1.579 -0.1953 -0.5285 -0.2196
  286MPD2    C2 4313   1.060   3.167   1.509 -0.0675  0.1737 -0.2735
  286MPD2    C3 4314   1.142   3.073   1.576  0.2105 -0.0890  0.4191
  286MPD2    C4 4315   1.187   3.096   1.703  0.4695  0.6752  1.1329
  286MPD2    C5 4316   1.143   3.212   1.765 -0.3738 -0.8930 -0.0144
  286MPD2     H 4317   1.027   3.160   1.406 -1.1959 -0.6903  0.1466
  286MPD2    H1 4318   1.261   3.028   1.744 -0.9510 -1.9356 -0.6537
  286MPD2    H2 4319   1.025   3.378   1.771  0.3186  1.7179 -3.3119
  286MPD2    H3 4320   1.183   3.218   1.866  0.4559 -0.1837 -0.3818
  286MPD2     N 4321   1.191   2.957   1.516 -0.2294 -0.4019 -0.5448
  286MPD2    H5 4322   1.251   2.895   1.569 -1.9528 -0.7451  0.9789
  286MPD2    N1 4323   0.935   3.372   1.505  0.1469 -0.5991  0.0717
  286MPD2    H7 4324   0.926   3.354   1.405  0.8062 -0.3976 -0.0232
  287TMC3    C1 4325   1.232   2.784   1.355 -0.5441 -0.6265 -0.1074
  287TMC3    C2 4326   1.215   2.742   1.227 -0.0232  0.0535  0.5605
  287TMC3    C3 4327   1.311   2.653   1.178 -0.2683  0.1432 -0.3567
  287TMC3    C4 4328   1.339   2.736   1.429 -0.4107  0.0164 -0.0227
  287TMC3    C5 4329   1.433   2.647   1.377 -0.3246 -0.1973 -0.5120
  287TMC3    C6 4330   1.418   2.606   1.249 -0.4884 -0.1973  0.2996
  287TMC3     C 4331   1.159   2.906   1.390  0.0570 -0.4864 -0.6339
  287TMC3     O 4332   1.093   2.964   1.306  0.3416 -0.3576 -0.2482
  287TMC3     H 4333   1.140   2.784   1.162  2.3277  2.7741 -0.3819
  287TMC3    H1 4334   1.346   2.778   1.529 -2.0881 -2.6455  1.2071
  287TMC3    H2 4335   1.484   2.542   1.191  0.5801  2.8511 -1.8407
  287TMC3    C7 4336   1.550   2.629   1.453 -0.4495 -0.1543  0.0654
  287TMC3    C8 4337   1.297   2.609   1.045  0.4621 -0.1431  0.7429
  287TMC3    O1 4338   1.565   2.668   1.569 -0.1355 -0.5158  0.1880
  287TMC3    O2 4339   1.191   2.557   1.015  0.3672  0.5114 -0.3549
  288TMC3    C1 4340   3.090   2.777  14.291 -0.4522 -0.0873 -0.2267
  288TMC3    C2 4341   2.996   2.797  14.389 -0.7056 -0.1468 -0.8840
  288TMC3    C3 4342   2.878   2.845  14.352 -0.5606 -0.3617 -0.0529
  288TMC3    C4 4343   3.066   2.821  14.162  0.0509 -0.2810 -0.1688
  288TMC3    C5 4344   2.948   2.885  14.133  0.2157  0.1487 -0.1291
  288TMC3    C6 4345   2.856   2.904  14.233 -0.3367 -0.5000 -0.2909
  288TMC3     C 4346   3.228   2.733  14.325  0.3210 -0.2463 -0.0690
  288TMC3     O 4347   3.303   2.703  14.233  0.0783 -0.1876 -0.3346
  288TMC3     H 4348   3.006   2.741  14.481 -0.1948  0.2349 -0.7071
  288TMC3    H1 4349   3.147   2.822  14.090 -0.4132  0.3619 -0.6760
  288TMC3    H2 4350   2.758   2.945  14.213  1.7983  4.0224 -1.5766
  288TMC3    C7 4351   2.945   2.978  14.020 -0.3329 -0.6015  0.6775
  288TMC3    C8 4352   2.818   2.934  14.455 -0.2190  0.3181 -0.1253
  288TMC3    O1 4353   3.046   2.976  13.961 -0.0868  0.1432  0.4641
  288TMC3    O2 4354   2.773   3.041  14.421  0.0309  0.1446  0.1866
  289MPD2     C 4355   2.950   2.398  14.148  0.6618  0.3783  0.2511
  289MPD2    C1 4356   2.967   2.321  14.254 -0.0661  0.5635  1.0487
  289MPD2    C2 4357   2.860   2.262  14.321  0.8414 -0.4912  0.4232
  289MPD2    C3 4358   2.737   2.272  14.268  0.7695  0.0567 -0.1431
  289MPD2    C4 4359   2.716   2.352  14.159  0.1861 -0.2668 -0.1151
  289MPD2    C5 4360   2.821   2.425  14.105  0.0489 -0.1518 -0.0417
  289MPD2     H 4361   2.879   2.208  14.413 -1.9469 -1.6806  0.2893
  289MPD2    H1 4362   2.617   2.373  14.120 -0.3759  1.4379  2.2125
  289MPD2    H2 4363   3.025   2.460  14.101 -0.7319  3.1750  1.6875
  289MPD2    H3 4364   2.801   2.497  14.025 -2.7768 -2.1125 -1.0915
  289MPD2     N 4365   2.621   2.216  14.325 -0.5020 -0.4864  0.0135
  289MPD2    H5 4366   2.531   2.234  14.281 -1.5935 -1.9882  1.5838
  289MPD2    N1 4367   3.097   2.317  14.301 -0.5607  0.1320 -0.1080
  289MPD2    H7 4368   3.170   2.355  14.241 -3.5284  2.2997 -2.3949
  290TMC3    C1 4369   2.487   2.137  14.489 -0.0598  0.0592 -0.0732
  290TMC3    C2 4370   2.407   2.247  14.473  0.0226  0.1915  0.0541
  290TMC3    C3 4371   2.275   2.227  14.496 -0.7349  0.3592 -1.0358
  290TMC3    C4 4372   2.439   2.010  14.517  0.0029  0.5476 -0.1383
  290TMC3    C5 4373   2.307   1.990  14.522 -0.0894  0.3533  0.0293
  290TMC3    C6 4374   2.225   2.101  14.510  0.2562  0.1489 -0.2009
  290TMC3     C 4375   2.618   2.147  14.445 -0.3416 -0.9798 -0.7454
  290TMC3     O 4376   2.708   2.092  14.512  0.2213  0.0660 -0.3482
  290TMC3     H 4377   2.455   2.341  14.451 -1.5945  1.9127  4.0001
  290TMC3    H1 4378   2.506   1.926  14.507 -1.0078 -0.1387 -1.1348
  290TMC3    H2 4379   2.119   2.089  14.524  0.0587  1.3260 -0.6783
  290TMC3    C7 4380   2.241   1.891  14.611  0.5718 -0.2551  0.6740
  290TMC3    C8 4381   2.182   2.335  14.475  0.7173 -0.5679 -0.2002
  290TMC3    O1 4382   2.168   1.935  14.701 -0.2948 -0.2675  0.0013
  290TMC3    O2 4383   2.072   2.303  14.445  0.4046 -0.3200 -0.0671
  291MPD2     C 4384   2.015   2.065   0.336 -0.8481 -0.1094  1.0264
  291MPD2    C1 4385   2.022   1.924   0.298 -0.1480 -0.4473 -1.1116
  291MPD2    C2 4386   2.146   1.867   0.277  0.5311 -0.0674 -0.0549
  291MPD2    C3 4387   2.261   1.938   0.295  0.2694 -0.1138 -0.5160
  291MPD2    C4 4388   2.259   2.066   0.337  0.6039  0.1889  0.7802
  291MPD2    C5 4389   2.134   2.130   0.360  0.0586 -0.0389 -0.2704
  291MPD2     H 4390   2.149   1.760   0.257 -2.4405 -0.4891  1.7942
  291MPD2    H1 4391   2.352   2.120   0.347  0.4022  0.3287  1.9926
  291MPD2    H2 4392   1.921   2.117   0.345  0.2816  2.3840 -2.0967
  291MPD2    H3 4393   2.133   2.234   0.391 -0.7200 -0.6673  1.7648
  291MPD2     N 4394   2.383   1.873   0.307  0.5565 -0.1103 -0.0072
  291MPD2    H5 4395   2.460   1.929   0.343 -0.4667  0.9423  0.5405
  291MPD2    N1 4396   1.910   1.845   0.284 -0.3418 -0.3807  0.8305
  291MPD2    H7 4397   1.914   1.744   0.282 -0.2716 -0.3831  1.1175
  292TMC3    C1 4398   1.679   1.793   0.295 -0.4780 -0.3224 -0.1010
  292TMC3    C2 4399   1.580   1.800   0.392  0.0558  0.2425 -0.1918
  292TMC3    C3 4400   1.475   1.710   0.380 -0.0997 -0.3095  0.3013
  292TMC3    C4 4401   1.681   1.700   0.195  0.3108  0.0444 -0.2632
  292TMC3    C5 4402   1.578   1.611   0.191 -0.0179  0.1184  0.4535
  292TMC3    C6 4403   1.475   1.614   0.283  0.2985 -0.0067 -0.0562
  292TMC3     C 4404   1.779   1.893   0.291 -0.1298 -0.8364  0.1189
  292TMC3     O 4405   1.736   2.008   0.318 -0.0378  0.1908  0.1743
  292TMC3     H 4406   1.569   1.881   0.464  0.6182 -1.5176  1.8815
  292TMC3    H1 4407   1.764   1.686   0.126  1.0502  1.3801  0.3666
  292TMC3    H2 4408   1.397   1.540   0.276  0.1522  0.4783 -3.5689
  292TMC3    C7 4409   1.584   1.500   0.107 -0.2840 -0.6951 -0.2646
  292TMC3    C8 4410   1.378   1.690   0.481  0.4951  1.0022  0.6976
  292TMC3    O1 4411   1.692   1.442   0.092 -0.2905  0.3249 -0.9029
  292TMC3    O2 4412   1.266   1.653   0.443  0.3915  0.2023  0.3860
  293MPD2     C 4413   4.234   3.153  12.429 -1.1127 -0.0795 -0.1703
  293MPD2    C1 4414   4.128   3.111  12.508 -0.8815  0.4349  0.5168
  293MPD2    C2 4415   4.129   3.131  12.650  0.2962 -0.3335  0.6432
  293MPD2    C3 4416   4.245   3.184  12.706  0.0742 -0.1861  0.1301
  293MPD2    C4 4417   4.347   3.239  12.626 -0.4519 -0.0010  0.0052
  293MPD2    C5 4418   4.335   3.212  12.495 -0.1349 -0.3116 -0.2208
  293MPD2     H 4419   4.043   3.110  12.712 -0.9112 -1.6746 -1.5126
  293MPD2    H1 4420   4.437   3.294  12.652  0.0484 -1.7111  1.8673
  293MPD2    H2 4421   4.231   3.152  12.320 -1.3038 -1.9442 -0.1552
  293MPD2    H3 4422   4.418   3.244  12.434 -0.1626 -1.2225 -0.7259
  293MPD2     N 4423   4.251   3.184  12.847 -0.1065 -0.4462  0.2433
  293MPD2    H5 4424   4.185   3.121  12.891 -0.8264  0.1966  0.0906
  293MPD2    N1 4425   4.026   3.049  12.427 -0.5871  0.5794 -0.0775
  293MPD2    H7 4426   4.041   3.039  12.327 -0.6424 -1.0185  0.0718
  294TMC3    C1 4427   3.818   2.970  12.384 -0.0987  0.1515  0.2326
  294TMC3    C2 4428   3.692   2.936  12.421  0.1189 -0.1573 -0.1641
  294TMC3    C3 4429   3.598   2.916  12.328 -0.3418  0.3247 -0.2852
  294TMC3    C4 4430   3.855   2.969  12.252 -0.5189 -0.0150 -0.4475
  294TMC3    C5 4431   3.753   2.948  12.158 -0.7368 -0.5870 -0.9263
  294TMC3    C6 4432   3.622   2.927  12.194  0.4391 -0.5165  0.3764
  294TMC3     C 4433   3.911   3.009  12.485 -0.2619  0.1984 -0.2615
  294TMC3     O 4434   3.871   3.010  12.599  0.3203  0.0737  0.5892
  294TMC3     H 4435   3.670   2.929  12.527 -0.4838  1.0380 -0.2067
  294TMC3    H1 4436   3.954   2.989  12.211 -0.2440 -0.1375  0.1645
  294TMC3    H2 4437   3.537   2.927  12.127  0.3779  1.7307  0.4337
  294TMC3    C7 4438   3.788   2.943  12.016  0.0302 -0.6159 -0.3841
  294TMC3    C8 4439   3.486   2.837  12.369  0.1521  0.4206  0.5270
  294TMC3    O1 4440   3.709   2.971  11.925  0.2450 -0.2086 -0.3693
  294TMC3    O2 4441   3.433   2.862  12.477 -0.0022 -0.0458  0.2899
  295MPD2     C 4442   3.891   1.824   0.006 -0.6346  0.7755  0.8933
  295MPD2    C1 4443   4.004   1.811   0.083  0.1156 -0.0209 -0.2011
  295MPD2    C2 4444   3.996   1.860   0.210 -0.3766  0.3224  0.2884
  295MPD2    C3 4445   3.883   1.913   0.266 -0.1752 -0.4046 -0.1295
  295MPD2    C4 4446   3.764   1.901   0.194 -0.3713 -0.4453  0.0111
  295MPD2    C5 4447   3.775   1.872   0.063  0.0786 -0.1004  1.2614
  295MPD2     H 4448   4.082   1.851   0.276  0.1945 -0.4174 -0.5568
  295MPD2    H1 4449   3.670   1.934   0.238 -0.6233 -0.6835 -0.3489
  295MPD2    H2 4450   3.889   1.811  17.598  0.8834  0.2832  0.9257
  295MPD2    H3 4451   3.691   1.889  17.697  1.1565 -3.1823 -0.9109
  295MPD2     N 4452   3.880   1.969   0.401 -0.6624 -0.4267  0.5678
  295MPD2    H5 4453   3.793   2.000   0.443 -1.2837 -2.0083  0.4466
  295MPD2    N1 4454   4.134   1.801   0.038  0.2711 -0.2597 -0.6244
  295MPD2    H7 4455   4.205   1.809   0.110 -1.0253  0.2247  0.6007
  296TMC3    C1 4456   3.962   2.031   0.607  0.5509 -0.2292 -0.2859
  296TMC3    C2 4457   4.057   2.105   0.661 -0.4643  0.6518  0.2061
  296TMC3    C3 4458   4.040   2.159   0.786  0.4676  0.0278 -0.1682
  296TMC3    C4 4459   3.850   1.994   0.672 -0.0179  0.7745 -0.1031
  296TMC3    C5 4460   3.838   2.038   0.801  0.4070 -0.9038  0.8174
  296TMC3    C6 4461   3.933   2.124   0.863 -1.0170  0.3455 -0.3577
  296TMC3     C 4462   3.995   1.995   0.468 -0.7773  0.5900 -0.4742
  296TMC3     O 4463   4.104   2.020   0.419  0.3040 -0.1932 -0.0724
  296TMC3     H 4464   4.148   2.127   0.606  0.6209 -1.4968  1.1365
  296TMC3    H1 4465   3.786   1.911   0.644  0.5526 -0.3688  1.9590
  296TMC3    H2 4466   3.923   2.164   0.964  1.3985  1.2363 -0.4700
  296TMC3    C7 4467   3.719   1.995   0.878  0.0834  0.7222  1.0779
  296TMC3    C8 4468   4.156   2.228   0.837  0.1598  0.0526  0.1541
  296TMC3    O1 4469   3.622   1.964   0.807  0.3490  0.3577 -0.7338
  296TMC3    O2 4470   4.255   2.225   0.764  0.4203 -0.1318 -0.5715
  297MPD2     C 4471   1.779   4.120  16.261  0.1332  0.1040 -0.7291
  297MPD2    C1 4472   1.692   4.227  16.254  0.5540  0.3481 -0.1511
  297MPD2    C2 4473   1.736   4.353  16.233 -0.0904  0.3857  0.1018
  297MPD2    C3 4474   1.868   4.376  16.211  0.6450 -0.4412  0.0448
  297MPD2    C4 4475   1.959   4.277  16.229  0.4710 -0.7972  0.1320
  297MPD2    C5 4476   1.912   4.150  16.246  0.3768 -0.0400  0.1458
  297MPD2     H 4477   1.666   4.436  16.225 -0.1697  0.2399 -0.7250
  297MPD2    H1 4478   2.063   4.305  16.215 -0.2432  1.5710 -0.3304
  297MPD2    H2 4479   1.753   4.017  16.281 -4.2913  1.6278  1.4268
  297MPD2    H3 4480   1.981   4.067  16.241  1.8689  1.0606  2.4591
  297MPD2     N 4481   1.917   4.500  16.172 -0.2059 -0.5177 -0.2300
  297MPD2    H5 4482   2.015   4.491  16.145  0.6869 -0.4241  2.9599
  297MPD2    N1 4483   1.551   4.204  16.245 -0.3511 -0.2293  0.3959
  297MPD2    H7 4484   1.485   4.275  16.217 -0.0379  0.0611  0.3900
  298TMC3    C1 4485   1.350   4.084  16.241 -0.3020 -0.3360  0.2438
  298TMC3    C2 4486   1.325   4.112  16.111 -0.5518  0.4474  0.0056
  298TMC3    C3 4487   1.195   4.108  16.072  0.0253  0.0633 -0.5943
  298TMC3    C4 4488   1.252   4.045  16.333 -0.3391 -0.6499  1.1606
  298TMC3    C5 4489   1.118   4.048  16.289 -0.3701  0.5361 -0.3076
  298TMC3    C6 4490   1.088   4.086  16.158  0.6624  0.1477  0.3282
  298TMC3     C 4491   1.490   4.089  16.284  0.1180  0.0597 -0.8843
  298TMC3     O 4492   1.529   3.994  16.355  0.3179 -0.3373  0.0886
  298TMC3     H 4493   1.414   4.119  16.049 -0.1269  0.8273  0.6495
  298TMC3    H1 4494   1.283   4.037  16.437  0.6452  0.2130  0.9396
  298TMC3    H2 4495   0.986   4.112  16.132  0.3215 -0.8039  0.6964
  298TMC3    C7 4496   1.009   4.054  16.388 -0.1817 -1.0804 -0.0007
  298TMC3    C8 4497   1.186   4.115  15.927 -0.2592  0.1586  0.2127
  298TMC3    O1 4498   1.039   4.080  16.503 -0.4532 -0.4893  0.0401
  298TMC3    O2 4499   1.284   4.139  15.862  0.8422 -0.1125 -0.1309
  299MPD2     C 4500   2.023   3.346  10.248  0.1043 -0.6103  0.3074
  299MPD2    C1 4501   2.101   3.458  10.270  0.1597 -0.1990 -0.3514
  299MPD2    C2 4502   2.050   3.588  10.256 -1.4342  0.0825  0.1999
  299MPD2    C3 4503   1.910   3.592  10.244 -0.4154  0.2371  0.2018
  299MPD2    C4 4504   1.831   3.479  10.228  0.6013  0.5873 -0.7250
  299MPD2    C5 4505   1.888   3.355  10.211  0.4108 -0.3919  0.6915
  299MPD2     H 4506   2.115   3.674  10.261 -2.8969  1.3108 -2.0751
  299MPD2    H1 4507   1.725   3.496  10.214  0.5538 -0.2170 -1.3100
  299MPD2    H2 4508   2.055   3.243  10.261  0.2277 -0.4566  1.1895
  299MPD2    H3 4509   1.833   3.263  10.197  2.0824 -1.0788 -1.3941
  299MPD2     N 4510   1.842   3.714  10.239  0.1202 -0.0943  0.7141
  299MPD2    H5 4511   1.741   3.708  10.251  0.1480  0.9428  1.4780
  299MPD2    N1 4512   2.232   3.435  10.323  0.6761 -0.3067  0.3148
  299MPD2    H7 4513   2.246   3.338  10.349 -2.0972 -0.7872 -0.0442
  300TMC3    C1 4514   1.790   3.940  10.280 -0.6076  0.1659  0.0363
  300TMC3    C2 4515   1.829   4.015  10.384  0.4950 -0.2093 -0.0129
  300TMC3    C3 4516   1.729   4.063  10.466 -0.5223 -0.1278 -0.1233
  300TMC3    C4 4517   1.661   3.925  10.239 -0.1971 -0.6486 -0.7707
  300TMC3    C5 4518   1.569   3.976  10.325  0.6934  0.0771 -0.1440
  300TMC3    C6 4519   1.594   4.047  10.442  0.0220  0.4442 -0.3039
  300TMC3     C 4520   1.891   3.841  10.242 -0.1042  0.5092  0.1124
  300TMC3     O 4521   2.007   3.880  10.241  0.7767 -0.6339 -1.3117
  300TMC3     H 4522   1.934   4.022  10.410 -0.0378 -0.8497  2.3058
  300TMC3    H1 4523   1.633   3.872  10.149 -0.3253 -4.1637  1.3471
  300TMC3    H2 4524   1.523   4.081  10.515 -2.0283 -1.0557 -1.6046
  300TMC3    C7 4525   1.444   3.916  10.312 -0.4744 -0.5414  0.7043
  300TMC3    C8 4526   1.756   4.121  10.600  0.4818  0.2644 -0.4949
  300TMC3    O1 4527   1.397   3.882  10.202  0.7623  0.7012 -0.0956
  300TMC3    O2 4528   1.663   4.151  10.672  0.4518  0.0046  0.1510
  301MPD2     C 4529   4.344   0.217   1.712  0.1265 -0.0467  0.1874
  301MPD2    C1 4530   4.227   0.198   1.630  0.5212 -0.6651  0.6181
  301MPD2    C2 4531   4.203   0.070   1.586  0.2899  0.7528  0.2727
  301MPD2    C3 4532   4.283   4.692   1.626  0.6164  0.5187  0.0317
  301MPD2    C4 4533   4.401   4.716   1.695 -0.1070  0.3942  0.7051
  301MPD2    C5 4534   4.426   0.112   1.756 -0.2803 -0.0863  0.1734
  301MPD2     H 4535   4.116   0.054   1.524  0.5343 -1.2297  0.4410
  301MPD2    H1 4536   4.461   4.630   1.722 -1.2065 -0.1752  1.3493
  301MPD2    H2 4537   4.381   0.313   1.749 -1.1719  0.7373 -0.5656
  301MPD2    H3 4538   4.513   0.127   1.819 -0.0520 -2.2423  0.3530
  301MPD2     N 4539   4.273   4.562   1.573 -0.2818 -0.0021 -1.3932
  301MPD2    H5 4540   4.356   4.506   1.591  1.3878  2.3023 -1.9572
  301MPD2    N1 4541   4.129   0.297   1.595  0.0741  0.3256 -0.0884
  301MPD2    H7 4542   4.042   0.270   1.551  0.4521 -0.7703 -0.1411
  302TMC3    C1 4543   4.186   4.368   1.449  0.3842  0.3663  0.5472
  302TMC3    C2 4544   4.283   4.290   1.509 -0.4681 -0.3293 -0.1661
  302TMC3    C3 4545   4.286   4.156   1.476  0.2671  0.4522  0.0784
  302TMC3    C4 4546   4.092   4.313   1.364 -0.4929 -0.0417  0.0450
  302TMC3    C5 4547   4.096   4.180   1.340  0.4888 -0.7731  0.6987
  302TMC3    C6 4548   4.186   4.100   1.400  0.0479 -0.0643 -0.9020
  302TMC3     C 4549   4.173   4.514   1.484 -0.1462  0.3534 -0.1910
  302TMC3     O 4550   4.080   4.574   1.435  0.2407  0.3379  0.8078
  302TMC3     H 4551   4.349   4.321   1.590 -1.9750 -0.7050  1.2053
  302TMC3    H1 4552   4.027   4.378   1.307 -0.6405  1.7390  2.2328
  302TMC3    H2 4553   4.185   3.997   1.367  0.1524 -0.8158  1.4470
  302TMC3    C7 4554   4.041   4.130   1.220 -0.6379 -0.0208 -0.2748
  302TMC3    C8 4555   4.395   4.080   1.517 -0.0967  0.8320  0.3935
  302TMC3    O1 4556   4.102   4.044   1.152 -0.5125  0.0578  0.2746
  302TMC3    O2 4557   4.507   4.132   1.508 -0.1246  0.5832  0.0085
  303MPD2     C 4558   4.242   2.398  10.559 -1.0838 -0.4387  0.4585
  303MPD2    C1 4559   4.295   2.286  10.607  0.7071  0.0257  0.5336
  303MPD2    C2 4560   4.424   2.253  10.560 -0.0251  0.1041 -0.1534
  303MPD2    C3 4561   4.488   2.328  10.463 -0.5668  0.2267 -0.0464
  303MPD2    C4 4562   4.433   2.443  10.416 -0.3612 -0.6990 -0.2361
  303MPD2    C5 4563   4.310   2.485  10.471  0.3073  0.0070  0.6658
  303MPD2     H 4564   4.467   2.158  10.592 -0.8338  0.4323  1.9202
  303MPD2    H1 4565   4.484   2.512  10.350  0.9738 -1.0288  0.4495
  303MPD2    H2 4566   4.148   2.438  10.596 -0.0799  0.3295  2.2025
  303MPD2    H3 4567   4.260   2.573  10.432  2.2975 -0.1637 -2.2739
  303MPD2     N 4568   4.620   2.299  10.414  0.2841 -0.6921  0.1445
  303MPD2    H5 4569   4.665   2.377  10.368  1.3019 -0.2520  1.9089
  303MPD2    N1 4570   4.217   2.198  10.691  0.0705 -0.0308 -0.4444
  303MPD2    H7 4571   4.118   2.212  10.709 -0.0592 -1.3886 -0.0453
  304TMC3    C1 4572   4.163   1.985  10.758 -0.7982  0.1283  0.9258
  304TMC3    C2 4573   4.055   1.994  10.679 -0.0013 -0.1420  0.0673
  304TMC3    C3 4574   3.969   1.893  10.680  0.9456  0.2714  0.1165
  304TMC3    C4 4575   4.189   1.871  10.833  0.0774  0.2867 -0.3597
  304TMC3    C5 4576   4.104   1.767  10.832  0.6490  0.2171 -0.0086
  304TMC3    C6 4577   3.989   1.783  10.762  0.5969 -0.0792 -0.5651
  304TMC3     C 4578   4.264   2.083  10.752  0.3167  0.3925  0.3072
  304TMC3     O 4579   4.362   2.066  10.817  0.0818  1.0952  0.2740
  304TMC3     H 4580   4.040   2.064  10.598  0.9248 -1.0906 -0.9220
  304TMC3    H1 4581   4.274   1.860  10.901  1.3700  0.5630 -1.9311
  304TMC3    H2 4582   3.916   1.703  10.767 -0.3268  0.7734 -0.3232
  304TMC3    C7 4583   4.161   1.637  10.797  0.7307 -0.5515  0.1633
  304TMC3    C8 4584   3.925   1.853  10.548  0.5155 -0.2535  0.0724
  304TMC3    O1 4585   4.229   1.587  10.885  0.6542 -0.3944 -0.0786
  304TMC3    O2 4586   3.953   1.732  10.524  0.1209  0.0243 -0.5821
  305MPD2     C 4587   2.701   0.446  14.089 -0.4854 -0.1132  0.0674
  305MPD2    C1 4588   2.646   0.323  14.107  0.3222 -0.2166  0.7098
  305MPD2    C2 4589   2.608   0.239  14.003 -0.1127 -0.2916  0.8948
  305MPD2    C3 4590   2.638   0.277  13.876 -0.6400 -0.5082 -0.1162
  305MPD2    C4 4591   2.703   0.400  13.849  0.1475 -0.2026  0.6079
  305MPD2    C5 4592   2.726   0.481  13.957 -0.0325 -0.2208 -0.0919
  305MPD2     H 4593   2.564   0.141  14.019 -1.1509 -0.0485 -0.4234
  305MPD2    H1 4594   2.733   0.429  13.749  0.0810  1.3928  1.0626
  305MPD2    H2 4595   2.741   0.514  14.163 -2.6032  2.5481 -1.2426
  305MPD2    H3 4596   2.768   0.575  13.923  1.5262 -1.1431 -0.6668
  305MPD2     N 4597   2.617   0.194  13.768  0.2003  0.0074  0.1141
  305MPD2    H5 4598   2.649   0.238  13.683 -0.9198 -0.4816 -0.5723
  305MPD2    N1 4599   2.611   0.303  14.241 -0.3994 -0.1208  0.1842
  305MPD2    H7 4600   2.618   0.381  14.307  1.3471  0.0217 -0.1642
  306TMC3    C1 4601   2.585   0.194  14.442  0.4193  0.1734  0.2539
  306TMC3    C2 4602   2.697   0.146  14.506  0.0606 -0.4540  0.6887
  306TMC3    C3 4603   2.733   0.210  14.618 -0.5594 -0.0438  0.0969
  306TMC3    C4 4604   2.527   0.317  14.479  0.4952  0.1645  0.3271
  306TMC3    C5 4605   2.565   0.368  14.596  0.2699 -0.0159  0.3360
  306TMC3    C6 4606   2.677   0.330  14.661 -0.3095  0.2387 -0.4494
  306TMC3     C 4607   2.583   0.182  14.303  1.5950 -0.3584 -0.6395
  306TMC3     O 4608   2.582   0.063  14.260  0.0865  0.3085 -0.9003
  306TMC3     H 4609   2.754   0.068  14.457 -0.7319 -0.7225  0.1983
  306TMC3    H1 4610   2.437   0.354  14.431  0.9488  0.0544 -0.6191
  306TMC3    H2 4611   2.720   0.385  14.743 -1.7358 -0.0504  0.4961
  306TMC3    C7 4612   2.484   0.456  14.678 -0.2348 -0.0037 -0.4089
  306TMC3    C8 4613   2.850   0.153  14.689  0.6409  0.1925 -0.8873
  306TMC3    O1 4614   2.367   0.429  14.701 -0.2018 -0.2188  0.3204
  306TMC3    O2 4615   2.888   0.043  14.644  0.0708 -0.1424 -0.1524
  307MPD2     C 4616   0.165   2.650   0.468 -0.7097 -0.5227 -0.1498
  307MPD2    C1 4617   0.177   2.748   0.561 -0.5061 -0.1646 -0.1316
  307MPD2    C2 4618   0.084   2.763   0.660 -0.0283  0.5791 -0.3630
  307MPD2    C3 4619   4.697   2.686   0.664  0.2962 -0.1941  0.3472
  307MPD2    C4 4620   4.677   2.594   0.564 -0.5286  0.1231  0.2289
  307MPD2    C5 4621   0.054   2.565   0.476  0.0438  0.9044 -0.3615
  307MPD2     H 4622   0.094   2.836   0.740  1.5639  2.2254 -2.0621
  307MPD2    H1 4623   4.587   2.535   0.556 -0.6342  0.3074  0.0512
  307MPD2    H2 4624   0.230   2.640   0.382  0.7869 -2.7314  1.2398
  307MPD2    H3 4625   0.035   2.491   0.399 -0.4308  1.4083 -0.7279
  307MPD2     N 4626   4.598   2.712   0.763 -0.3344 -0.1299  0.4858
  307MPD2    H5 4627   4.609   2.789   0.828 -0.4999 -1.4293  2.0701
  307MPD2    N1 4628   0.276   2.847   0.553 -0.6287  0.6648  0.2360
  307MPD2    H7 4629   0.252   2.930   0.607 -0.1039  1.3337 -0.5549
  308TMC3    C1 4630   4.190   2.777   0.928  0.5497  0.1683  0.1845
  308TMC3    C2 4631   4.243   2.882   0.996  0.3547  0.6042  0.0024
  308TMC3    C3 4632   4.379   2.885   1.016  0.5000 -1.2238  0.2751
  308TMC3    C4 4633   4.273   2.686   0.873  0.6424 -0.4972 -0.2866
  308TMC3    C5 4634   4.410   2.686   0.899 -1.0439  0.1462  0.1310
  308TMC3    C6 4635   4.461   2.790   0.965 -1.0940 -0.3058  0.0238
  308TMC3     C 4636   4.051   2.794   0.874 -0.4017  0.1430 -0.6865
  308TMC3     O 4637   3.990   2.695   0.834  0.0364 -0.9319 -0.8334
  308TMC3     H 4638   4.176   2.947   1.052 -0.9473 -0.0230 -0.8197
  308TMC3    H1 4639   4.242   2.604   0.810  2.6365 -4.2406  3.5589
  308TMC3    H2 4640   4.564   2.790   0.998 -0.4112  1.7684 -2.0722
  308TMC3    C7 4641   4.493   2.625   0.796 -0.2662  0.0811 -0.0769
  308TMC3    C8 4642   4.429   2.989   1.109  0.0550  0.0566  0.0906
  308TMC3    O1 4643   4.441   2.529   0.734 -0.0606 -0.4783  0.2500
  308TMC3    O2 4644   4.532   2.958   1.167 -0.4503  0.4543  0.1363
  309MPD2     C 4645   3.834   3.686  16.901 -0.3948  0.4465  0.2032
  309MPD2    C1 4646   3.920   3.734  17.003 -0.7280 -0.9435  0.1294
  309MPD2    C2 4647   3.864   3.795  17.117  0.1886  0.0427  0.2021
  309MPD2    C3 4648   3.729   3.808  17.126 -0.7628  0.0969 -0.6109
  309MPD2    C4 4649   3.644   3.754  17.029  0.3195 -0.7716  1.0569
  309MPD2    C5 4650   3.700   3.695  16.924 -0.5716  0.3129  0.6229
  309MPD2     H 4651   3.931   3.826  17.196 -0.3667  0.3086  0.5672
  309MPD2    H1 4652   3.535   3.751  17.029  0.3291 -1.1283  1.1724
  309MPD2    H2 4653   3.874   3.653  16.805 -2.2072 -3.6559  0.8525
  309MPD2    H3 4654   3.632   3.667  16.845  0.1997  1.2999 -0.3910
  309MPD2     N 4655   3.673   3.891  17.224 -0.2305 -0.5442  0.4616
  309MPD2    H5 4656   3.581   3.926  17.199  0.0303 -1.5892 -1.9707
  309MPD2    N1 4657   4.055   3.728  16.962  0.3456 -0.3963 -0.9647
  309MPD2    H7 4658   4.076   3.697  16.868 -0.1542 -0.5093 -1.0405
  310TMC3    C1 4659   4.286   3.741  16.977 -0.1340 -0.7717  0.2593
  310TMC3    C2 4660   4.284   3.753  16.842  0.1522 -0.2695  0.3261
  310TMC3    C3 4661   4.394   3.727  16.770 -0.5709  0.4041 -0.5880
  310TMC3    C4 4662   4.397   3.714  17.047  0.1117 -0.6919 -1.0607
  310TMC3    C5 4663   4.513   3.684  16.969  0.2533  0.5694  0.0934
  310TMC3    C6 4664   4.515   3.683  16.829 -0.4603  0.1311  0.1658
  310TMC3     C 4665   4.159   3.759  17.045 -0.3133  0.3772 -0.4269
  310TMC3     O 4666   4.158   3.776  17.165 -0.3140 -0.4094  0.6739
  310TMC3     H 4667   4.195   3.781  16.787 -0.7740 -0.8615  1.5085
  310TMC3    H1 4668   4.392   3.686  17.151 -2.1657  0.2090 -0.9468
  310TMC3    H2 4669   4.593   3.635  16.772 -0.1313  2.5254 -1.4139
  310TMC3    C7 4670   4.623   3.620  17.033 -0.6742 -0.5353 -0.6458
  310TMC3    C8 4671   4.402   3.778  16.633  1.0147 -0.1961 -0.1043
  310TMC3    O1 4672   4.693   3.551  16.957  0.1033 -0.0197 -0.4445
  310TMC3    O2 4673   4.300   3.796  16.571 -0.2137  0.2920  0.1695
  311MPD2     C 4674   1.833   4.195  13.028  0.1433 -0.2386 -0.5517
  311MPD2    C1 4675   1.823   4.331  13.004  0.1148  0.2659 -0.2167
  311MPD2    C2 4676   1.698   4.381  12.974  0.1914  0.1112 -0.4710
  311MPD2    C3 4677   1.586   4.305  12.986 -0.5867  0.4153  0.3779
  311MPD2    C4 4678   1.597   4.173  13.013 -0.1095 -0.4148 -0.1047
  311MPD2    C5 4679   1.722   4.114  13.028  0.0878 -0.0981  0.1919
  311MPD2     H 4680   1.700   4.489  12.958 -3.5235  0.3856  0.8514
  311MPD2    H1 4681   1.511   4.107  13.014 -0.5463  0.1571  0.9378
  311MPD2    H2 4682   1.927   4.141  13.026  0.7958  0.9021 -0.7775
  311MPD2    H3 4683   1.735   4.009  13.053 -2.6404 -0.2973  0.7262
  311MPD2     N 4684   1.473   4.380  12.960  0.4221  0.1049  0.5480
  311MPD2    H5 4685   1.491   4.469  12.915  0.0601  0.2045  0.6004
  311MPD2    N1 4686   1.944   4.414  13.000 -0.1043  0.8076  0.1601
  311MPD2    H7 4687   1.940   4.513  12.977  0.7607  1.0911  1.2137
  312TMC3    C1 4688   1.252   4.449  12.915  0.7491 -0.0066  0.5192
  312TMC3    C2 4689   1.130   4.405  12.880  0.1173 -0.0212 -0.1741
  312TMC3    C3 4690   1.039   4.499  12.838  0.7655 -0.3684  0.4145
  312TMC3    C4 4691   1.294   4.582  12.919  0.3736  0.5360 -0.5483
  312TMC3    C5 4692   1.189   4.668  12.901 -0.7686 -0.4230  0.3947
  312TMC3    C6 4693   1.071   4.631  12.853  0.3837 -0.2512  0.3747
  312TMC3     C 4694   1.342   4.342  12.967 -0.4041 -0.5713 -0.0642
  312TMC3     O 4695   1.305   4.228  12.976  0.0848  0.3950 -0.4683
  312TMC3     H 4696   1.113   4.303  12.850 -0.0053  0.1758 -0.7709
  312TMC3    H1 4697   1.390   4.615  12.957 -0.1526  1.9796 -0.4493
  312TMC3    H2 4698   1.000   4.709  12.828  0.6057  0.1527  0.9863
  312TMC3    C7 4699   1.216   0.089  12.900  0.3119 -0.9316  0.0127
  312TMC3    C8 4700   0.902   4.453  12.815  1.0750  0.3067  0.1948
  312TMC3    O1 4701   1.144   0.161  12.831  0.0005  0.0539  0.7071
  312TMC3    O2 4702   0.874   4.337  12.823  0.7449  0.0381 -0.3210
  313MPD2     C 4703   0.641   3.819  11.466  0.3485  0.7178  0.3766
  313MPD2    C1 4704   0.708   3.832  11.346 -0.4210 -0.2152 -0.3669
  313MPD2    C2 4705   0.674   3.744  11.240 -0.6132  0.9941  0.3479
  313MPD2    C3 4706   0.585   3.640  11.253  0.4156  0.4121 -0.0707
  313MPD2    C4 4707   0.506   3.635  11.371  0.2267 -0.3607  0.0021
  313MPD2    C5 4708   0.547   3.718  11.475  0.0702  0.4547 -0.8934
  313MPD2     H 4709   0.718   3.766  11.144 -2.5775 -0.4478 -0.8679
  313MPD2    H1 4710   0.434   3.559  11.397 -1.1055  0.8121 -0.2991
  313MPD2    H2 4711   0.662   3.876  11.556  0.0036 -0.1982  1.0431
  313MPD2    H3 4712   0.505   3.697  11.573  0.3386  1.9001 -0.4685
  313MPD2     N 4713   0.579   3.550  11.142 -0.0963  0.5286  0.1999
  313MPD2    H5 4714   0.651   3.556  11.070 -1.9455  0.3251 -1.6596
  313MPD2    N1 4715   0.826   3.917  11.330  0.1476  0.5198  0.1330
  313MPD2    H7 4716   0.876   3.917  11.241 -2.0145 -0.8864 -1.0975
  314TMC3    C1 4717   0.995   4.073  11.372  0.6862 -0.5023  0.1681
  314TMC3    C2 4718   1.102   4.106  11.449 -0.9254 -0.3640 -0.3489
  314TMC3    C3 4719   1.208   4.172  11.395 -0.7124  0.4676  0.2453
  314TMC3    C4 4720   0.991   4.106  11.241  0.1252 -0.7284 -0.0688
  314TMC3    C5 4721   1.098   4.167  11.190  0.2545 -0.1010 -0.0631
  314TMC3    C6 4722   1.206   4.200  11.257  0.5713 -0.6761 -1.0581
  314TMC3     C 4723   0.886   3.996  11.426  0.2725  0.6119 -0.5155
  314TMC3     O 4724   0.875   3.972  11.546 -0.8251  0.4287 -0.2399
  314TMC3     H 4725   1.095   4.075  11.553 -1.9496 -1.3506 -0.7045
  314TMC3    H1 4726   0.903   4.090  11.179  1.2214 -0.1599 -1.7998
  314TMC3    H2 4727   1.283   4.261  11.211 -0.8835  0.3092 -2.1898
  314TMC3    C7 4728   1.088   4.182  11.042  0.1116 -0.4818  0.6835
  314TMC3    C8 4729   1.300   4.246  11.470  0.0310  0.3424  0.1833
  314TMC3    O1 4730   0.986   4.152  10.982 -0.1761 -0.0363  0.7591
  314TMC3    O2 4731   1.371   4.324  11.407 -0.0277 -0.1618  0.1723
  315MPD2     C 4732   0.772   3.579   0.288 -0.3633 -0.0992  0.4336
  315MPD2    C1 4733   0.862   3.640   0.372  0.0197  0.5078  0.0508
  315MPD2    C2 4734   0.934   3.749   0.328 -0.9242 -0.8712 -0.3296
  315MPD2    C3 4735   0.922   3.799   0.199 -0.4031 -0.4826  0.1936
  315MPD2    C4 4736   0.835   3.738   0.111  0.0753 -0.2564  0.4308
  315MPD2    C5 4737   0.759   3.624   0.158 -0.1180  0.7412 -0.4357
  315MPD2     H 4738   1.004   3.795   0.396 -1.1513 -0.7162 -0.1997
  315MPD2    H1 4739   0.822   3.766   0.007 -1.5705  0.1799  0.7510
  315MPD2    H2 4740   0.722   3.486   0.314 -1.4764  0.3579 -0.1090
  315MPD2    H3 4741   0.697   3.566   0.090 -0.0973  1.3754 -0.9972
  315MPD2     N 4742   0.999   3.911   0.161 -0.1939  0.2897  0.1944
  315MPD2    H5 4743   1.071   3.948   0.222  0.5173 -0.4266 -0.2265
  315MPD2    N1 4744   0.892   3.588   0.499 -0.4646 -0.1191  0.3085
  315MPD2    H7 4745   0.979   3.617   0.540 -1.2808  1.5628  0.8546
  316TMC3    C1 4746   1.088   4.086   0.034 -0.3879  0.2674 -0.0213
  316TMC3    C2 4747   1.192   4.080   0.121  0.1154  0.6497 -0.6675
  316TMC3    C3 4748   1.256   4.197   0.153 -0.7084  0.4731  0.2476
  316TMC3    C4 4749   1.057   4.197  17.657  0.0607 -0.7399 -0.2064
  316TMC3    C5 4750   1.117   4.314  17.696 -0.6431 -0.5417  0.3690
  316TMC3    C6 4751   1.206   4.316   0.099  0.5099  0.4405  0.1931
  316TMC3     C 4752   0.993   3.977   0.036  0.0237  0.6888  0.6875
  316TMC3     O 4753   0.910   3.971  17.644 -0.2137  0.2482 -0.1690
  316TMC3     H 4754   1.248   3.989   0.140 -0.9145 -0.2819 -2.0982
  316TMC3    H1 4755   0.969   4.194  17.594 -0.2980 -2.2707  0.3576
  316TMC3    H2 4756   1.254   4.414   0.102  0.5360  0.5320 -2.8428
  316TMC3    C7 4757   1.074   4.445  17.644 -0.5781  0.7440  0.6733
  316TMC3    C8 4758   1.384   4.208   0.216  0.4157 -0.7431 -0.5149
  316TMC3    O1 4759   1.076   4.543   0.025  0.3510 -0.4519 -0.0098
  316TMC3    O2 4760   1.430   4.320   0.215 -0.0244  0.2156  0.0896
  317MPD2     C 4761   2.582   1.782  12.282  0.5926 -0.8948  0.1204
  317MPD2    C1 4762   2.721   1.782  12.280 -0.4049  0.5334  0.4720
  317MPD2    C2 4763   2.790   1.764  12.399 -0.7734 -0.5144  0.2916
  317MPD2    C3 4764   2.725   1.719  12.510  0.5277  0.4847 -0.0646
  317MPD2    C4 4765   2.591   1.718  12.515 -0.2154 -0.3150  0.2536
  317MPD2    C5 4766   2.519   1.744  12.400 -0.2494 -0.5744 -0.0485
  317MPD2     H 4767   2.898   1.771  12.403 -0.8227  1.0230 -0.7924
  317MPD2    H1 4768   2.533   1.687  12.601 -0.0978 -0.4544  0.2833
  317MPD2    H2 4769   2.522   1.789  12.193 -0.2101  2.1872  0.9259
  317MPD2    H3 4770   2.413   1.763  12.412  0.0010 -1.0224  2.7556
  317MPD2     N 4771   2.806   1.680  12.616 -0.3816 -0.1850 -0.8273
  317MPD2    H5 4772   2.904   1.707  12.606  0.3710 -1.7257  2.5559
  317MPD2    N1 4773   2.792   1.805  12.162  0.0204 -0.3093  0.3453
  317MPD2    H7 4774   2.889   1.834  12.163  0.3448 -1.3191 -1.9979
  318TMC3    C1 4775   2.875   1.582  12.829 -0.5357 -0.3777 -0.0928
  318TMC3    C2 4776   2.840   1.491  12.926 -0.6040  0.7098 -0.2541
  318TMC3    C3 4777   2.939   1.427  13.000  0.5678  0.6191 -0.4123
  318TMC3    C4 4778   3.005   1.616  12.810 -0.5130  0.2994  0.1317
  318TMC3    C5 4779   3.099   1.555  12.898 -0.3433  0.2548 -0.8380
  318TMC3    C6 4780   3.074   1.457  12.988 -0.4062 -0.7197 -0.2059
  318TMC3     C 4781   2.769   1.614  12.729  0.3543  0.3191 -0.1055
  318TMC3     O 4782   2.660   1.563  12.753 -0.2694  0.8725 -0.0085
  318TMC3     H 4783   2.735   1.473  12.946 -0.1757 -2.2566 -0.6259
  318TMC3    H1 4784   3.029   1.715  12.772 -2.0275  0.5149 -0.2934
  318TMC3    H2 4785   3.150   1.418  13.054 -0.2205 -0.9482 -0.5583
  318TMC3    C7 4786   3.236   1.600  12.880  0.5401 -0.1697  0.1282
  318TMC3    C8 4787   2.907   1.316  13.094 -0.1633 -0.1807 -0.1033
  318TMC3    O1 4788   3.259   1.670  12.782 -0.3889  0.4464 -0.0631
  318TMC3    O2 4789   2.992   1.313  13.183 -0.1703 -0.1705 -0.4873
  319MPD2     C 4790   3.777   3.357  16.785  0.0163  0.1395  0.7989
  319MPD2    C1 4791   3.669   3.352  16.871  0.0884  0.1658  0.4878
  319MPD2    C2 4792   3.542   3.344  16.823  0.9893  0.1503 -0.1009
  319MPD2    C3 4793   3.517   3.332  16.687 -0.4852  0.4657 -0.6377
  319MPD2    C4 4794   3.626   3.345  16.599 -0.2756 -0.0212  0.6772
  319MPD2    C5 4795   3.750   3.348  16.651  0.4555 -0.5898 -0.0410
  319MPD2     H 4796   3.455   3.340  16.888  0.3394  2.6045 -0.8175
  319MPD2    H1 4797   3.619   3.341  16.491 -0.5981  0.0886  0.6937
  319MPD2    H2 4798   3.879   3.360  16.823  0.3747 -2.1575  0.0307
  319MPD2    H3 4799   3.833   3.345  16.582  2.2350  0.6634  2.0401
  319MPD2     N 4800   3.386   3.337  16.631  0.2179  0.5145 -0.3217
  319MPD2    H5 4801   3.382   3.356  16.531  0.3606  2.5746  0.0614
  319MPD2    N1 4802   3.681   3.368  17.011 -0.5270 -0.2698  0.1520
  319MPD2    H7 4803   3.593   3.378  17.059 -1.7960  0.9477 -2.4173
  320TMC3    C1 4804   3.160   3.307  16.607  0.3560  0.7129 -0.5010
  320TMC3    C2 4805   3.124   3.425  16.547  0.0212  0.4751  0.1984
  320TMC3    C3 4806   3.055   3.412  16.428  0.1406 -0.6168 -0.6701
  320TMC3    C4 4807   3.147   3.186  16.542  0.3393  0.1198 -0.7953
  320TMC3    C5 4808   3.079   3.184  16.421  0.0094  0.4340  0.2604
  320TMC3    C6 4809   3.033   3.296  16.363  0.3293  0.5767  0.3988
  320TMC3     C 4810   3.268   3.311  16.703  0.5496 -0.4602 -0.4692
  320TMC3     O 4811   3.249   3.277  16.818  0.0540  0.4085 -0.0438
  320TMC3     H 4812   3.145   3.525  16.586  2.7244 -0.6421  1.6334
  320TMC3    H1 4813   3.198   3.103  16.591 -2.3751 -0.4984  0.9418
  320TMC3    H2 4814   2.964   3.280  16.282  1.5708 -1.3867 -0.2799
  320TMC3    C7 4815   3.086   3.064  16.337 -0.4982 -0.1206  0.2831
  320TMC3    C8 4816   3.035   3.529  16.349  0.0949  0.3920 -0.3661
  320TMC3    O1 4817   3.067   3.074  16.214  0.7733 -0.4254 -0.0809
  320TMC3    O2 4818   3.050   3.636  16.408 -0.0988 -0.8082  0.6612
  321TMC3    C1 4819   3.774   3.426  17.223  0.0026 -0.3706 -0.0207
  321TMC3    C2 4820   3.660   3.385  17.292  0.2030 -0.4261 -0.0592
  321TMC3    C3 4821   3.670   3.407  17.425 -0.4520  0.6994 -0.3151
  321TMC3    C4 4822   3.887   3.476  17.283  0.1546 -0.2573 -0.3286
  321TMC3    C5 4823   3.877   3.517  17.409  0.1701  0.0634  0.7070
  321TMC3    C6 4824   3.773   3.474  17.481 -0.0271 -0.1301  0.6896
  321TMC3     C 4825   3.791   3.402  17.081  0.3923 -0.0613 -0.0948
  321TMC3     O 4826   3.906   3.381  17.041 -0.0213 -0.4146 -0.7681
  321TMC3     H 4827   3.573   3.336  17.251 -1.3978  0.7318  1.9315
  321TMC3    H1 4828   3.976   3.500  17.226 -0.0622 -0.2167 -0.6506
  321TMC3    H2 4829   3.773   3.479  17.590 -1.6167  1.5428  0.6071
  321TMC3    C7 4830   3.999   3.500  17.467 -0.3748  0.0010 -0.2860
  321TMC3    C8 4831   3.641   3.298  17.509 -0.7079  0.8192 -0.6109
  321TMC3    O1 4832   4.063   3.408  17.418 -0.4201  0.3171 -0.1101
  321TMC3    O2 4833   3.530   3.281  17.557 -0.4303  0.4824 -0.1154
  322MPD2     C 4834   2.849   4.617  13.574 -0.0196  0.1808  0.4068
  322MPD2    C1 4835   2.821   4.557  13.687 -0.7021  0.4946  0.2048
  322MPD2    C2 4836   2.797   4.417  13.680 -0.2290  0.0666  0.5552
  322MPD2    C3 4837   2.797   4.348  13.558  0.1216  0.3250 -0.6146
  322MPD2    C4 4838   2.821   4.419  13.439 -0.5330  0.1984  0.0606
  322MPD2    C5 4839   2.844   4.556  13.454  0.3980  0.7147  0.0860
  322MPD2     H 4840   2.796   4.352  13.768 -2.7056 -0.7276 -0.0528
  322MPD2    H1 4841   2.818   4.375  13.339  1.4372  0.8627 -0.2760
  322MPD2    H2 4842   2.873   4.722  13.580  0.1768  0.1703 -0.2227
  322MPD2    H3 4843   2.861   4.614  13.364  0.7993 -2.7506 -2.1178
  322MPD2     N 4844   2.775   4.211  13.556  0.1672  0.0889  0.9105
  322MPD2    H5 4845   2.757   4.162  13.643 -0.6869 -2.3081 -0.6144
  322MPD2    N1 4846   2.844   4.635  13.805  0.6146  0.1257 -0.0424
  322MPD2    H7 4847   2.883   0.004  13.800 -1.3306  0.8489 -1.7509
  323TMC3    C1 4848   2.855   4.690  14.030  0.4937  0.0240 -1.2945
  323TMC3    C2 4849   2.901   0.085  13.996  0.1134 -0.1262 -1.4046
  323TMC3    C3 4850   2.948   0.168  14.096  0.2037  0.0838 -0.4126
  323TMC3    C4 4851   2.859   4.636  14.154 -0.2681  0.3768  0.0619
  323TMC3    C5 4852   2.901   4.720  14.253 -0.1050  0.0802 -0.2972
  323TMC3    C6 4853   2.950   0.120  14.228 -0.0606  0.5302  0.4216
  323TMC3     C 4854   2.819   4.588  13.932 -0.0634  0.7182  0.0119
  323TMC3     O 4855   2.779   4.479  13.964  0.2187 -0.0527  0.3380
  323TMC3     H 4856   2.875   0.129  13.900 -2.1496 -0.1815 -0.8273
  323TMC3    H1 4857   2.828   4.533  14.172  0.1934  0.2387  0.0535
  323TMC3    H2 4858   3.001   0.177  14.304 -0.5930 -0.7277  1.7145
  323TMC3    C7 4859   2.959   4.641  14.366  0.0394  0.0684 -0.3016
  323TMC3    C8 4860   3.069   0.233  14.048  0.4726 -0.0444 -0.9336
  323TMC3    O1 4861   2.899   4.535  14.390  0.4125 -0.3636 -0.0659
  323TMC3    O2 4862   3.114   0.172  13.949 -0.4576 -0.6041 -0.2578
  324MPD2     C 4863   4.490   1.329  14.461  0.0886 -0.0808 -0.4960
  324MPD2    C1 4864   4.444   1.211  14.409 -0.0955 -0.0417 -0.0867
  324MPD2    C2 4865   4.301   1.206  14.381  0.2480 -0.6163 -0.2564
  324MPD2    C3 4866   4.217   1.297  14.433  0.7925  0.2369 -0.1130
  324MPD2    C4 4867   4.271   1.406  14.494 -0.0201  0.1656  0.2020
  324MPD2    C5 4868   4.404   1.424  14.516  0.0075 -0.0812  0.4354
  324MPD2     H 4869   4.271   1.111  14.338  1.3396 -1.6834  1.3376
  324MPD2    H1 4870   4.210   1.487  14.531  0.7439  0.7865  0.0899
  324MPD2    H2 4871   4.593   1.360  14.467  0.0710 -0.0407 -0.3985
  324MPD2    H3 4872   4.443   1.521  14.544  3.3301 -0.5029 -2.6570
  324MPD2     N 4873   4.074   1.287  14.428 -0.2408  0.0394  0.1065
  324MPD2    H5 4874   4.029   1.366  14.473 -0.1573  0.5276 -0.6780
  324MPD2    N1 4875   4.530   1.109  14.365  0.8294  0.5454  0.5455
  324MPD2    H7 4876   4.489   1.036  14.308 -1.1087  0.2164  2.3776
  325TMC3    C1 4877   3.862   1.186  14.406  0.1224  0.0040  0.4400
  325TMC3    C2 4878   3.779   1.110  14.331 -0.1910 -0.1738  0.2462
  325TMC3    C3 4879   3.647   1.131  14.364  0.0235 -0.2419  1.0421
  325TMC3    C4 4880   3.824   1.255  14.518 -0.3330  0.3832  0.0840
  325TMC3    C5 4881   3.694   1.263  14.550 -0.3125  0.4452  0.9298
  325TMC3    C6 4882   3.602   1.209  14.470  0.2561 -1.2158 -0.8079
  325TMC3     C 4883   4.009   1.176  14.381 -1.1470  0.8360 -0.1389
  325TMC3     O 4884   4.050   1.086  14.316 -0.2260 -0.4110 -0.3220
  325TMC3     H 4885   3.816   1.047  14.252  0.9348 -2.5698  2.7234
  325TMC3    H1 4886   3.894   1.287  14.595  0.9172 -0.9833 -0.4805
  325TMC3    H2 4887   3.496   1.215  14.490  0.2573  2.2814 -1.8396
  325TMC3    C7 4888   3.656   1.350  14.661 -0.3924 -0.4892  0.1631
  325TMC3    C8 4889   3.555   1.049  14.301 -0.1723 -0.4151 -0.4192
  325TMC3    O1 4890   3.740   1.362  14.751 -0.4642 -0.3818 -0.1023
  325TMC3    O2 4891   3.589   1.025  14.187  0.0851  0.0116  0.1093
  326MPD2     C 4892   0.301   1.440  11.179 -0.0966  0.4599 -0.6565
  326MPD2    C1 4893   0.409   1.356  11.192 -0.3640 -0.4962  0.5924
  326MPD2    C2 4894   0.536   1.414  11.197  0.0510  0.4201  0.1203
  326MPD2    C3 4895   0.552   1.546  11.187 -0.3506  0.0656 -0.5197
  326MPD2    C4 4896   0.443   1.631  11.157 -0.3903  0.0212  0.5683
  326MPD2    C5 4897   0.321   1.571  11.160  0.4920 -0.2321 -0.1581
  326MPD2     H 4898   0.614   1.345  11.224 -1.5597 -2.0060 -1.4059
  326MPD2    H1 4899   0.447   1.739  11.151  0.5935  0.0687  1.9757
  326MPD2    H2 4900   0.201   1.399  11.170  0.6899 -1.4323 -0.9488
  326MPD2    H3 4901   0.231   1.626  11.134  0.0627 -1.1435 -0.6118
  326MPD2     N 4902   0.679   1.610  11.203  0.1232  0.1769 -0.1206
  326MPD2    H5 4903   0.689   1.708  11.180 -0.0400 -0.3492 -2.3767
  326MPD2    N1 4904   0.403   1.213  11.193  0.2581  0.2372 -0.9390
  326MPD2    H7 4905   0.484   1.152  11.182 -0.0877 -0.5814  0.9950
  327TMC3    C1 4906   0.310   1.006  11.181  0.1219  0.6420 -0.0561
  327TMC3    C2 4907   0.219   0.949  11.093  0.4375  0.6784 -0.0615
  327TMC3    C3 4908   0.258   0.854  11.003 -0.2983  0.2025  1.0528
  327TMC3    C4 4909   0.446   0.972  11.180  0.2216  0.4946  0.8581
  327TMC3    C5 4910   0.481   0.888  11.068 -0.5461  0.0581 -0.1922
  327TMC3    C6 4911   0.386   0.827  10.986 -0.3827 -0.2429  0.8578
  327TMC3     C 4912   0.286   1.143  11.215  0.2466 -0.0083  0.1030
  327TMC3     O 4913   0.168   1.165  11.230  0.1657 -0.0106 -0.3581
  327TMC3     H 4914   0.112   0.962  11.106  0.5846 -0.5940  2.4001
  327TMC3    H1 4915   0.530   1.017  11.231  0.1660 -0.1014  1.4696
  327TMC3    H2 4916   0.419   0.773  10.898 -0.3796  2.0291 -0.5427
  327TMC3    C7 4917   0.595   0.932  10.991  0.7509  0.3434  0.7338
  327TMC3    C8 4918   0.180   0.856  10.880  0.3123  0.1046 -0.1262
  327TMC3    O1 4919   0.570   0.944  10.873 -0.0421  0.6229  0.3851
  327TMC3    O2 4920   0.097   0.947  10.869 -0.4868 -0.5268 -0.6179
  328MPD2     C 4921   3.075   1.953  17.151  0.2969 -0.6606  0.0023
  328MPD2    C1 4922   2.987   1.874  17.077 -0.3299 -0.5711 -0.2490
  328MPD2    C2 4923   2.875   1.933  17.024 -0.1525 -0.4990  0.2441
  328MPD2    C3 4924   2.847   2.070  17.034 -0.8667 -0.1270 -0.3708
  328MPD2    C4 4925   2.939   2.143  17.097  0.6074 -0.8452  0.0033
  328MPD2    C5 4926   3.048   2.083  17.155 -0.0945 -0.1252  0.1272
  328MPD2     H 4927   2.794   1.873  16.984  0.1798  0.1566 -1.3980
  328MPD2    H1 4928   2.905   2.241  17.126  1.9439  0.3839 -2.5717
  328MPD2    H2 4929   3.167   1.917  17.197  1.0918  0.4608 -0.6890
  328MPD2    H3 4930   3.117   2.146  17.209  0.5956  0.7983 -1.8011
  328MPD2     N 4931   2.742   2.144  16.978 -0.6650 -0.5757  0.5985
  328MPD2    H5 4932   2.732   2.242  17.001  0.7201 -0.7256  1.8274
  328MPD2    N1 4933   3.019   1.736  17.069 -0.0575 -0.5318 -0.0054
  328MPD2    H7 4934   3.089   1.708  17.138  0.7913  0.2169 -0.5581
  329TMC3    C1 4935   2.992   1.506  16.998 -0.0930 -0.4491  0.6019
  329TMC3    C2 4936   2.971   1.451  17.118  0.8540 -0.4246  0.2203
  329TMC3    C3 4937   2.949   1.314  17.117  0.1820 -0.7979  0.1481
  329TMC3    C4 4938   2.987   1.440  16.876  0.3176  0.4581  0.1856
  329TMC3    C5 4939   2.971   1.303  16.887  0.0406  0.0710 -0.4436
  329TMC3    C6 4940   2.958   1.236  17.008  0.5107  0.1913  0.3889
  329TMC3     C 4941   2.957   1.647  16.983 -0.6787 -0.2379 -0.5393
  329TMC3     O 4942   2.875   1.669  16.897  0.3746 -0.0661 -0.0351
  329TMC3     H 4943   2.956   1.515  17.204 -4.2598  0.3372 -1.2368
  329TMC3    H1 4944   2.986   1.487  16.779 -1.8295 -0.5016 -0.2688
  329TMC3    H2 4945   2.934   1.130  17.009  1.5593 -0.0823 -2.3480
  329TMC3    C7 4946   2.974   1.227  16.768  0.5935 -0.5679 -0.8124
  329TMC3    C8 4947   2.926   1.240  17.243  1.4317 -0.1378 -0.2469
  329TMC3    O1 4948   2.911   1.122  16.772  0.1915 -0.2175 -0.3696
  329TMC3    O2 4949   2.955   1.122  17.241  0.2885  0.2863 -0.5890
  330TMC3    C1 4950   1.308   0.558   9.812 -0.2727 -0.0422  0.5723
  330TMC3    C2 4951   1.338   0.475   9.915  0.4183 -0.4596 -0.1468
  330TMC3    C3 4952   1.353   0.530  10.041  0.3486 -0.6619 -1.0034
  330TMC3    C4 4953   1.301   0.696   9.826 -0.1948 -0.2766 -0.3480
  330TMC3    C5 4954   1.323   0.745   9.954  1.0968  0.0990  0.0268
  330TMC3    C6 4955   1.356   0.667  10.068 -0.8680  0.7995 -0.0851
  330TMC3     C 4956   1.310   0.511   9.673  0.2272  0.3363  0.2980
  330TMC3     O 4957   1.240   0.589   9.610 -0.6704 -0.5125 -0.2756
  330TMC3     H 4958   1.332   0.368   9.895 -0.6350 -0.5279  0.5583
  330TMC3    H1 4959   1.299   0.754   9.734 -2.6896 -0.6728 -0.5383
  330TMC3    H2 4960   1.373   0.714  10.165 -1.7276 -1.8113  1.3257
  330TMC3    C7 4961   1.293   0.886   9.991  0.3583 -0.5641  0.0537
  330TMC3    C8 4962   1.368   0.443  10.157 -0.4974 -0.1674 -0.4399
  330TMC3    O1 4963   1.331   0.931  10.098 -0.0813 -0.3892  1.0780
  330TMC3    O2 4964   1.446   0.479  10.243  0.2092  0.3228 -0.3392
  331MPD2     C 4965   3.518   4.706  12.841  0.0583  0.2969  0.5816
  331MPD2    C1 4966   3.568   4.712  12.716  0.8577 -0.1819  0.4534
  331MPD2    C2 4967   3.623   4.604  12.658  0.7967  0.1173  0.0096
  331MPD2    C3 4968   3.643   4.489  12.726 -0.0066  0.5443  0.0990
  331MPD2    C4 4969   3.601   4.481  12.851 -0.0247 -0.0086 -0.0754
  331MPD2    C5 4970   3.530   4.585  12.904 -0.1615 -0.1350 -0.1200
  331MPD2     H 4971   3.640   4.607  12.551 -1.8524 -1.3043 -0.4537
  331MPD2    H1 4972   3.604   4.389  12.909 -0.7581  0.5380  0.8421
  331MPD2    H2 4973   3.469   0.060  12.896 -1.2699 -1.0814  1.3726
  331MPD2    H3 4974   3.472   4.575  12.995  1.7427 -0.7960  1.0216
  331MPD2     N 4975   3.719   4.388  12.661  0.0898 -0.0433  0.1339
  331MPD2    H5 4976   3.745   4.403  12.564 -0.2808 -0.3288 -0.0139
  331MPD2    N1 4977   3.570   0.106  12.638 -0.3530  0.1640  0.2411
  331MPD2    H7 4978   3.603   0.096  12.543 -1.8861 -1.4833 -0.1124
  332TMC3    C1 4979   3.814   4.176  12.594  0.3592  0.0029  0.5043
  332TMC3    C2 4980   3.881   4.245  12.490 -0.3496  0.0479  0.5884
  332TMC3    C3 4981   3.982   4.184  12.424  0.4046 -0.1177 -0.3744
  332TMC3    C4 4982   3.864   4.058  12.643  0.0774 -0.5847  0.2906
  332TMC3    C5 4983   3.975   4.010  12.582 -0.2493  0.1228 -0.1742
  332TMC3    C6 4984   4.036   4.067  12.475 -0.2086 -0.0249 -0.2660
  332TMC3     C 4985   3.746   4.254  12.704  0.0794 -0.2770 -0.6434
  332TMC3     O 4986   3.705   4.200  12.805  0.7794 -0.0657 -0.2492
  332TMC3     H 4987   3.819   4.319  12.441 -2.8151 -2.3232  0.0793
  332TMC3    H1 4988   3.830   4.008  12.733 -2.0457 -0.9376 -0.7150
  332TMC3    H2 4989   4.124   4.020  12.432  1.3736  1.7547  1.0671
  332TMC3    C7 4990   4.065   3.923  12.663  0.5464 -0.3347 -0.0452
  332TMC3    C8 4991   4.070   4.272  12.354 -0.1745  0.0565  0.4023
  332TMC3    O1 4992   4.008   3.843  12.735 -0.2464 -0.1976  0.2046
  332TMC3    O2 4993   4.043   4.391  12.377 -0.0767  0.1587 -0.4852
  333MPD2     C 4994   3.947   4.451  11.758  0.1321  0.7243  0.5527
  333MPD2    C1 4995   4.041   4.346  11.761  0.1388 -0.4061  0.3514
  333MPD2    C2 4996   4.010   4.235  11.840 -0.2744  0.0042 -0.5097
  333MPD2    C3 4997   3.897   4.230  11.920  1.3119 -0.1101  0.1145
  333MPD2    C4 4998   3.814   4.334  11.909 -0.6533  0.6682  0.3536
  333MPD2    C5 4999   3.848   4.444  11.848 -0.2044  0.6713  0.5070
  333MPD2     H 5000   4.090   4.163  11.842  0.4521  0.8300 -0.0517
  333MPD2    H1 5001   3.718   4.346  11.959 -1.5257  0.3827 -1.2290
  333MPD2    H2 5002   3.963   4.539  11.696 -2.0293  1.4549  1.0459
  333MPD2    H3 5003   3.780   4.528  11.838 -0.4502  0.5327  1.0153
  333MPD2     N 5004   3.878   4.120  12.010  0.2675 -0.4348  0.1513
  333MPD2    H5 5005   3.929   4.035  11.992 -0.1160 -0.7000  0.3182
  333MPD2    N1 5006   4.166   4.371  11.694  0.1454 -0.0292  0.6872
  333MPD2    H7 5007   4.171   4.463  11.651 -1.6788 -1.7864 -3.2773
  334TMC3    C1 5008   4.378   4.340  11.615 -0.2081 -0.0552  0.4325
  334TMC3    C2 5009   4.505   4.303  11.656  0.4764  0.3568 -0.6541
  334TMC3    C3 5010   4.607   4.368  11.607  0.4737 -0.0113  0.6262
  334TMC3    C4 5011   4.350   4.437  11.525  0.2994  0.1647 -0.4226
  334TMC3    C5 5012   4.455   4.501  11.475  0.1317  0.7649  0.6080
  334TMC3    C6 5013   4.585   4.466  11.508  0.6121  0.9633  0.0255
  334TMC3     C 5014   4.267   4.283  11.684  0.0812 -0.0052  0.2403
  334TMC3     O 5015   4.269   4.161  11.704  0.6046  0.6343 -0.5640
  334TMC3     H 5016   4.530   4.215  11.714 -2.7832 -0.8478 -1.0543
  334TMC3    H1 5017   4.250   4.473  11.505  0.8514  1.5295 -0.7566
  334TMC3    H2 5018   4.666   4.528  11.472  2.3627 -1.7942 -0.8296
  334TMC3    C7 5019   4.444   4.602  11.376 -0.5663 -0.7619 -0.3650
  334TMC3    C8 5020   0.021   4.324  11.643  0.0082 -0.0371  1.1894
  334TMC3    O1 5021   4.531   4.601  11.286 -0.6489  0.5513 -0.0232
  334TMC3    O2 5022   0.025   4.245  11.737  0.5180  0.1168 -0.0596
  335TMC3    C1 5023   3.861   2.215  17.692  0.0603 -0.1679 -0.2186
  335TMC3    C2 5024   3.757   2.171  17.622  0.2586  0.2625 -0.7391
  335TMC3    C3 5025   3.783   2.117  17.497 -0.3201  0.8718  0.9261
  335TMC3    C4 5026   3.989   2.212  17.644  0.2316 -0.7624 -0.8549
  335TMC3    C5 5027   4.012   2.163  17.522 -0.3721 -0.5896  0.7180
  335TMC3    C6 5028   3.916   2.103  17.449 -0.0100 -0.4966  0.5495
  335TMC3     C 5029   3.835   2.311   0.104 -0.4279  0.3912  0.1844
  335TMC3     O 5030   3.722   2.349   0.121  0.2569 -0.1274 -0.3191
  335TMC3     H 5031   3.660   2.178  17.670  0.5121 -1.3133  0.0014
  335TMC3    H1 5032   4.075   2.250  17.698  1.2386 -1.7613 -1.7515
  335TMC3    H2 5033   3.942   2.079  17.347  2.0564 -0.6517  1.1093
  335TMC3    C7 5034   4.138   2.184  17.457 -0.4457  0.0094  0.5293
  335TMC3    C8 5035   3.666   2.061  17.427 -0.0950  0.2522  0.1381
  335TMC3    O1 5036   4.164   2.108  17.362  0.2444 -0.4993  0.8457
  335TMC3    O2 5037   3.566   2.028  17.488 -0.0406 -0.0572  0.1387
  336MPD2     C 5038   3.231   4.577  16.156  0.1870 -0.0498 -0.6945
  336MPD2    C1 5039   3.207   4.496  16.041  0.0011  0.1376  0.3461
  336MPD2    C2 5040   3.253   4.367  16.034 -0.2733 -0.2792 -0.1662
  336MPD2    C3 5041   3.312   4.309  16.150 -0.2486  0.6593  0.2610
  336MPD2    C4 5042   3.324   4.387  16.261  0.1341  0.0267  1.1654
  336MPD2    C5 5043   3.286   4.517  16.261  0.0374 -0.5780  0.4291
  336MPD2     H 5044   3.234   4.317  15.939  0.6370 -0.4667 -0.2497
  336MPD2    H1 5045   3.378   4.351  16.348  0.1627 -2.6652  0.0447
  336MPD2    H2 5046   3.193   4.678  16.168 -2.6863 -1.2412  0.4512
  336MPD2    H3 5047   3.299   4.573  16.352  0.0495  0.4387 -0.2024
  336MPD2     N 5048   3.362   4.175  16.154 -0.0873 -0.4724  0.5341
  336MPD2    H5 5049   3.401   4.145  16.243  0.5441  3.0051  1.4308
  336MPD2    N1 5050   3.148   4.546  15.924  0.6276  0.0510 -0.7098
  336MPD2    H7 5051   3.148   4.490  15.839  0.2306  1.5823 -1.7336
  337TMC3    C1 5052   3.034   4.694  15.791 -0.3395 -0.2687 -0.5803
  337TMC3    C2 5053   2.924   4.617  15.757  0.1365  0.3370  0.3649
  337TMC3    C3 5054   2.838   4.658  15.660 -0.3742 -0.1208  0.4249
  337TMC3    C4 5055   3.071   0.081  15.720  0.4964  0.3625  0.1704
  337TMC3    C5 5056   2.984   0.123  15.626  0.1739  0.0662 -0.5429
  337TMC3    C6 5057   2.871   0.052  15.589  0.3576 -0.2421 -0.0737
  337TMC3     C 5058   3.093   4.674  15.915  0.4272 -0.3484 -0.0493
  337TMC3     O 5059   3.089   0.050  15.987 -0.3249 -0.0490  0.1156
  337TMC3     H 5060   2.884   4.546  15.828 -2.0258  0.7403 -0.4710
  337TMC3    H1 5061   3.157   0.141  15.749 -0.1588  1.7258 -0.6631
  337TMC3    H2 5062   2.800   0.080  15.512  0.3517 -0.4334 -0.1362
  337TMC3    C7 5063   3.026   0.233  15.544  0.6314  0.0386 -0.6541
  337TMC3    C8 5064   2.714   4.595  15.642 -0.5405 -0.0282 -0.5465
  337TMC3    O1 5065   3.147   0.259  15.547 -0.0762  0.5043  0.2017
  337TMC3    O2 5066   2.653   4.557  15.740 -0.1498 -0.1341 -0.2092
  338MPD2     C 5067   3.742   3.838   1.195  0.4042 -0.5239  0.5364
  338MPD2    C1 5068   3.669   3.885   1.085 -0.1453  0.4235  0.0918
  338MPD2    C2 5069   3.572   3.987   1.106  0.1186 -0.3366  1.2340
  338MPD2    C3 5070   3.555   4.044   1.230  0.4279  0.0777 -0.3017
  338MPD2    C4 5071   3.623   3.985   1.337 -0.2682 -0.1644  0.6445
  338MPD2    C5 5072   3.723   3.891   1.319  0.0177 -0.0063 -0.3110
  338MPD2     H 5073   3.497   4.007   1.030  3.0737 -1.3197 -1.9479
  338MPD2    H1 5074   3.603   4.014   1.439 -1.2945 -1.3709  0.7743
  338MPD2    H2 5075   3.809   3.753   1.200  0.7500 -0.3624 -1.3330
  338MPD2    H3 5076   3.773   3.847   1.405 -0.0520  0.4811 -0.0195
  338MPD2     N 5077   3.470   4.154   1.235 -0.3252  0.3432  0.2672
  338MPD2    H5 5078   3.430   4.190   1.149 -2.4063  1.1191  1.5309
  338MPD2    N1 5079   3.685   3.832   0.952  0.1519 -0.0388  0.2354
  338MPD2    H7 5080   3.634   3.886   0.882  0.8210  0.8018  0.3991
  339TMC3    C1 5081   3.329   4.320   1.328 -0.5744  0.5128  0.7148
  339TMC3    C2 5082   3.233   4.318   1.421 -0.4513 -0.3628 -0.1715
  339TMC3    C3 5083   3.108   4.371   1.390  0.1269 -0.0971 -0.4636
  339TMC3    C4 5084   3.292   4.361   1.199 -0.4070 -0.5322  0.3030
  339TMC3    C5 5085   3.171   4.414   1.175  0.2281 -0.1161  0.8015
  339TMC3    C6 5086   3.076   4.427   1.269  0.8418 -0.0334  0.2585
  339TMC3     C 5087   3.431   4.223   1.349 -0.1484 -0.3563 -0.1626
  339TMC3     O 5088   3.458   4.192   1.465  0.0800  0.5315 -0.4892
  339TMC3     H 5089   3.249   4.281   1.522  1.0869  1.0078  0.0750
  339TMC3    H1 5090   3.373   4.354   1.127 -1.2710  0.3007 -0.7413
  339TMC3    H2 5091   2.986   4.479   1.238  0.5026 -1.3420 -0.9267
  339TMC3    C7 5092   3.138   4.443   1.035  0.1648 -0.3320 -0.5374
  339TMC3    C8 5093   2.991   4.314   1.461  0.6043  0.0337  0.3481
  339TMC3    O1 5094   3.058   4.532   1.011  0.1875 -0.1320 -0.0228
  339TMC3    O2 5095   2.884   4.351   1.413 -0.2499  0.3143  0.1358
  340MPD2     C 5096   0.198   4.145   8.617 -0.4338  0.1104  0.0594
  340MPD2    C1 5097   0.324   4.157   8.665  0.2343 -0.1861 -0.1195
  340MPD2    C2 5098   0.392   4.279   8.658  0.1963  0.3938  0.4943
  340MPD2    C3 5099   0.339   4.377   8.578 -0.1295 -0.0229  0.1753
  340MPD2    C4 5100   0.214   4.360   8.519  0.5689  0.7763  0.0006
  340MPD2    C5 5101   0.142   4.244   8.535  0.1077  0.0394 -1.2805
  340MPD2     H 5102   0.486   4.288   8.710 -1.2299  1.5119  2.9042
  340MPD2    H1 5103   0.161   4.424   8.449  0.9067 -0.6861 -1.5758
  340MPD2    H2 5104   0.131   4.063   8.639 -2.5099  2.5853  2.8537
  340MPD2    H3 5105   0.050   4.236   8.479 -0.4744 -0.3359 -0.2638
  340MPD2     N 5106   0.402   4.504   8.570 -0.4039  0.2117  0.8468
  340MPD2    H5 5107   0.342   4.583   8.549 -0.7561 -0.6828 -1.4704
  340MPD2    N1 5108   0.369   4.038   8.729 -0.4516 -0.0876  0.7882
  340MPD2    H7 5109   0.336   3.953   8.685  0.1792 -1.3967  2.8517
  341TMC3    C1 5110   0.561   3.908   8.781  0.6004  0.3760  0.2152
  341TMC3    C2 5111   0.486   3.787   8.769 -0.4069  0.2539  0.1289
  341TMC3    C3 5112   0.565   3.673   8.764  0.2628  0.4815 -0.8188
  341TMC3    C4 5113   0.698   3.902   8.793 -0.3152  0.0145 -0.2141
  341TMC3    C5 5114   0.767   3.787   8.774  0.1565  0.1075  0.4906
  341TMC3    C6 5115   0.700   3.671   8.755 -1.3058 -0.2477  0.0921
  341TMC3     C 5116   0.489   4.031   8.797  0.1152  0.0377  0.1983
  341TMC3     O 5117   0.542   4.123   8.860 -0.0360 -0.2865 -0.2679
  341TMC3     H 5118   0.378   3.782   8.773 -0.3846  0.4899  1.0929
  341TMC3    H1 5119   0.758   3.988   8.820 -0.6786 -0.1046  0.9978
  341TMC3    H2 5120   0.753   3.577   8.754  2.3708  1.7813  0.7831
  341TMC3    C7 5121   0.900   3.781   8.835 -0.3383 -0.0243  0.2960
  341TMC3    C8 5122   0.498   3.549   8.793  0.1906  0.0033 -0.1361
  341TMC3    O1 5123   0.920   3.865   8.919  0.0332 -0.2332 -0.2428
  341TMC3    O2 5124   0.578   3.456   8.790 -0.0433  0.4633  0.4569
  342MPD2     C 5125   1.597   0.097  17.117 -0.8551  0.5125 -0.4627
  342MPD2    C1 5126   1.656   0.089  17.243 -0.3552  0.4640 -0.6840
  342MPD2    C2 5127   1.664   0.204  17.326 -0.7625 -0.4894  0.2919
  342MPD2    C3 5128   1.626   0.324  17.268  0.1471 -0.0417 -0.2759
  342MPD2    C4 5129   1.584   0.330  17.134  0.3515 -0.3188  0.8010
  342MPD2    C5 5130   1.563   0.217  17.063 -0.0025  0.4232  0.0818
  342MPD2     H 5131   1.698   0.208  17.429  0.8062 -0.4319 -0.2332
  342MPD2    H1 5132   1.549   0.425  17.095 -1.2337 -1.3179 -0.1897
  342MPD2    H2 5133   1.598   0.013  17.050  3.0849 -0.1462  0.4710
  342MPD2    H3 5134   1.534   0.222  16.959  0.1053 -0.1304  0.0214
  342MPD2     N 5135   1.629   0.446  17.340 -0.0702 -0.3550  0.0783
  342MPD2    H5 5136   1.621   0.531  17.286 -2.9301 -0.8609 -0.2716
  342MPD2    N1 5137   1.695   4.683  17.290  0.4208 -0.3271  0.6359
  342MPD2    H7 5138   1.739   4.671  17.381 -0.1338  0.4854  1.0155
  343TMC3    C1 5139   1.712   4.452  17.308 -0.3876  0.4493 -0.6719
  343TMC3    C2 5140   1.839   4.461  17.351  0.4858  0.1245  0.0270
  343TMC3    C3 5141   1.902   4.340  17.355 -0.2188  0.2944 -0.5104
  343TMC3    C4 5142   1.642   4.333  17.310 -0.5245 -0.1845  0.7571
  343TMC3    C5 5143   1.711   4.213  17.336 -0.2696  0.8511 -0.8950
  343TMC3    C6 5144   1.847   4.215  17.356 -0.5892  0.5080  0.3678
  343TMC3     C 5145   1.664   4.562  17.228  0.3978  0.4298 -1.1182
  343TMC3     O 5146   1.583   4.536  17.140  0.1021  0.0811  0.0601
  343TMC3     H 5147   1.894   4.554  17.353 -0.4347  0.7319 -2.2008
  343TMC3    H1 5148   1.534   4.335  17.299 -0.4431 -0.0404  0.0352
  343TMC3    H2 5149   1.898   4.119  17.359 -0.5925  0.4774 -0.4712
  343TMC3    C7 5150   1.636   4.094  17.382 -0.4201 -0.3248  0.5720
  343TMC3    C8 5151   2.048   4.347  17.401 -0.2246 -0.3572  0.1755
  343TMC3    O1 5152   1.520   4.083  17.345  0.2966  0.2466  0.7546
  343TMC3    O2 5153   2.087   4.445  17.460  0.1644 -0.2582  0.3669
  344MPD2     C 5154   3.084   3.571  10.262  0.0068  0.2388 -0.1627
  344MPD2    C1 5155   2.967   3.627  10.223  0.5656 -0.2689  0.4020
  344MPD2    C2 5156   2.963   3.744  10.152 -0.0859  0.4574 -0.4538
  344MPD2    C3 5157   3.081   3.802  10.111 -0.4405 -0.1228  0.6064
  344MPD2    C4 5158   3.194   3.742  10.143 -0.0135  0.5724  0.7664
  344MPD2    C5 5159   3.198   3.632  10.221  1.0451 -0.4236 -0.6563
  344MPD2     H 5160   2.863   3.780  10.130 -0.4768 -1.6280 -2.0955
  344MPD2    H1 5161   3.286   3.779  10.099  0.4726 -2.9871 -1.1840
  344MPD2    H2 5162   3.090   3.495  10.339 -4.4451  0.3777  0.3205
  344MPD2    H3 5163   3.296   3.599  10.256  0.7798 -0.0614  0.4245
  344MPD2     N 5164   3.105   3.932  10.065  0.3883  0.2306 -0.0067
  344MPD2    H5 5165   3.202   3.956  10.049  0.0005  0.6186 -1.7560
  344MPD2    N1 5166   2.840   3.579  10.272  0.5618  0.0195  0.1637
  344MPD2    H7 5167   2.759   3.635  10.245  0.6313 -0.0066 -0.0956
  345TMC3    C1 5168   3.046   4.148  10.022 -0.3564  0.8559  0.2907
  345TMC3    C2 5169   3.156   4.206  10.077  0.1426  0.1983  0.5237
  345TMC3    C3 5170   3.159   4.337  10.081 -0.6612 -0.7242  0.6840
  345TMC3    C4 5171   2.936   4.217   9.978  0.2550  0.1287 -0.0194
  345TMC3    C5 5172   2.948   4.353   9.984 -0.3372 -0.3184  0.3549
  345TMC3    C6 5173   3.056   4.418  10.043 -0.2720  0.1477 -0.3252
  345TMC3     C 5174   3.006   4.018  10.061  0.4218  0.8648 -0.0052
  345TMC3     O 5175   2.887   3.993  10.062 -0.0470  0.4787  0.0087
  345TMC3     H 5176   3.230   4.146  10.128 -0.6655 -0.5892  0.7814
  345TMC3    H1 5177   2.869   4.165   9.911 -0.5822  1.3840 -0.1550
  345TMC3    H2 5178   3.069   4.525  10.046  0.7262 -0.0231  1.3285
  345TMC3    C7 5179   2.864   4.437   9.902 -0.2055  0.3171  0.6354
  345TMC3    C8 5180   3.276   4.396  10.135  0.2771 -0.3647 -0.9541
  345TMC3    O1 5181   2.907   4.549   9.878  0.4162 -0.9235 -0.4209
  345TMC3    O2 5182   3.369   4.318  10.153 -0.1780  0.3152 -0.3957
  346MPD2     C 5183   2.601   1.145  14.040  0.4652 -0.0166  0.1607
  346MPD2    C1 5184   2.692   1.246  14.031 -0.6706  0.3592  0.4403
  346MPD2    C2 5185   2.710   1.330  14.142 -0.2032 -0.1054 -0.4162
  346MPD2    C3 5186   2.637   1.305  14.254 -0.2716 -0.9190 -0.8064
  346MPD2    C4 5187   2.545   1.208  14.266 -0.2923  0.5221  0.0746
  346MPD2    C5 5188   2.524   1.126  14.158  0.5626 -0.2837  0.3059
  346MPD2     H 5189   2.784   1.410  14.142 -0.0362 -0.2577 -0.4244
  346MPD2    H1 5190   2.496   1.182  14.359 -0.1816  0.8730  0.2306
  346MPD2    H2 5191   2.575   1.082  13.955  0.7486  1.0808 -0.7328
  346MPD2    H3 5192   2.456   1.043  14.171  1.1977 -1.2188 -2.2911
  346MPD2     N 5193   2.679   1.386  14.361 -0.1750  0.1022  0.4293
  346MPD2    H5 5194   2.755   1.451  14.341  0.9499 -1.0602  0.8758
  346MPD2    N1 5195   2.780   1.268  13.917 -0.3940 -0.0066  0.7149
  346MPD2    H7 5196   2.841   1.348  13.915  0.1481 -0.4278  0.5726
  347TMC3    C1 5197   2.683   1.475  14.579 -0.3379 -0.0368  0.3979
  347TMC3    C2 5198   2.819   1.488  14.569 -0.5460 -0.1397 -0.1910
  347TMC3    C3 5199   2.888   1.535  14.676 -0.4389 -0.6883  0.2598
  347TMC3    C4 5200   2.614   1.506  14.691 -0.0942 -0.6449  0.0412
  347TMC3    C5 5201   2.690   1.532  14.804  0.2328 -0.0116 -0.0678
  347TMC3    C6 5202   2.827   1.556  14.800  0.3678  0.0619 -0.3752
  347TMC3     C 5203   2.609   1.405  14.479 -0.3107  0.0387 -0.2449
  347TMC3     O 5204   2.494   1.370  14.503 -0.3219 -0.7308 -0.2422
  347TMC3     H 5205   2.872   1.451  14.482  0.8152 -1.4054  1.1762
  347TMC3    H1 5206   2.508   1.506  14.712 -0.2513  0.5026 -0.7284
  347TMC3    H2 5207   2.881   1.559  14.893  1.5848  2.2831 -1.1436
  347TMC3    C7 5208   2.623   1.541  14.934 -0.4243  0.5524 -0.0140
  347TMC3    C8 5209   3.036   1.516  14.668 -0.2118  0.0597 -0.2046
  347TMC3    O1 5210   2.523   1.477  14.942 -0.4714  0.2068  0.1484
  347TMC3    O2 5211   3.074   1.429  14.591 -0.3324  0.3542  0.2594
  348MPD2     C 5212   1.607   0.224  12.383 -0.7491  0.4050 -0.1001
  348MPD2    C1 5213   1.711   0.303  12.351 -0.1583  0.4701  0.5168
  348MPD2    C2 5214   1.690   0.393  12.242 -0.1700 -0.0346 -0.3581
  348MPD2    C3 5215   1.570   0.410  12.182 -0.6618  0.7635 -0.3402
  348MPD2    C4 5216   1.474   0.319  12.216 -0.4548 -0.0857 -0.2318
  348MPD2    C5 5217   1.493   0.221  12.305  0.3592  0.2007  0.0771
  348MPD2     H 5218   1.775   0.446  12.201 -0.1445 -0.5932 -1.0246
  348MPD2    H1 5219   1.377   0.331  12.171 -1.3710 -0.8428  1.5237
  348MPD2    H2 5220   1.618   0.144  12.456 -0.8886 -0.2689 -0.8132
  348MPD2    H3 5221   1.409   0.156  12.328  1.2639 -1.0616 -0.2003
  348MPD2     N 5222   1.552   0.511  12.083 -0.0809 -0.0799 -0.9827
  348MPD2    H5 5223   1.622   0.584  12.075  0.3744 -0.5808 -1.5366
  348MPD2    N1 5224   1.838   0.297  12.407  0.4253 -0.3465  0.4751
  348MPD2    H7 5225   1.911   0.357  12.371 -0.4401  1.2989  1.4466
  349TMC3    C1 5226   2.019   0.177  12.517 -0.4132  0.0001 -0.4940
  349TMC3    C2 5227   2.048   0.057  12.572  0.3210 -0.3391  0.3417
  349TMC3    C3 5228   2.109   4.688  12.502 -0.0414  0.4838 -0.2625
  349TMC3    C4 5229   2.076   0.208  12.395  0.4406  0.3244  0.4462
  349TMC3    C5 5230   2.127   0.110  12.316  0.2129  0.4099 -0.2472
  349TMC3    C6 5231   2.138   4.710  12.373  1.0046 -0.8437 -0.0548
  349TMC3     C 5232   1.873   0.206  12.509  0.6835 -0.4488 -0.7286
  349TMC3     O 5233   1.807   0.124  12.575 -0.4536  0.2884  0.3476
  349TMC3     H 5234   2.015   0.053  12.675  0.6530 -0.8838  0.4264
  349TMC3    H1 5235   2.072   0.316  12.383 -1.6519  0.4091  1.9655
  349TMC3    H2 5236   2.184   4.633  12.312 -0.3609 -0.0376 -2.0957
  349TMC3    C7 5237   2.062   0.098  12.185 -0.3211 -0.3686  0.0953
  349TMC3    C8 5238   2.139   4.555  12.565  0.4783 -0.0098 -0.2691
  349TMC3    O1 5239   2.019   4.715  12.153 -0.1651 -0.5918 -0.3446
  349TMC3    O2 5240   2.086   4.538  12.674  0.6649 -0.3276  0.1550
  350MPD2     C 5241   0.887   3.426  10.230 -0.1119 -0.8255 -0.1671
  350MPD2    C1 5242   0.817   3.306  10.239 -0.6167  0.3549 -0.3479
  350MPD2    C2 5243   0.738   3.285  10.352 -0.0176  0.3191  1.2681
  350MPD2    C3 5244   0.741   3.369  10.463 -0.4141 -0.5617 -0.0008
  350MPD2    C4 5245   0.823   3.481  10.455 -0.0081  0.7699  0.3232
  350MPD2    C5 5246   0.902   3.502  10.345  0.7403  0.0488 -0.1410
  350MPD2     H 5247   0.677   3.196  10.357  0.6083 -0.2672 -1.4828
  350MPD2    H1 5248   0.844   3.538  10.545  1.1398  0.0919  0.4804
  350MPD2    H2 5249   0.941   3.465  10.144  1.7226  0.3811  1.5356
  350MPD2    H3 5250   0.963   3.592  10.346 -0.8458  1.0991  2.2791
  350MPD2     N 5251   0.674   3.332  10.582 -0.4592  0.0813 -0.1417
  350MPD2    H5 5252   0.612   3.252  10.577  0.5491 -0.9421  3.5610
  350MPD2    N1 5253   0.803   3.222  10.126  0.7573  0.2948 -0.5882
  350MPD2    H7 5254   0.726   3.156  10.132  0.5129  0.6783  0.6222
  351TMC3    C1 5255   0.813   3.175   9.893 -0.8928  0.1940 -0.3077
  351TMC3    C2 5256   0.785   3.041   9.893  0.2384  0.2118  0.4371
  351TMC3    C3 5257   0.743   2.984   9.770  0.6352 -0.4215  0.2093
  351TMC3    C4 5258   0.794   3.244   9.780 -0.1454 -0.0244 -0.2362
  351TMC3    C5 5259   0.751   3.186   9.662 -0.6327  0.5827  0.4579
  351TMC3    C6 5260   0.720   3.057   9.652  0.6042 -0.2355  0.1368
  351TMC3     C 5261   0.869   3.243  10.003  0.2228  0.6101  0.4283
  351TMC3     O 5262   0.966   3.312   9.976  0.5760 -0.1226  0.2809
  351TMC3     H 5263   0.809   2.981   9.979 -2.1789 -0.5487  0.5534
  351TMC3    H1 5264   0.815   3.350   9.781 -0.7889  0.1005 -0.4305
  351TMC3    H2 5265   0.689   3.005   9.562 -0.6988  0.1790  0.3489
  351TMC3    C7 5266   0.776   3.268   9.543  0.4254 -0.8835  0.6925
  351TMC3    C8 5267   0.750   2.839   9.756  0.6067 -0.5166  0.0612
  351TMC3    O1 5268   0.783   3.392   9.557  0.5286 -0.3773  0.2329
  351TMC3    O2 5269   0.764   2.793   9.644  0.3078 -0.1964  0.2029
  352MPD2     C 5270   4.071   1.332   1.501 -0.2065  0.8461  0.3950
  352MPD2    C1 5271   3.958   1.279   1.437  0.1880  0.4333  0.2260
  352MPD2    C2 5272   3.934   1.146   1.456 -0.2192  0.5516  1.0089
  352MPD2    C3 5273   4.020   1.063   1.533  0.3817 -0.5800  0.2960
  352MPD2    C4 5274   4.123   1.120   1.597 -0.7808 -0.7051 -0.5126
  352MPD2    C5 5275   4.153   1.252   1.579 -0.2015  0.6108 -0.4148
  352MPD2     H 5276   3.860   1.097   1.393  1.2321 -2.3372  1.5591
  352MPD2    H1 5277   4.186   1.066   1.667 -0.2683  3.1933  2.0110
  352MPD2    H2 5278   4.092   1.437   1.486 -1.6538  1.4234  2.4150
  352MPD2    H3 5279   4.228   1.302   1.639 -1.2786 -0.5383  1.8662
  352MPD2     N 5280   3.997   0.927   1.561  0.3579  0.2218 -0.3856
  352MPD2    H5 5281   4.061   0.877   1.622  1.0875  0.4347 -0.9810
  352MPD2    N1 5282   3.877   1.367   1.357 -0.0083 -0.1378  0.2678
  352MPD2    H7 5283   3.920   1.459   1.347  1.8173 -1.1007 -0.8492
  353TMC3    C1 5284   3.895   0.716   1.550  0.1084  0.0787 -0.8646
  353TMC3    C2 5285   4.011   0.647   1.587  0.5641 -0.2572 -0.0396
  353TMC3    C3 5286   4.004   0.511   1.595  0.0929  0.0068  0.4816
  353TMC3    C4 5287   3.782   0.649   1.507  0.5774  0.8815  0.4108
  353TMC3    C5 5288   3.771   0.513   1.523  0.0377  0.3528  0.1074
  353TMC3    C6 5289   3.884   0.445   1.567  0.4715  0.2483 -0.6214
  353TMC3     C 5290   3.904   0.849   1.501  0.8831  0.5310  0.1608
  353TMC3     O 5291   3.832   0.882   1.407  0.1413  0.0144  0.4207
  353TMC3     H 5292   4.100   0.694   1.627  0.8848  0.6635 -1.8716
  353TMC3    H1 5293   3.690   0.702   1.487 -0.6896 -1.7576 -0.7341
  353TMC3    H2 5294   3.878   0.337   1.558  1.7908  0.0307  1.3131
  353TMC3    C7 5295   3.689   0.442   1.427  0.0217  0.0349  0.0016
  353TMC3    C8 5296   4.124   0.432   1.633 -0.6251 -0.3758 -0.1484
  353TMC3    O1 5297   3.701   0.471   1.312 -0.0120  0.3169 -0.4839
  353TMC3    O2 5298   4.219   0.487   1.678 -0.0795  0.0771  0.0990
  354TMC3    C1 5299   1.098   2.012  13.723  0.3591 -0.4933  0.2801
  354TMC3    C2 5300   1.140   2.137  13.730 -0.3600  0.1147  0.3613
  354TMC3    C3 5301   1.080   2.240  13.667  0.2977 -0.5469 -0.1972
  354TMC3    C4 5302   1.008   1.976  13.631 -0.0028  0.5839 -0.4441
  354TMC3    C5 5303   0.947   2.079  13.568  0.3100 -0.0123  0.1551
  354TMC3    C6 5304   0.975   2.210  13.594 -0.1864  0.2462  0.0115
  354TMC3     C 5305   1.081   1.947  13.853  0.1119 -0.2752 -0.8755
  354TMC3     O 5306   1.018   1.842  13.852  0.0092 -0.0957 -0.2408
  354TMC3     H 5307   1.220   2.169  13.796 -0.9619  0.8387  0.7489
  354TMC3    H1 5308   0.964   1.878  13.618  0.7544  0.2148 -0.2402
  354TMC3    H2 5309   0.924   2.285  13.534  0.4310 -0.1479 -0.9973
  354TMC3    C7 5310   0.908   2.045  13.431 -0.7133  0.4792 -0.2165
  354TMC3    C8 5311   1.171   2.307  13.579  0.0026 -0.4313 -0.5711
  354TMC3    O1 5312   0.816   2.112  13.386  0.6788 -0.2957 -0.5083
  354TMC3    O2 5313   1.137   2.411  13.531 -1.0065  0.0926 -0.3049
  355MPD2     C 5314   1.124   2.331  12.027  0.4397 -0.3943 -0.5850
  355MPD2    C1 5315   1.116   2.361  11.893  0.3875 -0.4852  0.4433
  355MPD2    C2 5316   1.224   2.417  11.833 -0.5677  0.2085  0.4315
  355MPD2    C3 5317   1.339   2.435  11.913  0.3428  0.7211  1.1403
  355MPD2    C4 5318   1.352   2.391  12.040 -0.5269 -0.0570 -0.1140
  355MPD2    C5 5319   1.239   2.341  12.100 -0.0811  0.0316 -0.1350
  355MPD2     H 5320   1.221   2.469  11.738  2.7629  0.5551  0.5147
  355MPD2    H1 5321   1.439   2.415  12.100 -1.2355 -0.6130  1.1172
  355MPD2    H2 5322   1.043   2.280  12.077  1.5988 -1.8603 -0.1967
  355MPD2    H3 5323   1.242   2.315  12.205  2.5860  0.9577  0.0324
  355MPD2     N 5324   1.441   2.525  11.874  0.5973  0.2024  0.0595
  355MPD2    H5 5325   1.515   2.530  11.943  2.1110  2.4965 -1.7455
  355MPD2    N1 5326   0.992   2.359  11.830 -0.7618  0.4012  0.4291
  355MPD2    H7 5327   0.914   2.369  11.894  0.0693  0.5795  1.4252
  356TMC3    C1 5328   1.532   2.721  11.799  0.3617 -0.4092  0.1366
  356TMC3    C2 5329   1.566   2.798  11.695 -0.5514  0.3372 -0.1886
  356TMC3    C3 5330   1.619   2.921  11.723  0.3918 -1.0646  0.6389
  356TMC3    C4 5331   1.547   2.763  11.930  0.8587 -0.3289  0.5130
  356TMC3    C5 5332   1.607   2.885  11.950 -0.0118 -0.0113  0.8915
  356TMC3    C6 5333   1.635   2.968  11.850  0.1425  0.1237  0.2040
  356TMC3     C 5334   1.440   2.614  11.771  0.4029  0.0834 -0.0572
  356TMC3     O 5335   1.378   2.618  11.665 -0.0011  0.1465  0.0402
  356TMC3     H 5336   1.557   2.768  11.591 -2.4963  2.1643 -0.5552
  356TMC3    H1 5337   1.494   2.712  12.010  0.0402 -1.0174 -0.4569
  356TMC3    H2 5338   1.679   3.065  11.865  0.3354 -0.1017  1.1095
  356TMC3    C7 5339   1.639   2.907  12.092  1.1347  0.2550  0.2862
  356TMC3    C8 5340   1.629   3.002  11.607  0.1544 -1.1279 -0.1347
  356TMC3    O1 5341   1.604   2.824  12.172  0.1511 -0.5544 -0.3560
  356TMC3    O2 5342   1.523   3.010  11.540  0.1704 -0.3594 -0.0055
  357MPD2     C 5343   4.456   2.656   1.811 -0.2015  0.0539  0.8927
  357MPD2    C1 5344   4.511   2.583   1.710  0.0045  0.1811 -0.7531
  357MPD2    C2 5345   4.420   2.501   1.641 -0.5042  0.0509 -0.0103
  357MPD2    C3 5346   4.288   2.495   1.671  0.2478  0.0476  0.5500
  357MPD2    C4 5347   4.237   2.568   1.773 -0.1967  0.0616 -0.0846
  357MPD2    C5 5348   4.320   2.647   1.847 -0.1445  0.3430 -0.5749
  357MPD2     H 5349   4.456   2.453   1.551 -0.6228 -1.3974  0.7118
  357MPD2    H1 5350   4.134   2.554   1.805  0.0826 -0.5560  0.5539
  357MPD2    H2 5351   4.516   2.724   1.870  0.5844  0.4816 -0.3998
  357MPD2    H3 5352   4.276   2.713   1.920 -3.0608 -2.3036  0.0472
  357MPD2     N 5353   4.198   2.417   1.590  0.0466 -0.1164  0.5665
  357MPD2    H5 5354   4.100   2.439   1.603  0.2408  1.6990 -0.9584
  357MPD2    N1 5355   4.651   2.591   1.687  0.1288  0.0360 -0.3112
  357MPD2    H7 5356   4.701   2.652   1.750 -3.4516  0.3768  2.2191
  358TMC3    C1 5357   0.132   2.580   1.560  0.3583  0.1181  0.3418
  358TMC3    C2 5358   0.171   2.573   1.431 -0.2963 -0.1646  0.0162
  358TMC3    C3 5359   0.304   2.582   1.415 -0.0892 -0.3005  0.5653
  358TMC3    C4 5360   0.203   2.608   1.673 -0.5186  0.1884 -0.1300
  358TMC3    C5 5361   0.339   2.631   1.644 -1.4307  0.5396 -1.0138
  358TMC3    C6 5362   0.396   2.613   1.518  0.1601  0.3693 -0.3982
  358TMC3     C 5363   4.714   2.535   1.580  0.5501  0.1625 -0.7346
  358TMC3     O 5364   4.658   2.474   1.489  0.3916 -0.1128  0.4607
  358TMC3     H 5365   0.096   2.557   1.355  0.4275  1.6345 -1.0710
  358TMC3    H1 5366   0.167   2.624   1.775 -1.6642 -0.2292 -0.4660
  358TMC3    H2 5367   0.494   2.650   1.491 -0.2243  2.1159  0.5988
  358TMC3    C7 5368   0.418   2.699   1.746  0.1212  0.0807  0.0352
  358TMC3    C8 5369   0.351   2.563   1.280  1.0195  0.3400  0.0289
  358TMC3    O1 5370   0.363   2.732   1.846  0.5472 -0.1278 -0.4622
  358TMC3    O2 5371   0.466   2.597   1.259 -0.5752  0.6159 -0.6775
  359MPD2     C 5372   1.349   1.426  12.826 -0.9131 -0.1784 -0.3777
  359MPD2    C1 5373   1.330   1.425  12.695  0.2487  0.7652  0.7083
  359MPD2    C2 5374   1.196   1.450  12.653 -0.5429 -0.5968  0.2237
  359MPD2    C3 5375   1.096   1.483  12.742 -1.1221  0.2899  0.2699
  359MPD2    C4 5376   1.127   1.489  12.876 -0.3519  0.4232 -0.1062
  359MPD2    C5 5377   1.252   1.458  12.915 -0.6869  0.0503 -0.3127
  359MPD2     H 5378   1.179   1.447  12.546 -0.9812  1.0411  0.2383
  359MPD2    H1 5379   1.070   1.526  12.960 -1.4820 -0.4339 -0.4976
  359MPD2    H2 5380   1.444   1.391  12.864 -0.2192  0.1641 -1.8412
  359MPD2    H3 5381   1.270   1.438  13.020 -0.1325  0.6485 -0.2951
  359MPD2     N 5382   0.960   1.504  12.697 -0.7762 -0.9653  0.6534
  359MPD2    H5 5383   0.893   1.530  12.769  3.3523  1.5151  3.5337
  359MPD2    N1 5384   1.428   1.396  12.604 -0.0784 -0.1976  0.6235
  359MPD2    H7 5385   1.396   1.369  12.511  0.0170 -0.0151  0.5380
  360TMC3    C1 5386   1.645   1.374  12.514 -0.5695  0.4730 -0.5341
  360TMC3    C2 5387   1.758   1.452  12.491  0.0529 -0.0907  0.5419
  360TMC3    C3 5388   1.817   1.452  12.368  0.6898 -0.4895 -0.9259
  360TMC3    C4 5389   1.609   1.284  12.422 -0.6296 -0.3323  0.6178
  360TMC3    C5 5390   1.689   1.265  12.310  0.2313  0.0840  0.4079
  360TMC3    C6 5391   1.790   1.348  12.283 -0.3927 -0.2675  0.1578
  360TMC3     C 5392   1.568   1.398  12.632  0.3574  0.0624  0.1476
  360TMC3     O 5393   1.618   1.463  12.726  0.1346  0.5996 -0.0562
  360TMC3     H 5394   1.761   1.538  12.557 -1.1894  0.0241  0.4484
  360TMC3    H1 5395   1.524   1.218  12.435 -1.1262 -0.0059 -1.0075
  360TMC3    H2 5396   1.858   1.328  12.201  2.0610 -1.1870  2.4150
  360TMC3    C7 5397   1.631   1.203  12.197  0.7777  0.0647  0.1943
  360TMC3    C8 5398   1.903   1.564  12.330 -0.1951 -0.5751 -0.2628
  360TMC3    O1 5399   1.670   1.265  12.097  0.4083  0.2095  0.0495
  360TMC3    O2 5400   1.923   1.652  12.412  0.1180 -0.7569  0.0290
  361MPD2     C 5401   2.560   0.953  17.556  0.0512  0.1956  0.4482
  361MPD2    C1 5402   2.553   0.903  17.428 -0.1156  0.1600  0.2101
  361MPD2    C2 5403   2.654   0.820  17.378 -0.3034 -0.8366  0.6943
  361MPD2    C3 5404   2.755   0.779  17.464 -0.9692  0.3879  0.0767
  361MPD2    C4 5405   2.758   0.826  17.591 -0.2646  0.3691 -0.0707
  361MPD2    C5 5406   2.663   0.914  17.634 -0.3779 -0.3061  0.3515
  361MPD2     H 5407   2.648   0.793  17.274 -1.2769  2.2142 -0.0348
  361MPD2    H1 5408   2.840   0.808  17.660 -1.2896 -1.5504  0.6271
  361MPD2    H2 5409   2.490   1.019  17.606 -1.3334 -1.5483  0.8210
  361MPD2    H3 5410   2.667   0.945   0.039  0.0803  0.0376  0.2342
  361MPD2     N 5411   2.856   0.695  17.431 -0.1810  0.6950  0.2633
  361MPD2    H5 5412   2.921   0.667  17.504 -0.4996  2.5137  1.2370
  361MPD2    N1 5413   2.450   0.941  17.341 -0.6463  0.3254  0.4924
  361MPD2    H7 5414   2.459   0.908  17.246 -0.3221 -0.2702  0.7288
  362TMC3    C1 5415   2.248   1.022  17.260 -0.9607  0.7521  0.7405
  362TMC3    C2 5416   2.126   0.971  17.298 -0.3857 -0.5949 -0.0082
  362TMC3    C3 5417   2.044   0.919  17.207 -0.3383  0.0244  0.3493
  362TMC3    C4 5418   2.296   1.002  17.132  0.2072  0.1837  0.0237
  362TMC3    C5 5419   2.213   0.943  17.042  0.2877 -0.1446  0.9853
  362TMC3    C6 5420   2.085   0.903  17.080 -0.5669 -0.2299 -0.0784
  362TMC3     C 5421   2.341   1.019  17.369 -0.6009  0.0620 -1.2798
  362TMC3     O 5422   2.317   1.082  17.467 -0.0478 -0.4127  0.1630
  362TMC3     H 5423   2.107   0.985  17.404 -0.0134  1.8421 -0.2757
  362TMC3    H1 5424   2.381   1.058  17.093  0.9190 -0.6005  0.4435
  362TMC3    H2 5425   2.011   0.872  17.007  0.0024  3.5819 -2.2417
  362TMC3    C7 5426   2.233   0.971  16.905 -0.5688  0.1859  0.1657
  362TMC3    C8 5427   1.896   0.923  17.229 -0.3281  0.0364  0.4138
  362TMC3    O1 5428   2.303   1.065  16.874  0.0926  0.7357  0.3618
  362TMC3    O2 5429   1.830   0.836  17.180 -0.9902  0.3495 -1.0747
  363TMC3    C1 5430   1.224   2.442   9.668 -0.1609  0.0508  0.3739
  363TMC3    C2 5431   1.200   2.332   9.738  0.4418 -0.2284  1.2527
  363TMC3    C3 5432   1.135   2.347   9.861  0.0932 -0.0957  0.8318
  363TMC3    C4 5433   1.178   2.566   9.706  0.2596 -0.2076 -0.3152
  363TMC3    C5 5434   1.103   2.575   9.825 -0.1031  0.1592  0.3132
  363TMC3    C6 5435   1.090   2.464   9.906 -0.3869 -0.5465  0.4416
  363TMC3     C 5436   1.237   2.415   9.529  0.0011  0.3400  1.2369
  363TMC3     O 5437   1.254   2.299   9.497  0.4788  0.6016  0.0663
  363TMC3     H 5438   1.236   2.236   9.701 -1.3226  0.0727 -1.2212
  363TMC3    H1 5439   1.199   2.655   9.648 -0.5790 -1.0166 -1.8477
  363TMC3    H2 5440   1.082   2.473  10.014 -0.7600  0.6835  0.3143
  363TMC3    C7 5441   1.094   2.704   9.891 -0.5413 -0.0783  0.3755
  363TMC3    C8 5442   1.126   2.235   9.955 -0.2515 -0.8337 -0.3318
  363TMC3    O1 5443   1.148   2.801   9.839 -0.0620  0.1522 -0.2998
  363TMC3    O2 5444   1.047   2.251  10.045 -0.3692 -0.2595 -0.5264
  364MPD2     C 5445   0.096   0.686  10.400 -0.4957  0.4939  0.0811
  364MPD2    C1 5446   0.057   0.808  10.455  0.1718 -0.8214 -0.1911
  364MPD2    C2 5447   0.087   0.828  10.588  0.5391 -0.1372  0.4331
  364MPD2    C3 5448   0.158   0.732  10.665 -0.0802 -0.0404 -0.3442
  364MPD2    C4 5449   0.187   0.612  10.605 -0.0871 -0.2156  0.6028
  364MPD2    C5 5450   0.150   0.591  10.475 -0.2530 -0.1330  0.0805
  364MPD2     H 5451   0.072   0.927  10.630  1.7987  0.0764  0.3805
  364MPD2    H1 5452   0.259   0.545  10.652 -2.7710 -3.9315 -0.5187
  364MPD2    H2 5453   0.081   0.663  10.295 -0.6321 -1.7562  0.6086
  364MPD2    H3 5454   0.192   0.510  10.416  0.5683 -0.3898  1.0078
  364MPD2     N 5455   0.204   0.745  10.799  0.0193  0.2189 -0.1564
  364MPD2    H5 5456   0.260   0.666  10.829  0.9756  1.3895  1.1342
  364MPD2    N1 5457   4.719   0.904  10.371 -0.2902  0.3392 -0.7177
  364MPD2    H7 5458   0.005   0.885  10.271 -1.1419 -2.6592 -0.2424
  365TMC3    C1 5459   4.637   1.118  10.305 -0.5995 -0.2329 -0.8805
  365TMC3    C2 5460   4.694   1.097  10.177 -0.5212  0.3043 -0.0814
  365TMC3    C3 5461   4.660   1.187  10.078 -0.3745 -0.2907  0.0519
  365TMC3    C4 5462   4.543   1.211  10.331  0.3069  0.2838  0.0485
  365TMC3    C5 5463   4.513   1.300  10.226 -0.5493 -0.5459  0.0138
  365TMC3    C6 5464   4.573   1.285  10.104 -0.1353  0.5595  0.5881
  365TMC3     C 5465   4.664   1.021  10.416 -0.8124 -0.3015  0.7325
  365TMC3     O 5466   4.639   1.054  10.530 -0.0500 -0.0586  0.8468
  365TMC3     H 5467   0.047   1.024  10.159  0.3923  1.1379  0.4375
  365TMC3    H1 5468   4.484   1.218  10.422  0.7038  1.9321  0.1860
  365TMC3    H2 5469   4.548   1.357  10.028  1.9121 -0.2130 -0.8039
  365TMC3    C7 5470   4.450   1.424  10.248 -0.1830 -0.2023 -0.2486
  365TMC3    C8 5471   4.722   1.185   9.951 -0.3469  0.4839  0.0625
  365TMC3    O1 5472   4.403   1.485  10.154  0.2246 -0.4886 -0.8139
  365TMC3    O2 5473   4.658   1.218   9.853  0.0233 -0.2661 -0.4379
  366MPD2     C 5474   3.409   3.385  15.156  0.3241 -0.7754  0.6339
  366MPD2    C1 5475   3.461   3.507  15.205 -0.2116  0.2499  0.7238
  366MPD2    C2 5476   3.593   3.512  15.225  0.3984  0.1194 -0.4863
  366MPD2    C3 5477   3.679   3.406  15.201  0.3383 -0.3387  0.1129
  366MPD2    C4 5478   3.630   3.293  15.146 -0.5055  0.1823  0.5827
  366MPD2    C5 5479   3.497   3.286  15.118  0.0140  0.7077  0.3336
  366MPD2     H 5480   3.633   3.603  15.269  0.3541  0.5104 -1.2460
  366MPD2    H1 5481   3.695   3.209  15.120  0.4616  1.3462 -0.7713
  366MPD2    H2 5482   3.301   3.379  15.146  0.5382  0.6215 -2.7028
  366MPD2    H3 5483   3.465   3.198  15.064 -0.0804  1.5721 -1.0178
  366MPD2     N 5484   3.811   3.421  15.243  0.4244 -0.0187  0.8025
  366MPD2    H5 5485   3.832   3.506  15.296  1.7542  0.7511 -0.9524
  366MPD2    N1 5486   3.391   3.621  15.246  0.6255 -0.1954  0.3616
  366MPD2    H7 5487   3.444   3.703  15.272 -0.7441  1.5306 -2.2054
  367TMC3    C1 5488   3.212   3.757  15.323  0.5571  0.2072  0.4202
  367TMC3    C2 5489   3.322   3.811  15.385  0.3420  0.3889 -0.5105
  367TMC3    C3 5490   3.325   3.943  15.394  0.5303  0.0830 -0.4426
  367TMC3    C4 5491   3.106   3.822  15.273 -0.0325  0.4527 -0.3048
  367TMC3    C5 5492   3.115   3.960  15.281 -0.1188  0.7175  0.2743
  367TMC3    C6 5493   3.231   4.033  15.344  0.6667 -0.2319 -0.3671
  367TMC3     C 5494   3.251   3.638  15.246 -0.4688 -0.1082  0.1785
  367TMC3     O 5495   3.167   3.565  15.198  0.5092 -0.3729  0.0271
  367TMC3     H 5496   3.376   3.743  15.450  1.8725  0.1801 -1.9900
  367TMC3    H1 5497   3.023   3.782  15.216  0.6051 -1.7408  0.3051
  367TMC3    H2 5498   3.262   4.137  15.341 -1.0944  0.3196  0.5843
  367TMC3    C7 5499   3.050   4.023  15.167 -0.0661  0.8648  0.6688
  367TMC3    C8 5500   3.439   4.000  15.455  0.3334  0.0645  0.1917
  367TMC3    O1 5501   2.962   3.960  15.110  0.6954 -0.2720 -0.3646
  367TMC3    O2 5502   3.534   3.925  15.451  0.0997  0.5256  0.0395
  368MPD2     C 5503   4.094   0.582  13.281  0.2714  0.2144 -0.5322
  368MPD2    C1 5504   4.080   0.688  13.198  0.0707  0.3395 -0.5486
  368MPD2    C2 5505   4.196   0.739  13.136  0.4922  1.3153 -0.1688
  368MPD2    C3 5506   4.320   0.689  13.172  0.4188 -0.1531  0.4836
  368MPD2    C4 5507   4.334   0.591  13.267 -1.0879  0.0756  0.0515
  368MPD2    C5 5508   4.221   0.541  13.320  0.3982 -0.3520 -1.2193
  368MPD2     H 5509   4.188   0.809  13.054  1.3229  1.7915  0.1483
  368MPD2    H1 5510   4.435   0.558  13.288 -1.0659  0.6405  0.8471
  368MPD2    H2 5511   4.008   0.541  13.333  0.3287  0.9752  0.1693
  368MPD2    H3 5512   4.237   0.464  13.394  1.0698  1.2795  0.3349
  368MPD2     N 5513   4.439   0.733  13.107  0.1963  0.3634 -0.3949
  368MPD2    H5 5514   4.528   0.695  13.138 -0.5565 -1.4801 -0.4988
  368MPD2    N1 5515   3.947   0.722  13.156  0.5083 -0.5684  0.1687
  368MPD2    H7 5516   3.885   0.642  13.160  0.7819 -0.7780  0.3028
  369TMC3    C1 5517   3.801   0.842  13.016 -0.3218 -0.4950 -0.3470
  369TMC3    C2 5518   3.798   0.916  12.903 -0.2286  0.3354 -0.2119
  369TMC3    C3 5519   3.676   0.931  12.844  0.0531 -0.3781  0.6258
  369TMC3    C4 5520   3.700   0.769  13.066 -1.3703  0.0980 -0.8785
  369TMC3    C5 5521   3.577   0.805  13.006  0.3214 -0.2450 -0.3069
  369TMC3    C6 5522   3.556   0.887  12.898 -0.1901  0.4541  0.1006
  369TMC3     C 5523   3.929   0.838  13.085  0.0199 -0.4465 -0.1122
  369TMC3     O 5524   3.994   0.938  13.083 -0.2577 -0.0737 -0.1178
  369TMC3     H 5525   3.891   0.941  12.854 -1.4070  1.2914 -1.9925
  369TMC3    H1 5526   3.708   0.717  13.161  0.3670  1.4065 -0.3078
  369TMC3    H2 5527   3.468   0.919  12.844 -1.2020  0.3630  1.7041
  369TMC3    C7 5528   3.460   0.784  13.088  0.1694  0.0515 -0.0135
  369TMC3    C8 5529   3.662   1.006  12.721  0.0569 -0.3793 -0.3752
  369TMC3    O1 5530   3.482   0.696  13.167 -0.1518  0.2302  0.3671
  369TMC3    O2 5531   3.559   0.998  12.655  0.2714 -0.7337 -0.3944
  370TMC3    C1 5532   3.879   1.577  16.263  0.6566  0.8263 -0.3757
  370TMC3    C2 5533   3.786   1.557  16.359 -0.3214  0.2438 -0.1941
  370TMC3    C3 5534   3.665   1.494  16.334 -0.4876  0.3534 -0.2035
  370TMC3    C4 5535   3.871   1.511  16.144 -0.2297 -0.1117  0.0862
  370TMC3    C5 5536   3.759   1.430  16.123 -0.0442 -0.4933 -0.5301
  370TMC3    C6 5537   3.651   1.430  16.217  0.1980  0.4305 -0.0188
  370TMC3     C 5538   4.008   1.625  16.309 -0.7423  0.3126 -0.0244
  370TMC3     O 5539   4.031   1.634  16.431  0.5836  0.1670 -0.3834
  370TMC3     H 5540   3.795   1.612  16.452  1.9225  0.5552 -0.6083
  370TMC3    H1 5541   3.952   1.514  16.072  1.6115  0.1112  2.1557
  370TMC3    H2 5542   3.569   1.360  16.206 -0.5620  1.3600 -0.2538
  370TMC3    C7 5543   3.746   1.333  16.016 -0.4907  0.2434 -0.1620
  370TMC3    C8 5544   3.584   1.450  16.448 -0.2430 -0.3009 -0.4560
  370TMC3    O1 5545   3.631   1.302  15.991 -0.2861 -0.4908 -0.2134
  370TMC3    O2 5546   3.490   1.375  16.419 -0.7324 -0.3547 -0.3287
  371TMC3    C1 5547   0.181   4.350  15.813  0.4735  0.1326 -0.6601
  371TMC3    C2 5548   0.079   4.436  15.849 -0.1614  0.1355 -0.5005
  371TMC3    C3 5549   0.035   4.519  15.746 -0.2920 -0.0674  0.0390
  371TMC3    C4 5550   0.245   4.352  15.692 -0.0199  0.7657 -0.0979
  371TMC3    C5 5551   0.189   4.436  15.603  0.2720  0.0815  0.2481
  371TMC3    C6 5552   0.080   4.511  15.618  0.2675 -0.4176  0.6624
  371TMC3     C 5553   0.220   4.250  15.905 -0.0427  0.2036 -0.1478
  371TMC3     O 5554   0.206   4.263  16.025 -0.5645  0.1349  0.3367
  371TMC3     H 5555   0.053   4.451  15.953  0.3082  0.2021 -0.3934
  371TMC3    H1 5556   0.343   4.305  15.683 -0.9400 -1.1775  0.0800
  371TMC3    H2 5557   0.032   4.556  15.532 -2.2232 -1.2646  1.6277
  371TMC3    C7 5558   0.254   4.441  15.470 -0.2769  0.7503  0.0760
  371TMC3    C8 5559   4.651   4.609  15.774 -0.4575  0.4306 -0.8762
  371TMC3    O1 5560   0.207   4.520  15.387  0.2154 -0.4281 -0.4318
  371TMC3    O2 5561   4.645   4.665  15.881  0.1665 -0.2444 -0.0878
  372MPD2     C 5562   0.630   0.467  13.533 -0.8398 -0.2273 -0.5005
  372MPD2    C1 5563   0.604   0.431  13.658  0.2938  0.2949 -0.9286
  372MPD2    C2 5564   0.472   0.399  13.685  0.4740  0.3358 -0.3601
  372MPD2    C3 5565   0.370   0.419  13.593 -0.1381 -0.1279  0.4626
  372MPD2    C4 5566   0.401   0.465  13.469  0.6199  1.2362 -0.5731
  372MPD2    C5 5567   0.531   0.489  13.444  1.0651 -0.2080  0.6471
  372MPD2     H 5568   0.448   0.375  13.788  0.6698 -1.2776 -0.6793
  372MPD2    H1 5569   0.324   0.485  13.395  0.5820  0.3067 -0.7893
  372MPD2    H2 5570   0.726   0.486  13.488 -1.4866 -1.6057 -2.4772
  372MPD2    H3 5571   0.555   0.520  13.342 -1.1545  0.3555  0.3098
  372MPD2     N 5572   0.237   0.387  13.634 -0.3711  0.3455 -0.0114
  372MPD2    H5 5573   0.218   0.334  13.718  1.5660 -2.0920 -1.1249
  372MPD2    N1 5574   0.711   0.417  13.756  1.1900  0.0197 -0.4872
  372MPD2    H7 5575   0.697   0.373  13.847  0.4393  1.0528 -0.1027
  373TMC3    C1 5576   0.014   0.358  13.632  0.0085  0.0755 -0.3227
  373TMC3    C2 5577   0.014   0.344  13.769 -0.5065  0.2039 -0.2457
  373TMC3    C3 5578   4.696   0.222  13.823 -0.3205 -0.4554  0.6212
  373TMC3    C4 5579   4.680   0.264  13.549 -0.4132 -0.3914 -0.2046
  373TMC3    C5 5580   4.635   0.152  13.616 -0.5281  0.0389 -1.5531
  373TMC3    C6 5581   4.644   0.124  13.750 -0.1722 -0.4208 -0.6747
  373TMC3     C 5582   0.123   0.430  13.570  0.7593  0.7266  0.1378
  373TMC3     O 5583   0.106   0.487  13.466 -0.2721 -0.3861  0.4311
  373TMC3     H 5584   0.066   0.417  13.830  1.0868 -0.4128 -0.8666
  373TMC3    H1 5585   4.671   0.288  13.444  2.5326  0.0106 -0.3621
  373TMC3    H2 5586   4.615   0.029  13.793  1.3497 -1.2072 -1.3707
  373TMC3    C7 5587   4.621   0.045  13.514 -0.7941  0.0224  0.3384
  373TMC3    C8 5588   4.706   0.206  13.966 -0.0578 -0.1468  0.8569
  373TMC3    O1 5589   4.667   0.065  13.404 -0.1506 -0.2932  0.3966
  373TMC3    O2 5590   4.708   0.091  14.009 -0.7961 -0.2135 -0.1010
  374TMC3    C1 5591   0.517   4.569   9.904  0.5119 -0.6648 -0.2856
  374TMC3    C2 5592   0.508   4.693   9.967  0.1135  0.5835 -0.8378
  374TMC3    C3 5593   0.620   0.048   9.956 -0.1871 -0.7668 -0.3115
  374TMC3    C4 5594   0.623   4.522   9.834  0.6037  0.4426  0.5699
  374TMC3    C5 5595   0.732   4.606   9.836  0.2439 -0.0933  0.3081
  374TMC3    C6 5596   0.739   0.004   9.896 -0.1119 -0.1856 -0.2022
  374TMC3     C 5597   0.418   4.468   9.937  0.3630 -0.3582 -0.1753
  374TMC3     O 5598   0.435   4.354   9.900 -0.1808  0.0587  0.7667
  374TMC3     H 5599   0.419   4.722  10.021  0.0102 -1.3593  0.0641
  374TMC3    H1 5600   0.635   4.418   9.805 -0.8222  0.3968  0.1299
  374TMC3    H2 5601   0.824   0.070   9.895 -1.9305  2.1534 -0.6491
  374TMC3    C7 5602   0.856   4.541   9.801 -0.1673  0.2376  0.8133
  374TMC3    C8 5603   0.623   0.158  10.041 -0.2796  0.0859  0.2858
  374TMC3    O1 5604   0.845   4.455   9.716 -1.0006 -0.1627  0.1774
  374TMC3    O2 5605   0.519   0.194  10.097  0.5299  0.1128  0.6975
  375MPD2     C 5606   0.618   1.968  16.752  0.2942 -0.3541 -0.0817
  375MPD2    C1 5607   0.493   1.938  16.711 -0.1536  0.5066  0.0862
  375MPD2    C2 5608   0.471   1.884  16.589 -0.4722 -0.0942  0.4893
  375MPD2    C3 5609   0.576   1.840  16.511 -0.5604 -1.0207  0.5047
  375MPD2    C4 5610   0.701   1.869  16.557 -0.3671  0.5980 -0.3234
  375MPD2    C5 5611   0.720   1.951  16.664  0.1716  0.2060 -0.9497
  375MPD2     H 5612   0.367   1.864  16.566 -0.8237  0.6064  1.4614
  375MPD2    H1 5613   0.790   1.826  16.513 -1.1085 -1.6474  0.3805
  375MPD2    H2 5614   0.640   2.030  16.838  1.5418 -1.1068  0.1336
  375MPD2    H3 5615   0.821   1.986  16.677  0.7405 -1.7130 -0.1480
  375MPD2     N 5616   0.565   1.750  16.403  0.1152  0.0310 -0.2742
  375MPD2    H5 5617   0.655   1.720  16.367 -0.2049 -3.3066  1.6994
  375MPD2    N1 5618   0.373   1.973  16.780 -0.2435  0.8032  0.1406
  375MPD2    H7 5619   0.281   1.951  16.744  1.2255 -2.8579 -1.4362
  376TMC3    C1 5620   0.467   1.617  16.243  0.5757 -0.2138 -0.5275
  376TMC3    C2 5621   0.537   1.500  16.270  0.1544  0.4793 -0.1008
  376TMC3    C3 5622   0.546   1.408  16.171 -0.2924  0.0219 -0.1074
  376TMC3    C4 5623   0.394   1.634  16.131  0.9159  0.7070 -0.1668
  376TMC3    C5 5624   0.412   1.544  16.029 -0.5314 -0.4080 -0.6386
  376TMC3    C6 5625   0.487   1.433  16.051  0.1827  0.2695  0.0371
  376TMC3     C 5626   0.446   1.706  16.347  0.1730 -0.5447  0.0428
  376TMC3     O 5627   0.336   1.759  16.349 -0.1590 -0.2614 -0.8247
  376TMC3     H 5628   0.583   1.485  16.366  0.4870 -1.1660 -0.5207
  376TMC3    H1 5629   0.332   1.722  16.119 -0.0772  0.2645  1.7939
  376TMC3    H2 5630   0.504   1.363  15.970  2.4948 -1.9875  2.4774
  376TMC3    C7 5631   0.394   1.590  15.894 -0.5412 -0.6976  0.6634
  376TMC3    C8 5632   0.686   1.365  16.155 -0.4043 -0.1067  0.2781
  376TMC3    O1 5633   0.430   1.706  15.877 -0.3314 -0.3560 -0.1717
  376TMC3    O2 5634   0.766   1.435  16.216  0.0198 -0.4441  0.0945
  377MPD2     C 5635   3.215   1.088  12.297  0.1497 -0.1813  0.5442
  377MPD2    C1 5636   3.232   0.971  12.366  0.3168 -0.2250  0.0761
  377MPD2    C2 5637   3.129   0.914  12.445 -0.6275  0.1368 -0.9038
  377MPD2    C3 5638   3.018   0.994  12.470  0.0098  0.5123  0.7589
  377MPD2    C4 5639   3.001   1.105  12.390  0.5085  0.4704  0.1514
  377MPD2    C5 5640   3.098   1.157  12.307  0.2840  1.0147  0.0277
  377MPD2     H 5641   3.147   0.823  12.501  1.1315  0.3265 -1.1650
  377MPD2    H1 5642   2.907   1.159  12.397  1.0312  1.3898  0.1387
  377MPD2    H2 5643   3.290   1.128  12.229  1.8991 -2.9335  0.8329
  377MPD2    H3 5644   3.082   1.253  12.259  0.2683 -0.0388 -2.1043
  377MPD2     N 5645   2.915   0.955  12.560 -0.4226 -0.7289 -0.6407
  377MPD2    H5 5646   2.825   1.001  12.551  0.8372  2.0156  0.5441
  377MPD2    N1 5647   3.360   0.917  12.361 -0.6279 -0.6926 -0.5129
  377MPD2    H7 5648   3.424   0.958  12.293 -2.7315 -0.1669 -2.1665
  378TMC3    C1 5649   3.672   0.769  12.186  0.1902 -0.1919  0.1577
  378TMC3    C2 5650   3.546   0.777  12.238 -0.2252  0.1591 -0.0762
  378TMC3    C3 5651   3.524   0.755  12.372 -0.0514 -0.5459 -0.2567
  378TMC3    C4 5652   3.784   0.765  12.271 -0.2759 -0.4807 -0.0696
  378TMC3    C5 5653   3.757   0.749  12.406  0.1223  0.1210 -0.3148
  378TMC3    C6 5654   3.629   0.732  12.461  0.1995 -0.4056  0.1795
  378TMC3     C 5655   3.682   0.800  12.045  1.4311  0.2102 -0.3904
  378TMC3     O 5656   3.576   0.825  11.991 -0.3447 -0.1272  0.0951
  378TMC3     H 5657   3.460   0.785  12.172 -0.3553  0.2106  0.0989
  378TMC3    H1 5658   3.887   0.779  12.240  0.0835 -0.7503  1.0007
  378TMC3    H2 5659   3.612   0.722  12.567 -0.1469  3.4388  0.4777
  378TMC3    C7 5660   3.866   0.738  12.506  0.9001  0.6105  0.4021
  378TMC3    C8 5661   3.397   0.805  12.429 -0.4352  0.3025 -0.2965
  378TMC3    O1 5662   3.841   0.754  12.625  0.1409 -0.5476 -0.3216
  378TMC3    O2 5663   3.354   0.751  12.528 -0.6337  0.2025 -0.2366
  379MPD2     C 5664   4.661   3.978  16.226  0.0492 -0.2443 -0.0645
  379MPD2    C1 5665   4.528   3.946  16.240  0.4758  0.1659  0.0683
  379MPD2    C2 5666   4.483   3.882  16.357  0.4162 -0.0359  0.1669
  379MPD2    C3 5667   4.570   3.864  16.465 -0.0694  0.4677  0.0527
  379MPD2    C4 5668   4.702   3.889  16.449 -0.1212  0.4276 -0.3477
  379MPD2    C5 5669   0.021   3.953  16.331 -0.3883 -0.0103  0.4743
  379MPD2     H 5670   4.379   3.855  16.370 -0.5478  3.5342 -0.0687
  379MPD2    H1 5671   0.052   3.882  16.527 -1.7506  0.4777  1.1891
  379MPD2    H2 5672   4.681   4.036  16.137  0.4098  0.7567  0.6589
  379MPD2    H3 5673   0.122   3.993  16.336  0.9283 -3.1668 -0.3678
  379MPD2     N 5674   4.531   3.811  16.594  0.8125  0.3279 -0.6788
  379MPD2    H5 5675   4.599   3.813  16.669 -1.7774  0.6363  1.6685
  379MPD2    N1 5676   4.441   3.985  16.136 -0.2816 -0.3267  0.2095
  379MPD2    H7 5677   4.479   4.019  16.048 -0.0596  3.2662  1.6998
  380TMC3    C1 5678   4.238   4.039  16.021 -0.0258  0.3711 -0.2319
  380TMC3    C2 5679   4.302   4.043  15.901 -0.4105 -0.3908 -0.2455
  380TMC3    C3 5680   4.226   4.080  15.793 -0.2225 -0.3627 -0.1343
  380TMC3    C4 5681   4.103   4.054  16.034 -0.0271 -0.1439  0.2756
  380TMC3    C5 5682   4.034   4.099  15.923  0.1144 -0.4068 -0.1472
  380TMC3    C6 5683   4.099   4.124  15.799 -0.4053 -0.1690 -0.3492
  380TMC3     C 5684   4.304   3.994  16.140 -0.0838 -0.2659 -0.2003
  380TMC3     O 5685   4.232   3.961  16.231 -0.0194 -0.4005  0.3388
  380TMC3     H 5686   4.406   4.015  15.891 -0.0949  1.1835 -1.2981
  380TMC3    H1 5687   4.056   4.061  16.131 -1.0022  1.9743 -0.3591
  380TMC3    H2 5688   4.052   4.167  15.712  1.4602  0.9440 -0.8094
  380TMC3    C7 5689   3.893   4.144  15.936 -0.1081  0.2922 -0.3423
  380TMC3    C8 5690   4.298   4.116  15.672 -0.1159 -0.1789  0.1700
  380TMC3    O1 5691   3.857   4.184  16.044  0.0663 -0.0223 -0.2220
  380TMC3    O2 5692   4.415   4.139  15.684  0.9210  0.1843  0.4887
  381TMC3    C1 5693   3.529   0.851  16.089  0.1000 -0.6503  0.6750
  381TMC3    C2 5694   3.638   0.931  16.114  0.7294  0.2431 -0.5084
  381TMC3    C3 5695   3.626   1.008  16.226  0.0300  0.4668  0.0467
  381TMC3    C4 5696   3.434   0.832  16.185  0.6306 -0.4046  0.0838
  381TMC3    C5 5697   3.421   0.920  16.285  0.1346  0.5582  0.1311
  381TMC3    C6 5698   3.518   1.011  16.313 -0.4150  0.1070 -0.4047
  381TMC3     C 5699   3.557   0.760  15.986  0.0678 -0.7425 -0.7279
  381TMC3     O 5700   3.611   0.798  15.885  0.3719  0.3475 -0.3152
  381TMC3     H 5701   3.727   0.933  16.053  1.3661 -0.1111  0.4004
  381TMC3    H1 5702   3.358   0.760  16.157 -0.6164  1.4442 -1.1970
  381TMC3    H2 5703   3.516   1.084  16.393  0.8173 -2.0436  1.6002
  381TMC3    C7 5704   3.330   0.870  16.390  0.0447  0.5969  0.9388
  381TMC3    C8 5705   3.754   1.067  16.268 -0.1115 -0.0300  0.2672
  381TMC3    O1 5706   3.271   0.764  16.374 -0.7096 -0.2094 -0.8053
  381TMC3    O2 5707   3.852   1.037  16.203 -0.7217  1.0937  0.2834
  382MPD2     C 5708   3.034   3.285   0.057  0.2027 -0.0441 -0.5999
  382MPD2    C1 5709   3.158   3.242   0.006 -0.4882  0.4209 -0.0602
  382MPD2    C2 5710   3.175   3.111  17.669  0.1605  0.5417  0.4682
  382MPD2    C3 5711   3.073   3.016  17.694 -0.4143  0.0183  0.1001
  382MPD2    C4 5712   2.958   3.062   0.053  0.3935  0.1492  0.2405
  382MPD2    C5 5713   2.937   3.192   0.089  0.2576 -0.5038 -0.0842
  382MPD2     H 5714   3.268   3.076  17.627 -0.3611 -0.0735 -0.1942
  382MPD2    H1 5715   2.878   2.994   0.076  0.2712  0.0308 -0.5214
  382MPD2    H2 5716   3.002   3.388   0.063  1.6865  0.3051  1.3641
  382MPD2    H3 5717   2.841   3.220   0.130  0.9372 -1.3656  2.0725
  382MPD2     N 5718   3.088   2.884  17.668  0.3294 -0.0914  0.6123
  382MPD2    H5 5719   3.019   2.817   0.003 -0.5964 -0.2241 -1.5399
  382MPD2    N1 5720   3.264   3.337   0.003 -0.3940 -0.1636  0.3244
  382MPD2    H7 5721   3.350   3.308  17.657 -0.4093 -0.8415  0.7190
  383TMC3    C1 5722   3.176   2.681  17.577  0.4610 -0.7277 -0.2250
  383TMC3    C2 5723   3.051   2.651  17.531 -0.0366  0.5092  0.3908
  383TMC3    C3 5724   3.021   2.531  17.474 -0.2491 -0.1870  1.1135
  383TMC3    C4 5725   3.278   2.597  17.549  0.3619  0.1433  0.1374
  383TMC3    C5 5726   3.258   2.489  17.473  0.2701  0.0027 -0.6267
  383TMC3    C6 5727   3.128   2.454  17.445 -0.3163  0.1787 -0.9487
  383TMC3     C 5728   3.200   2.817  17.619 -0.1903 -0.2301  0.1571
  383TMC3     O 5729   3.307   2.863  17.579  0.3161  0.2484 -0.0748
  383TMC3     H 5730   2.968   2.718  17.549 -0.8674 -0.1327 -1.0113
  383TMC3    H1 5731   3.366   2.647  17.587  0.9472 -0.5571 -0.3159
  383TMC3    H2 5732   3.116   2.371  17.376 -0.9792 -0.0881 -0.5054
  383TMC3    C7 5733   3.372   2.440  17.391 -0.1409  0.2105 -0.4571
  383TMC3    C8 5734   2.892   2.502  17.430 -0.3173 -0.2814  0.0771
  383TMC3    O1 5735   3.346   2.371  17.291 -0.0173 -0.3992 -0.2893
  383TMC3    O2 5736   2.813   2.599  17.423  0.1449  0.4056 -0.6940
  384MPD2     C 5737   0.368   3.153  11.745 -0.6186 -0.0492  0.3635
  384MPD2    C1 5738   0.362   3.101  11.872  0.6709 -0.3073 -0.2114
  384MPD2    C2 5739   0.386   2.966  11.896  0.2032 -0.4710 -0.2135
  384MPD2    C3 5740   0.422   2.882  11.788 -0.3838  0.0175  0.3899
  384MPD2    C4 5741   0.426   2.935  11.659  0.3797  0.0023 -0.1821
  384MPD2    C5 5742   0.400   3.071  11.639 -0.1429 -0.7786 -0.4757
  384MPD2     H 5743   0.389   2.922  11.995  0.2884  1.3449  0.5757
  384MPD2    H1 5744   0.445   2.877  11.570 -1.3444 -0.2545 -0.3894
  384MPD2    H2 5745   0.345   3.257  11.723  0.0671  0.3242  1.4402
  384MPD2    H3 5746   0.397   3.113  11.539  0.1521 -0.1317 -0.2080
  384MPD2     N 5747   0.422   2.745  11.817  0.5277  0.2389 -0.3409
  384MPD2    H5 5748   0.421   2.725  11.917 -2.0233  0.9044 -0.2353
  384MPD2    N1 5749   0.344   3.187  11.984 -0.7862 -0.0625 -0.2716
  384MPD2    H7 5750   0.325   3.139  12.072 -0.1455  2.4221  1.2137
  385TMC3    C1 5751   0.379   2.515  11.785 -0.1851 -0.4648 -0.0380
  385TMC3    C2 5752   0.269   2.456  11.728 -0.6987  0.7863 -0.2172
  385TMC3    C3 5753   0.167   2.428  11.815  0.5014  0.4417  0.3614
  385TMC3    C4 5754   0.396   2.527  11.919 -0.3546  0.4794  0.8040
  385TMC3    C5 5755   0.286   2.501  12.002 -0.2957 -1.1943 -0.0805
  385TMC3    C6 5756   0.167   2.461  11.946  0.2883  0.0156 -0.7193
  385TMC3     C 5757   0.421   2.645  11.724  0.0496  0.2711  0.2304
  385TMC3     O 5758   0.446   2.657  11.604 -0.0890 -0.4820  0.4048
  385TMC3     H 5759   0.258   2.459  11.620 -0.3884 -2.0115 -0.3168
  385TMC3    H1 5760   0.483   2.572  11.964 -0.6218  1.8406 -0.0277
  385TMC3    H2 5761   0.073   2.460  11.999  0.5385 -2.6153 -0.3267
  385TMC3    C7 5762   0.273   2.606  12.097 -0.7604  0.2620 -0.5486
  385TMC3    C8 5763   0.034   2.408  11.763 -0.6233  0.3320  0.1426
  385TMC3    O1 5764   0.345   2.706  12.074 -0.3700 -0.1348  0.3335
  385TMC3    O2 5765   4.662   2.462  11.817  0.0419 -0.3198 -0.5169
  386TMC3    C1 5766   4.703   0.957  11.657 -0.3738  0.5499 -0.1274
  386TMC3    C2 5767   0.025   0.878  11.549  0.3227 -0.3920 -0.1473
  386TMC3    C3 5768   4.658   0.848  11.450 -0.0510  0.2303  1.0042
  386TMC3    C4 5769   4.570   0.979  11.676 -0.5276  0.0997 -0.1253
  386TMC3    C5 5770   4.486   0.950  11.576 -0.5305  0.0033 -0.0812
  386TMC3    C6 5771   4.522   0.881  11.465  0.0608  0.8103  0.6695
  386TMC3     C 5772   0.066   1.043  11.742 -0.5198  0.2771  0.8398
  386TMC3     O 5773   0.018   1.138  11.804 -0.1302 -1.2298  0.2835
  386TMC3     H 5774   0.131   0.862  11.540  0.2411 -1.4525  0.8280
  386TMC3    H1 5775   4.537   1.051  11.749  0.1786  1.3858 -1.0790
  386TMC3    H2 5776   4.447   0.851  11.393  1.3944 -2.4098  0.6202
  386TMC3    C7 5777   4.352   1.002  11.586  0.1509 -0.5838 -0.0422
  386TMC3    C8 5778   4.689   0.785  11.321 -0.2235  0.0703  0.7635
  386TMC3    O1 5779   4.301   0.995  11.698 -0.0562 -0.0780 -0.3713
  386TMC3    O2 5780   4.607   0.804  11.233  0.1527 -0.4269  0.3808
  387MPD2     C 5781   2.062   1.044   9.578 -0.5293 -0.3881  0.1967
  387MPD2    C1 5782   2.147   1.036   9.679  0.1610  0.3756 -0.2914
  387MPD2    C2 5783   2.210   0.916   9.696 -0.3873  0.4104  0.2083
  387MPD2    C3 5784   2.189   0.808   9.615 -0.4618  0.0198  1.0097
  387MPD2    C4 5785   2.110   0.822   9.504 -0.1112 -0.6978 -0.1214
  387MPD2    C5 5786   2.053   0.946   9.484  0.1716 -0.3054 -0.6732
  387MPD2     H 5787   2.275   0.904   9.782  1.3231  0.9937 -1.0225
  387MPD2    H1 5788   2.099   0.739   9.435  2.1519 -1.5576  0.5465
  387MPD2    H2 5789   2.010   1.137   9.558 -0.0201  0.0940  1.1589
  387MPD2    H3 5790   1.995   0.954   9.393  1.7646  0.1391 -1.6312
  387MPD2     N 5791   2.272   0.691   9.637  0.1089 -0.2958 -0.3020
  387MPD2    H5 5792   2.337   0.693   9.715  0.4817  3.1836 -0.7057
  387MPD2    N1 5793   2.190   1.138   9.766 -0.0720  0.1870 -0.2987
  387MPD2    H7 5794   2.259   1.112   9.836 -0.3248  1.4278  0.4154
  388TMC3    C1 5795   2.237   1.342   9.871  0.0818  1.6570  0.2479
  388TMC3    C2 5796   2.276   1.470   9.851 -0.1485 -0.2854 -1.3176
  388TMC3    C3 5797   2.364   1.522   9.943  0.0058  0.8413  0.0033
  388TMC3    C4 5798   2.285   1.268   9.984 -0.3674  0.5851 -0.2937
  388TMC3    C5 5799   2.379   1.319  10.072  0.1459 -0.3216 -0.4656
  388TMC3    C6 5800   2.419   1.448  10.047  0.0371 -0.4182  0.1936
  388TMC3     C 5801   2.157   1.268   9.768  0.5961 -0.1998  0.4577
  388TMC3     O 5802   2.078   1.324   9.695  0.5730 -0.1895  0.0237
  388TMC3     H 5803   2.231   1.524   9.769  0.8563  1.3217 -0.8005
  388TMC3    H1 5804   2.234   1.175  10.005 -4.1293  2.4628 -1.2852
  388TMC3    H2 5805   2.489   1.489  10.119 -0.8231  1.1651  0.1290
  388TMC3    C7 5806   2.484   1.224  10.113 -0.7060 -0.2628 -0.0937
  388TMC3    C8 5807   2.446   1.616   9.885  0.4710 -0.1392 -0.0238
  388TMC3    O1 5808   2.562   1.263  10.199 -0.1621 -0.1323  0.5418
  388TMC3    O2 5809   2.443   1.617   9.764 -0.0883 -0.5987 -0.3051
  389MPD2     C 5810   2.118   3.965  11.640 -0.2102 -0.1210 -0.6053
  389MPD2    C1 5811   2.124   3.869  11.545  0.3417  0.5393 -0.1898
  389MPD2    C2 5812   2.025   3.777  11.527  0.1358 -0.0267  0.0881
  389MPD2    C3 5813   1.920   3.770  11.617  0.2033  0.0685 -0.2327
  389MPD2    C4 5814   1.916   3.866  11.713 -0.1704  0.3015  0.3287
  389MPD2    C5 5815   2.010   3.970  11.723  0.9966 -0.4751  0.3010
  389MPD2     H 5816   2.029   3.717  11.436 -0.5013 -0.0801  0.0900
  389MPD2    H1 5817   1.840   3.856  11.789 -1.2913 -1.7680 -1.0984
  389MPD2    H2 5818   2.197   4.039  11.649 -1.7931  1.4056  0.9405
  389MPD2    H3 5819   2.004   4.042  11.804 -2.8578 -0.9244  0.4146
  389MPD2     N 5820   1.816   3.679  11.615 -0.4617  0.5389 -0.6055
  389MPD2    H5 5821   1.766   3.675  11.704 -2.1306  0.4200 -1.5508
  389MPD2    N1 5822   2.233   3.894  11.462 -0.4215 -0.0211 -0.4749
  389MPD2    H7 5823   2.285   3.979  11.480 -0.9186  0.3812 -0.9175
  390TMC3    C1 5824   1.673   3.509  11.542 -0.5368 -0.4015 -0.8584
  390TMC3    C2 5825   1.657   3.509  11.674 -0.3546 -0.3860 -0.0754
  390TMC3    C3 5826   1.531   3.488  11.723  0.2008 -0.6697  0.1559
  390TMC3    C4 5827   1.568   3.499  11.453 -0.4109 -0.0356 -0.9716
  390TMC3    C5 5828   1.444   3.478  11.506 -0.1774 -0.5256  0.6529
  390TMC3    C6 5829   1.418   3.485  11.646  0.4492 -0.0107 -0.8724
  390TMC3     C 5830   1.779   3.599  11.514 -0.1641 -0.1266 -0.2416
  390TMC3     O 5831   1.807   3.611  11.394  0.4179 -0.1341  0.2406
  390TMC3     H 5832   1.736   3.491  11.746 -0.5193  0.7507  0.3966
  390TMC3    H1 5833   1.579   3.498  11.345  1.4516  0.2300 -0.7877
  390TMC3    H2 5834   1.326   3.481  11.704  0.3090  4.1819 -0.7941
  390TMC3    C7 5835   1.354   3.410  11.420 -0.6876  0.2837  0.0301
  390TMC3    C8 5836   1.515   3.395  11.825  0.0869  0.8882  0.5202
  390TMC3    O1 5837   1.393   3.374  11.309 -0.2928 -0.0564 -0.5958
  390TMC3    O2 5838   1.579   3.413  11.930 -0.0893  0.3763  0.2982
  391MPD2     C 5839   1.224   0.249  11.484  0.2150 -0.1305 -0.3639
  391MPD2    C1 5840   1.322   0.333  11.434 -0.6503  0.0213 -0.1045
  391MPD2    C2 5841   1.338   0.356  11.299 -0.5834 -0.1426  0.6065
  391MPD2    C3 5842   1.255   0.292  11.211  0.2576  0.1414  0.0519
  391MPD2    C4 5843   1.154   0.211  11.258  0.1384 -0.6714  0.0173
  391MPD2    C5 5844   1.142   0.183  11.394  0.1083 -0.2213  0.5447
  391MPD2     H 5845   1.403   0.438  11.272 -0.7102  0.4492  2.0734
  391MPD2    H1 5846   1.076   0.160  11.202  0.3848 -1.4363  0.3734
  391MPD2    H2 5847   1.226   0.224  11.589 -1.2136 -0.3594 -0.3894
  391MPD2    H3 5848   1.075   0.104  11.425  0.4590  0.1811  2.2977
  391MPD2     N 5849   1.267   0.312  11.073  0.3297 -0.1991 -0.4615
  391MPD2    H5 5850   1.356   0.352  11.045 -1.0601  2.0321 -1.6791
  391MPD2    N1 5851   1.401   0.394  11.539  0.1106  0.3000 -0.6525
  391MPD2    H7 5852   1.386   0.358  11.632  0.5369 -1.2648 -1.1935
  392TMC3    C1 5853   1.227   0.314  10.838 -0.4724  0.4475  0.0605
  392TMC3    C2 5854   1.145   0.269  10.734  0.3304 -0.7070 -0.0656
  392TMC3    C3 5855   1.143   0.339  10.610 -0.4264 -0.6389  0.0130
  392TMC3    C4 5856   1.297   0.427  10.825 -0.1721 -0.4538 -0.0427
  392TMC3    C5 5857   1.287   0.499  10.710  0.2685  0.1707 -0.0557
  392TMC3    C6 5858   1.215   0.452  10.602  0.9433 -0.7773 -0.3433
  392TMC3     C 5859   1.179   0.277  10.972  0.0264  0.2625  0.6345
  392TMC3     O 5860   1.073   0.219  10.976  0.0177  0.0799  0.1522
  392TMC3     H 5861   1.087   0.178  10.743 -0.6527  0.0717  1.5387
  392TMC3    H1 5862   1.378   0.467  10.885  1.1597 -0.9033 -1.5382
  392TMC3    H2 5863   1.222   0.497  10.503 -1.9346  2.2369  0.8094
  392TMC3    C7 5864   1.365   0.621  10.697 -1.1947 -0.6192  0.2480
  392TMC3    C8 5865   1.036   0.310  10.519  0.0242 -0.3682 -0.7620
  392TMC3    O1 5866   1.435   0.659  10.791 -0.3251 -0.4688  0.0313
  392TMC3    O2 5867   0.974   0.206  10.543 -0.1599  0.5850 -0.0088
  393TMC3    C1 5868   4.641   2.853  10.498  0.2741  0.0610 -0.8638
  393TMC3    C2 5869   4.531   2.826  10.569 -0.0499 -0.3643 -0.2932
  393TMC3    C3 5870   4.519   2.706  10.628 -0.0529 -0.1121  0.4683
  393TMC3    C4 5871   0.022   2.758  10.495 -0.0134 -0.0911 -0.2364
  393TMC3    C5 5872   0.014   2.638  10.565 -0.1060 -0.1981 -0.6269
  393TMC3    C6 5873   4.627   2.620  10.637  0.6186 -0.4016  0.5246
  393TMC3     C 5874   4.676   2.986  10.457  0.2389 -0.4437  0.5008
  393TMC3     O 5875   0.053   3.003  10.391 -0.8378  0.6055 -0.6689
  393TMC3     H 5876   4.448   2.895  10.579 -0.2681 -0.8627  1.2895
  393TMC3    H1 5877   0.113   2.783  10.442  1.6701 -0.3313  2.5309
  393TMC3    H2 5878   4.627   2.533  10.701 -0.3673  0.5945  1.9102
  393TMC3    C7 5879   0.137   2.591  10.618  0.5288 -0.4898  0.2329
  393TMC3    C8 5880   4.415   2.689  10.728  0.1775  0.2747  0.2022
  393TMC3    O1 5881   0.155   2.471  10.627  0.0077 -0.3191  0.3683
  393TMC3    O2 5882   4.344   2.780  10.760 -0.7144  0.9184 -0.6285
  394TMC3    C1 5883   2.348   3.881  11.255  0.0782 -0.5984  0.5576
  394TMC3    C2 5884   2.323   4.011  11.242 -0.4667 -0.5174  0.1975
  394TMC3    C3 5885   2.376   4.067  11.123  0.0713 -0.0193 -0.0735
  394TMC3    C4 5886   2.426   3.806  11.168 -0.7767 -0.4019 -0.1171
  394TMC3    C5 5887   2.473   3.868  11.054 -0.3063 -0.0283  0.4006
  394TMC3    C6 5888   2.451   4.004  11.032 -0.5195 -0.4650  0.0534
  394TMC3     C 5889   2.265   3.814  11.346  0.4121  0.3631 -1.0256
  394TMC3     O 5890   2.216   3.711  11.314  0.7401  0.4156 -0.4616
  394TMC3     H 5891   2.244   4.066  11.293 -1.5457  0.7802 -2.8518
  394TMC3    H1 5892   2.435   3.699  11.174 -5.0077 -0.9328 -2.4816
  394TMC3    H2 5893   2.489   4.062  10.948 -1.7886  0.3195  0.0217
  394TMC3    C7 5894   2.551   3.803  10.953 -0.4243  0.5513  0.3044
  394TMC3    C8 5895   2.290   4.173  11.080 -0.4114 -0.5078  1.0160
  394TMC3    O1 5896   2.548   3.858  10.843 -0.2261 -0.4843 -0.1131
  394TMC3    O2 5897   2.265   4.270  11.153 -0.2284  0.2479  0.2582
  395TMC3    C1 5898   1.678   1.722  15.241 -0.0787  0.0976 -0.4222
  395TMC3    C2 5899   1.569   1.809  15.226 -0.0747 -0.3106 -0.0361
  395TMC3    C3 5900   1.592   1.941  15.192  0.3810 -0.2770 -0.6537
  395TMC3    C4 5901   1.809   1.754  15.221 -0.1747 -0.3973 -1.5866
  395TMC3    C5 5902   1.826   1.899  15.185  0.0012  0.2707 -0.3285
  395TMC3    C6 5903   1.720   1.993  15.177  0.3037  0.4041 -0.7632
  395TMC3     C 5904   1.640   1.591  15.304 -0.4299  0.3533 -0.6882
  395TMC3     O 5905   1.520   1.573  15.321  0.8507  0.2331 -0.1100
  395TMC3     H 5906   1.473   1.764  15.248  0.1542 -1.0552 -0.5441
  395TMC3    H1 5907   1.891   1.684  15.214 -0.5821 -1.0454  0.1381
  395TMC3    H2 5908   1.736   2.089  15.130 -1.0204  0.1114 -1.7952
  395TMC3    C7 5909   1.956   1.967  15.194 -0.7143  0.2774  0.6403
  395TMC3    C8 5910   1.498   1.994  15.101  0.2595 -0.1455  0.2772
  395TMC3    O1 5911   1.953   2.089  15.192 -0.3422 -0.1965 -0.0437
  395TMC3    O2 5912   1.474   2.116  15.107  0.1024 -0.0113  0.1375
  396MPD2     C 5913   1.235   2.964  17.342 -0.4138  0.5001  0.0101
  396MPD2    C1 5914   1.375   2.954  17.337  0.9185 -0.3402 -0.5173
  396MPD2    C2 5915   1.445   3.067  17.366 -0.2309  0.1980 -0.2627
  396MPD2    C3 5916   1.381   3.191  17.387  0.3017  0.0431  0.4687
  396MPD2    C4 5917   1.246   3.198  17.394  0.3339  0.5085 -0.0577
  396MPD2    C5 5918   1.173   3.087  17.365  0.7010  0.1801 -0.5137
  396MPD2     H 5919   1.553   3.068  17.357 -0.1055  2.4458  1.5528
  396MPD2    H1 5920   1.200   3.293  17.416  3.2436  1.8499  0.3314
  396MPD2    H2 5921   1.183   2.869  17.333  1.9582 -0.6597 -1.7167
  396MPD2    H3 5922   1.064   3.091  17.368  0.7155 -0.8917  1.9860
  396MPD2     N 5923   1.462   3.306  17.411 -0.2905  0.1272  0.2091
  396MPD2    H5 5924   1.560   3.295  17.435  0.1064 -3.4488 -3.0437
  396MPD2    N1 5925   1.430   2.834  17.282  0.2260 -0.2087  0.6009
  396MPD2    H7 5926   1.371   2.756  17.252 -0.0901  0.7475 -1.2572
  397TMC3    C1 5927   1.604   2.706  17.186 -1.0382  0.1163  0.1078
  397TMC3    C2 5928   1.668   2.722  17.063 -0.2233  0.3305  0.5709
  397TMC3    C3 5929   1.631   2.634  16.964 -0.2353 -0.2194 -0.0013
  397TMC3    C4 5930   1.524   2.598  17.213 -1.4409 -0.5260 -0.1379
  397TMC3    C5 5931   1.504   2.503  17.117 -0.0287 -0.1854  0.5515
  397TMC3    C6 5932   1.550   2.526  16.989  0.4141 -0.5065  0.2067
  397TMC3     C 5933   1.568   2.826  17.251 -0.2002 -0.4637  0.0107
  397TMC3     O 5934   1.656   2.907  17.255 -0.0257 -0.0270 -0.0647
  397TMC3     H 5935   1.705   2.822  17.048  0.1882 -0.1177 -1.3057
  397TMC3    H1 5936   1.480   2.586  17.311  0.6381 -0.0874  0.8350
  397TMC3    H2 5937   1.512   2.463  16.911  1.0877 -0.2376 -0.3390
  397TMC3    C7 5938   1.408   2.387  17.128  0.2890 -0.7323 -0.3410
  397TMC3    C8 5939   1.627   2.685  16.827  0.1609 -0.2851 -0.4565
  397TMC3    O1 5940   1.347   2.352  17.029 -0.7900  0.1735  0.1526
  397TMC3    O2 5941   1.535   2.643  16.761 -0.4736  0.0012 -0.9982
  398MPD2     C 5942   3.868   3.707   0.213  0.5602  0.5602 -0.3056
  398MPD2    C1 5943   3.889   3.605   0.298  0.8363  0.1862 -0.5887
  398MPD2    C2 5944   3.974   3.630   0.403 -0.2068 -0.9132  0.1789
  398MPD2    C3 5945   4.034   3.752   0.429 -0.8851 -0.3952 -0.9484
  398MPD2    C4 5946   4.005   3.853   0.336 -0.1105 -0.3026 -0.1090
  398MPD2    C5 5947   3.927   3.825   0.230  0.3271  0.7381  0.0975
  398MPD2     H 5948   3.994   3.549   0.473 -1.1948 -2.5569 -1.4646
  398MPD2    H1 5949   4.046   3.954   0.343 -2.9653  0.8676 -0.3241
  398MPD2    H2 5950   3.815   3.682   0.121 -0.5518  0.3684  0.3933
  398MPD2    H3 5951   3.921   3.903   0.154 -0.4750  1.0410  0.4715
  398MPD2     N 5952   4.129   3.763   0.534  0.4052 -0.4925  0.2275
  398MPD2    H5 5953   4.141   3.680   0.591  0.2845 -0.2840  0.5610
  398MPD2    N1 5954   3.835   3.481   0.278  0.0677 -0.6879  0.0725
  398MPD2    H7 5955   3.858   3.404   0.340  0.5054 -2.0578 -1.7776
  399TMC3    C1 5956   3.744   3.295   0.184 -0.5557 -0.3335  0.0064
  399TMC3    C2 5957   3.863   3.238   0.216  0.8977  0.0092 -1.3037
  399TMC3    C3 5958   3.862   3.123   0.288  0.1989  0.4117  0.2572
  399TMC3    C4 5959   3.620   3.252   0.224  0.8536 -0.4886  0.0551
  399TMC3    C5 5960   3.630   3.123   0.278  0.0382  0.6302 -0.2480
  399TMC3    C6 5961   3.747   3.055   0.308 -0.6371 -0.0606  0.0051
  399TMC3     C 5962   3.747   3.438   0.178 -0.1253  0.5961  0.0959
  399TMC3     O 5963   3.675   3.504   0.109 -0.3151 -0.1566  0.0580
  399TMC3     H 5964   3.954   3.287   0.184  1.9629 -0.2374  1.3215
  399TMC3    H1 5965   3.530   3.304   0.193  1.2199 -0.1507 -0.4503
  399TMC3    H2 5966   3.737   2.975   0.380  0.1413  0.8212  1.0902
  399TMC3    C7 5967   3.505   3.055   0.296 -0.4218  0.2355  0.7343
  399TMC3    C8 5968   3.976   3.110   0.376 -0.2244  0.0822 -0.2524
  399TMC3    O1 5969   3.511   2.934   0.310  0.1042 -0.1083 -0.5971
  399TMC3    O2 5970   4.044   3.211   0.383  0.0491 -0.0145 -0.0551
  400TMC3    C1 5971   2.554   2.184  16.839 -0.0576 -1.1355  0.2562
  400TMC3    C2 5972   2.435   2.126  16.801  0.0335 -0.1390 -0.1469
  400TMC3    C3 5973   2.357   2.205  16.723  0.0288  0.0176  0.1455
  400TMC3    C4 5974   2.604   2.304  16.796 -0.5726 -0.0149 -1.0044
  400TMC3    C5 5975   2.521   2.374  16.718 -0.0600  0.1126  0.0302
  400TMC3    C6 5976   2.396   2.330  16.682 -0.4502  0.8379 -0.6105
  400TMC3     C 5977   2.635   2.092  16.907  0.7617 -0.3183 -0.7025
  400TMC3     O 5978   2.599   1.972  16.913  0.2038 -0.1963 -0.0241
  400TMC3     H 5979   2.403   2.032  16.844 -1.5108  0.6106  0.3517
  400TMC3    H1 5980   2.710   2.322  16.798 -0.5088 -0.7922  2.5272
  400TMC3    H2 5981   2.347   2.384  16.602 -1.8186 -1.0594 -1.0568
  400TMC3    C7 5982   2.557   2.512  16.687  0.1765 -0.5684 -0.4187
  400TMC3    C8 5983   2.227   2.167  16.671 -0.5746 -0.5364 -0.2377
  400TMC3    O1 5984   2.490   2.565  16.597 -0.0238 -0.6207  0.1968
  400TMC3    O2 5985   2.155   2.253  16.631  0.6344  0.5798  0.4232
  401MPD2     C 5986   1.111   0.696   0.369 -0.3884 -0.3867 -0.0564
  401MPD2    C1 5987   1.142   0.697   0.505  0.1211 -0.1861 -0.0576
  401MPD2    C2 5988   1.217   0.585   0.545 -0.3379  0.8840 -0.5121
  401MPD2    C3 5989   1.259   0.478   0.461 -0.4598 -0.7359  0.0540
  401MPD2    C4 5990   1.233   0.490   0.330  0.1614 -0.3737 -0.0400
  401MPD2    C5 5991   1.156   0.601   0.288 -0.1401  0.1122 -0.6928
  401MPD2     H 5992   1.251   0.586   0.648  0.7790 -0.5816 -0.8604
  401MPD2    H1 5993   1.260   0.407   0.265  1.7276  1.1279 -1.2957
  401MPD2    H2 5994   1.064   0.785   0.329  0.0123 -0.2226 -0.1573
  401MPD2    H3 5995   1.137   0.604   0.181 -0.6266 -1.8740 -0.6702
  401MPD2     N 5996   1.316   0.369   0.531  0.1732 -0.3905  0.0240
  401MPD2    H5 5997   1.356   0.389   0.622 -2.1541  0.1267  0.9369
  401MPD2    N1 5998   1.107   0.792   0.603 -0.5802 -0.3192  0.0552
  401MPD2    H7 5999   1.115   0.765   0.701  0.3144  0.5543  0.2137
  402TMC3    C1 6000   1.402   0.159   0.571 -0.3086 -0.2920  0.2933
  402TMC3    C2 6001   1.385   0.170   0.707  0.1451 -0.1279 -0.7234
  402TMC3    C3 6002   1.471   0.099   0.785 -0.0333  0.4772  0.4380
  402TMC3    C4 6003   1.506   0.094   0.514 -0.2482  0.0243 -0.3766
  402TMC3    C5 6004   1.589   0.020   0.593 -0.8140  0.1557 -0.3585
  402TMC3    C6 6005   1.579   0.021   0.732 -0.1902  0.2571 -0.2947
  402TMC3     C 6006   1.336   0.248   0.472 -0.0724 -0.4927 -0.3562
  402TMC3     O 6007   1.310   0.204   0.360  0.2617  1.4162  0.3157
  402TMC3     H 6008   1.298   0.215   0.753  1.5686 -1.8551  3.6691
  402TMC3    H1 6009   1.508   0.077   0.406  1.6500  2.5435 -0.7219
  402TMC3    H2 6010   1.646   4.692   0.798  0.7663  1.1623 -0.5286
  402TMC3    C7 6011   1.680   4.646   0.532 -0.6845 -0.1778  0.3115
  402TMC3    C8 6012   1.454   0.087   0.930 -0.6052  0.3255 -0.2067
  402TMC3    O1 6013   1.699   4.654   0.411 -0.1796  0.0299 -0.5978
  402TMC3    O2 6014   1.550   0.035   0.979 -0.4723  0.0125  0.1083
  403MPD2     C 6015   4.388   3.798  13.409 -0.0228 -0.0073  0.1901
  403MPD2    C1 6016   4.468   3.684  13.398 -0.4955  0.0516  0.2765
  403MPD2    C2 6017   4.585   3.677  13.473 -0.1204  0.1423 -0.1952
  403MPD2    C3 6018   4.633   3.794  13.537 -0.4295 -0.4146  0.3736
  403MPD2    C4 6019   4.563   3.914  13.529  0.0516 -0.1855  0.1314
  403MPD2    C5 6020   4.439   3.906  13.467 -0.9960  0.8889  0.0453
  403MPD2     H 6021   4.655   3.597  13.454  0.4118  0.5272  0.1474
  403MPD2    H1 6022   4.595   4.006  13.576 -0.4050  0.8427 -1.5630
  403MPD2    H2 6023   4.289   3.810  13.367 -0.0406 -0.3709  0.1251
  403MPD2    H3 6024   4.375   3.992  13.453 -1.0315  1.0287  1.0898
  403MPD2     N 6025   0.040   3.789  13.593 -0.2448  0.0774  0.0349
  403MPD2    H5 6026   0.083   3.699  13.610 -1.3924 -0.0706  2.2391
  403MPD2    N1 6027   4.411   3.572  13.329  0.3948 -0.0811 -0.3385
  403MPD2    H7 6028   4.328   3.586  13.271 -1.0020 -1.7135  1.2610
  404TMC3    C1 6029   4.376   3.344  13.272 -0.0640 -0.2492  0.5330
  404TMC3    C2 6030   4.323   3.239  13.337 -0.1514  0.1596  0.2920
  404TMC3    C3 6031   4.276   3.135  13.257 -0.6653  0.3185  0.0912
  404TMC3    C4 6032   4.379   3.351  13.137  0.1086  0.0339  0.2328
  404TMC3    C5 6033   4.330   3.248  13.059  0.4610 -0.0811 -0.1255
  404TMC3    C6 6034   4.271   3.143  13.115 -0.5957  0.8788  0.0357
  404TMC3     C 6035   4.452   3.444  13.352 -0.5725 -0.3521 -0.6162
  404TMC3     O 6036   4.519   3.397  13.437  0.5045 -0.0973 -0.0016
  404TMC3     H 6037   4.332   3.247  13.445 -1.3956 -1.9367  0.5333
  404TMC3    H1 6038   4.430   3.437  13.096 -1.4852 -0.8612 -3.6266
  404TMC3    H2 6039   4.233   3.061  13.054 -1.1453  0.4346  0.9742
  404TMC3    C7 6040   4.334   3.266  12.917  0.9072 -0.0536 -0.2428
  404TMC3    C8 6041   4.248   3.011  13.321  0.5127 -0.6152  0.3520
  404TMC3    O1 6042   4.404   3.358  12.878 -0.1519 -0.1261 -0.1654
  404TMC3    O2 6043   4.267   2.905  13.261 -0.1830  0.4885  0.3076
  405MPD2     C 6044   0.032   4.435  14.706 -0.2457  0.4200 -0.1423
  405MPD2    C1 6045   0.020   4.380  14.575 -0.6998 -1.1159  0.9821
  405MPD2    C2 6046   4.669   4.460  14.487 -0.3909  0.2190  0.6466
  405MPD2    C3 6047   4.621   4.581  14.522 -0.0970  0.0845  0.3070
  405MPD2    C4 6048   4.646   4.640  14.644 -0.1080 -0.8334  0.0526
  405MPD2    C5 6049   4.712   4.563  14.732  0.3346 -0.1855  0.7471
  405MPD2     H 6050   4.631   4.421  14.393  0.4240 -2.0593  1.2532
  405MPD2    H1 6051   4.601   0.007  14.682 -1.7708 -1.4409 -0.4856
  405MPD2    H2 6052   0.085   4.384  14.786  0.1555 -0.5857 -1.0490
  405MPD2    H3 6053   4.722   4.598  14.835 -0.8860 -0.9703  1.1380
  405MPD2     N 6054   4.544   4.641  14.421 -0.0216  0.5728  0.0488
  405MPD2    H5 6055   4.541   4.584  14.337  2.5499  0.0880  0.2840
  405MPD2    N1 6056   0.054   4.246  14.533 -0.3696 -0.6986 -0.7098
  405MPD2    H7 6057   0.037   4.227  14.434 -2.5534  2.2761 -0.9011
  406TMC3    C1 6058   4.240   0.116  14.179  0.5213 -0.2817 -0.4589
  406TMC3    C2 6059   4.284   0.044  14.073 -0.1383 -0.0279 -0.2843
  406TMC3    C3 6060   4.414   4.721  14.075  0.4749 -0.0235  0.4150
  406TMC3    C4 6061   4.318   0.134  14.288  0.8358  0.0589 -0.0634
  406TMC3    C5 6062   4.435   0.067  14.297 -1.1050  0.3744 -1.0214
  406TMC3    C6 6063   4.484   4.720  14.191 -0.1078 -0.3806  0.0283
  406TMC3     C 6064   4.107   0.171  14.172 -0.5242 -0.1937 -0.3721
  406TMC3     O 6065   4.077   0.237  14.075 -0.0682 -0.2819 -0.0755
  406TMC3     H 6066   4.222   0.049  13.984  0.5604  1.6974 -0.6862
  406TMC3    H1 6067   4.281   0.186  14.375  2.2828 -1.3198  1.3807
  406TMC3    H2 6068   4.591   4.704  14.181 -0.1653 -1.6146  1.3499
  406TMC3    C7 6069   4.483   0.035  14.425 -0.1297  0.3693  0.1345
  406TMC3    C8 6070   4.422   4.610  13.987  0.2587 -0.2512  0.1059
  406TMC3    O1 6071   4.456   0.109  14.519  0.2040 -0.5540 -0.3024
  406TMC3    O2 6072   4.339   4.615  13.899 -0.0280  0.2633  0.0786
  407MPD2     C 6073   1.761   0.448   9.728 -0.1362  0.2826 -0.0159
  407MPD2    C1 6074   1.897   0.434   9.701 -0.0663 -0.3165  0.0290
  407MPD2    C2 6075   1.993   0.456   9.792  0.1361  0.4815 -0.2896
  407MPD2    C3 6076   1.961   0.499   9.921 -0.3354  0.7016  0.0422
  407MPD2    C4 6077   1.826   0.514   9.950 -0.2451 -0.1605  0.4158
  407MPD2    C5 6078   1.730   0.482   9.859  0.9236  0.2363 -0.1265
  407MPD2     H 6079   2.098   0.460   9.765  0.4198  1.1834  0.8832
  407MPD2    H1 6080   1.798   0.543  10.051  1.1558  2.4469  0.0875
  407MPD2    H2 6081   1.678   0.429   9.661  0.9868 -0.2904 -1.2427
  407MPD2    H3 6082   1.626   0.492   9.887  0.7755  0.4443 -0.7424
  407MPD2     N 6083   2.054   0.559  10.012 -0.0414  0.7557 -0.0045
  407MPD2    H5 6084   2.009   0.610  10.088 -0.4806 -3.0159  2.2714
  407MPD2    N1 6085   1.945   0.410   9.564 -0.2320 -0.3122 -0.5835
  407MPD2    H7 6086   2.045   0.405   9.549  0.1076 -1.2904  2.0326
  408TMC3    C1 6087   1.940   0.385   9.329 -0.1088 -0.2457  0.1159
  408TMC3    C2 6088   2.050   0.308   9.346  0.4711  0.4474  0.3184
  408TMC3    C3 6089   2.148   0.318   9.251  0.5782  0.2245  0.1957
  408TMC3    C4 6090   1.928   0.475   9.234 -0.3393 -0.1813  0.4216
  408TMC3    C5 6091   2.032   0.489   9.141  0.5850 -0.1725  0.2160
  408TMC3    C6 6092   2.142   0.406   9.145 -1.3337  0.2730  0.3550
  408TMC3     C 6093   1.864   0.408   9.452  1.2276 -0.2333 -0.4631
  408TMC3     O 6094   1.757   0.472   9.437  0.6690 -0.3135 -0.1961
  408TMC3     H 6095   2.065   0.241   9.430  0.3168 -0.7479 -0.5996
  408TMC3    H1 6096   1.851   0.551   9.243 -0.8074 -0.5919 -0.0566
  408TMC3    H2 6097   2.229   0.428   9.084 -1.5313  0.7913  0.2646
  408TMC3    C7 6098   2.072   0.630   9.133 -0.5393 -0.1308 -0.2162
  408TMC3    C8 6099   2.269   0.267   9.301 -0.6714  0.2011  1.3224
  408TMC3    O1 6100   2.195   0.644   9.127 -0.3758 -0.7652 -0.3366
  408TMC3    O2 6101   2.281   0.151   9.349 -0.6344 -0.0755  0.0369
  409MPD2     C 6102   1.531   2.088  16.958 -0.3646  0.0154  0.2371
  409MPD2    C1 6103   1.620   2.093  17.066 -0.3960  0.4209  0.7261
  409MPD2    C2 6104   1.725   2.183  17.056 -0.2598 -0.2505  0.3333
  409MPD2    C3 6105   1.754   2.256  16.943 -0.2226 -0.1387  0.1304
  409MPD2    C4 6106   1.672   2.238  16.835  0.2512 -0.2564 -0.5605
  409MPD2    C5 6107   1.562   2.155  16.845  0.4670 -0.1534 -0.1493
  409MPD2     H 6108   1.787   2.182  17.145 -0.4682  2.0017  0.5137
  409MPD2    H1 6109   1.700   2.285  16.742 -0.1667  0.1335 -0.4912
  409MPD2    H2 6110   1.441   2.029  16.960 -0.4647  0.1044 -1.4171
  409MPD2    H3 6111   1.495   2.138  16.762 -2.0359  0.9899  1.6348
  409MPD2     N 6112   1.873   2.333  16.930  0.3781  0.3619  0.9007
  409MPD2    H5 6113   1.900   2.361  16.836  2.9639 -1.6990  1.0233
  409MPD2    N1 6114   1.597   2.015  17.183 -0.4316 -0.0441  0.5302
  409MPD2    H7 6115   1.663   2.026  17.260  0.6713 -0.0777 -0.4131
  410TMC3    C1 6116   2.095   2.416  16.994 -0.6125  0.8539 -0.2130
  410TMC3    C2 6117   2.201   2.401  17.080  0.4421  0.2257  0.2669
  410TMC3    C3 6118   2.307   2.485  17.066 -0.4072  0.1761 -0.1307
  410TMC3    C4 6119   2.106   2.480  16.874  0.1239 -0.3403  0.3800
  410TMC3    C5 6120   2.214   2.567  16.866 -0.0220  0.3623 -0.0863
  410TMC3    C6 6121   2.313   2.575  16.959  0.0029 -0.7605  0.6861
  410TMC3     C 6122   1.963   2.360  17.040  0.5243  0.3066 -0.7646
  410TMC3     O 6123   1.943   2.341  17.157 -0.0077  0.0161 -0.3396
  410TMC3     H 6124   2.173   2.355  17.174  0.3488  0.1444  0.1996
  410TMC3    H1 6125   2.025   2.500  16.805 -1.7933 -1.3010  2.3626
  410TMC3    H2 6126   2.395   2.643  16.940  0.6841 -1.9432 -0.6661
  410TMC3    C7 6127   2.224   2.648  16.749  0.7729 -0.8996  0.2136
  410TMC3    C8 6128   2.427   2.467  17.144 -0.2835 -0.0415  0.2163
  410TMC3    O1 6129   2.182   2.607  16.638  0.1377  0.1528 -0.0421
  410TMC3    O2 6130   2.516   2.549  17.120 -0.3047 -0.5973 -0.2019
  411MPD2     C 6131   2.363   2.437  14.889 -0.0911 -0.8417 -0.7471
  411MPD2    C1 6132   2.245   2.451  14.957  0.2048  0.3989  0.3841
  411MPD2    C2 6133   2.151   2.349  14.970 -0.1773  0.2837 -0.4168
  411MPD2    C3 6134   2.171   2.230  14.894  0.5536 -0.0021 -0.1365
  411MPD2    C4 6135   2.294   2.203  14.843  0.2235  0.2998 -0.3564
  411MPD2    C5 6136   2.383   2.314  14.832 -0.2364 -0.4274  0.0355
  411MPD2     H 6137   2.058   2.364  15.023 -0.0975 -0.2333 -0.1319
  411MPD2    H1 6138   2.319   2.114  14.785  2.1379  1.3628 -1.1855
  411MPD2    H2 6139   2.429   2.520  14.865 -3.7066  2.7648  1.9789
  411MPD2    H3 6140   2.482   2.294  14.794  0.6131 -1.6422  2.8789
  411MPD2     N 6141   2.069   2.144  14.856  0.2035  0.0037  0.2275
  411MPD2    H5 6142   2.107   2.066  14.803 -0.2371  0.6452 -1.0339
  411MPD2    N1 6143   2.207   2.576  14.999 -0.0731  0.0873  1.2307
  411MPD2    H7 6144   2.247   2.660  14.959  0.1618 -0.1829  0.8879
  412TMC3    C1 6145   1.836   2.057  14.815  0.2698  0.2651  0.4408
  412TMC3    C2 6146   1.712   2.091  14.790 -1.1106  0.5451  0.0712
  412TMC3    C3 6147   1.630   1.990  14.740 -0.0293 -0.0263 -0.0270
  412TMC3    C4 6148   1.883   1.929  14.807 -0.6499 -0.7400  0.3463
  412TMC3    C5 6149   1.801   1.831  14.766  0.1789 -0.0018 -0.1979
  412TMC3    C6 6150   1.670   1.859  14.734  0.3907 -0.0702 -0.3961
  412TMC3     C 6151   1.931   2.164  14.867 -0.5338  0.1202  0.5915
  412TMC3     O 6152   1.876   2.268  14.907  0.1259 -0.0248  0.3512
  412TMC3     H 6153   1.687   2.196  14.799 -2.4704  0.1501  0.9987
  412TMC3    H1 6154   1.984   1.910  14.841 -1.1784  0.3607  2.5137
  412TMC3    H2 6155   1.608   1.786  14.683 -1.4401  0.7099  0.7318
  412TMC3    C7 6156   1.861   1.751  14.666 -0.1849  0.3004 -0.8124
  412TMC3    C8 6157   1.548   2.023  14.633 -0.2918 -0.0803 -0.6020
  412TMC3    O1 6158   1.856   1.632  14.688  0.1760  0.1664 -0.4385
  412TMC3    O2 6159   1.540   1.934  14.550 -0.1758  0.1891 -0.1480
  413MPD2     C 6160   3.504   1.082  15.451  0.1620  0.2559  1.1003
  413MPD2    C1 6161   3.438   1.020  15.347  0.2200 -0.2058 -0.5424
  413MPD2    C2 6162   3.522   0.985  15.238  0.1582  0.7088  0.1034
  413MPD2    C3 6163   3.655   0.996  15.241  0.3257 -0.3713 -0.2719
  413MPD2    C4 6164   3.715   1.066  15.341 -0.2720 -0.0174 -0.0627
  413MPD2    C5 6165   3.638   1.111  15.444  0.4146  0.0855  0.0976
  413MPD2     H 6166   3.475   0.928  15.158  1.3655 -1.6423  1.0467
  413MPD2    H1 6167   3.822   1.085  15.340 -0.1767 -0.5521 -0.3261
  413MPD2    H2 6168   3.436   1.103  15.533 -2.7423  0.1047 -1.2474
  413MPD2    H3 6169   3.685   1.145  15.535  1.6422  0.1639 -0.5626
  413MPD2     N 6170   3.718   0.942  15.125  0.2979  0.7764 -0.5078
  413MPD2    H5 6171   3.671   0.873  15.067  0.3763 -1.4607  2.0612
  413MPD2    N1 6172   3.293   1.001  15.358  0.6668  0.1106 -0.4607
  413MPD2    H7 6173   3.241   1.011  15.445  0.8283 -1.7992 -0.1267
  414TMC3    C1 6174   3.897   0.891  14.987  0.8319 -0.6139 -0.3870
  414TMC3    C2 6175   3.927   0.762  15.022 -0.6516 -0.1220  0.6371
  414TMC3    C3 6176   4.000   0.683  14.937  0.2376 -0.3885 -1.2635
  414TMC3    C4 6177   3.938   0.942  14.871 -0.2033  0.4615 -0.3864
  414TMC3    C5 6178   4.009   0.865  14.787 -0.1387  0.0589  0.2570
  414TMC3    C6 6179   4.032   0.730  14.815  0.7128 -0.7215  0.3094
  414TMC3     C 6180   3.843   0.984  15.081 -0.1958 -0.7448 -0.7648
  414TMC3     O 6181   3.912   1.085  15.097 -0.0842 -0.0586 -0.2304
  414TMC3     H 6182   3.915   0.736  15.126  1.1660 -1.0310  0.6246
  414TMC3    H1 6183   3.892   1.035  14.840  0.7263  0.8027 -0.7352
  414TMC3    H2 6184   4.090   0.671  14.746  2.4819  1.7948 -0.3604
  414TMC3    C7 6185   4.002   0.917  14.656 -0.1043 -0.3694 -0.2880
  414TMC3    C8 6186   4.087   0.585  14.998 -0.1568  0.6599 -0.2800
  414TMC3    O1 6187   3.889   0.954  14.627 -0.1101  0.1770  0.8753
  414TMC3    O2 6188   4.121   0.482  14.935  0.7366 -0.4390 -0.0977
  415TMC3    C1 6189   0.060   2.152  10.333 -0.7429 -0.1675  0.5707
  415TMC3    C2 6190   0.152   2.247  10.330  0.0519  0.8373 -0.1521
  415TMC3    C3 6191   0.256   2.216  10.250 -0.3323 -0.0418  0.1913
  415TMC3    C4 6192   0.061   2.032  10.268 -0.6419  0.2882  0.2495
  415TMC3    C5 6193   0.167   2.003  10.185  0.0375  0.1671 -0.0411
  415TMC3    C6 6194   0.271   2.092  10.184 -0.0921 -0.2469 -0.8574
  415TMC3     C 6195   4.682   2.175  10.426 -0.3230  0.5556  0.1675
  415TMC3     O 6196   4.643   2.079  10.488 -0.2453  0.1369  0.4009
  415TMC3     H 6197   0.152   2.337  10.390 -0.5713  0.1697  0.8426
  415TMC3    H1 6198   4.693   1.976  10.272  0.6360 -1.6529  1.9900
  415TMC3    H2 6199   0.349   2.091  10.109 -0.6199 -0.9474 -1.4027
  415TMC3    C7 6200   0.128   1.953  10.049 -0.4426  0.9385  0.3174
  415TMC3    C8 6201   0.365   2.306  10.255  0.0269  0.7934  0.4420
  415TMC3    O1 6202   0.202   1.965   9.953 -0.3726 -0.0546 -0.3032
  415TMC3    O2 6203   0.479   2.257  10.249 -0.9390  0.2068  0.2658
  416MPD2     C 6204   1.623   1.891  11.689 -0.0271 -0.3712  0.0557
  416MPD2    C1 6205   1.493   1.868  11.644  0.3006 -0.0266 -0.2999
  416MPD2    C2 6206   1.474   1.758  11.558  0.7918  0.6377  0.1326
  416MPD2    C3 6207   1.583   1.682  11.513  0.4145  0.8545 -0.5761
  416MPD2    C4 6208   1.714   1.705  11.567  0.7209  0.3500  0.5839
  416MPD2    C5 6209   1.730   1.824  11.640 -0.3786 -1.2309 -0.8192
  416MPD2     H 6210   1.373   1.730  11.533  1.2594  0.4638 -1.5484
  416MPD2    H1 6211   1.802   1.653  11.531 -1.0988 -1.2956 -1.4635
  416MPD2    H2 6212   1.641   1.970  11.761 -0.9136  0.6220 -0.8270
  416MPD2    H3 6213   1.826   1.856  11.679 -0.7287 -1.1800 -0.0034
  416MPD2     N 6214   1.559   1.571  11.427  0.0814  0.6810  0.8060
  416MPD2    H5 6215   1.640   1.509  11.420 -0.5464 -0.2878  2.1544
  416MPD2    N1 6216   1.379   1.932  11.696 -0.2535 -0.0768  0.2428
  416MPD2    H7 6217   1.395   1.982  11.783  0.5182  1.3043 -0.6931
  417TMC3    C1 6218   1.142   1.959  11.744  0.1914 -0.0731 -0.1654
  417TMC3    C2 6219   1.151   1.943  11.877  0.3209 -0.1221 -0.1134
  417TMC3    C3 6220   1.041   1.967  11.956  0.8845  0.7259 -0.3442
  417TMC3    C4 6221   1.020   1.966  11.692  0.3758  0.3947  0.5044
  417TMC3    C5 6222   0.909   1.977  11.766 -0.1751  0.5124  0.0278
  417TMC3    C6 6223   0.917   1.983  11.903 -0.3849  0.4207  0.7541
  417TMC3     C 6224   1.247   1.911  11.652 -0.4949  0.7316  0.7917
  417TMC3     O 6225   1.208   1.876  11.542  0.1071 -0.1205  0.2709
  417TMC3     H 6226   1.248   1.919  11.918  0.2090 -2.4793 -1.2564
  417TMC3    H1 6227   1.015   1.948  11.585 -1.7275  0.3985  0.6000
  417TMC3    H2 6228   0.827   2.002  11.961 -1.0370 -2.0622  0.5694
  417TMC3    C7 6229   0.780   2.012  11.698  0.4804  0.1037  0.3747
  417TMC3    C8 6230   1.049   1.968  12.101 -0.2316 -0.0085  0.1824
  417TMC3    O1 6231   0.681   2.027  11.769 -0.3020  0.1194  0.2580
  417TMC3    O2 6232   0.948   1.969  12.174 -0.2104 -0.7635 -0.5721
  418TMC3    C1 6233   4.565   3.801   0.672  0.0283  0.3707  0.1658
  418TMC3    C2 6234   4.465   3.860   0.606 -0.0617  0.0246 -0.6169
  418TMC3    C3 6235   4.335   3.832   0.641  0.1101 -0.5224  1.1315
  418TMC3    C4 6236   4.531   3.722   0.781 -0.3094  0.1049  0.5946
  418TMC3    C5 6237   4.403   3.707   0.819 -0.3097 -0.4184 -0.2253
  418TMC3    C6 6238   4.303   3.756   0.745  0.0162 -0.2092  0.2893
  418TMC3     C 6239   4.704   3.838   0.641 -0.0490 -0.7885 -0.4743
  418TMC3     O 6240   0.010   3.955   0.615 -0.0501 -0.3448  0.0509
  418TMC3     H 6241   4.491   3.906   0.512  2.9452 -1.2993 -0.4397
  418TMC3    H1 6242   4.608   3.670   0.836 -1.1396 -1.6040  0.1311
  418TMC3    H2 6243   4.199   3.753   0.778 -0.1618 -1.6081 -0.3954
  418TMC3    C7 6244   4.368   3.599   0.904  0.2700 -0.2716 -0.3697
  418TMC3    C8 6245   4.231   3.864   0.546  0.3805  0.2332 -0.2153
  418TMC3    O1 6246   4.260   3.538   0.888 -0.0929 -0.4062  0.5745
  418TMC3    O2 6247   4.250   3.958   0.479 -0.0657  0.5209 -0.6715
  419MPD2     C 6248   3.652   1.888  12.417 -0.3354 -0.8020  0.6294
  419MPD2    C1 6249   3.517   1.906  12.422 -0.8647  0.3051 -0.3961
  419MPD2    C2 6250   3.463   1.954  12.543 -0.5251 -1.8523 -0.0560
  419MPD2    C3 6251   3.540   1.976  12.656 -0.8523 -0.1601  0.4983
  419MPD2    C4 6252   3.678   1.952  12.649  0.7599  0.0426  0.4489
  419MPD2    C5 6253   3.728   1.910  12.530 -0.3809 -0.1453 -0.5475
  419MPD2     H 6254   3.358   1.984  12.542  0.0800  0.2205 -2.1813
  419MPD2    H1 6255   3.736   1.946  12.741 -0.2960 -0.5185  1.0806
  419MPD2    H2 6256   3.704   1.841  12.335  0.5394 -0.5086  1.0146
  419MPD2    H3 6257   3.832   1.880  12.526 -0.3944 -0.4006  1.1021
  419MPD2     N 6258   3.474   2.026  12.769  0.8067  0.3875  0.4633
  419MPD2    H5 6259   3.372   2.032  12.762  0.7848  1.0176  1.4589
  419MPD2    N1 6260   3.428   1.888  12.311 -0.4331 -0.9851 -0.1231
  419MPD2    H7 6261   3.333   1.916  12.333  0.2147  1.0580  0.1498
  420TMC3    C1 6262   3.420   2.032  12.988 -0.2177 -0.4135 -0.4255
  420TMC3    C2 6263   3.298   1.981  12.953 -0.7898 -0.3330  0.3910
  420TMC3    C3 6264   3.191   2.006  13.034 -0.0937 -0.1119  0.1339
  420TMC3    C4 6265   3.435   2.094  13.107  0.4784 -0.0114 -0.5343
  420TMC3    C5 6266   3.319   2.112  13.185  0.1551  0.1125  0.1730
  420TMC3    C6 6267   3.194   2.078  13.142 -0.4247 -0.1096 -0.3378
  420TMC3     C 6268   3.531   2.030  12.892  0.2832  0.2319  0.9761
  420TMC3     O 6269   3.653   2.041  12.921 -0.4313  0.3094  0.2544
  420TMC3     H 6270   3.294   1.906  12.874  0.1337  0.5228 -0.4728
  420TMC3    H1 6271   3.533   2.130  13.138 -0.3517  1.4860  0.3302
  420TMC3    H2 6272   3.115   2.079  13.216 -0.0334 -1.5822  0.0974
  420TMC3    C7 6273   3.331   2.148  13.325  0.1270 -0.1367 -0.1519
  420TMC3    C8 6274   3.071   1.973  12.968 -0.6614 -0.5106  0.0668
  420TMC3    O1 6275   3.232   2.127  13.394 -0.4209  0.1666  1.0898
  420TMC3    O2 6276   3.073   1.982  12.847  0.2860  0.1627  0.0855
  421TMC3    C1 6277   0.257   3.838  13.630 -0.2649 -0.9101  0.6450
  421TMC3    C2 6278   0.367   3.901  13.583  0.1620  0.4548 -0.6784
  421TMC3    C3 6279   0.492   3.876  13.639 -0.0501 -0.3631  0.1290
  421TMC3    C4 6280   0.267   3.754  13.739 -0.1933  0.1674  0.2223
  421TMC3    C5 6281   0.390   3.729  13.796 -0.6495 -0.1317  0.7951
  421TMC3    C6 6282   0.504   3.786  13.744 -1.0406 -0.3842  0.1483
  421TMC3     C 6283   0.128   3.893  13.593  0.0233  0.1134  0.4422
  421TMC3     O 6284   0.116   4.005  13.539 -0.1048  0.9034  0.0150
  421TMC3     H 6285   0.345   3.974  13.505 -1.7259  0.5590 -0.0608
  421TMC3    H1 6286   0.180   3.702  13.779  0.5746 -0.2977  1.3029
  421TMC3    H2 6287   0.601   3.757  13.782 -0.4755  0.1896 -0.8398
  421TMC3    C7 6288   0.416   3.617  13.888 -0.4621  0.0098 -0.8034
  421TMC3    C8 6289   0.603   3.961  13.602  0.1774 -0.4225 -0.0984
  421TMC3    O1 6290   0.531   3.603  13.931 -0.2544  0.1120  0.4607
  421TMC3    O2 6291   0.712   3.914  13.619  0.0766  0.1542 -0.3362
  422TMC3    C1 6292   2.355   4.552  12.879  0.2616 -0.5707 -0.3621
  422TMC3    C2 6293   2.313   4.687  12.879 -0.2764 -0.2965 -0.8505
  422TMC3    C3 6294   2.194   4.718  12.939 -0.9596  0.4602  0.0486
  422TMC3    C4 6295   2.278   4.450  12.924  0.2584 -0.6429  0.6627
  422TMC3    C5 6296   2.166   4.488  12.989  0.5075 -0.0005  0.0432
  422TMC3    C6 6297   2.120   4.616  12.989  0.0809  0.6002 -0.9785
  422TMC3     C 6298   2.469   4.525  12.789  0.0473  0.1665 -0.0193
  422TMC3     O 6299   2.491   4.596  12.690 -0.0908 -0.3316 -0.1974
  422TMC3     H 6300   2.371   0.047  12.843 -0.3514 -0.1607 -0.6516
  422TMC3    H1 6301   2.307   4.346  12.930 -0.9523 -1.0449 -0.2150
  422TMC3    H2 6302   2.026   4.628  13.043  1.2280 -0.6226  1.2884
  422TMC3    C7 6303   2.074   4.375  13.006 -0.1476 -0.1174 -0.5220
  422TMC3    C8 6304   2.148   0.134  12.941  0.5659 -0.3026  0.5340
  422TMC3    O1 6305   2.119   4.261  13.005  0.0530  0.2085  0.6398
  422TMC3    O2 6306   2.216   0.223  12.891 -0.2237  0.1738  0.5651
  423MPD2     C 6307   3.950   1.660   0.699  0.0850  0.3674 -0.2786
  423MPD2    C1 6308   3.817   1.639   0.707 -0.2468  0.1920  0.4370
  423MPD2    C2 6309   3.736   1.631   0.595  0.0065 -0.1498 -0.3643
  423MPD2    C3 6310   3.797   1.618   0.470 -0.2117 -1.2279  0.8373
  423MPD2    C4 6311   3.933   1.616   0.471  0.5873  0.1042  0.6275
  423MPD2    C5 6312   4.007   1.641   0.578 -0.1056  0.3509 -0.5253
  423MPD2     H 6313   3.632   1.607   0.608 -0.8505  1.7327 -3.6852
  423MPD2    H1 6314   3.982   1.591   0.378 -1.4103 -0.4195 -0.2999
  423MPD2    H2 6315   4.015   1.684   0.782 -0.3789 -1.7561  0.6765
  423MPD2    H3 6316   4.114   1.652   0.568 -0.0698  1.3111  0.8601
  423MPD2     N 6317   3.727   1.582   0.351  0.0778  0.0559  0.8413
  423MPD2    H5 6318   3.780   1.566   0.266  2.1067  3.1554  1.5308
  423MPD2    N1 6319   3.741   1.633   0.828  0.3716 -0.5180  0.2567
  423MPD2    H7 6320   3.641   1.617   0.823  0.5010 -0.3736 -2.9598
  424TMC3    C1 6321   3.713   1.572   1.058  0.2187  0.0295 -1.3621
  424TMC3    C2 6322   3.773   1.505   1.161  0.0460  0.7146 -0.1342
  424TMC3    C3 6323   3.691   1.443   1.255 -0.5095  0.2626 -0.2619
  424TMC3    C4 6324   3.577   1.582   1.046 -0.1808 -0.0723 -0.8758
  424TMC3    C5 6325   3.505   1.507   1.129 -0.3837 -0.7487 -0.4223
  424TMC3    C6 6326   3.560   1.427   1.226 -0.5622 -0.3504  0.7206
  424TMC3     C 6327   3.802   1.626   0.954  0.4761 -0.3611  0.1004
  424TMC3     O 6328   3.921   1.637   0.989 -0.0655 -0.1337 -0.0313
  424TMC3     H 6329   3.880   1.491   1.162 -0.0511 -0.1009 -0.8314
  424TMC3    H1 6330   3.532   1.640   0.965 -2.4776 -0.1082  0.3670
  424TMC3    H2 6331   3.495   1.370   1.291 -0.6868  2.2916  2.9497
  424TMC3    C7 6332   3.363   1.534   1.139  0.3324 -0.4280  0.1415
  424TMC3    C8 6333   3.751   1.338   1.324 -0.1486 -0.2303  0.2146
  424TMC3    O1 6334   3.296   1.562   1.036  0.4056 -0.3152  0.2807
  424TMC3    O2 6335   3.681   1.241   1.342  0.3214  0.0558 -0.1456
  425MPD2     C 6336   2.435   0.623  17.633  0.0217  0.0064  0.3258
  425MPD2    C1 6337   2.360   0.553  17.541 -0.0263  0.4756  0.5507
  425MPD2    C2 6338   2.232   0.596  17.510 -0.4269 -0.2685 -0.1015
  425MPD2    C3 6339   2.174   0.707  17.573 -0.0417  0.6357 -0.2948
  425MPD2    C4 6340   2.253   0.784  17.658 -0.4078  0.7283 -0.1982
  425MPD2    C5 6341   2.376   0.738  17.687 -1.0499  0.0734  0.3319
  425MPD2     H 6342   2.170   0.529  17.451  2.9798 -2.9441 -0.6076
  425MPD2    H1 6343   2.225   0.862   0.028 -0.9257 -2.5573  3.2753
  425MPD2    H2 6344   2.533   0.591  17.665 -0.4702  0.6087  2.4686
  425MPD2    H3 6345   2.430   0.794   0.064 -0.5653  1.2411 -0.8696
  425MPD2     N 6346   2.035   0.710  17.551 -0.0653 -0.3289  0.3586
  425MPD2    H5 6347   2.005   0.640  17.485  2.2126  0.5028 -1.5547
  425MPD2    N1 6348   2.411   0.420  17.506  0.1711 -0.1012 -0.5480
  425MPD2    H7 6349   2.493   0.386  17.556  0.0095  0.8504  0.3584
  426TMC3    C1 6350   2.401   0.208  17.402 -0.6373 -0.0801  0.2029
  426TMC3    C2 6351   2.385   0.140  17.284 -0.5889  0.0564  0.3499
  426TMC3    C3 6352   2.423   0.009  17.277  0.0070 -0.7487  0.3693
  426TMC3    C4 6353   2.431   0.140  17.516 -0.5834  0.0956 -0.1098
  426TMC3    C5 6354   2.480   0.009  17.506 -0.2463 -0.4432 -0.2314
  426TMC3    C6 6355   2.482   4.664  17.382 -0.0129  0.4373 -0.0439
  426TMC3     C 6356   2.353   0.345  17.407 -0.0293  0.1624 -0.3001
  426TMC3     O 6357   2.273   0.387  17.321 -0.5277 -0.4562  0.5787
  426TMC3     H 6358   2.343   0.203  17.206 -1.6205 -1.1707 -0.0868
  426TMC3    H1 6359   2.422   0.186  17.614  3.4585  0.2211  0.1972
  426TMC3    H2 6360   2.517   4.561  17.379  0.4439  0.6046 -0.4089
  426TMC3    C7 6361   2.516   4.667  17.627  0.2018 -0.2606 -0.6282
  426TMC3    C8 6362   2.354   4.639  17.194  0.0365  0.5054 -0.0863
  426TMC3    O1 6363   2.603   4.579  17.616 -0.1779 -0.4892 -0.1257
  426TMC3    O2 6364   2.413   4.547  17.141  0.4586  0.4571  0.4010
  427MPD2     C 6365   0.468   2.086  14.955 -0.1028  0.2173  0.2883
  427MPD2    C1 6366   0.593   2.138  14.917 -0.6449  0.2883 -0.8538
  427MPD2    C2 6367   0.607   2.266  14.862 -0.1614  0.3288 -0.2483
  427MPD2    C3 6368   0.499   2.341  14.845  0.4623 -0.2431 -0.3138
  427MPD2    C4 6369   0.377   2.298  14.883 -0.6673  0.0896 -0.7506
  427MPD2    C5 6370   0.364   2.170  14.929  0.7878 -0.2141  0.0742
  427MPD2     H 6371   0.703   2.297  14.822 -0.3359  0.3654 -0.6385
  427MPD2    H1 6372   0.287   2.359  14.873  0.4232  1.7012 -0.7453
  427MPD2    H2 6373   0.458   1.990  15.004  1.8999 -1.4630 -2.6076
  427MPD2    H3 6374   0.269   2.133  14.967  0.1479 -0.3728 -1.6496
  427MPD2     N 6375   0.495   2.476  14.794  0.6510  0.5173  0.4397
  427MPD2    H5 6376   0.406   2.524  14.786 -0.2721 -1.4406 -0.8784
  427MPD2    N1 6377   0.711   2.056  14.934 -0.4119  0.7360  0.3149
  427MPD2    H7 6378   0.797   2.100  14.905  0.0798 -0.2649  0.2615
  428TMC3    C1 6379   0.842   1.881  14.994  0.1141 -0.1920 -0.3131
  428TMC3    C2 6380   0.868   1.747  15.005  0.0230  0.6217 -1.3130
  428TMC3    C3 6381   0.965   1.710  15.095  0.1111 -0.0507 -0.3692
  428TMC3    C4 6382   0.915   1.975  15.060  0.2975  0.1232  0.0602
  428TMC3    C5 6383   1.026   1.929  15.136  0.4460  0.0779 -0.0611
  428TMC3    C6 6384   1.051   1.795  15.159 -0.3297 -0.1094 -0.4223
  428TMC3     C 6385   0.710   1.919  14.951 -0.5014  0.4830  0.0076
  428TMC3     O 6386   0.621   1.839  14.930  0.5573  0.1757  0.5137
  428TMC3     H 6387   0.792   1.680  14.966 -1.1614  1.1638  0.0736
  428TMC3    H1 6388   0.880   2.078  15.057 -2.0996 -0.7549 -1.6857
  428TMC3    H2 6389   1.125   1.758  15.230 -1.9788 -0.0095  1.3565
  428TMC3    C7 6390   1.098   2.014  15.225  0.3168  0.4371 -0.2896
  428TMC3    C8 6391   0.972   1.571  15.137 -0.1156 -0.0263  0.1061
  428TMC3    O1 6392   1.170   1.959  15.308  0.7394 -0.1233  0.2346
  428TMC3    O2 6393   1.074   1.534  15.197  0.4624 -0.3590 -0.1591
  429MPD2     C 6394   2.395   2.776   0.154  0.6427 -0.3055  0.2469
  429MPD2    C1 6395   2.490   2.707   0.081  0.3458  0.1682  0.0915
  429MPD2    C2 6396   2.574   2.775  17.696 -0.5220 -0.1364 -0.7565
  429MPD2    C3 6397   2.570   2.912  17.689 -0.4371 -0.0569 -0.3793
  429MPD2    C4 6398   2.465   2.979   0.056 -0.3786  0.5130 -0.3783
  429MPD2    C5 6399   2.381   2.912   0.141 -0.2451  0.3545 -0.2677
  429MPD2     H 6400   2.649   2.721  17.640 -0.6120  0.1258 -1.1301
  429MPD2    H1 6401   2.452   3.086   0.047 -0.2398  0.7552  2.2423
  429MPD2    H2 6402   2.329   2.735   0.228 -0.5263 -2.0795 -1.7873
  429MPD2    H3 6403   2.316   2.978   0.198 -0.9005 -0.2987 -0.2538
  429MPD2     N 6404   2.673   2.969  17.614 -0.3723  0.5955 -0.0073
  429MPD2    H5 6405   2.729   2.896  17.572  0.8765  0.3721  2.0509
  429MPD2    N1 6406   2.490   2.569   0.080  0.1376 -0.2466 -0.0507
  429MPD2    H7 6407   2.411   2.525   0.126 -1.1166  1.7107 -0.3380
  430TMC3    C1 6408   2.773   3.111  17.460  0.8696 -0.0232 -0.6783
  430TMC3    C2 6409   2.804   3.237  17.418  0.4226 -0.9301  0.4591
  430TMC3    C3 6410   2.856   3.259  17.293  0.2778 -0.2906  0.0011
  430TMC3    C4 6411   2.785   3.001  17.380  0.0129 -0.3012 -0.1328
  430TMC3    C5 6412   2.836   3.023  17.256 -0.2113 -0.0911  0.1437
  430TMC3    C6 6413   2.865   3.152  17.210 -0.2203 -0.4695 -1.2641
  430TMC3     C 6414   2.681   3.100  17.564  0.0174  0.8616 -0.4274
  430TMC3     O 6415   2.613   3.199  17.599  0.1147 -0.3732  0.9286
  430TMC3     H 6416   2.797   3.324  17.482 -0.6640 -0.3584 -0.4274
  430TMC3    H1 6417   2.767   2.899  17.411 -2.1851  0.0104 -0.3621
  430TMC3    H2 6418   2.898   3.162  17.107 -0.9315 -1.7101 -1.6120
  430TMC3    C7 6419   2.809   2.923  17.152  0.0657 -0.7601 -0.1330
  430TMC3    C8 6420   2.820   3.384  17.227  0.0984  0.0868  0.2397
  430TMC3    O1 6421   2.817   2.804  17.187  0.1214 -0.4867 -0.7273
  430TMC3    O2 6422   2.794   3.370  17.105 -0.1518  0.1443  0.4203
  431MPD2     C 6423   3.241   2.657  12.345 -0.3151 -0.0793 -1.1083
  431MPD2    C1 6424   3.353   2.650  12.270  0.6863 -0.1854 -0.4518
  431MPD2    C2 6425   3.366   2.542  12.182  0.4907  0.5819 -0.1820
  431MPD2    C3 6426   3.264   2.446  12.171 -0.0995 -0.0567 -0.4879
  431MPD2    C4 6427   3.151   2.464  12.246 -0.1309  0.0888 -0.3075
  431MPD2    C5 6428   3.137   2.566  12.338 -0.4674 -0.5193  0.1861
  431MPD2     H 6429   3.464   2.528  12.138  0.8561  0.1202  0.7761
  431MPD2    H1 6430   3.068   2.394  12.249 -0.1957  0.1654 -0.2664
  431MPD2    H2 6431   3.235   2.741  12.413 -4.1452  0.0232 -1.5500
  431MPD2    H3 6432   3.040   2.577  12.387 -0.4934 -1.0325  0.2511
  431MPD2     N 6433   3.275   2.315  12.106 -0.4549 -0.6304  0.1461
  431MPD2    H5 6434   3.197   2.251  12.114 -0.4872 -0.8488 -1.7661
  431MPD2    N1 6435   3.463   2.738  12.276  0.4121 -0.5683  0.0162
  431MPD2    H7 6436   3.532   2.735  12.202  0.3707 -2.3927  0.0443
  432TMC3    C1 6437   3.349   2.131  11.992 -0.1569 -0.1922  0.5147
  432TMC3    C2 6438   3.393   2.085  11.870  1.0606 -0.5901 -0.3482
  432TMC3    C3 6439   3.415   1.946  11.845  0.3141 -0.3256 -0.1722
  432TMC3    C4 6440   3.353   2.042  12.100  0.9601 -0.1507  0.3231
  432TMC3    C5 6441   3.387   1.910  12.078  1.6513 -0.3372  0.4084
  432TMC3    C6 6442   3.404   1.863  11.955  0.1481  0.3587  0.8416
  432TMC3     C 6443   3.373   2.271  12.021  0.1625 -0.4005  0.1889
  432TMC3     O 6444   3.464   2.338  11.973 -0.0105  0.2512  0.5116
  432TMC3     H 6445   3.408   2.157  11.790  1.2248  0.3395  0.5131
  432TMC3    H1 6446   3.361   2.082  12.201 -2.8038 -1.2625  1.0576
  432TMC3    H2 6447   3.430   1.758  11.947 -1.1148 -0.0072  1.6071
  432TMC3    C7 6448   3.468   1.844  12.184 -0.3309 -1.0118  0.0827
  432TMC3    C8 6449   3.536   1.925  11.779 -0.4188  0.2914 -0.4705
  432TMC3    O1 6450   3.577   1.795  12.152  0.1567  0.2750  0.1087
  432TMC3    O2 6451   3.628   2.006  11.784 -0.2726  0.0256 -0.4306
  433MPD2     C 6452   2.048   0.919  10.949  0.0144 -0.0671 -0.3742
  433MPD2    C1 6453   2.080   0.846  11.064 -0.1326  0.6493 -0.3981
  433MPD2    C2 6454   2.104   0.907  11.191  0.0421 -0.2168 -0.1777
  433MPD2    C3 6455   2.107   1.047  11.195  0.2437  0.5302  0.1827
  433MPD2    C4 6456   2.077   1.120  11.078  0.6007  0.1113  0.0929
  433MPD2    C5 6457   2.050   1.054  10.961  0.2157  0.8434 -0.2204
  433MPD2     H 6458   2.121   0.843  11.277 -0.1296  0.5795  0.4572
  433MPD2    H1 6459   2.080   1.228  11.081 -0.2825  0.1208  0.7283
  433MPD2    H2 6460   2.013   0.862  10.863 -1.6761 -2.0355  1.6226
  433MPD2    H3 6461   2.029   1.116  10.875 -0.4016 -0.6425 -1.1417
  433MPD2     N 6462   2.146   1.108  11.321  0.2928 -0.2994 -0.0346
  433MPD2    H5 6463   2.164   1.048  11.401 -1.3213  1.5573  1.7094
  433MPD2    N1 6464   2.108   0.705  11.038 -0.5100  0.2396  0.5428
  433MPD2    H7 6465   2.111   0.671  10.943  0.7110 -1.7008  1.2799
  434TMC3    C1 6466   2.207   0.500  11.090 -0.5764 -0.1962 -0.5708
  434TMC3    C2 6467   2.302   0.469  11.182  0.4287  0.1038 -0.3093
  434TMC3    C3 6468   2.418   0.416  11.135 -0.2620 -0.3254 -0.3150
  434TMC3    C4 6469   2.232   0.485  10.959 -0.1908  0.2824  0.2049
  434TMC3    C5 6470   2.341   0.420  10.917  0.5317 -0.0432  0.2061
  434TMC3    C6 6471   2.438   0.386  11.006  0.1833  0.4704  0.0431
  434TMC3     C 6472   2.129   0.616  11.139 -0.4536  0.1388  0.2603
  434TMC3     O 6473   2.125   0.627  11.259  0.1208  0.2906  0.6552
  434TMC3     H 6474   2.290   0.472  11.289 -0.1039 -3.4540 -0.2486
  434TMC3    H1 6475   2.149   0.500  10.891 -0.5045 -1.0235  0.2945
  434TMC3    H2 6476   2.531   0.347  10.966  0.0231  0.0384  0.0924
  434TMC3    C7 6477   2.347   0.375  10.771  0.1037  0.2723  0.6921
  434TMC3    C8 6478   2.536   0.429  11.222  0.1441 -0.0302  0.6033
  434TMC3    O1 6479   2.261   0.415  10.689 -0.0270 -0.2364  0.1638
  434TMC3    O2 6480   2.525   0.458  11.342 -0.3519 -0.5918  0.6647
  435MPD2     C 6481   3.913   1.326  15.473  0.3025 -0.5178  0.1862
  435MPD2    C1 6482   3.888   1.399  15.588 -0.2065 -0.6750 -0.3763
  435MPD2    C2 6483   3.986   1.423  15.680  0.5778 -0.3011 -0.8060
  435MPD2    C3 6484   4.109   1.364  15.668  0.1424  0.2045  0.0491
  435MPD2    C4 6485   4.133   1.296  15.554  0.1049 -0.6530  0.0547
  435MPD2    C5 6486   4.038   1.282  15.455 -0.2490  0.3376  0.5464
  435MPD2     H 6487   3.973   1.481  15.770 -0.4133 -2.6912  0.5837
  435MPD2    H1 6488   4.230   1.257  15.527  0.0516 -1.0386  0.4276
  435MPD2    H2 6489   3.832   1.299  15.407 -1.3469 -0.5363  2.2300
  435MPD2    H3 6490   4.066   1.230  15.364  0.8366 -1.8158  2.0981
  435MPD2     N 6491   4.206   1.391  15.764 -0.0515  0.6676  0.0487
  435MPD2    H5 6492   4.184   1.445  15.847 -1.3582  0.3624 -0.0951
  435MPD2    N1 6493   3.761   1.456  15.618 -0.2536 -0.3069 -0.6497
  435MPD2    H7 6494   3.747   1.494  15.711 -0.9939  1.4039 -1.4625
  436TMC3    C1 6495   3.474   1.573  15.816  0.1360  0.4549  0.2953
  436TMC3    C2 6496   3.560   1.591  15.709  0.3953 -0.2560 -0.0457
  436TMC3    C3 6497   3.534   1.520  15.597  0.2500 -0.1268 -0.0641
  436TMC3    C4 6498   3.379   1.470  15.817  0.1521 -0.1595  0.0442
  436TMC3    C5 6499   3.351   1.413  15.694 -0.3335 -0.4144 -0.4009
  436TMC3    C6 6500   3.426   1.440  15.583 -0.4200 -0.5928  0.6106
  436TMC3     C 6501   3.516   1.633  15.942 -0.5856 -0.6998  0.7990
  436TMC3     O 6502   3.633   1.670  15.946  0.2965 -0.3308  0.0225
  436TMC3     H 6503   3.639   1.666  15.703  0.5976 -0.5406 -0.9370
  436TMC3    H1 6504   3.336   1.440  15.912  1.1230 -1.5199  0.0618
  436TMC3    H2 6505   3.411   1.376  15.497  0.9811 -1.0826  0.7341
  436TMC3    C7 6506   3.249   1.309  15.683  1.1830 -0.2754 -0.2245
  436TMC3    C8 6507   3.652   1.458  15.534 -0.3729 -0.5484  0.1192
  436TMC3    O1 6508   3.233   1.244  15.581 -0.7588  0.2289  0.6036
  436TMC3    O2 6509   3.639   1.422  15.419 -0.2457  0.3423 -0.2233
  437TMC3    C1 6510   2.996   2.884  12.680 -0.0194  0.6605 -0.1905
  437TMC3    C2 6511   2.869   2.851  12.649  0.2780 -0.2696  0.4349
  437TMC3    C3 6512   2.819   2.905  12.535  0.0019  0.6232 -0.2097
  437TMC3    C4 6513   3.068   2.970  12.598 -1.0851 -0.1501  0.8294
  437TMC3    C5 6514   3.027   2.985  12.468  0.0617  1.1608 -0.1537
  437TMC3    C6 6515   2.899   2.956  12.439 -0.2171  0.1433  0.4828
  437TMC3     C 6516   3.028   2.853  12.820  1.1295 -0.1440  0.0967
  437TMC3     O 6517   2.954   2.784  12.889  1.3849 -0.8405 -0.0897
  437TMC3     H 6518   2.801   2.798  12.714  0.6748 -0.0491  1.0263
  437TMC3    H1 6519   3.165   2.998  12.639 -2.2481  2.2887  1.9099
  437TMC3    H2 6520   2.857   2.974  12.340 -0.8431  2.4763  1.1656
  437TMC3    C7 6521   3.120   3.036  12.367  0.2432 -0.6810  0.2374
  437TMC3    C8 6522   2.686   2.961  12.549  0.5488 -0.7031  0.2915
  437TMC3    O1 6523   3.094   3.016  12.248  0.4872 -0.5132 -0.2913
  437TMC3    O2 6524   2.609   2.914  12.632 -0.3952  0.3508  0.3631
  438MPD2     C 6525   4.588   3.996  17.162  0.0814  0.1209  0.1137
  438MPD2    C1 6526   4.718   3.999  17.198 -0.0111  0.2755  0.0248
  438MPD2    C2 6527   0.023   4.032  17.332  0.3435 -0.3553 -0.3113
  438MPD2    C3 6528   4.645   4.040  17.426 -0.7447 -0.0244 -0.3706
  438MPD2    C4 6529   4.515   4.027  17.388  0.1194 -0.0106 -0.2150
  438MPD2    C5 6530   4.486   4.002  17.254 -0.1276  0.0745 -0.0421
  438MPD2     H 6531   0.126   4.034  17.364  0.0847  2.1194  0.4136
  438MPD2    H1 6532   4.427   4.035  17.450 -1.1455  0.4331 -2.0934
  438MPD2    H2 6533   4.560   3.997  17.057  0.2499  1.9261  0.0846
  438MPD2    H3 6534   4.388   3.985  17.211  0.1862  0.6262 -0.9691
  438MPD2     N 6535   4.674   4.039  17.560  0.0506  0.3712 -0.1931
  438MPD2    H5 6536   4.601   4.010  17.624 -1.6686 -1.3792 -2.9518
  438MPD2    N1 6537   0.098   3.961  17.113  0.2430  0.2094  0.2724
  438MPD2    H7 6538   0.186   3.944  17.159 -0.1547 -2.7653 -0.0697
  439TMC3    C1 6539   0.200   3.853  16.943 -0.0952  0.1305 -0.7777
  439TMC3    C2 6540   0.218   3.838  16.803  0.2812  0.1417  0.5225
  439TMC3    C3 6541   0.326   3.758  16.770 -0.0554  0.2460  0.1842
  439TMC3    C4 6542   0.269   3.782  17.036 -0.4085 -0.5449  0.6284
  439TMC3    C5 6543   0.376   3.706  16.991 -0.2002 -0.2071 -0.3315
  439TMC3    C6 6544   0.411   3.704  16.861 -0.2179  0.7124 -0.1362
  439TMC3     C 6545   0.083   3.930  16.982 -0.1299 -0.5150  0.5127
  439TMC3     O 6546   4.718   3.950  16.900  0.2032 -0.4985  0.0703
  439TMC3     H 6547   0.152   3.885  16.731 -0.1214  1.1216  1.5288
  439TMC3    H1 6548   0.237   3.774  17.140 -0.8652  0.3665  0.5627
  439TMC3    H2 6549   0.497   3.641  16.837  1.5962  2.3932  1.9796
  439TMC3    C7 6550   0.446   3.629  17.098 -0.5422  0.2865 -0.2903
  439TMC3    C8 6551   0.358   3.738  16.632 -0.8289  0.4446  0.0323
  439TMC3    O1 6552   0.449   3.681  17.208 -0.0947  0.2441 -0.5416
  439TMC3    O2 6553   0.273   3.753  16.550 -0.1030 -0.0145 -0.3885
  440MPD2     C 6554   3.924   4.623  14.966 -0.3318 -0.4519 -0.6267
  440MPD2    C1 6555   3.971   0.021  14.920  0.7181 -0.5807 -0.1221
  440MPD2    C2 6556   4.105   0.036  14.895 -0.2621 -0.3005 -0.4479
  440MPD2    C3 6557   4.199   4.653  14.911  0.4581 -1.1455 -0.4010
  440MPD2    C4 6558   4.146   4.536  14.967 -0.0575 -0.3845 -0.6557
  440MPD2    C5 6559   4.011   4.524  14.985  0.5529 -0.7383 -0.4484
  440MPD2     H 6560   4.138   0.133  14.861  0.2226  0.3562  1.9104
  440MPD2    H1 6561   4.200   4.452  15.009  1.1783  0.3650 -0.7545
  440MPD2    H2 6562   3.818   4.608  14.983 -0.9597  3.9131 -0.7852
  440MPD2    H3 6563   3.972   4.431  15.025  0.6015  0.7268  3.0047
  440MPD2     N 6564   4.343   4.682  14.907  0.4707 -0.2139 -0.1141
  440MPD2    H5 6565   4.361   0.055  14.884 -0.1082  0.1124  0.8308
  440MPD2    N1 6566   3.888   0.129  14.886 -0.4730 -0.6868  0.0996
  440MPD2    H7 6567   3.934   0.205  14.837 -1.0955 -0.9445 -0.8739
  441TMC3    C1 6568   4.553   4.659  15.038  0.6409  0.2296  0.1455
  441TMC3    C2 6569   4.514   0.049  15.108 -0.4971  0.3602 -0.5116
  441TMC3    C3 6570   4.538   0.058  15.240  0.6211 -0.4847 -0.2376
  441TMC3    C4 6571   4.616   4.557  15.104 -0.4021  0.7038  0.0688
  441TMC3    C5 6572   4.632   4.563  15.233  0.4127  0.1210 -0.2289
  441TMC3    C6 6573   4.599   4.681  15.307 -0.7920  0.7368 -0.7953
  441TMC3     C 6574   4.450   4.604  14.948  0.3014  0.9553 -0.2687
  441TMC3     O 6575   4.449   4.485  14.944 -0.1025 -0.3579 -0.3115
  441TMC3     H 6576   4.488   0.145  15.065 -0.3157  1.1657  1.1499
  441TMC3    H1 6577   4.655   4.470  15.052 -1.5839  0.2924 -0.1242
  441TMC3    H2 6578   4.616   4.689  15.413 -1.4580 -2.0504 -0.4726
  441TMC3    C7 6579   4.569   4.455  15.317 -0.2472  0.0495 -0.2563
  441TMC3    C8 6580   4.494   0.173  15.317 -0.5448 -0.2722 -0.1154
  441TMC3    O1 6581   4.574   4.446  15.439 -0.2375  0.7325  0.1172
  441TMC3    O2 6582   4.537   0.196  15.428 -0.5276 -0.2310  0.0832
  442MPD2     C 6583   1.862   0.862  16.318  0.1675 -0.7933  0.3243
  442MPD2    C1 6584   1.777   0.765  16.356  0.0473 -0.5594  0.2131
  442MPD2    C2 6585   1.823   0.640  16.334 -0.0620  0.7130 -0.0158
  442MPD2    C3 6586   1.947   0.603  16.290  0.5491  0.1735 -0.1757
  442MPD2    C4 6587   2.027   0.709  16.251  0.8328 -0.3708 -0.0724
  442MPD2    C5 6588   1.985   0.838  16.259 -0.6016 -0.8787 -0.3685
  442MPD2     H 6589   1.753   0.558  16.344 -2.2638  1.8931 -5.4773
  442MPD2    H1 6590   2.130   0.692  16.219  0.2712  1.0722 -2.6635
  442MPD2    H2 6591   1.836   0.967  16.326 -0.8033 -1.0109  0.0725
  442MPD2    H3 6592   2.034   0.929  16.227  0.4291 -0.9166  1.1296
  442MPD2     N 6593   1.995   0.469  16.260 -0.1909 -0.2622 -0.0923
  442MPD2    H5 6594   2.095   0.454  16.247 -0.1229 -0.0117  0.1521
  442MPD2    N1 6595   1.655   0.784  16.413 -0.0650 -0.1270  0.0223
  442MPD2    H7 6596   1.594   0.708  16.439  2.1610 -2.4647 -1.6730
  443TMC3    C1 6597   1.462   0.891  16.467 -0.2020  0.6732 -0.0463
  443TMC3    C2 6598   1.408   0.844  16.353  0.7704  0.0784  0.3004
  443TMC3    C3 6599   1.290   0.781  16.353  0.3846  0.6205 -0.4927
  443TMC3    C4 6600   1.394   0.870  16.588  0.4265  0.5915  0.2607
  443TMC3    C5 6601   1.273   0.811  16.584 -0.4027  0.0933  0.5991
  443TMC3    C6 6602   1.223   0.761  16.470  0.3180  0.0800 -0.6036
  443TMC3     C 6603   1.605   0.896  16.467 -0.6244  0.7016  0.9520
  443TMC3     O 6604   1.664   1.001  16.492  0.6584 -0.5407 -0.0990
  443TMC3     H 6605   1.463   0.870  16.263  0.0494 -0.5757 -0.3184
  443TMC3    H1 6606   1.436   0.895  16.685  1.6165 -1.3247  0.2444
  443TMC3    H2 6607   1.128   0.709  16.470  0.4288 -0.1216 -0.5807
  443TMC3    C7 6608   1.228   0.738  16.702  0.8972  0.6201 -0.5570
  443TMC3    C8 6609   1.257   0.693  16.248 -0.8153  0.7870  0.2562
  443TMC3    O1 6610   1.150   0.645  16.689 -0.2050  0.4389  0.8350
  443TMC3    O2 6611   1.187   0.598  16.272  0.2268  0.1556 -0.4554
  444MPD2     C 6612   2.346   4.331  17.414  0.1326  0.0938  0.1890
  444MPD2    C1 6613   2.263   4.251  17.331  0.3630 -0.4431  0.1316
  444MPD2    C2 6614   2.312   4.158  17.250 -0.8870  0.5602  0.7524
  444MPD2    C3 6615   2.448   4.137  17.252  0.0865  0.1377 -0.2051
  444MPD2    C4 6616   2.537   4.213  17.329  0.1880 -0.0397 -0.5392
  444MPD2    C5 6617   2.483   4.307  17.412  0.4596  0.7798 -0.3634
  444MPD2     H 6618   2.241   4.097  17.196  1.9424 -0.4371 -1.8540
  444MPD2    H1 6619   2.643   4.193  17.336  0.3696  1.4267  1.1120
  444MPD2    H2 6620   2.319   4.408  17.485 -1.1745 -0.4241  0.2653
  444MPD2    H3 6621   2.546   4.354  17.487  0.0156  1.8569 -0.6797
  444MPD2     N 6622   2.491   4.044  17.158  0.1819  0.0142 -0.6045
  444MPD2    H5 6623   2.418   4.010  17.097  1.7325 -4.2437 -0.0824
  444MPD2    N1 6624   2.119   4.263  17.328 -0.2563 -0.0759 -0.6074
  444MPD2    H7 6625   2.069   4.205  17.262  0.8423 -0.9806 -0.6544
  445TMC3    C1 6626   2.645   3.904  17.044 -0.0256 -0.1483  0.0542
  445TMC3    C2 6627   2.567   3.887  16.939 -0.4614 -0.0297  0.3701
  445TMC3    C3 6628   2.627   3.827  16.826  0.7455 -0.3994 -0.9538
  445TMC3    C4 6629   2.778   3.867  17.040  0.1434  0.4011  0.4001
  445TMC3    C5 6630   2.832   3.819  16.926 -0.1022 -0.0894  0.2852
  445TMC3    C6 6631   2.757   3.806  16.809 -0.8498 -0.9084  0.1852
  445TMC3     C 6632   2.624   4.015  17.134  0.0386 -1.2821 -0.6121
  445TMC3     O 6633   2.729   4.061  17.186 -0.0721  0.0957  0.2897
  445TMC3     H 6634   2.465   3.922  16.944 -1.1601 -2.4123  2.6924
  445TMC3    H1 6635   2.844   3.871  17.126  0.7874  0.5081 -0.1027
  445TMC3    H2 6636   2.797   3.743  16.730  0.4467 -0.8590  0.7993
  445TMC3    C7 6637   2.972   3.770  16.923  0.8835 -0.4959 -0.0680
  445TMC3    C8 6638   2.536   3.768  16.730  0.7548  0.6278 -0.3331
  445TMC3    O1 6639   3.020   3.725  17.030  0.5864  0.1373 -0.0295
  445TMC3    O2 6640   2.421   3.761  16.778  0.4879  0.0453  0.6337
  446MPD2     C 6641   2.196   0.321  11.724 -0.9175  0.0421 -0.0073
  446MPD2    C1 6642   2.127   0.356  11.604 -0.3594  0.0162  0.2684
  446MPD2    C2 6643   2.169   0.461  11.532  0.0866  0.2751  0.0489
  446MPD2    C3 6644   2.285   0.528  11.560  0.2374  0.0789  0.1779
  446MPD2    C4 6645   2.346   0.503  11.681 -0.2039  0.0794  0.0369
  446MPD2    C5 6646   2.306   0.391  11.760 -0.0403 -0.3145  0.0565
  446MPD2     H 6647   2.129   0.487  11.435 -0.0222 -1.7808 -0.4540
  446MPD2    H1 6648   2.430   0.552  11.728 -0.3521 -0.6856  1.1111
  446MPD2    H2 6649   2.164   0.240  11.789 -0.7134  0.2126  0.3028
  446MPD2    H3 6650   2.349   0.375  11.858  0.5335  0.7768 -0.0108
  446MPD2     N 6651   2.325   0.639  11.467 -0.4265 -0.3522 -0.7433
  446MPD2    H5 6652   2.275   0.652  11.379  0.7308  1.7625 -1.0839
  446MPD2    N1 6653   2.013   0.283  11.560 -0.4975 -0.4362 -0.2718
  446MPD2    H7 6654   1.957   0.317  11.482 -0.8437  0.7371  0.4899
  447TMC3    C1 6655   2.480   0.804  11.371  0.1698 -0.1774 -0.1342
  447TMC3    C2 6656   2.453   0.771  11.238  0.3426  0.6973 -0.5303
  447TMC3    C3 6657   2.524   0.815  11.137  0.5810 -1.0549 -0.7067
  447TMC3    C4 6658   2.601   0.866  11.393  0.7203 -0.2436 -0.5436
  447TMC3    C5 6659   2.680   0.903  11.285 -0.7888  0.2183  0.4195
  447TMC3    C6 6660   2.640   0.886  11.156 -0.0840 -0.3230  0.3524
  447TMC3     C 6661   2.442   0.710  11.482 -0.3743  0.9501 -0.0637
  447TMC3     O 6662   2.507   0.728  11.587  0.3181 -0.1918 -0.5102
  447TMC3     H 6663   2.356   0.728  11.216  1.2410 -1.3864 -0.4071
  447TMC3    H1 6664   2.632   0.888  11.494 -1.7353 -1.3774  0.4667
  447TMC3    H2 6665   2.698   0.919  11.071 -1.6219 -0.9998 -0.9488
  447TMC3    C7 6666   2.814   0.864  11.296 -0.0656 -0.0208 -0.5349
  447TMC3    C8 6667   2.506   0.745  11.012 -0.0718  0.1599  0.2223
  447TMC3    O1 6668   2.849   0.786  11.208 -0.0691  0.2947 -0.0721
  447TMC3    O2 6669   2.395   0.749  10.962  0.0496  0.6489  0.0806
  448TMC3    C1 6670   0.551   0.997  16.781  0.5414 -0.2974  0.1004
  448TMC3    C2 6671   0.514   0.873  16.744 -0.4094  0.6617 -0.0224
  448TMC3    C3 6672   0.607   0.782  16.774  0.5998 -0.0184  0.5192
  448TMC3    C4 6673   0.670   1.036  16.834 -0.4925  0.1883  0.1511
  448TMC3    C5 6674   0.755   0.936  16.872  0.0310 -0.5800  0.5305
  448TMC3    C6 6675   0.721   0.809  16.837 -0.4427  0.4341 -0.0686
  448TMC3     C 6676   0.457   1.099  16.725  0.3625 -0.2328 -0.6621
  448TMC3     O 6677   0.368   1.063  16.650 -0.4898  0.1959 -0.2632
  448TMC3     H 6678   0.422   0.855  16.688 -1.2433  1.9359  0.9410
  448TMC3    H1 6679   0.701   1.135  16.867  1.2422 -0.3130  0.0202
  448TMC3    H2 6680   0.793   0.728  16.839 -0.9736 -0.0852 -1.7872
  448TMC3    C7 6681   0.854   0.967  16.978  1.0154 -0.0185 -0.1645
  448TMC3    C8 6682   0.591   0.640  16.745  0.7006  0.0816 -0.1714
  448TMC3    O1 6683   0.871   1.084  17.009 -0.0206 -0.6758  1.0955
  448TMC3    O2 6684   0.679   0.554  16.767  0.1275  0.2985  0.1781
  449MPD2     C 6685   2.144   3.818  14.400 -0.5201 -0.0922  0.4490
  449MPD2    C1 6686   2.052   3.799  14.298 -0.7239 -0.1013 -0.1006
  449MPD2    C2 6687   1.953   3.709  14.311 -0.0266  0.0510  0.2517
  449MPD2    C3 6688   1.950   3.619  14.417  0.6915  0.3606  0.3574
  449MPD2    C4 6689   2.046   3.629  14.514  0.1944  0.0992  0.4239
  449MPD2    C5 6690   2.135   3.735  14.509 -0.5231 -0.5596  0.3239
  449MPD2     H 6691   1.873   3.701  14.238  0.5015 -1.5516 -0.1354
  449MPD2    H1 6692   2.050   3.569  14.604 -1.9472 -1.3055 -0.4218
  449MPD2    H2 6693   2.225   3.889  14.394 -0.0131 -0.7735 -0.6212
  449MPD2    H3 6694   2.203   3.740  14.593  1.0173 -1.2696 -0.8722
  449MPD2     N 6695   1.845   3.522  14.418 -0.4435  0.1473 -0.3652
  449MPD2    H5 6696   1.782   3.533  14.339 -1.9722 -0.0709  0.8258
  449MPD2    N1 6697   2.042   3.880  14.184 -0.1455  0.2698 -0.2302
  449MPD2    H7 6698   1.964   3.867  14.121  0.9402  2.2436 -2.0047
  450TMC3    C1 6699   2.108   4.017  14.009  0.2648  0.3798  0.0496
  450TMC3    C2 6700   2.216   3.997  13.929 -0.1894  0.1630 -0.6745
  450TMC3    C3 6701   2.209   3.926  13.817 -0.1612  0.8416 -0.0981
  450TMC3    C4 6702   1.985   3.985  13.963  0.4532 -0.1626  0.0420
  450TMC3    C5 6703   1.975   3.902  13.855  0.2977  0.0700 -0.7004
  450TMC3    C6 6704   2.086   3.866  13.784  0.3866 -0.2218 -0.0659
  450TMC3     C 6705   2.130   3.979  14.148  0.1076  0.2593 -0.0810
  450TMC3     O 6706   2.249   3.988  14.180 -0.0079 -0.1879  0.6503
  450TMC3     H 6707   2.316   4.017  13.966 -0.6908  0.7942  0.3324
  450TMC3    H1 6708   1.900   4.009  14.026  0.2602 -1.8798  0.4517
  450TMC3    H2 6709   2.082   3.795  13.702 -1.8398  0.2430 -0.3612
  450TMC3    C7 6710   1.875   3.800  13.887  0.2469  0.0791  0.5465
  450TMC3    C8 6711   2.316   3.957  13.719 -0.2410  0.2523 -0.2915
  450TMC3    O1 6712   1.855   3.776  14.005 -0.0837 -0.3793 -0.2560
  450TMC3    O2 6713   2.406   4.033  13.749  0.2162  0.2311 -0.4263
  451MPD2     C 6714   2.604   2.583   1.460  0.2278 -0.0960 -0.2162
  451MPD2    C1 6715   2.717   2.653   1.471 -0.6620  0.4408 -1.1349
  451MPD2    C2 6716   2.836   2.593   1.439 -0.3593 -0.1545 -0.9629
  451MPD2    C3 6717   2.847   2.449   1.426  0.4355 -0.2433  1.0219
  451MPD2    C4 6718   2.728   2.380   1.430  0.3103  0.5540 -0.2601
  451MPD2    C5 6719   2.611   2.452   1.446 -0.1526  0.8937  0.2784
  451MPD2     H 6720   2.930   2.644   1.453  0.0724 -1.2835  0.3285
  451MPD2    H1 6721   2.730   2.272   1.424  1.2628  0.5039  1.0284
  451MPD2    H2 6722   2.507   2.633   1.463 -0.0025 -0.6973  2.7527
  451MPD2    H3 6723   2.519   2.395   1.436  1.5321 -1.4121 -2.0916
  451MPD2     N 6724   2.967   2.374   1.403 -0.6978  0.3589 -0.1542
  451MPD2    H5 6725   2.962   2.286   1.353  2.1003  0.3652 -0.4393
  451MPD2    N1 6726   2.711   2.791   1.491 -0.0024 -0.5790 -0.7844
  451MPD2    H7 6727   2.622   2.836   1.509 -0.6953 -1.9850 -0.6837
  452TMC3    C1 6728   3.193   2.329   1.391  0.3806  0.0797 -0.2759
  452TMC3    C2 6729   3.295   2.316   1.475  0.2052 -0.3277  0.3014
  452TMC3    C3 6730   3.409   2.260   1.426  0.7849  0.3765 -0.3582
  452TMC3    C4 6731   3.194   2.309   1.254 -0.0699 -0.4023 -0.7034
  452TMC3    C5 6732   3.310   2.253   1.211 -0.7019 -1.0516 -0.4043
  452TMC3    C6 6733   3.422   2.227   1.292 -0.0218 -1.0476 -0.0385
  452TMC3     C 6734   3.086   2.415   1.447  0.4281 -0.3766  0.2560
  452TMC3     O 6735   3.119   2.502   1.528  0.5226  0.2269  0.4009
  452TMC3     H 6736   3.282   2.342   1.579 -0.2335 -0.8680  0.3845
  452TMC3    H1 6737   3.120   2.336   1.179 -0.2135 -0.5969 -0.6311
  452TMC3    H2 6738   3.517   2.189   1.258  0.3096 -1.5825  1.4817
  452TMC3    C7 6739   3.325   2.265   1.076  0.4986 -0.1443  0.0255
  452TMC3    C8 6740   3.533   2.253   1.512 -0.8124  0.7464  0.4231
  452TMC3    O1 6741   3.231   2.247   1.002  0.4111  0.1236 -0.2589
  452TMC3    O2 6742   3.613   2.161   1.495  0.0190  0.4709  0.5286
  453TMC3    C1 6743   4.703   3.930  11.837  0.0359 -0.0735  0.4679
  453TMC3    C2 6744   4.588   3.914  11.909 -0.0465 -0.2224  0.8741
  453TMC3    C3 6745   4.474   3.895  11.834 -0.4643 -0.0064  0.3820
  453TMC3    C4 6746   4.710   3.919  11.704  0.5538 -0.0389  0.1933
  453TMC3    C5 6747   4.593   3.907  11.633  0.3868 -0.1804  0.1756
  453TMC3    C6 6748   4.472   3.895  11.698  0.2140  0.3077 -0.2905
  453TMC3     C 6749   0.095   3.965  11.915 -0.4987 -0.5383 -0.0264
  453TMC3     O 6750   0.072   4.011  12.028 -0.4093  0.5822  0.1518
  453TMC3     H 6751   4.571   3.918  12.016 -0.5899  2.0355  0.7132
  453TMC3    H1 6752   0.082   3.947  11.662 -0.0516  1.0829 -0.4305
  453TMC3    H2 6753   4.386   3.864  11.639  0.9584 -1.3258 -0.5194
  453TMC3    C7 6754   4.582   3.957  11.490 -0.2575 -0.2667  0.0235
  453TMC3    C8 6755   4.378   3.814  11.898 -0.2998 -0.3187 -0.6983
  453TMC3    O1 6756   4.471   3.981  11.444 -0.2546  0.1580 -0.1243
  453TMC3    O2 6757   4.263   3.848  11.925 -0.8448 -0.1993  0.1371
  454MPD2     C 6758   2.910   4.466  16.719  0.2276 -0.3913 -0.2773
  454MPD2    C1 6759   2.886   4.379  16.612  0.8895 -0.0476 -0.5575
  454MPD2    C2 6760   2.777   4.291  16.626  0.7669  0.2909  0.2212
  454MPD2    C3 6761   2.693   4.296  16.732  0.2444 -0.2737  0.7473
  454MPD2    C4 6762   2.719   4.387  16.837  0.6371 -0.7368  0.5376
  454MPD2    C5 6763   2.833   4.463  16.828 -0.1559  0.4419 -0.0458
  454MPD2     H 6764   2.743   4.239  16.537  0.8857  3.6978 -1.7887
  454MPD2    H1 6765   2.650   4.394  16.921 -0.5676 -2.2273 -0.3148
  454MPD2    H2 6766   2.991   4.538  16.714  0.9328 -1.0135  2.5336
  454MPD2    H3 6767   2.856   4.532  16.909  0.4023 -0.8496  0.8871
  454MPD2     N 6768   2.567   4.231  16.729 -0.1960 -0.8025  0.5980
  454MPD2    H5 6769   2.504   4.287  16.785 -0.6065  1.4539 -2.1285
  454MPD2    N1 6770   2.955   4.376  16.487  0.4208  0.3207 -0.3072
  454MPD2    H7 6771   2.989   4.468  16.461  1.7085  0.4191  1.7730
  455TMC3    C1 6772   2.383   4.144  16.631  0.1698  0.9911  0.1003
  455TMC3    C2 6773   2.315   4.265  16.649  0.4998  0.1651  0.1253
  455TMC3    C3 6774   2.184   4.264  16.614  0.3319 -0.3781 -0.2234
  455TMC3    C4 6775   2.324   4.039  16.565 -0.6204 -0.3272 -0.5448
  455TMC3    C5 6776   2.201   4.053  16.522 -0.0847 -0.3025 -0.2332
  455TMC3    C6 6777   2.120   4.158  16.556  0.3937  0.0503  0.0730
  455TMC3     C 6778   2.529   4.135  16.646  0.0034  0.4395  0.2459
  455TMC3     O 6779   2.595   4.055  16.580  0.3629 -0.4053  0.2071
  455TMC3     H 6780   2.362   4.361  16.666  1.9767 -0.6532  0.6087
  455TMC3    H1 6781   2.381   3.946  16.560 -0.7852 -0.4569 -0.0095
  455TMC3    H2 6782   2.015   4.150  16.527  0.0048  1.0701  1.1843
  455TMC3    C7 6783   2.149   3.938  16.446  0.4811 -0.5474  0.4723
  455TMC3    C8 6784   2.096   4.355  16.682  0.2354  0.3444  0.2020
  455TMC3    O1 6785   2.028   3.919  16.471  0.4360 -0.2118  0.6351
  455TMC3    O2 6786   1.975   4.342  16.667 -0.2736 -0.3876  0.3239
  456MPD2     C 6787   0.652   4.018  16.343 -0.0154 -0.7242  0.1171
  456MPD2    C1 6788   0.767   4.069  16.399 -0.7056  0.4098 -0.3220
  456MPD2    C2 6789   0.762   4.154  16.507  0.1888  0.2730 -0.7512
  456MPD2    C3 6790   0.643   4.204  16.551  0.5126  0.2962  1.3884
  456MPD2    C4 6791   0.523   4.156  16.503  0.1045 -0.3390 -0.2459
  456MPD2    C5 6792   0.534   4.066  16.397 -0.4876  0.4201  0.1038
  456MPD2     H 6793   0.850   4.204  16.545  0.5300  0.2963 -1.5799
  456MPD2    H1 6794   0.431   4.189  16.549  0.9522  1.2677  0.3456
  456MPD2    H2 6795   0.648   3.943  16.265  1.5120 -1.8389  1.1211
  456MPD2    H3 6796   0.442   4.031  16.353 -0.5018  1.2534 -0.5413
  456MPD2     N 6797   0.646   4.308  16.650 -0.1789 -0.4410 -0.4625
  456MPD2    H5 6798   0.732   4.341  16.693  0.1723 -1.7643 -0.1328
  456MPD2    N1 6799   0.887   4.044  16.331 -0.3183  0.1865  0.3032
  456MPD2    H7 6800   0.874   4.011  16.236  1.4046  1.7298 -0.4661
  457TMC3    C1 6801   0.557   4.482  16.773  0.5326  0.4684  0.2100
  457TMC3    C2 6802   0.502   4.608  16.752 -0.8084 -0.1998 -0.2031
  457TMC3    C3 6803   0.532   4.703  16.847  1.0741  0.5976 -1.4204
  457TMC3    C4 6804   0.644   4.448  16.867  0.0491 -0.8000 -0.2427
  457TMC3    C5 6805   0.658   4.540  16.968 -0.1209 -0.8001 -0.2751
  457TMC3    C6 6806   0.597   4.664  16.960  0.2924  0.9550  0.4117
  457TMC3     C 6807   0.542   4.393  16.663  0.0771  0.1328  0.0398
  457TMC3     O 6808   0.439   4.413  16.605 -0.2203 -0.1830  0.5272
  457TMC3     H 6809   0.445   4.626  16.662 -2.9902 -1.9149  0.8408
  457TMC3    H1 6810   0.671   4.345  16.885 -0.8499 -1.1786 -1.0455
  457TMC3    H2 6811   0.615   0.010  17.041  2.2518  0.2325  0.5907
  457TMC3    C7 6812   0.749   4.506  17.075  0.6265  0.4502 -0.3002
  457TMC3    C8 6813   0.513   0.117  16.829 -0.8849 -0.2160  0.1682
  457TMC3    O1 6814   0.762   4.389  17.106 -0.4372 -0.3701 -0.3187
  457TMC3    O2 6815   0.579   0.195  16.897  0.1774  0.3744 -0.2728
  458MPD2     C 6816   3.548   3.278  12.201 -0.1094 -0.2491  0.1436
  458MPD2    C1 6817   3.541   3.289  12.336  0.0776 -0.1101 -0.1985
  458MPD2    C2 6818   3.429   3.236  12.405 -0.0607 -0.5736  0.5582
  458MPD2    C3 6819   3.334   3.158  12.337  0.2918  0.6414 -0.2487
  458MPD2    C4 6820   3.340   3.147  12.201 -0.0102  0.5051  0.4178
  458MPD2    C5 6821   3.451   3.203  12.136  1.1748  1.0449  0.4404
  458MPD2     H 6822   3.420   3.246  12.513 -0.2050 -0.7900  0.5666
  458MPD2    H1 6823   3.279   3.083  12.138  0.9346 -0.3883  0.4152
  458MPD2    H2 6824   3.637   3.319  12.154  0.7947 -2.2724  0.1013
  458MPD2    H3 6825   3.453   3.189  12.029  0.7507  1.6124  0.3616
  458MPD2     N 6826   3.232   3.103  12.416 -0.6997  0.3227  0.1921
  458MPD2    H5 6827   3.238   3.126  12.515  3.1165  3.3482 -0.7630
  458MPD2    N1 6828   3.654   3.360  12.393  0.9273  0.1185 -0.0739
  458MPD2    H7 6829   3.732   3.393  12.338  2.2083 -0.2555  1.5194
  459TMC3    C1 6830   3.802   3.444  12.562 -0.2513 -0.1544  0.1129
  459TMC3    C2 6831   3.890   3.500  12.469  0.6520 -0.1843  0.2171
  459TMC3    C3 6832   4.015   3.540  12.520 -0.1590 -0.2082 -0.2787
  459TMC3    C4 6833   3.848   3.406  12.685 -0.6906 -0.2644 -0.7060
  459TMC3    C5 6834   3.980   3.434  12.723  0.2369 -0.3772  0.4174
  459TMC3    C6 6835   4.063   3.508  12.646  0.6021 -0.5858 -1.0078
  459TMC3     C 6836   3.675   3.373  12.530  0.0239  0.1005 -0.5523
  459TMC3     O 6837   3.602   3.335  12.622  0.2278  0.2331 -0.1103
  459TMC3     H 6838   3.855   3.547  12.378 -1.0297 -0.2378  0.8230
  459TMC3    H1 6839   3.786   3.346  12.751  1.6882  0.3426  2.0961
  459TMC3    H2 6840   4.152   3.554  12.685  0.6070 -1.1147 -0.3976
  459TMC3    C7 6841   4.005   3.434  12.867 -0.6683 -0.1714  0.1763
  459TMC3    C8 6842   4.100   3.621  12.439 -0.8620 -0.6218 -0.4290
  459TMC3    O1 6843   4.078   3.518  12.914  0.2318 -0.1796  0.0943
  459TMC3    O2 6844   4.050   3.716  12.377  0.3055  0.0143 -0.4997
  460MPD2     C 6845   2.774   0.572  10.823  0.4560  0.2268 -0.1288
  460MPD2    C1 6846   2.653   0.636  10.841  0.4490 -1.1414  0.4075
  460MPD2    C2 6847   2.569   0.653  10.738  0.3654  0.1434 -0.4302
  460MPD2    C3 6848   2.588   0.590  10.613  0.2017 -0.4631 -0.4061
  460MPD2    C4 6849   2.701   0.526  10.587  0.2231 -0.2110  0.2940
  460MPD2    C5 6850   2.793   0.521  10.693  0.2814  0.0345 -0.6994
  460MPD2     H 6851   2.485   0.719  10.753  0.9004  0.6151  0.4759
  460MPD2    H1 6852   2.737   0.488  10.492 -3.0374  0.0031 -1.0305
  460MPD2    H2 6853   2.843   0.567  10.906  1.4387 -0.1958 -0.9747
  460MPD2    H3 6854   2.883   0.464  10.672 -1.0783 -1.5164 -2.3267
  460MPD2     N 6855   2.488   0.606  10.516 -0.0850  0.0323 -0.5754
  460MPD2    H5 6856   2.401   0.654  10.536  0.0985  0.4844 -0.8534
  460MPD2    N1 6857   2.623   0.684  10.972 -0.0577 -0.0716  0.5520
  460MPD2    H7 6858   2.697   0.671  11.040 -1.9745  0.1477  2.6608
  461TMC3    C1 6859   2.397   0.627  10.300  0.1938  0.3503  0.3877
  461TMC3    C2 6860   2.370   0.564  10.182  1.0268 -0.1262 -0.0668
  461TMC3    C3 6861   2.276   0.627  10.097 -0.7273 -0.2355 -0.2848
  461TMC3    C4 6862   2.346   0.756  10.331  0.0541 -0.1026 -0.0519
  461TMC3    C5 6863   2.262   0.819  10.237  0.3608  0.1772 -0.5664
  461TMC3    C6 6864   2.215   0.750  10.120  0.5943  0.1948  0.2602
  461TMC3     C 6865   2.505   0.575  10.383 -0.6062 -0.1527  0.1396
  461TMC3     O 6866   2.591   0.514  10.318  0.3245 -0.3982 -0.6274
  461TMC3     H 6867   2.410   0.466  10.158 -0.0556 -0.2810 -1.3076
  461TMC3    H1 6868   2.354   0.803  10.428 -1.0710  3.1698 -1.5555
  461TMC3    H2 6869   2.139   0.794  10.056  1.2917 -0.1727 -0.8261
  461TMC3    C7 6870   2.237   0.963  10.238  0.2032 -0.1857  0.0894
  461TMC3    C8 6871   2.193   0.548  10.004  0.4335  0.0364 -0.7270
  461TMC3    O1 6872   2.168   1.006  10.144  0.0574  0.7778 -0.4141
  461TMC3    O2 6873   2.261   0.470   9.942  0.0036 -0.0507 -0.0293
  462TMC3    C1 6874   2.708   1.692   0.481 -0.5297 -0.1450  0.2884
  462TMC3    C2 6875   2.769   1.589   0.417  0.5424 -0.2622  0.2219
  462TMC3    C3 6876   2.718   1.560   0.293 -0.2640  0.0664 -0.6352
  462TMC3    C4 6877   2.591   1.743   0.438 -0.2654  0.0908  0.3036
  462TMC3    C5 6878   2.546   1.710   0.314  0.3129 -0.0733  0.0852
  462TMC3    C6 6879   2.597   1.606   0.249 -0.7893  0.2719 -0.0722
  462TMC3     C 6880   2.778   1.739   0.604  0.2285 -0.4097 -0.3346
  462TMC3     O 6881   2.849   1.663   0.665  0.4372 -0.1801 -0.4905
  462TMC3     H 6882   2.848   1.523   0.450 -0.0970 -1.4593 -0.6220
  462TMC3    H1 6883   2.539   1.819   0.495  1.2808 -0.5840  2.6208
  462TMC3    H2 6884   2.564   1.581   0.148  1.9130 -1.3628 -0.5432
  462TMC3    C7 6885   2.410   1.740   0.285 -0.4508 -0.3296 -0.2724
  462TMC3    C8 6886   2.761   1.441   0.226  0.3805  0.8621  0.0665
  462TMC3    O1 6887   2.349   1.663   0.205  0.3787  0.9302  0.0552
  462TMC3    O2 6888   2.810   1.355   0.295  0.0762 -0.3578 -0.0539
  463MPD2     C 6889   3.802   0.791   1.875  0.7767  0.3341 -0.8467
  463MPD2    C1 6890   3.680   0.852   1.850  0.4063  0.8895  0.1197
  463MPD2    C2 6891   3.669   0.992   1.845  0.1729 -0.4261  0.3901
  463MPD2    C3 6892   3.789   1.062   1.845 -0.5790 -0.7726  0.1380
  463MPD2    C4 6893   3.910   0.997   1.872  0.1608  0.3818  1.1970
  463MPD2    C5 6894   3.913   0.866   1.887 -0.1262  0.2978  0.0350
  463MPD2     H 6895   3.574   1.044   1.837  0.2489 -0.5275 -1.2123
  463MPD2    H1 6896   4.007   1.046   1.869  0.8321 -0.9921  0.5877
  463MPD2    H2 6897   3.821   0.684   1.876  1.8222  0.5549  1.0750
  463MPD2    H3 6898   4.011   0.822   1.903  0.5808  1.6959 -0.4383
  463MPD2     N 6899   3.800   1.196   1.803  0.0106 -0.0519 -0.0230
  463MPD2    H5 6900   3.888   1.246   1.805 -0.6486  1.2428 -2.8578
  463MPD2    N1 6901   3.560   0.784   1.841 -0.5148 -0.3593 -0.2438
  463MPD2    H7 6902   3.473   0.835   1.829 -0.5951 -0.7458 -1.2888
  464TMC3    C1 6903   3.413   0.595   1.809 -0.3997 -0.0911  0.4325
  464TMC3    C2 6904   3.308   0.676   1.771  0.0597 -0.5718 -0.5685
  464TMC3    C3 6905   3.183   0.622   1.778 -0.0177 -0.3007 -0.2374
  464TMC3    C4 6906   3.393   0.454   1.823  0.5609  0.2404 -0.9292
  464TMC3    C5 6907   3.269   0.407   1.805  0.4626  0.1851 -0.9448
  464TMC3    C6 6908   3.163   0.490   1.787 -0.1330  0.3879 -0.2257
  464TMC3     C 6909   3.546   0.646   1.841 -0.1736 -0.0785  0.3539
  464TMC3     O 6910   3.634   0.560   1.850 -0.7455  0.4401  0.9033
  464TMC3     H 6911   3.317   0.784   1.770 -0.1064 -0.5734 -1.7922
  464TMC3    H1 6912   3.470   0.392   1.867  0.6122 -0.0859 -1.4888
  464TMC3    H2 6913   3.061   0.455   1.775 -0.1030 -0.0267  0.7045
  464TMC3    C7 6914   3.251   0.261   1.821  0.3587  0.7947  0.1797
  464TMC3    C8 6915   3.072   0.718   1.742 -0.3457 -0.5800  0.7145
  464TMC3    O1 6916   3.337   0.208   1.890 -0.5475 -0.1306  0.2641
  464TMC3    O2 6917   3.112   0.826   1.699 -0.3724 -0.3002 -0.3002
  465MPD2     C 6918   4.477   4.325  16.065  0.1200  0.0239 -0.3768
  465MPD2    C1 6919   4.391   4.341  16.178 -0.6160 -0.1374  0.6011
  465MPD2    C2 6920   4.259   4.376  16.153 -0.3617 -0.4273  0.2873
  465MPD2    C3 6921   4.223   4.427  16.033  0.0421 -0.3954 -0.1762
  465MPD2    C4 6922   4.302   4.403  15.924  0.2334 -0.1104  0.1874
  465MPD2    C5 6923   4.430   4.350  15.932  0.0110  0.0844  0.1081
  465MPD2     H 6924   4.198   4.396  16.240  0.1251  1.0492  0.2931
  465MPD2    H1 6925   4.273   4.444  15.828  0.9286  0.1220  0.0797
  465MPD2    H2 6926   4.577   4.285  16.076  0.0944  0.0295 -0.1204
  465MPD2    H3 6927   4.494   4.353  15.845  0.4589  1.2516  0.4678
  465MPD2     N 6928   4.095   4.486  16.034  0.3756 -0.5773  0.5151
  465MPD2    H5 6929   4.054   4.493  16.127 -0.8962  0.6955 -0.1361
  465MPD2    N1 6930   4.427   4.301  16.313  0.2922  0.3426  0.1212
  465MPD2    H7 6931   4.348   4.302  16.377 -1.1819  3.2302 -1.7294
  466TMC3    C1 6932   3.696   4.592  16.104  0.4357  0.0396 -1.2981
  466TMC3    C2 6933   3.706   0.005  16.111 -0.2740  0.5289  0.2265
  466TMC3    C3 6934   3.796   0.067  16.023 -0.2064  0.1883 -0.0197
  466TMC3    C4 6935   3.802   4.524  16.050 -0.2552 -0.3824  0.2271
  466TMC3    C5 6936   3.892   4.591  15.972 -0.2062  0.0513 -0.6575
  466TMC3    C6 6937   3.886   4.723  15.947  0.3816  0.0554 -0.1731
  466TMC3     C 6938   3.646   4.540  16.227 -1.0403 -0.2784  0.4395
  466TMC3     O 6939   3.599   4.609  16.315 -0.6554  0.3520 -0.5061
  466TMC3     H 6940   3.628   0.062  16.159 -0.8410 -0.8053  0.8813
  466TMC3    H1 6941   3.833   4.422  16.074 -1.5736 -0.9513 -0.4961
  466TMC3    H2 6942   3.964   0.053  15.893 -0.5490  1.0724 -0.4957
  466TMC3    C7 6943   4.024   4.539  15.930  0.1403  0.4479  0.0625
  466TMC3    C8 6944   3.801   0.209  16.006 -0.3207 -0.2585 -0.3121
  466TMC3    O1 6945   4.063   4.557  15.819  0.2885  0.2052  0.0628
  466TMC3    O2 6946   3.870   0.250  15.917 -0.3697  0.0508 -0.4371
  467TMC3    C1 6947   0.524   2.524  13.662 -0.2911 -0.3982 -0.1960
  467TMC3    C2 6948   0.536   2.588  13.541 -0.5673  0.1542 -0.6424
  467TMC3    C3 6949   0.459   2.703  13.516 -1.3131  0.4459  0.7837
  467TMC3    C4 6950   0.431   2.564  13.751 -0.6436 -0.4573 -0.2105
  467TMC3    C5 6951   0.353   2.670  13.721  0.7317 -0.0349 -0.1661
  467TMC3    C6 6952   0.369   2.747  13.610  0.1213  0.2233  0.6979
  467TMC3     C 6953   0.653   2.463  13.709 -0.0164 -0.3854  0.5932
  467TMC3     O 6954   0.735   2.436  13.618  0.4644  0.0902 -0.2585
  467TMC3     H 6955   0.607   2.542  13.474 -0.8663  0.3593 -1.0957
  467TMC3    H1 6956   0.424   2.512  13.846  1.9983 -0.6236 -0.1029
  467TMC3    H2 6957   0.312   2.839  13.599  0.3922  0.3078 -0.0298
  467TMC3    C7 6958   0.234   2.679  13.809  0.4695  0.5605 -0.2137
  467TMC3    C8 6959   0.525   2.802  13.436  0.6325  0.6073  0.3148
  467TMC3    O1 6960   0.206   2.579  13.878 -0.0239  0.1300 -0.1722
  467TMC3    O2 6961   0.501   2.917  13.449  0.6186  0.1267  0.3059
  468MPD2     C 6962   4.149   0.221  11.136  0.4448  0.2196 -0.1323
  468MPD2    C1 6963   4.276   0.169  11.110  0.2340 -0.0197  0.4543
  468MPD2    C2 6964   4.332   0.078  11.201  0.0468 -0.5972  0.1391
  468MPD2    C3 6965   4.270   0.046  11.315 -0.0515  0.4909  0.2626
  468MPD2    C4 6966   4.147   0.105  11.344 -0.0585 -0.1364  0.2608
  468MPD2    C5 6967   4.091   0.181  11.254 -0.0430 -0.3843  0.7163
  468MPD2     H 6968   4.428   0.037  11.170  0.6651  0.2723  0.8887
  468MPD2    H1 6969   4.096   0.089  11.439  0.6981  0.1068  0.7099
  468MPD2    H2 6970   4.097   0.285  11.067 -2.2570 -0.3878  1.3327
  468MPD2    H3 6971   3.986   0.209  11.265  0.0575  0.9810 -1.5799
  468MPD2     N 6972   4.331   4.675  11.402 -0.5764 -0.0136 -0.0350
  468MPD2    H5 6973   4.293   4.669  11.496 -0.4225 -1.4046 -0.0589
  468MPD2    N1 6974   4.345   0.203  10.993 -0.1207 -0.5570  0.3780
  468MPD2    H7 6975   4.445   0.185  10.990 -0.0027  0.1832 -0.0782
  469TMC3    C1 6976   4.390   0.299  10.783 -0.1461 -0.7340  0.7087
  469TMC3    C2 6977   4.517   0.338  10.832 -0.2408  0.0726  0.1470
  469TMC3    C3 6978   4.625   0.338  10.753  0.2001  0.2482 -0.0230
  469TMC3    C4 6979   4.383   0.279  10.650 -0.4652 -0.6314  0.1986
  469TMC3    C5 6980   4.490   0.268  10.571 -0.0066 -0.2273  0.0143
  469TMC3    C6 6981   4.620   0.301  10.623 -0.0257  0.1651  0.3881
  469TMC3     C 6982   4.282   0.249  10.879 -0.4085 -0.6932 -0.0916
  469TMC3     O 6983   4.162   0.246  10.848 -0.0075 -0.0823  0.0178
  469TMC3     H 6984   4.520   0.370  10.936 -0.2126  1.5775 -0.3169
  469TMC3    H1 6985   4.284   0.251  10.616 -1.0015  1.9267 -0.3493
  469TMC3    H2 6986   4.705   0.310  10.556  0.2492 -0.0302  0.7120
  469TMC3    C7 6987   4.480   0.195  10.446 -0.1747 -0.1070  0.9253
  469TMC3    C8 6988   0.026   0.397  10.798 -0.3697  0.2097  0.1190
  469TMC3    O1 6989   4.580   0.131  10.421 -0.3051 -0.1109 -0.2394
  469TMC3    O2 6990   0.133   0.352  10.751  0.1076  0.4547 -0.1334
  470TMC3    C1 6991   1.658   2.088   0.736  0.0999  0.5704  0.1557
  470TMC3    C2 6992   1.721   2.195   0.794 -0.2249  0.1316  0.7821
  470TMC3    C3 6993   1.649   2.265   0.888  0.4691  0.0140  0.0905
  470TMC3    C4 6994   1.525   2.066   0.762 -0.4665 -0.1948  0.2153
  470TMC3    C5 6995   1.462   2.124   0.868  0.7771 -0.0304 -0.0623
  470TMC3    C6 6996   1.518   2.237   0.924  0.0850  0.5091 -0.2261
  470TMC3     C 6997   1.724   1.971   0.685  0.4068 -0.4002  0.3568
  470TMC3     O 6998   1.657   1.871   0.685  0.7752 -0.3499  0.0256
  470TMC3     H 6999   1.829   2.206   0.791 -0.1135 -1.1403  0.2997
  470TMC3    H1 7000   1.469   1.979   0.732 -0.5951 -0.4142  1.0728
  470TMC3    H2 7001   1.460   2.296   0.993  0.5800  2.3624 -1.3934
  470TMC3    C7 7002   1.330   2.092   0.905 -0.1885  0.5577 -0.0316
  470TMC3    C8 7003   1.714   2.358   0.981  0.1152 -0.2158  0.9339
  470TMC3    O1 7004   1.260   2.034   0.824 -0.2429 -0.2096  0.2972
  470TMC3    O2 7005   1.652   2.384   1.086  0.4450 -0.2826  0.4456
  471MPD2     C 7006   2.472   3.742  17.280 -0.8501  0.0644  0.4497
  471MPD2    C1 7007   2.495   3.650  17.183 -0.3142  0.3072 -0.1681
  471MPD2    C2 7008   2.610   3.574  17.185 -0.1437 -0.7419 -0.3472
  471MPD2    C3 7009   2.706   3.601  17.280  0.3261 -0.0692  0.6555
  471MPD2    C4 7010   2.689   3.703  17.372 -0.1017 -0.8732  0.4204
  471MPD2    C5 7011   2.569   3.763  17.374  0.2150  0.0475 -0.4590
  471MPD2     H 7012   2.617   3.498  17.108  3.4023  0.1634 -0.9111
  471MPD2    H1 7013   2.755   3.719  17.456  1.9734 -2.1754 -0.9508
  471MPD2    H2 7014   2.377   3.793  17.289 -1.5900 -1.1721 -0.3832
  471MPD2    H3 7015   2.563   3.844  17.445 -0.2671 -0.0997 -0.3308
  471MPD2     N 7016   2.805   3.497  17.311  0.6061  0.2372 -0.2494
  471MPD2    H5 7017   2.862   3.497  17.394  0.0375  1.9757  0.1486
  471MPD2    N1 7018   2.389   3.613  17.094 -0.1579  0.9580  0.3831
  471MPD2    H7 7019   2.417   3.529  17.044 -0.7156  0.0619  1.5774
  472TMC3    C1 7020   2.195   3.599  16.979  0.0698 -0.2164 -0.3826
  472TMC3    C2 7021   2.061   3.602  17.001 -0.3881 -0.0648  0.0331
  472TMC3    C3 7022   1.979   3.531  16.915  0.2933  0.0590 -0.0691
  472TMC3    C4 7023   2.246   3.512  16.891 -0.3327  0.6987 -0.4314
  472TMC3    C5 7024   2.157   3.432  16.816 -0.0507  0.0069  0.4888
  472TMC3    C6 7025   2.021   3.447  16.825  0.1139  0.5341 -0.2202
  472TMC3     C 7026   2.270   3.677  17.068 -0.5869 -0.0884 -0.6169
  472TMC3     O 7027   2.216   3.782  17.105 -0.0924 -0.2429  0.0413
  472TMC3     H 7028   2.018   3.655  17.085 -0.2184  2.0056 -1.1923
  472TMC3    H1 7029   2.352   3.508  16.871 -0.2719 -0.9329  0.2256
  472TMC3    H2 7030   1.962   3.370  16.776  0.2424  0.2839  0.0197
  472TMC3    C7 7031   2.189   3.294  16.824 -0.7514  0.0508  0.1152
  472TMC3    C8 7032   1.840   3.514  16.947  0.4936  0.7440  0.1722
  472TMC3    O1 7033   2.148   3.223  16.916  0.1110 -0.4399  0.0564
  472TMC3    O2 7034   1.813   3.529  17.069 -0.4945 -0.1835  0.5506
  473MPD2     C 7035   2.178   0.398  14.277 -0.4260  0.3308  0.4761
  473MPD2    C1 7036   2.284   0.472  14.215 -0.4778 -0.0437  0.1054
  473MPD2    C2 7037   2.344   0.571  14.289  1.0431 -0.3053  0.2612
  473MPD2    C3 7038   2.291   0.606  14.404  0.1481  0.1401 -0.2631
  473MPD2    C4 7039   2.192   0.532  14.462  0.1557  0.4328  0.8846
  473MPD2    C5 7040   2.132   0.426  14.404  0.6484  0.0159 -0.2087
  473MPD2     H 7041   2.409   0.639  14.235  0.3213  0.3769  0.2492
  473MPD2    H1 7042   2.152   0.565  14.557 -0.3493 -0.2719  0.9144
  473MPD2    H2 7043   2.124   0.326  14.217  1.5945 -0.6316 -0.2100
  473MPD2    H3 7044   2.052   0.371  14.453  0.4457  0.2358 -0.2943
  473MPD2     N 7045   2.338   0.722  14.473 -0.7799  0.2257 -0.1582
  473MPD2    H5 7046   2.285   0.757  14.552 -1.6403 -0.8120 -0.2770
  473MPD2    N1 7047   2.318   0.449  14.080  0.0155  0.4058  0.0405
  473MPD2    H7 7048   2.387   0.509  14.036 -0.9244  2.0874  0.8452
  474TMC3    C1 7049   2.469   0.912  14.518 -0.3164 -0.2658 -0.1462
  474TMC3    C2 7050   2.358   0.966  14.585  0.3927  0.2434 -0.3365
  474TMC3    C3 7051   2.380   1.080  14.655 -0.5965 -0.3753  0.5503
  474TMC3    C4 7052   2.602   0.959  14.537  0.5011  0.0224 -0.3726
  474TMC3    C5 7053   2.609   1.072  14.619 -0.1668 -0.4560  0.0297
  474TMC3    C6 7054   2.505   1.134  14.674  0.8940 -0.3602 -0.2746
  474TMC3     C 7055   2.458   0.788  14.443 -0.4772 -0.0384 -0.5747
  474TMC3     O 7056   2.555   0.763  14.376 -0.4011 -0.0931 -0.3364
  474TMC3     H 7057   2.253   0.947  14.566  0.3353  1.0079 -0.7735
  474TMC3    H1 7058   2.689   0.912  14.493  1.4017  2.1825 -0.8972
  474TMC3    H2 7059   2.501   1.223  14.736 -0.7194 -1.6515  1.4764
  474TMC3    C7 7060   2.743   1.118  14.660  0.0252 -0.6739  0.1651
  474TMC3    C8 7061   2.264   1.169  14.687 -0.0795 -0.3473 -0.8439
  474TMC3    O1 7062   2.840   1.079  14.598  0.2661 -0.3013 -0.5218
  474TMC3    O2 7063   2.164   1.121  14.745 -0.0894 -0.6226 -0.1867
  475MPD2     C 7064   0.609   2.722  10.750 -0.0047 -0.0983  0.1435
  475MPD2    C1 7065   0.526   2.819  10.794  0.1203  0.3995 -0.4123
  475MPD2    C2 7066   0.391   2.811  10.765  0.4610 -0.2857  0.3939
  475MPD2    C3 7067   0.336   2.698  10.702 -0.8049 -0.2509  0.4748
  475MPD2    C4 7068   0.422   2.595  10.676  0.3889 -0.0704 -0.1193
  475MPD2    C5 7069   0.562   2.601  10.693  1.0045  0.5046  0.1741
  475MPD2     H 7070   0.323   2.890  10.798 -0.7847 -0.9489 -0.5982
  475MPD2    H1 7071   0.383   2.500  10.641  0.7680  0.0194 -0.7929
  475MPD2    H2 7072   0.714   2.740  10.772  0.6297 -1.1831 -2.0604
  475MPD2    H3 7073   0.625   2.519  10.660  1.0151 -0.2269  2.0064
  475MPD2     N 7074   0.200   2.698  10.676 -0.2246 -0.4293  0.1030
  475MPD2    H5 7075   0.151   2.785  10.688 -1.2072 -0.9240 -0.2995
  475MPD2    N1 7076   0.586   2.934  10.851  0.7486  0.2581 -0.0440
  475MPD2    H7 7077   0.674   2.966  10.813  0.1358 -0.4582 -2.0322
  476TMC3    C1 7078   0.579   3.157  10.934  0.7967 -0.5267 -0.7403
  476TMC3    C2 7079   0.627   3.212  10.818  0.2320  0.0792  0.6982
  476TMC3    C3 7080   0.619   3.343  10.811 -0.0426  0.6186 -0.5768
  476TMC3    C4 7081   0.522   3.228  11.034  0.3738  0.2137  0.7014
  476TMC3    C5 7082   0.519   3.363  11.025 -0.1026 -0.1955 -0.0704
  476TMC3    C6 7083   0.567   3.422  10.915 -0.3084  0.3733 -0.4887
  476TMC3     C 7084   0.511   3.029  10.920  0.1897  0.2632  0.1544
  476TMC3     O 7085   0.402   3.024  10.978 -0.0480 -0.4766 -0.1334
  476TMC3     H 7086   0.651   3.152  10.731 -0.8276  2.8292 -1.5051
  476TMC3    H1 7087   0.484   3.182  11.125  0.6308  2.1178  1.7705
  476TMC3    H2 7088   0.545   3.526  10.899 -1.1699  0.2765  0.0509
  476TMC3    C7 7089   0.499   3.439  11.144  0.2933 -0.0490 -0.4101
  476TMC3    C8 7090   0.669   3.411  10.692 -0.0305  0.1734  0.2165
  476TMC3    O1 7091   0.430   3.399  11.237 -0.3090 -0.2841  0.0009
  476TMC3    O2 7092   0.703   3.524  10.708 -0.2429 -0.0780  0.5359
  477MPD2     C 7093   3.376   0.069  12.035  0.6346  0.2342  0.5690
  477MPD2    C1 7094   3.291   0.147  12.098  0.0447  0.2535  0.3473
  477MPD2    C2 7095   3.241   0.105  12.223  0.3635  0.1475  0.3772
  477MPD2    C3 7096   3.290   0.003  12.287 -0.0526 -0.5958  0.4936
  477MPD2    C4 7097   3.387   4.653  12.227  0.0645 -0.5766 -0.0927
  477MPD2    C5 7098   3.427   4.686  12.098 -0.4657 -0.5080 -0.6330
  477MPD2     H 7099   3.181   0.166  12.290  0.6761 -1.4012  2.0725
  477MPD2    H1 7100   3.423   4.557  12.262 -2.1221 -1.4105 -0.1150
  477MPD2    H2 7101   3.426   0.091  11.941 -1.0526  2.2617  0.1535
  477MPD2    H3 7102   3.495   4.620  12.045  1.1510  0.8005 -0.1921
  477MPD2     N 7103   3.234   4.694  12.414 -0.1729 -0.3003  0.5415
  477MPD2    H5 7104   3.159   0.023  12.455  0.5680  0.8493  0.3772
  477MPD2    N1 7105   3.240   0.260  12.030  0.3189 -0.6208  0.3334
  477MPD2    H7 7106   3.282   0.273  11.939  0.9806 -0.8948  0.5970
  478TMC3    C1 7107   3.104   0.448  11.978  0.4568  0.4008 -0.9247
  478TMC3    C2 7108   3.038   0.565  12.017  0.5119  1.2483  0.9829
  478TMC3    C3 7109   2.989   0.648  11.923  0.0628  0.6282 -0.5421
  478TMC3    C4 7110   3.113   0.417  11.849 -0.5615  0.5572  0.0503
  478TMC3    C5 7111   3.060   0.504  11.758 -0.4457 -0.6630  0.2951
  478TMC3    C6 7112   3.004   0.625  11.788  0.0506 -0.2209 -0.5204
  478TMC3     C 7113   3.142   0.351  12.082  0.3982  0.5076 -0.9449
  478TMC3     O 7114   3.076   0.355  12.182 -0.2316  0.0856  0.0415
  478TMC3     H 7115   3.014   0.584  12.121 -4.0491 -0.4184  0.2067
  478TMC3    H1 7116   3.144   0.320  11.812  0.1662  0.0943  1.8913
  478TMC3    H2 7117   2.972   0.695  11.711 -1.3484  0.0358  0.2923
  478TMC3    C7 7118   3.070   0.461  11.619  0.3606  1.4514 -0.1431
  478TMC3    C8 7119   2.967   0.785  11.969  0.5081  0.8239 -0.1741
  478TMC3    O1 7120   3.163   0.390  11.590 -0.3115 -0.5268 -0.3172
  478TMC3    O2 7121   3.022   0.812  12.082  0.7606 -0.2100 -0.3146
  479MPD2     C 7122   1.170   2.372  15.175 -0.1838  0.1648 -0.2334
  479MPD2    C1 7123   1.162   2.257  15.246  0.6702  0.0313 -0.3106
  479MPD2    C2 7124   1.219   2.246  15.376 -0.1536 -0.0770  0.4102
  479MPD2    C3 7125   1.298   2.349  15.429  0.3569  0.1168 -0.5269
  479MPD2    C4 7126   1.313   2.463  15.351 -0.4703 -0.5588  0.2354
  479MPD2    C5 7127   1.254   2.469  15.225 -0.0175  0.2353 -0.4845
  479MPD2     H 7128   1.196   2.160  15.437 -2.3419 -1.3766 -2.2304
  479MPD2    H1 7129   1.367   2.550  15.385 -1.3663  0.1999 -0.2871
  479MPD2    H2 7130   1.114   2.382  15.083  0.5199  2.5429 -0.3807
  479MPD2    H3 7131   1.269   2.557  15.163  0.3742 -0.1875 -0.9815
  479MPD2     N 7132   1.361   2.346  15.559  0.1980  0.3172  0.0649
  479MPD2    H5 7133   1.418   2.427  15.583  0.3500  0.7825 -1.8503
  479MPD2    N1 7134   1.091   2.146  15.182  0.6175  0.1612 -1.1407
  479MPD2    H7 7135   1.033   2.166  15.101 -1.3193  1.8069  0.6619
  480TMC3    C1 7136   1.463   2.183  15.995  0.1975 -0.1896 -0.1920
  480TMC3    C2 7137   1.563   2.279  16.010 -0.2677  0.7827  0.6224
  480TMC3    C3 7138   1.583   2.370  15.909  0.2909  0.2435 -0.4668
  480TMC3    C4 7139   1.391   2.178  15.881  0.4622 -0.4602 -0.1461
  480TMC3    C5 7140   1.415   2.271  15.776 -0.0987 -0.6876  0.2819
  480TMC3    C6 7141   1.505   2.377  15.789 -0.3029 -0.0002 -0.1575
  480TMC3     C 7142   1.441   2.069  16.084  0.2031 -0.4446 -0.1394
  480TMC3     O 7143   1.364   1.980  16.041  0.4870  0.1387 -0.6134
  480TMC3     H 7144   1.629   2.282  16.096  0.6144 -1.0509  0.0095
  480TMC3    H1 7145   1.316   2.100  15.869  1.4504 -1.2734 -1.0614
  480TMC3    H2 7146   1.544   2.439  15.709 -1.7320 -0.0584 -0.8936
  480TMC3    C7 7147   1.350   2.245  15.648  0.1215  0.8118  0.0166
  480TMC3    C8 7148   1.693   2.467  15.931  0.1213 -0.2422 -0.2145
  480TMC3    O1 7149   1.287   2.142  15.648 -0.5572 -0.3992 -0.5750
  480TMC3    O2 7150   1.764   2.452  16.028 -0.0399 -0.5881 -0.3860
  481MPD2     C 7151   3.556   1.794  14.333  0.3519 -0.0736 -0.5906
  481MPD2    C1 7152   3.439   1.848  14.375 -0.2168 -0.3715  0.6035
  481MPD2    C2 7153   3.401   1.861  14.512  0.2876  0.0714 -0.1610
  481MPD2    C3 7154   3.489   1.826  14.607 -0.2026  0.0986 -0.3699
  481MPD2    C4 7155   3.602   1.764  14.565  0.0046  1.0652  0.1131
  481MPD2    C5 7156   3.635   1.739  14.435  0.0668 -0.1844  0.0857
  481MPD2     H 7157   3.312   1.919  14.528  0.3023 -0.2632  1.0763
  481MPD2    H1 7158   3.674   1.735  14.641 -0.1456 -1.6493 -0.7915
  481MPD2    H2 7159   3.586   1.781  14.230  1.9731  0.7566 -0.2136
  481MPD2    H3 7160   3.730   1.693  14.408  0.4115  0.7242 -0.2476
  481MPD2     N 7161   3.477   1.860  14.745 -0.7752  0.2762 -0.7110
  481MPD2    H5 7162   3.530   1.807  14.813  0.3200  1.1416 -0.9085
  481MPD2    N1 7163   3.360   1.902  14.277  0.1206 -0.3515  0.1523
  481MPD2    H7 7164   3.405   1.923  14.188  2.0678  1.3224  1.5390
  482TMC3    C1 7165   3.171   1.984  14.164 -0.4059 -0.7539 -0.5654
  482TMC3    C2 7166   3.029   1.985  14.149  0.6269  0.1161 -0.1524
  482TMC3    C3 7167   2.982   2.047  14.039  0.0601  0.0006  0.0835
  482TMC3    C4 7168   3.253   2.066  14.089 -0.9392  0.1470  0.1070
  482TMC3    C5 7169   3.191   2.134  13.987 -0.0547 -0.7031 -0.7056
  482TMC3    C6 7170   3.057   2.132  13.965  0.5445  0.1080  0.2724
  482TMC3     C 7171   3.223   1.910  14.281 -0.4424  0.0513 -0.3704
  482TMC3     O 7172   3.136   1.864  14.353  0.6664  0.3670 -0.1149
  482TMC3     H 7173   2.967   1.909  14.195 -0.0317 -0.1731 -1.5281
  482TMC3    H1 7174   3.361   2.071  14.098 -0.6642 -1.6232 -2.0320
  482TMC3    H2 7175   3.019   2.190  13.882  1.9456  2.0049  0.9610
  482TMC3    C7 7176   3.258   2.146  13.858  0.2478 -0.2495 -0.1298
  482TMC3    C8 7177   2.888   1.969  13.972  0.9053 -0.2340 -0.3821
  482TMC3    O1 7178   3.196   2.094  13.764  0.0694  0.0082  0.6285
  482TMC3    O2 7179   2.864   1.856  14.018  0.2282  0.0243 -0.7690
  483TMC3    C1 7180   1.047   0.994   0.693 -0.6060 -0.9750  0.2974
  483TMC3    C2 7181   1.037   1.127   0.672 -0.2331  0.8376  0.7162
  483TMC3    C3 7182   1.046   1.209   0.783  0.0414 -0.0991 -0.5428
  483TMC3    C4 7183   1.071   0.940   0.819 -0.4004  0.0032  0.7014
  483TMC3    C5 7184   1.074   1.032   0.929 -0.1159  0.0487 -0.3564
  483TMC3    C6 7185   1.064   1.167   0.917 -0.3388  0.1400 -0.8148
  483TMC3     C 7186   1.062   0.916   0.570  0.1892 -0.0298 -1.0117
  483TMC3     O 7187   1.059   0.970   0.463 -0.0111 -0.6527 -0.0969
  483TMC3     H 7188   1.035   1.169   0.572 -1.4015  2.6416  1.4726
  483TMC3    H1 7189   1.052   0.835   0.835 -3.7016  0.3647 -0.7851
  483TMC3    H2 7190   1.093   1.231   0.999 -0.9949 -0.9028  0.2416
  483TMC3    C7 7191   1.085   0.965   1.049 -0.2596  0.3265  0.0151
  483TMC3    C8 7192   1.103   1.341   0.747  0.3411  0.0503 -0.2429
  483TMC3    O1 7193   1.118   0.846   1.048  0.5709  0.2807  0.3320
  483TMC3    O2 7194   1.092   1.376   0.631  0.0923 -0.2015 -0.2174
  484MPD2     C 7195   4.336   3.775  12.377  0.3178  0.7959  0.8731
  484MPD2    C1 7196   4.336   3.641  12.396 -0.7133  0.4717  0.3215
  484MPD2    C2 7197   4.445   3.565  12.363  0.3550  0.2471 -0.7047
  484MPD2    C3 7198   4.555   3.627  12.299  0.0755  0.4242 -0.2708
  484MPD2    C4 7199   4.548   3.761  12.270  0.0793 -0.3594  0.7617
  484MPD2    C5 7200   4.445   3.833  12.315 -0.1492  0.4578  0.1688
  484MPD2     H 7201   4.440   3.456  12.370  1.6124  0.1087 -1.8767
  484MPD2    H1 7202   4.625   3.812  12.214 -1.1510  0.3102 -0.3275
  484MPD2    H2 7203   4.258   3.841  12.415  1.8200  2.7342  0.5869
  484MPD2    H3 7204   4.451   3.941  12.308  1.5437  0.2802 -1.0017
  484MPD2     N 7205   4.670   3.552  12.261 -0.2363 -0.1308  0.1341
  484MPD2    H5 7206   0.012   3.601  12.202 -0.0470 -0.0644  0.4043
  484MPD2    N1 7207   4.226   3.568  12.444  0.4420  0.6577  0.2189
  484MPD2    H7 7208   4.242   3.471  12.469 -1.5139  0.1437 -0.5387
  485TMC3    C1 7209   0.096   3.373  12.279  0.4444  0.4030  0.2688
  485TMC3    C2 7210   0.148   3.281  12.362  0.2084 -0.2180 -0.1157
  485TMC3    C3 7211   0.271   3.233  12.326  0.7648  0.1617  0.0488
  485TMC3    C4 7212   0.148   3.407  12.153  0.9667 -0.4744  0.7589
  485TMC3    C5 7213   0.274   3.367  12.122 -0.0643 -0.1582  0.3349
  485TMC3    C6 7214   0.329   3.275  12.209  0.1938 -0.1981 -0.5654
  485TMC3     C 7215   4.695   3.428  12.312 -0.2496 -0.0660 -1.4947
  485TMC3     O 7216   4.632   3.359  12.391 -0.0894 -0.0813  0.3976
  485TMC3     H 7217   0.092   3.236  12.443  1.7930 -1.8195  0.0866
  485TMC3    H1 7218   0.095   3.477  12.089  1.3893 -1.8710 -1.1346
  485TMC3    H2 7219   0.431   3.244  12.192  1.1496  3.0750 -0.6643
  485TMC3    C7 7220   0.296   3.318  11.983  0.4771  0.8306 -0.0805
  485TMC3    C8 7221   0.276   3.092  12.322 -0.7435 -0.0589  0.3858
  485TMC3    O1 7222   0.269   3.390  11.887  0.1296  0.8510 -0.1247
  485TMC3    O2 7223   0.342   3.048  12.228 -0.2280  0.0915 -0.0973
  486MPD2     C 7224   1.751   2.195  13.130 -0.0141  0.2184  0.3778
  486MPD2    C1 7225   1.709   2.188  13.000  0.1855 -0.2363  0.3251
  486MPD2    C2 7226   1.656   2.304  12.940  0.8668 -0.1267  0.2179
  486MPD2    C3 7227   1.630   2.421  13.016  0.1253  0.6606 -0.2278
  486MPD2    C4 7228   1.668   2.423  13.147 -0.4110  0.1624 -0.7357
  486MPD2    C5 7229   1.730   2.308  13.204 -0.0003  0.2232  0.1199
  486MPD2     H 7230   1.616   2.292  12.840  1.3527  0.0994 -0.0013
  486MPD2    H1 7231   1.647   2.509  13.210 -2.9371 -1.1359  0.1733
  486MPD2    H2 7232   1.784   2.109  13.187 -0.3159  0.3146  0.6987
  486MPD2    H3 7233   1.761   2.310  13.308 -0.8820 -2.0116  0.4124
  486MPD2     N 7234   1.551   2.518  12.949 -0.6819  0.0649  0.3278
  486MPD2    H5 7235   1.508   2.486  12.863 -2.8099 -2.1984  2.2340
  486MPD2    N1 7236   1.713   2.059  12.946  0.2735  0.5303 -0.4013
  486MPD2    H7 7237   1.739   1.981  13.006 -2.0812  0.9728  1.2355
  487TMC3    C1 7238   1.647   1.871  12.815 -0.1092  0.2161  0.6310
  487TMC3    C2 7239   1.517   1.846  12.776 -0.4142  0.0617  0.2384
  487TMC3    C3 7240   1.446   1.767  12.863  0.5886  0.3311  0.0064
  487TMC3    C4 7241   1.706   1.810  12.922 -0.4156 -0.7670 -0.1343
  487TMC3    C5 7242   1.623   1.738  13.003  0.0173  0.1223 -0.0864
  487TMC3    C6 7243   1.490   1.719  12.982 -0.0844  0.6272 -0.1219
  487TMC3     C 7244   1.651   2.017  12.828 -0.3143  0.0521  0.0196
  487TMC3     O 7245   1.590   2.077  12.745 -0.1328 -0.1049  0.0211
  487TMC3     H 7246   1.470   1.897  12.692  0.4109  2.2412  1.0932
  487TMC3    H1 7247   1.803   1.844  12.957  0.1611 -1.2842 -1.2291
  487TMC3    H2 7248   1.440   1.626  13.008  1.9753 -0.3708  0.2209
  487TMC3    C7 7249   1.651   1.761  13.146  0.2785  0.7881  0.0694
  487TMC3    C8 7250   1.307   1.797  12.866 -0.1040 -0.1156  0.3593
  487TMC3    O1 7251   1.726   1.853  13.174 -0.0850 -0.9314 -0.0200
  487TMC3    O2 7252   1.251   1.847  12.770 -0.1151 -0.7595 -0.4278
  488MPD2     C 7253   1.307   4.388  16.436 -0.2195  0.2786  0.0892
  488MPD2    C1 7254   1.308   4.521  16.421 -0.6451  0.2259 -0.4152
  488MPD2    C2 7255   1.281   4.604  16.533  0.3245  0.5334  0.0931
  488MPD2    C3 7256   1.273   4.549  16.655  0.1049  0.4766 -0.1977
  488MPD2    C4 7257   1.267   4.405  16.670 -0.6202 -0.1324 -0.5279
  488MPD2    C5 7258   1.272   4.336  16.560  0.1647 -0.1022 -0.3190
  488MPD2     H 7259   1.288   4.712  16.529  1.1290  0.4642 -0.1766
  488MPD2    H1 7260   1.241   4.356  16.763  1.7008  0.0223  0.1951
  488MPD2    H2 7261   1.301   4.312  16.359 -0.9669  1.4687 -1.0148
  488MPD2    H3 7262   1.256   4.229  16.561 -1.8257  0.2365  1.7719
  488MPD2     N 7263   1.275   4.631  16.770 -0.3371 -0.8717 -0.0385
  488MPD2    H5 7264   1.278   0.007  16.754  0.7652 -0.6533  1.5257
  488MPD2    N1 7265   1.315   4.586  16.296 -0.1430 -0.6651 -0.4113
  488MPD2    H7 7266   1.295   4.686  16.295 -3.3324 -1.3094 -0.6048
  489TMC3    C1 7267   1.248   4.678  17.009 -0.2788  0.4738 -0.0305
  489TMC3    C2 7268   1.207   0.083  16.975  0.4248  0.3806 -0.6792
  489TMC3    C3 7269   1.212   0.180  17.070  0.4116 -0.1682 -0.0103
  489TMC3    C4 7270   1.299   4.651  17.132  0.0692  0.2506 -0.4749
  489TMC3    C5 7271   1.283   0.028  17.220 -0.3251  0.0295 -0.3802
  489TMC3    C6 7272   1.244   0.154  17.195  0.4952 -1.0168 -0.2860
  489TMC3     C 7273   1.272   4.585  16.903  0.8407 -0.1078 -0.5837
  489TMC3     O 7274   1.290   4.470  16.942 -0.0999  0.1604  0.1794
  489TMC3     H 7275   1.188   0.107  16.871 -0.0031  2.2483 -0.1675
  489TMC3    H1 7276   1.342   4.555  17.157  2.0706  0.6257 -2.5835
  489TMC3    H2 7277   1.223   0.225  17.273 -0.8519 -0.7186 -0.9135
  489TMC3    C7 7278   1.341   0.006  17.352 -0.4112  0.0344  0.1371
  489TMC3    C8 7279   1.207   0.317  17.025  0.3466  0.3675 -0.4931
  489TMC3    O1 7280   1.364   0.106  17.420  0.0931  0.1312 -0.1381
  489TMC3    O2 7281   1.164   0.337  16.916 -0.0061 -0.2201  0.0408
  490MPD2     C 7282   2.972   3.703   0.014 -0.6253  0.0013 -0.1178
  490MPD2    C1 7283   2.842   3.749   0.016 -0.9105 -0.1639 -1.2881
  490MPD2    C2 7284   2.819   3.879  17.671  0.7276 -0.6195  0.4317
  490MPD2    C3 7285   2.930   3.956  17.633  0.5377 -0.1504  0.1495
  490MPD2    C4 7286   3.056   3.903  17.617 -0.4148 -0.2065  0.4753
  490MPD2    C5 7287   3.071   3.773  17.658  0.1686 -0.3349 -0.8744
  490MPD2     H 7288   2.717   3.911  17.656  0.7239 -0.4359  0.8324
  490MPD2    H1 7289   3.144   3.961  17.593 -0.2883  0.2391  2.0113
  490MPD2    H2 7290   2.993   3.603   0.050  1.6718  1.0618  1.5145
  490MPD2    H3 7291   3.171   3.732  17.661 -0.3092 -1.4425 -0.0422
  490MPD2     N 7292   2.913   4.082  17.572 -0.1316 -0.3190 -0.2038
  490MPD2    H5 7293   2.993   4.121  17.523  0.5847 -1.4690  0.0409
  490MPD2    N1 7294   2.732   3.674   0.062 -0.4603  0.1906 -0.4243
  490MPD2    H7 7295   2.637   3.708   0.047 -0.3063  1.2330  0.9577
  491TMC3    C1 7296   2.620   3.492   0.168  0.4372 -0.0982 -0.0818
  491TMC3    C2 7297   2.601   3.429   0.285  0.8454 -0.3338  0.2214
  491TMC3    C3 7298   2.478   3.380   0.299 -0.1034 -0.6953 -0.4784
  491TMC3    C4 7299   2.533   3.483   0.062  0.1650  0.1326 -0.1884
  491TMC3    C5 7300   2.420   3.413   0.082  0.3713 -0.7769 -0.0151
  491TMC3    C6 7301   2.385   3.371   0.200  0.3333 -0.0046  0.4141
  491TMC3     C 7302   2.746   3.559   0.145  0.4167  0.6538 -0.4745
  491TMC3     O 7303   2.843   3.537   0.220  0.1402  0.1298  0.0256
  491TMC3     H 7304   2.661   3.452   0.373 -0.3482 -1.6419  1.3831
  491TMC3    H1 7305   2.565   3.517  17.663 -1.2086  1.5795 -0.1398
  491TMC3    H2 7306   2.286   3.330   0.209  0.3735  0.0859  1.3284
  491TMC3    C7 7307   2.315   3.426  17.683 -0.1472 -0.4994 -0.7826
  491TMC3    C8 7308   2.415   3.402   0.425 -0.1215  0.0157  0.0953
  491TMC3    O1 7309   2.204   3.454   0.023  0.5863 -0.0812  0.7544
  491TMC3    O2 7310   2.301   3.446   0.416 -0.2868  0.9954  0.1808
  492MPD2     C 7311   2.801   3.111  10.881  0.2314 -0.2286 -0.3279
  492MPD2    C1 7312   2.677   3.169  10.859 -0.2468  0.0683  0.1591
  492MPD2    C2 7313   2.575   3.153  10.955 -0.8028 -0.0521  0.2080
  492MPD2    C3 7314   2.614   3.076  11.074 -0.1555  0.1588  0.4524
  492MPD2    C4 7315   2.739   3.018  11.086 -0.0301 -0.4369 -0.0300
  492MPD2    C5 7316   2.828   3.039  10.988  0.5488 -0.4878  0.2607
  492MPD2     H 7317   2.475   3.194  10.951  0.1419  2.3801  1.8975
  492MPD2    H1 7318   2.772   2.969  11.176  0.8224  0.8988  0.3833
  492MPD2    H2 7319   2.876   3.125  10.804  1.6461  2.6201  1.5749
  492MPD2    H3 7320   2.926   2.995  11.000 -0.4979 -2.8393  0.1999
  492MPD2     N 7321   2.532   3.058  11.184 -0.2177 -0.4177  0.1661
  492MPD2    H5 7322   2.570   3.004  11.260 -1.0476 -1.8760 -0.4491
  492MPD2    N1 7323   2.656   3.235  10.740  0.0436  0.3156  0.4218
  492MPD2    H7 7324   2.740   3.246  10.684 -0.2647  2.4226  0.3772
  493TMC3    C1 7325   2.552   3.368  10.573 -0.3513  0.2365 -0.3646
  493TMC3    C2 7326   2.678   3.409  10.533 -0.2487 -0.5963 -0.1277
  493TMC3    C3 7327   2.684   3.470  10.416  0.5149  0.3203  0.2767
  493TMC3    C4 7328   2.445   3.386  10.496 -0.2677  0.4214 -0.2173
  493TMC3    C5 7329   2.449   3.467  10.387  0.4287  0.0436  0.1909
  493TMC3    C6 7330   2.574   3.501  10.337  0.1116 -0.2267  0.5736
  493TMC3     C 7331   2.537   3.297  10.700 -0.5089 -1.0347  0.8306
  493TMC3     O 7332   2.427   3.300  10.757  0.6151 -0.0638  1.0569
  493TMC3     H 7333   2.762   3.394  10.600 -1.1582 -0.7355  0.9757
  493TMC3    H1 7334   2.349   3.362  10.538 -0.1319  1.7505  0.8476
  493TMC3    H2 7335   2.583   3.561  10.247 -1.5243 -0.3120  0.3651
  493TMC3    C7 7336   2.336   3.521  10.327 -0.1663  0.9650  0.8547
  493TMC3    C8 7337   2.824   3.477  10.359  0.2820 -0.3515  0.5841
  493TMC3    O1 7338   2.352   3.636  10.278 -0.1795 -0.2791  0.2393
  493TMC3    O2 7339   2.906   3.403  10.410 -1.4250 -0.5327  0.4911
  494TMC3    C1 7340   3.200   1.154   0.682  0.0595 -0.2018  0.0677
  494TMC3    C2 7341   3.273   1.036   0.702 -1.4410  0.0027  0.0209
  494TMC3    C3 7342   3.304   0.971   0.584  0.0549 -0.0807 -0.3878
  494TMC3    C4 7343   3.167   1.205   0.558 -0.1323  0.7633 -0.1418
  494TMC3    C5 7344   3.228   1.141   0.447  0.1395  0.5875  0.7843
  494TMC3    C6 7345   3.289   1.020   0.456 -0.0544 -0.0548 -0.3957
  494TMC3     C 7346   3.162   1.231   0.802  0.4173 -0.4563 -0.3021
  494TMC3     O 7347   3.054   1.288   0.799  0.1215 -0.6588 -1.2496
  494TMC3     H 7348   3.292   0.991   0.798 -2.8194 -0.3910  0.1076
  494TMC3    H1 7349   3.105   1.293   0.561 -2.0587 -0.6021  0.0435
  494TMC3    H2 7350   3.319   0.974   0.362  1.4180 -2.0509  1.0532
  494TMC3    C7 7351   3.214   1.194   0.319 -0.3711  0.8677  1.0769
  494TMC3    C8 7352   3.359   0.837   0.597 -0.3236  0.2768  0.1154
  494TMC3    O1 7353   3.246   1.121   0.228  0.0220  0.2815 -0.0019
  494TMC3    O2 7354   3.318   0.761   0.681 -0.0861  0.4852 -0.1219
  495TMC3    C1 7355   2.087   2.736  15.124  0.3240  0.0101 -0.0855
  495TMC3    C2 7356   2.007   2.775  15.021 -0.1246 -0.2072 -0.0046
  495TMC3    C3 7357   1.888   2.832  15.042  0.1130  0.3756 -0.2138
  495TMC3    C4 7358   2.045   2.750  15.256  0.0452 -0.0331 -0.5512
  495TMC3    C5 7359   1.928   2.823  15.276 -0.4277 -0.3014  0.2796
  495TMC3    C6 7360   1.848   2.857  15.170  0.1569 -0.3038 -0.2951
  495TMC3     C 7361   2.128   2.600  15.106 -0.3190 -0.2067 -0.3934
  495TMC3     O 7362   2.082   2.518  15.187  0.1250  0.1410  0.1259
  495TMC3     H 7363   2.027   2.759  14.916  1.9958  0.6512  0.2693
  495TMC3    H1 7364   2.099   2.708  15.340 -0.6885 -0.5610 -0.3416
  495TMC3    H2 7365   1.745   2.887  15.185 -0.3720 -2.8849  1.2549
  495TMC3    C7 7366   1.876   2.810  15.412  0.0592 -0.2409 -0.1503
  495TMC3    C8 7367   1.776   2.799  14.954 -0.0312 -0.0411  0.2661
  495TMC3    O1 7368   1.758   2.832  15.428  0.4498  0.4894 -0.2702
  495TMC3    O2 7369   1.664   2.843  14.982 -0.6223 -0.0123  0.6556
  496MPD2     C 7370   3.571   2.899  15.312 -0.1680 -0.4691  0.3670
  496MPD2    C1 7371   3.645   2.844  15.405 -0.2578  0.1705 -0.3419
  496MPD2    C2 7372   3.604   2.862  15.537 -1.0251 -0.6217 -0.0302
  496MPD2    C3 7373   3.487   2.929  15.574  0.7439  0.2906 -0.3004
  496MPD2    C4 7374   3.412   2.979  15.468 -0.3022  0.0943 -0.0201
  496MPD2    C5 7375   3.455   2.962  15.339 -0.1510  0.1293  0.3723
  496MPD2     H 7376   3.663   2.812  15.613 -0.9355 -0.6108 -0.0916
  496MPD2    H1 7377   3.320   3.033  15.489  0.0873  0.4780  0.6800
  496MPD2    H2 7378   3.581   2.888  15.204 -1.9416  0.4935  0.1013
  496MPD2    H3 7379   3.391   2.991  15.257 -0.2377  1.7821  1.0231
  496MPD2     N 7380   3.456   2.967  15.705  0.3479 -0.0035 -0.3391
  496MPD2    H5 7381   3.373   3.026  15.713 -0.8772 -1.5120 -2.0037
  496MPD2    N1 7382   3.753   2.765  15.359 -0.4484  0.4335 -0.2666
  496MPD2    H7 7383   3.750   2.747  15.259  1.1517  2.7159 -0.7264
  497TMC3    C1 7384   3.490   3.015  15.933 -0.1291  1.0072 -0.7977
  497TMC3    C2 7385   3.427   3.138  15.925 -0.7805 -0.0446  0.8923
  497TMC3    C3 7386   3.384   3.190  16.033 -0.1801 -0.4267 -0.4444
  497TMC3    C4 7387   3.508   2.951  16.060  0.1614  0.2863  0.4551
  497TMC3    C5 7388   3.471   3.019  16.168  0.2047  0.5271  0.6319
  497TMC3    C6 7389   3.416   3.141  16.152 -0.0382 -0.3503  0.1814
  497TMC3     C 7390   3.541   2.949  15.813  0.2924  0.2689  0.2516
  497TMC3     O 7391   3.643   2.880  15.820 -0.3739 -0.4018 -0.0391
  497TMC3     H 7392   3.405   3.186  15.830 -0.8967  0.7495  1.3172
  497TMC3    H1 7393   3.567   2.861  16.062  0.9656  0.8126  0.1493
  497TMC3    H2 7394   3.405   3.203  16.241  2.3331 -0.5838  0.6447
  497TMC3    C7 7395   3.569   3.014  16.278 -0.9141 -0.0588 -0.2450
  497TMC3    C8 7396   3.365   3.333  16.032  0.4592 -0.1307  0.0630
  497TMC3    O1 7397   3.608   3.120  16.325 -0.2296 -0.1190 -0.1500
  497TMC3    O2 7398   3.268   3.357  16.101  0.4321  0.2136 -0.5560
  498MPD2     C 7399   0.579   2.756  10.277 -0.4451 -0.5600  0.0210
  498MPD2    C1 7400   0.450   2.770  10.234 -0.4149 -0.2629 -0.3045
  498MPD2    C2 7401   0.360   2.665  10.241  0.2919 -0.4993  0.3885
  498MPD2    C3 7402   0.415   2.544  10.281 -0.6294  0.8672  0.0094
  498MPD2    C4 7403   0.545   2.530  10.324 -0.6759  0.1795  0.6542
  498MPD2    C5 7404   0.631   2.638  10.323  0.4514  0.5413  0.2311
  498MPD2     H 7405   0.259   2.679  10.205  0.3203 -1.8094 -0.2136
  498MPD2    H1 7406   0.582   2.441  10.374  2.8606  2.5873  2.3368
  498MPD2    H2 7407   0.654   2.834  10.267 -0.5552 -0.3582  0.7414
  498MPD2    H3 7408   0.724   2.633  10.379  1.6861  2.1736 -1.6815
  498MPD2     N 7409   0.327   2.438  10.262  0.3584  0.3465 -0.1921
  498MPD2    H5 7410   0.229   2.454  10.242 -0.1710  0.4295  2.5023
  498MPD2    N1 7411   0.408   2.886  10.162 -0.4116  0.6065 -0.0714
  498MPD2    H7 7412   0.312   2.885  10.129 -0.7447 -0.0577  0.9103
  499TMC3    C1 7413   0.415   3.082  10.038  1.0123  0.2272  0.7335
  499TMC3    C2 7414   0.384   3.030   9.916 -0.0613 -0.6278  0.3720
  499TMC3    C3 7415   0.399   3.111   9.807 -0.0588  0.1403 -0.5366
  499TMC3    C4 7416   0.455   3.213  10.047  0.2885 -0.4263 -0.0944
  499TMC3    C5 7417   0.468   3.284   9.931 -0.4005 -0.6799 -0.2566
  499TMC3    C6 7418   0.437   3.240   9.801  0.5727  0.0150 -0.8390
  499TMC3     C 7419   0.485   2.990  10.129 -0.7665 -0.1520  0.5727
  499TMC3     O 7420   0.600   3.012  10.163 -0.2274 -0.0106  0.1805
  499TMC3     H 7421   0.349   2.927   9.909 -0.1699 -0.4473 -1.7872
  499TMC3    H1 7422   0.502   3.236  10.141 -0.5388  1.2446 -0.0936
  499TMC3    H2 7423   0.467   3.289   9.709 -1.0785 -0.4953 -1.6539
  499TMC3    C7 7424   0.524   3.415   9.937  0.6138 -0.4031  0.0452
  499TMC3    C8 7425   0.377   3.044   9.680  0.4192 -0.2860  0.2672
  499TMC3    O1 7426   0.559   3.469   9.834 -0.7727 -0.4761  0.1025
  499TMC3    O2 7427   0.396   2.925   9.682 -0.0496 -0.6454 -0.1616
  500MPD2     C 7428   2.223   4.128  10.357 -0.5106  0.9010 -0.6713
  500MPD2    C1 7429   2.221   4.202  10.469 -0.1707  0.2485 -0.5371
  500MPD2    C2 7430   2.127   4.306  10.479 -0.4471  0.6574  0.2407
  500MPD2    C3 7431   2.029   4.335  10.374  0.0093  0.6437 -0.1611
  500MPD2    C4 7432   2.032   4.256  10.265  0.2843  0.1918  0.3817
  500MPD2    C5 7433   2.129   4.158  10.254 -0.0197 -0.2118 -0.6945
  500MPD2     H 7434   2.134   4.365  10.570  3.1766  0.6374  0.0021
  500MPD2    H1 7435   1.960   4.251  10.184  0.1455 -1.4151  0.6099
  500MPD2    H2 7436   2.295   4.048  10.341 -0.6690  0.9493 -1.6353
  500MPD2    H3 7437   2.136   4.105  10.159  1.3013  0.3289 -0.9038
  500MPD2     N 7438   1.933   4.443  10.379 -0.1703  0.0869 -0.3236
  500MPD2    H5 7439   1.882   4.459  10.292  1.5296 -1.4606 -1.6246
  500MPD2    N1 7440   2.329   4.206  10.561 -0.0033 -0.2256  0.7308
  500MPD2    H7 7441   2.345   4.291  10.614 -3.5839  0.7204  0.2307
  501TMC3    C1 7442   2.556   4.195  10.614 -0.9275 -0.4259  0.3974
  501TMC3    C2 7443   2.564   4.331  10.594  0.1754 -0.2514 -0.3492
  501TMC3    C3 7444   2.672   4.397  10.640 -0.2742 -0.4615 -0.0302
  501TMC3    C4 7445   2.659   4.131  10.678 -0.6558 -0.4034 -0.0925
  501TMC3    C5 7446   2.767   4.200  10.728  0.3696  0.3059 -0.1498
  501TMC3    C6 7447   2.766   4.336  10.725 -0.1183  0.0166  0.1864
  501TMC3     C 7448   2.439   4.124  10.559 -0.3158  0.0908 -0.0224
  501TMC3     O 7449   2.464   4.010  10.524 -0.5667  0.2009 -0.1585
  501TMC3     H 7450   2.483   4.388  10.550  2.2072  2.6197 -0.3634
  501TMC3    H1 7451   2.658   4.025  10.698  3.9990 -0.5629 -0.6545
  501TMC3    H2 7452   2.846   4.388  10.776 -1.3315  1.1912  0.9138
  501TMC3    C7 7453   2.881   4.125  10.768 -1.0603  0.6089 -0.0381
  501TMC3    C8 7454   2.662   4.540  10.651  0.8720 -0.6555  0.4536
  501TMC3    O1 7455   2.869   4.005  10.772  0.1202  0.3243  0.4062
  501TMC3    O2 7456   2.705   4.590  10.753  0.2642 -0.0876 -0.0308
  502TMC3    C1 7457   1.355   3.801  15.491  0.4418  0.1096  0.5377
  502TMC3    C2 7458   1.393   3.760  15.361  0.4242  0.5120 -1.1121
  502TMC3    C3 7459   1.291   3.726  15.279  0.1174 -0.0869 -0.0117
  502TMC3    C4 7460   1.230   3.794  15.537 -0.0147  0.6003  0.0234
  502TMC3    C5 7461   1.132   3.745  15.453  0.0642  0.3772 -0.2372
  502TMC3    C6 7462   1.160   3.712  15.322  0.8639  0.3277  0.1546
  502TMC3     C 7463   1.468   3.791  15.584  0.3655 -0.1563  0.0046
  502TMC3     O 7464   1.576   3.743  15.542 -0.1515  0.3924 -0.0486
  502TMC3     H 7465   1.496   3.776  15.334  0.3072  1.1983 -1.1557
  502TMC3    H1 7466   1.201   3.835  15.633  2.2270  2.0942  0.0340
  502TMC3    H2 7467   1.079   3.685  15.255  1.2235 -0.7317  0.1477
  502TMC3    C7 7468   1.000   3.724  15.512 -0.2390 -0.0840 -0.2049
  502TMC3    C8 7469   1.305   3.755  15.142  0.2349  0.6336 -0.1625
  502TMC3    O1 7470   0.999   3.701  15.627 -0.0680  0.1009  1.0243
  502TMC3    O2 7471   1.376   3.848  15.116 -0.3304  0.5174 -0.0152
  503MPD2     C 7472   3.135   4.679  17.045 -0.8152 -0.2249 -0.1734
  503MPD2    C1 7473   3.198   4.719  17.157 -0.2957 -0.7252 -0.0096
  503MPD2    C2 7474   3.296   4.642  17.214 -0.2901 -0.5181 -0.0744
  503MPD2    C3 7475   3.327   4.518  17.162  0.4500  0.3173  0.3104
  503MPD2    C4 7476   3.261   4.477  17.052 -0.2539  0.4997 -0.1691
  503MPD2    C5 7477   3.156   4.555  16.994  0.2427  0.5530 -0.0671
  503MPD2     H 7478   3.365   4.671  17.293 -0.8635 -0.8464  0.5551
  503MPD2    H1 7479   3.274   4.378  17.009 -0.3805  0.7545 -0.7972
  503MPD2    H2 7480   3.059   0.005  16.988  1.0009 -0.7034 -3.0192
  503MPD2    H3 7481   3.110   4.520  16.902  0.1994 -3.0440  1.3020
  503MPD2     N 7482   3.422   4.447  17.231  0.0929 -0.0096 -0.1222
  503MPD2    H5 7483   3.442   4.475  17.327 -0.6408 -0.5215  0.1774
  503MPD2    N1 7484   3.175   0.125  17.213  0.0843  0.4426 -0.4370
  503MPD2    H7 7485   3.221   0.145  17.302 -0.4432  0.3899 -0.1498
  504TMC3    C1 7486   3.547   4.262  17.296 -0.0933  0.0604 -0.6836
  504TMC3    C2 7487   3.561   4.324  17.421 -0.3123  0.1807 -0.0376
  504TMC3    C3 7488   3.632   4.250  17.520 -0.1554  0.8720  0.0984
  504TMC3    C4 7489   3.594   4.140  17.268 -0.1827  0.9741 -0.0594
  504TMC3    C5 7490   3.669   4.076  17.365 -0.9298  0.0039 -0.8863
  504TMC3    C6 7491   3.688   4.129  17.490 -0.2277 -0.6665  0.0762
  504TMC3     C 7492   3.468   4.322  17.197 -0.5670 -1.0156 -0.4264
  504TMC3     O 7493   3.446   4.265  17.096  0.6840 -0.5314 -0.2971
  504TMC3     H 7494   3.497   4.403  17.460  0.1432  0.3759  0.3265
  504TMC3    H1 7495   3.597   4.103  17.166  0.1317 -0.8277  0.6060
  504TMC3    H2 7496   3.739   4.067  17.562  0.3436 -0.5589 -0.2354
  504TMC3    C7 7497   3.743   3.957  17.321  0.2458  0.1775  0.4082
  504TMC3    C8 7498   3.615   4.284  17.657  0.4453 -0.5061 -0.2676
  504TMC3    O1 7499   3.849   3.936  17.375  0.3511 -0.1119  0.0506
  504TMC3    O2 7500   3.587   4.401  17.682  0.0618  0.2486  0.0063
  505MPD2     C 7501   3.807   1.932  10.048  0.1445  0.1648 -0.6068
  505MPD2    C1 7502   3.854   1.817  10.118 -0.3312  0.1337  0.0118
  505MPD2    C2 7503   3.881   1.826  10.257  0.4186 -0.4916 -0.0428
  505MPD2    C3 7504   3.854   1.945  10.327  0.4301  0.9311  0.5367
  505MPD2    C4 7505   3.814   2.062  10.260  0.2209  1.2536 -0.2470
  505MPD2    C5 7506   3.785   2.049  10.125 -0.7717  0.4674  0.1296
  505MPD2     H 7507   3.918   1.738  10.308  1.4241  0.6234  1.1630
  505MPD2    H1 7508   3.782   2.153  10.310 -1.6195 -1.1915  2.9791
  505MPD2    H2 7509   3.761   1.924   9.950 -0.5322  0.5855 -0.3254
  505MPD2    H3 7510   3.742   2.137  10.078 -0.2673  1.8270  2.2030
  505MPD2     N 7511   3.868   1.949  10.469 -0.3233 -0.2761 -0.0082
  505MPD2    H5 7512   3.843   2.037  10.514  3.8239  2.4187 -2.9005
  505MPD2    N1 7513   3.875   1.707  10.034 -0.4613 -0.1869  0.3573
  505MPD2    H7 7514   3.886   1.730   9.936 -3.2906 -0.7847 -0.1107
  506TMC3    C1 7515   3.966   1.486   9.989 -0.3982  0.4360 -0.0516
  506TMC3    C2 7516   4.065   1.544   9.916 -0.3487  0.4843 -0.6124
  506TMC3    C3 7517   4.184   1.477   9.896  0.0568 -0.8886 -1.0447
  506TMC3    C4 7518   3.979   1.367  10.050 -0.3642  0.4427 -0.2128
  506TMC3    C5 7519   4.098   1.301  10.044 -0.4476 -0.4826  0.1237
  506TMC3    C6 7520   4.197   1.353   9.956 -0.1584  0.1387  0.2210
  506TMC3     C 7521   3.897   1.577  10.085 -0.0172  0.0575 -0.0304
  506TMC3     O 7522   3.888   1.542  10.200  0.1941 -0.7912 -0.2938
  506TMC3     H 7523   4.043   1.642   9.875 -3.1883 -0.7214 -1.9864
  506TMC3    H1 7524   3.908   1.335  10.125 -2.4981 -0.7897 -2.7404
  506TMC3    H2 7525   4.286   1.293   9.942 -0.6250 -0.2251 -1.1877
  506TMC3    C7 7526   4.141   1.263  10.171  0.5458 -0.2070  0.3453
  506TMC3    C8 7527   4.285   1.549   9.822 -0.1273 -0.0030 -0.0259
  506TMC3    O1 7528   4.236   1.183  10.176  0.5550  0.7629  0.3993
  506TMC3    O2 7529   4.248   1.609   9.722 -0.5586 -0.4988  0.0770
  507TMC3    C1 7530   4.560   3.900  14.531 -0.3338 -0.5679  0.8249
  507TMC3    C2 7531   4.576   3.913  14.395 -0.1630 -0.4327  0.0498
  507TMC3    C3 7532   4.695   3.964  14.340 -0.3265  0.5683 -0.3386
  507TMC3    C4 7533   4.656   3.955  14.613 -0.1580 -0.7645  0.1886
  507TMC3    C5 7534   0.044   4.004  14.560  0.4035 -0.9780  0.2002
  507TMC3    C6 7535   0.071   3.996  14.429 -0.3634 -0.1808 -1.0703
  507TMC3     C 7536   4.428   3.880  14.584 -0.1671  0.2676  0.2512
  507TMC3     O 7537   4.389   3.961  14.671  0.4421  0.8864 -0.1797
  507TMC3     H 7538   4.501   3.885  14.322  0.0743 -0.9941  0.0235
  507TMC3    H1 7539   4.636   3.971  14.718 -0.6473  0.8615 -0.1612
  507TMC3    H2 7540   0.158   4.050  14.393 -0.0944  1.8598  2.7002
  507TMC3    C7 7541   0.080   4.141  14.618  0.3684 -0.6766  0.1224
  507TMC3    C8 7542   4.676   4.078  14.257 -0.6785 -0.1380 -0.7472
  507TMC3    O1 7543   0.085   4.156  14.739  0.2532 -0.2820 -0.1788
  507TMC3    O2 7544   0.016   4.178  14.281 -0.1660 -0.0648  0.1851
  508MPD2     C 7545   0.424   1.390  15.585  0.6193  0.2754  0.1901
  508MPD2    C1 7546   0.412   1.500  15.663  0.2362  0.0650  0.3719
  508MPD2    C2 7547   0.422   1.622  15.596 -0.3401  0.5744  0.5930
  508MPD2    C3 7548   0.481   1.633  15.468 -0.4042 -0.4205 -0.3555
  508MPD2    C4 7549   0.507   1.515  15.401 -0.0553 -0.2703  0.1519
  508MPD2    C5 7550   0.478   1.396  15.459  0.2104 -0.1312 -0.4667
  508MPD2     H 7551   0.410   1.715  15.650  1.1391  2.1159 -1.7232
  508MPD2    H1 7552   0.547   1.515  15.300 -0.8603 -1.9955 -0.1673
  508MPD2    H2 7553   0.413   1.295  15.635  2.9399 -0.4811 -0.7493
  508MPD2    H3 7554   0.515   1.301  15.422  0.7800 -0.5119  1.0874
  508MPD2     N 7555   0.513   1.758  15.413 -0.5458 -0.0049 -0.2147
  508MPD2    H5 7556   0.498   1.842  15.468  1.6136 -0.4009  1.0087
  508MPD2    N1 7557   0.383   1.485  15.806  0.1494  0.3321  0.0683
  508MPD2    H7 7558   0.359   1.391  15.836  1.4162  0.0905  0.3182
  509TMC3    C1 7559   0.548   2.148  15.305 -0.1217 -0.8187 -0.4368
  509TMC3    C2 7560   0.662   2.189  15.367 -0.9138  0.4644 -0.0311
  509TMC3    C3 7561   0.757   2.094  15.396  0.5304 -0.1816  0.0320
  509TMC3    C4 7562   0.527   2.016  15.280 -0.3478 -0.0913  0.1341
  509TMC3    C5 7563   0.624   1.924  15.299 -0.3875 -0.2119  0.6232
  509TMC3    C6 7564   0.738   1.963  15.349  0.7231 -0.1806 -0.0770
  509TMC3     C 7565   0.433   2.229  15.282 -0.1502  0.4488  0.1724
  509TMC3     O 7566   0.328   2.176  15.258 -0.3135 -0.2948 -0.0417
  509TMC3     H 7567   0.678   2.296  15.377  1.1492  0.2381 -1.0756
  509TMC3    H1 7568   0.437   1.980  15.232 -0.7534 -0.6910  1.3359
  509TMC3    H2 7569   0.814   1.887  15.363  2.5893  1.6441 -0.3126
  509TMC3    C7 7570   0.589   1.786  15.302 -0.0169  0.4901  0.0554
  509TMC3    C8 7571   0.850   2.113  15.502  0.2158 -0.0347 -0.4859
  509TMC3    O1 7572   0.648   1.713  15.225  0.4946 -0.3543 -0.2526
  509TMC3    O2 7573   0.912   2.015  15.535 -0.1520  0.3334 -0.2330
  510MPD2     C 7574   3.235   3.105  14.348 -0.4692  0.4786  0.4942
  510MPD2    C1 7575   3.309   3.092  14.459 -0.3485  0.5697  0.0591
  510MPD2    C2 7576   3.443   3.043  14.444 -0.1230 -0.0480  0.2767
  510MPD2    C3 7577   3.497   3.015  14.317 -0.1722 -0.0095 -0.3567
  510MPD2    C4 7578   3.414   3.028  14.208 -0.6785 -0.1400  0.3497
  510MPD2    C5 7579   3.289   3.069  14.226  0.0753  0.4644  0.3144
  510MPD2     H 7580   3.506   3.028  14.531  0.8499  1.9258 -0.1087
  510MPD2    H1 7581   3.433   3.003  14.104 -2.9660  0.8627 -0.3067
  510MPD2    H2 7582   3.129   3.124  14.359 -0.5762  0.8270 -1.0624
  510MPD2    H3 7583   3.220   3.075  14.143 -0.8269  0.1211  1.0335
  510MPD2     N 7584   3.633   2.974  14.311  0.5749 -0.3072  0.3376
  510MPD2    H5 7585   3.670   2.944  14.401  0.7200 -0.3688  0.2574
  510MPD2    N1 7586   3.247   3.109  14.578  0.3755 -0.7559 -0.0621
  510MPD2    H7 7587   3.146   3.119  14.583  0.3866 -1.6222  1.8760
  511TMC3    C1 7588   3.207   3.044  14.783 -0.4429 -0.1041  0.2204
  511TMC3    C2 7589   3.214   3.088  14.911 -0.0622  0.2403  0.1884
  511TMC3    C3 7590   3.130   3.021  15.003 -0.2117  0.4166 -0.5901
  511TMC3    C4 7591   3.144   2.925  14.753 -0.4140 -0.1600 -0.1027
  511TMC3    C5 7592   3.078   2.855  14.844  0.7666  0.2253 -0.0778
  511TMC3    C6 7593   3.069   2.903  14.972  0.3986 -0.2086 -0.2523
  511TMC3     C 7594   3.309   3.093  14.699 -0.0469  0.0542 -0.2217
  511TMC3     O 7595   3.426   3.109  14.737  0.1608  0.5741  0.3109
  511TMC3     H 7596   3.260   3.182  14.940 -1.2856  0.5106  1.2733
  511TMC3    H1 7597   3.146   2.886  14.651 -0.6848  2.5565 -1.1348
  511TMC3    H2 7598   2.989   2.865  15.034  0.7098  1.6113  1.2727
  511TMC3    C7 7599   3.030   2.716  14.817 -0.3827 -0.3930  0.3626
  511TMC3    C8 7600   3.101   3.089  15.128  0.8266 -0.2069 -0.2398
  511TMC3    O1 7601   3.041   2.680  14.702  0.1523 -0.5016 -0.1627
  511TMC3    O2 7602   3.116   3.209  15.132 -0.2386 -0.0961  0.0717
  512TMC3    C1 7603   2.459   2.112  13.077 -0.3176  0.2527 -0.4328
  512TMC3    C2 7604   2.503   2.081  13.197 -0.3383  0.3926 -0.3386
  512TMC3    C3 7605   2.444   1.968  13.254  0.1432 -0.1634 -0.0942
  512TMC3    C4 7606   2.342   2.058  13.021 -0.1306 -0.0079 -0.2490
  512TMC3    C5 7607   2.293   1.946  13.079  0.2398  0.4943  0.3532
  512TMC3    C6 7608   2.336   1.900  13.197  0.6647  0.1681 -0.3324
  512TMC3     C 7609   2.553   2.204  13.012  0.4835 -0.3875 -0.6230
  512TMC3     O 7610   2.667   2.219  13.058  0.3410  0.1596  0.0154
  512TMC3     H 7611   2.589   2.128  13.244 -1.3086 -0.4701  2.2925
  512TMC3    H1 7612   2.319   2.077  12.917 -0.8260  0.5853  0.0155
  512TMC3    H2 7613   2.289   1.813  13.242  1.2800  0.9335  1.7915
  512TMC3    C7 7614   2.188   1.877  13.008  0.5371 -0.5189  0.6679
  512TMC3    C8 7615   2.433   1.961  13.397  0.3552 -0.5602  0.2681
  512TMC3    O1 7616   2.147   1.935  12.907 -0.0002 -0.0409 -0.0036
  512TMC3    O2 7617   2.425   1.854  13.449 -0.0021 -0.3804  0.0899
  513MPD2     C 7618   4.072   2.571  13.203 -0.1210  0.2808 -0.2215
  513MPD2    C1 7619   4.106   2.459  13.131  0.5726 -0.3439  0.0352
  513MPD2    C2 7620   4.216   2.387  13.162  0.7895 -0.1329  0.3507
  513MPD2    C3 7621   4.306   2.435  13.253  0.7941 -0.8848 -0.2935
  513MPD2    C4 7622   4.273   2.550  13.313 -0.4565 -0.2787  0.0215
  513MPD2    C5 7623   4.156   2.616  13.299  0.4066 -0.0230  0.3796
  513MPD2     H 7624   4.238   2.299  13.103 -1.3464 -0.4545  0.0304
  513MPD2    H1 7625   4.348   2.593  13.379  0.3319  0.0039 -1.0674
  513MPD2    H2 7626   3.991   2.637  13.172 -0.3001  0.9172  1.6237
  513MPD2    H3 7627   4.138   2.703  13.361  1.7955  0.1454  0.5380
  513MPD2     N 7628   4.425   2.360  13.275  0.2261 -0.1061  0.1870
  513MPD2    H5 7629   4.444   2.283  13.211 -1.0044 -0.8082  0.6696
  513MPD2    N1 7630   4.019   2.396  13.040  0.1012 -0.2023  0.3208
  513MPD2    H7 7631   4.039   2.299  13.020  3.4543  0.6638 -0.5880
  514TMC3    C1 7632   3.851   2.346  12.902 -0.0816 -0.0321  0.1171
  514TMC3    C2 7633   3.866   2.385  12.772 -0.0781 -0.3573 -0.1444
  514TMC3    C3 7634   3.911   2.291  12.683 -0.0038 -0.7543  0.0615
  514TMC3    C4 7635   3.893   2.224  12.944  0.9388 -0.5201  0.4419
  514TMC3    C5 7636   3.947   2.139  12.852 -0.2428  0.5076  0.6886
  514TMC3    C6 7637   3.961   2.168  12.717  0.2876  0.6869 -0.1886
  514TMC3     C 7638   3.897   2.447  12.997 -0.9378  0.0186 -0.3014
  514TMC3     O 7639   3.855   2.559  12.995  0.2909  0.4785 -0.6545
  514TMC3     H 7640   3.832   2.485  12.748 -1.9851 -1.0391 -0.3374
  514TMC3    H1 7641   3.880   2.191  13.047 -2.1541  1.4381  0.6821
  514TMC3    H2 7642   4.003   2.100  12.644 -0.1574  1.2095 -0.9355
  514TMC3    C7 7643   4.066   2.071  12.906 -0.9759 -0.2312  0.0063
  514TMC3    C8 7644   3.930   2.341  12.551  0.0096  0.6413  0.7469
  514TMC3    O1 7645   4.093   2.106  13.023 -0.4584 -0.6534  0.0611
  514TMC3    O2 7646   3.913   2.460  12.538 -0.1644 -0.5078  0.0014
  515MPD2     C 7647   2.215   3.608  15.018 -0.2718  0.0526  0.2107
  515MPD2    C1 7648   2.132   3.684  14.935  0.7244 -0.7324 -0.5169
  515MPD2    C2 7649   2.180   3.798  14.878 -0.0997  0.4117  0.0283
  515MPD2    C3 7650   2.308   3.845  14.897 -0.0137 -0.4909 -0.2131
  515MPD2    C4 7651   2.392   3.772  14.978 -0.3538  0.1480 -0.4327
  515MPD2    C5 7652   2.337   3.662  15.041 -0.4550 -0.0178  0.7529
  515MPD2     H 7653   2.109   3.848  14.812 -0.0607 -0.7903 -0.9180
  515MPD2    H1 7654   2.492   3.804  15.006  0.0929 -0.2291 -1.5933
  515MPD2    H2 7655   2.195   3.511  15.062  1.4607 -1.2880 -1.9795
  515MPD2    H3 7656   2.403   3.604  15.105 -0.8503 -0.5857  0.6459
  515MPD2     N 7657   2.359   3.958  14.834 -0.1784 -0.4141 -0.3378
  515MPD2    H5 7658   2.454   3.989  14.854 -0.8024 -0.5294  2.8333
  515MPD2    N1 7659   1.995   3.659  14.908  0.4242 -0.1365 -0.8972
  515MPD2    H7 7660   1.936   3.728  14.862  2.4290  1.3348 -1.2693
  516TMC3    C1 7661   1.785   3.552  14.926  0.5936  0.9189  0.6910
  516TMC3    C2 7662   1.741   3.597  14.806  0.7142 -1.0568 -0.1106
  516TMC3    C3 7663   1.605   3.592  14.781 -0.1539 -0.3413  0.4503
  516TMC3    C4 7664   1.708   3.498  15.025  0.0886  0.1177 -0.3908
  516TMC3    C5 7665   1.578   3.482  14.983  0.4849 -0.2985 -0.3644
  516TMC3    C6 7666   1.523   3.533  14.866  0.1404 -1.0700  0.7629
  516TMC3     C 7667   1.925   3.550  14.953 -0.1039  0.2401 -0.7053
  516TMC3     O 7668   1.966   3.463  15.030 -0.5043 -0.5527 -0.6028
  516TMC3     H 7669   1.817   3.633  14.738  1.3566 -2.7220 -0.2805
  516TMC3    H1 7670   1.737   3.429  15.103 -0.9041  0.9978  0.7506
  516TMC3    H2 7671   1.419   3.527  14.833  0.1181  1.6497  0.2532
  516TMC3    C7 7672   1.484   3.468  15.091  0.0654 -0.2702  0.1290
  516TMC3    C8 7673   1.562   3.645  14.655  0.1679  0.3620 -0.3307
  516TMC3    O1 7674   1.518   3.521  15.199  0.3101 -0.0534  0.2435
  516TMC3    O2 7675   1.475   3.581  14.597  0.3450 -0.5935  0.0584
  517MPD2     C 7676   1.319   1.154  17.531 -0.0347 -0.0270  0.0216
  517MPD2    C1 7677   1.436   1.140  17.605  0.8427 -0.1352  0.1104
  517MPD2    C2 7678   1.488   1.253  17.660  0.4618 -0.1438 -0.4471
  517MPD2    C3 7679   1.420   1.368  17.667 -0.4672 -0.0068 -0.6785
  517MPD2    C4 7680   1.295   1.379  17.610 -0.1991 -0.5440 -0.0490
  517MPD2    C5 7681   1.246   1.271  17.546  0.6638  0.1796 -0.2664
  517MPD2     H 7682   1.582   1.247   0.015  0.6749  0.6778 -0.7325
  517MPD2    H1 7683   1.232   1.467  17.608  2.5919  1.4339  0.1059
  517MPD2    H2 7684   1.276   1.069  17.479  1.8127  1.0171 -3.1965
  517MPD2    H3 7685   1.150   1.280  17.496  0.3716  4.6279  1.0489
  517MPD2     N 7686   1.459   1.479   0.049  0.3541 -0.3232  0.3530
  517MPD2    H5 7687   1.394   1.557   0.054 -0.0751 -0.7377  1.4185
  517MPD2    N1 7688   1.516   1.027  17.593  0.5677 -0.2154 -0.5910
  517MPD2    H7 7689   1.598   1.035  17.653 -1.2049  1.6061  1.6119
  518TMC3    C1 7690   1.596   0.812  17.525 -0.2229 -0.4043 -0.1817
  518TMC3    C2 7691   1.572   0.686  17.480  0.3447 -0.7511 -0.0030
  518TMC3    C3 7692   1.669   0.594  17.505  0.5887  0.1449 -0.6245
  518TMC3    C4 7693   1.722   0.850  17.577  0.0762 -0.5592 -0.3652
  518TMC3    C5 7694   1.817   0.752  17.592 -0.2572 -0.3014  0.0745
  518TMC3    C6 7695   1.792   0.624  17.556  0.4326 -0.6860  0.5538
  518TMC3     C 7696   1.484   0.908  17.535  0.4064  0.3836  0.6826
  518TMC3     O 7697   1.376   0.867  17.490 -0.0571  0.5096  0.0321
  518TMC3     H 7698   1.474   0.655  17.448 -0.0458 -1.0150  1.4337
  518TMC3    H1 7699   1.751   0.954  17.584  1.4739 -0.8351 -1.9502
  518TMC3    H2 7700   1.864   0.547  17.584 -0.0992 -1.0613  0.9036
  518TMC3    C7 7701   1.951   0.797  17.614 -0.1933  0.4946  0.3347
  518TMC3    C8 7702   1.656   0.461  17.474 -0.6386  0.2789  0.3813
  518TMC3    O1 7703   1.973   0.908  17.671  0.1847  0.1987  0.5191
  518TMC3    O2 7704   1.689   0.377  17.558 -0.2003  0.3827  0.0393
  519MPD2     C 7705   3.617   3.495  14.457 -0.2673 -0.0268 -0.0733
  519MPD2    C1 7706   3.504   3.516  14.380  0.3263 -0.5785  0.3618
  519MPD2    C2 7707   3.498   3.449  14.257  0.2834  0.2655  0.3571
  519MPD2    C3 7708   3.597   3.361  14.222 -0.0143  0.2926 -0.3192
  519MPD2    C4 7709   3.701   3.336  14.312  0.5294 -0.0506  0.2601
  519MPD2    C5 7710   3.706   3.410  14.425 -0.0305  0.2500  0.7963
  519MPD2     H 7711   3.413   3.463  14.191 -0.0037  1.3214  0.9685
  519MPD2    H1 7712   3.782   3.269  14.285  0.2074 -1.2555  2.2773
  519MPD2    H2 7713   3.639   3.554  14.546  0.0447 -0.1493 -0.0698
  519MPD2    H3 7714   3.790   3.394  14.491 -0.1304 -0.8274  0.6608
  519MPD2     N 7715   3.604   3.289  14.099 -0.2196 -0.5821 -1.0321
  519MPD2    H5 7716   3.687   3.232  14.087  1.4107  0.7519  3.5323
  519MPD2    N1 7717   3.412   3.611  14.427  0.1768  0.0431  0.1350
  519MPD2    H7 7718   3.441   3.653  14.514  1.3039 -0.8943  0.2147
  520TMC3    C1 7719   3.549   3.220  13.880 -0.1716  0.1821 -0.4808
  520TMC3    C2 7720   3.479   3.259  13.767 -0.3775  0.2479  0.1057
  520TMC3    C3 7721   3.538   3.247  13.649  0.6257 -0.4239  0.1347
  520TMC3    C4 7722   3.675   3.168  13.874  0.5707  0.4238 -0.6716
  520TMC3    C5 7723   3.736   3.167  13.754  0.4279 -0.1165  0.2006
  520TMC3    C6 7724   3.665   3.201  13.639  0.3803 -0.1757  0.6566
  520TMC3     C 7725   3.508   3.287  14.001  0.1093 -0.3944  0.4294
  520TMC3     O 7726   3.404   3.354  13.993  0.4437 -0.3342  0.1768
  520TMC3     H 7727   3.370   3.257  13.767 -0.3819  0.9120 -0.5676
  520TMC3    H1 7728   3.744   3.165  13.958  0.6786 -3.5317 -0.9030
  520TMC3    H2 7729   3.715   3.191  13.543  2.9508  0.0315  1.9517
  520TMC3    C7 7730   3.880   3.168  13.762  0.4169 -0.1615 -0.2957
  520TMC3    C8 7731   3.461   3.256  13.529 -0.4605  0.0238  0.0597
  520TMC3    O1 7732   3.922   3.100  13.852  0.6805  0.0787 -0.2257
  520TMC3    O2 7733   3.508   3.208  13.429  0.1034 -0.0540 -0.4553
  521MPD2     C 7734   4.409   2.429  17.518 -0.1653 -0.0054  0.3497
  521MPD2    C1 7735   4.343   2.321  17.460 -0.7984 -0.4010 -0.5511
  521MPD2    C2 7736   4.413   2.255  17.356 -0.5322 -0.1566 -0.6646
  521MPD2    C3 7737   4.547   2.277  17.332  0.4421 -1.0179 -0.1504
  521MPD2    C4 7738   4.611   2.379  17.393 -0.0050 -0.7321  0.9636
  521MPD2    C5 7739   4.537   2.466  17.478  0.1544  0.2979  0.6867
  521MPD2     H 7740   4.357   2.180  17.301 -3.1346  1.0060  0.4207
  521MPD2    H1 7741   4.718   2.395  17.393 -0.4460  2.3368 -0.9086
  521MPD2    H2 7742   4.366   2.498  17.590 -0.5326  1.0352 -0.8555
  521MPD2    H3 7743   4.587   2.544  17.534 -0.6127  2.1283 -1.1782
  521MPD2     N 7744   4.610   2.202  17.230 -0.0511 -0.2421  0.3227
  521MPD2    H5 7745   4.551   2.136  17.180 -1.3708  1.0489  0.1834
  521MPD2    N1 7746   4.215   2.288  17.503  0.2167 -0.1038 -0.6793
  521MPD2    H7 7747   4.171   2.352  17.568  0.9881  0.9923 -1.2144
  522TMC3    C1 7748   0.053   2.108  17.092 -0.3037  0.1226  0.6645
  522TMC3    C2 7749   0.187   2.101  17.049  0.3276 -0.0707  0.1579
  522TMC3    C3 7750   0.223   2.008  16.960  0.3224  0.2082 -0.6527
  522TMC3    C4 7751   4.690   2.018  17.036  0.1250  0.4773 -0.1278
  522TMC3    C5 7752   0.016   1.918  16.951 -0.2414 -0.2542  0.4965
  522TMC3    C6 7753   0.143   1.915  16.905 -0.3258 -0.0913  0.6644
  522TMC3     C 7754   0.018   2.197  17.194  0.3635  0.0801  0.6451
  522TMC3     O 7755   0.108   2.268  17.236 -0.5923 -0.3571  0.3198
  522TMC3     H 7756   0.265   2.166  17.087 -0.2199  0.7558 -0.1336
  522TMC3    H1 7757   4.605   1.983  17.094  1.2500 -1.2561  0.4690
  522TMC3    H2 7758   0.178   1.839  16.836 -3.0671 -0.1042 -0.7159
  522TMC3    C7 7759   4.651   1.830  16.885 -0.2748  0.7498 -0.2078
  522TMC3    C8 7760   0.361   2.011  16.915 -0.3092  0.3191 -0.1812
  522TMC3    O1 7761   4.707   1.735  16.834 -0.1307 -0.1951 -0.3280
  522TMC3    O2 7762   0.442   2.056  16.993  0.2508 -0.1406 -0.2138
  523MPD2     C 7763   2.309   1.229  10.475  0.6774 -0.5295 -0.1445
  523MPD2    C1 7764   2.248   1.171  10.373 -0.1246 -0.0253  0.3813
  523MPD2    C2 7765   2.151   1.239  10.297  0.4314 -0.1801  0.2421
  523MPD2    C3 7766   2.126   1.373  10.333 -0.1592 -0.6590 -0.4971
  523MPD2    C4 7767   2.185   1.429  10.443 -0.3522 -0.2933  0.0285
  523MPD2    C5 7768   2.275   1.352  10.511 -0.6205  0.2139  0.2726
  523MPD2     H 7769   2.089   1.192  10.221 -0.2929  1.7508 -0.3677
  523MPD2    H1 7770   2.162   1.517  10.501 -1.9998 -0.4559 -0.3859
  523MPD2    H2 7771   2.388   1.191  10.540 -1.0534 -0.0688  2.2353
  523MPD2    H3 7772   2.331   1.413  10.581  0.1134 -1.4256  1.1350
  523MPD2     N 7773   2.019   1.443  10.274 -0.7243  0.2378 -0.1656
  523MPD2    H5 7774   1.972   1.517  10.325 -3.1495  0.4421 -2.6637
  523MPD2    N1 7775   2.279   1.034  10.350 -0.9111 -0.6779 -0.7767
  523MPD2    H7 7776   2.342   0.987  10.415 -0.6544  1.2405  0.3944
  524TMC3    C1 7777   1.884   1.507  10.088  0.2619  0.5643 -0.3179
  524TMC3    C2 7778   1.879   1.505   9.951 -0.8009 -0.0241  0.0438
  524TMC3    C3 7779   1.800   1.596   9.884 -0.1022 -0.1915 -0.7476
  524TMC3    C4 7780   1.811   1.601  10.157  0.0033  0.4734 -0.2397
  524TMC3    C5 7781   1.727   1.686  10.086  0.1287  0.0042  0.7781
  524TMC3    C6 7782   1.730   1.687   9.953 -0.4926 -0.2722  0.3592
  524TMC3     C 7783   1.980   1.417  10.147  0.3548 -0.5370 -0.6871
  524TMC3     O 7784   2.006   1.329  10.070  0.1693  0.8236  0.3963
  524TMC3     H 7785   1.960   1.458   9.897 -0.2532  1.3893 -0.3525
  524TMC3    H1 7786   1.811   1.590  10.265  1.7655  0.2643 -0.2564
  524TMC3    H2 7787   1.669   1.761   9.901 -0.7873 -0.3988  0.5278
  524TMC3    C7 7788   1.618   1.748  10.156  0.7869 -0.5642 -0.6118
  524TMC3    C8 7789   1.767   1.582   9.746 -0.3901  0.3042  0.6521
  524TMC3    O1 7790   1.614   1.731  10.279  0.4494 -0.4239 -0.2737
  524TMC3    O2 7791   1.722   1.677   9.680 -0.2578  0.1590  0.2495
  525MPD2     C 7792   0.030   3.708  14.029 -0.4625  0.3583 -0.1342
  525MPD2    C1 7793   0.142   3.756  14.093 -0.0000  0.8244 -0.7736
  525MPD2    C2 7794   0.197   3.875  14.045  0.2513 -0.8750  0.9727
  525MPD2    C3 7795   0.133   3.957  13.959 -0.3443 -0.8299  0.1181
  525MPD2    C4 7796   0.013   3.920  13.915 -0.3720 -0.0240  0.0954
  525MPD2    C5 7797   4.690   3.797  13.950 -0.7516  0.7121 -0.1054
  525MPD2     H 7798   0.291   3.900  14.093 -0.0018  1.9239  0.0561
  525MPD2    H1 7799   4.688   3.983  13.843  0.9141  0.8729 -0.0039
  525MPD2    H2 7800   4.711   3.614  14.061  2.9725 -1.1078  0.2675
  525MPD2    H3 7801   4.595   3.769  13.907 -1.0227  0.7318  0.4808
  525MPD2     N 7802   0.199   4.071  13.905  0.3910  0.1400  0.0183
  525MPD2    H5 7803   0.154   4.152  13.863  1.9725  0.7229 -0.5254
  525MPD2    N1 7804   0.215   3.691  14.198 -0.2556 -0.3736  0.8010
  525MPD2    H7 7805   0.291   3.747  14.237  1.3165 -1.8397 -0.1605
  526TMC3    C1 7806   0.260   3.532  14.366  0.2709 -0.1934 -0.1848
  526TMC3    C2 7807   0.207   3.486  14.485 -0.0967  0.0635 -0.1119
  526TMC3    C3 7808   0.309   3.442  14.571  0.1772 -0.1389 -0.3765
  526TMC3    C4 7809   0.395   3.534  14.330 -0.2554 -0.4415 -0.0754
  526TMC3    C5 7810   0.491   3.487  14.419  0.2126 -1.3586 -0.2632
  526TMC3    C6 7811   0.443   3.455  14.539  0.9864  0.1795 -1.1070
  526TMC3     C 7812   0.174   3.575  14.266  0.7012 -0.4210 -0.1375
  526TMC3     O 7813   0.078   3.504  14.247  0.3217 -0.1095 -0.0387
  526TMC3     H 7814   0.102   3.496  14.509 -0.8039 -0.6517 -2.8427
  526TMC3    H1 7815   0.422   3.579  14.235  0.3030  1.0129  0.7693
  526TMC3    H2 7816   0.523   3.424  14.606  0.5414 -0.3974 -0.8407
  526TMC3    C7 7817   0.628   3.470  14.381 -0.1105 -0.5908  0.4751
  526TMC3    C8 7818   0.271   3.392  14.701 -0.2052 -0.0935 -0.1471
  526TMC3    O1 7819   0.674   3.559  14.306 -0.1935 -0.6779 -0.2210
  526TMC3    O2 7820   0.358   3.394  14.786  0.0089 -0.6632  0.3521
  527MPD2     C 7821   2.962   1.637   1.439 -0.0670 -0.4135 -0.0985
  527MPD2    C1 7822   3.065   1.575   1.512 -0.1673 -0.7496 -0.3349
  527MPD2    C2 7823   3.186   1.551   1.452  0.2056 -0.3406  0.9319
  527MPD2    C3 7824   3.210   1.596   1.324  0.1295 -0.0761 -0.0519
  527MPD2    C4 7825   3.112   1.665   1.251  0.9768 -0.4433 -0.1306
  527MPD2    C5 7826   2.986   1.678   1.314  0.0433  0.1722 -0.0460
  527MPD2     H 7827   3.266   1.516   1.516  1.4713  2.2369  0.7567
  527MPD2    H1 7828   3.128   1.698   1.149  1.9247 -3.0041 -0.8044
  527MPD2    H2 7829   2.857   1.643   1.468  0.2199  1.2022  0.6260
  527MPD2    H3 7830   2.905   1.712   1.251 -0.5219 -0.0110  0.5935
  527MPD2     N 7831   3.327   1.548   1.274 -0.0532 -0.2608  0.4608
  527MPD2    H5 7832   3.389   1.515   1.348  0.5509 -0.8343 -0.3005
  527MPD2    N1 7833   3.054   1.527   1.643 -0.0037 -0.5221 -0.2921
  527MPD2    H7 7834   3.134   1.475   1.679  0.8167  1.1198  0.2514
  528TMC3    C1 7835   2.977   1.471   1.851  0.2597  0.2848 -0.0802
  528TMC3    C2 7836   3.099   1.514   1.909 -0.4525  0.3660  0.1455
  528TMC3    C3 7837   3.188   1.427   1.967 -0.1331  0.4321  0.6773
  528TMC3    C4 7838   2.937   1.339   1.857 -0.0675  0.0623 -0.6989
  528TMC3    C5 7839   3.024   1.257   1.932  0.2903  0.1487  0.4958
  528TMC3    C6 7840   3.144   1.300   1.984 -0.1052 -0.4065  0.4340
  528TMC3     C 7841   2.942   1.512   1.718  0.1096  0.4087  0.5984
  528TMC3     O 7842   2.826   1.536   1.686  0.5387  0.3558  0.0680
  528TMC3     H 7843   3.122   1.620   1.905 -0.1095  0.2424 -1.2808
  528TMC3    H1 7844   2.845   1.298   1.817  0.9424 -2.2746 -0.6603
  528TMC3    H2 7845   3.207   1.219   2.018  0.5249 -0.1205 -0.0426
  528TMC3    C7 7846   3.002   1.114   1.951 -0.6344 -0.4829 -0.1021
  528TMC3    C8 7847   3.327   1.469   1.980  0.0354  0.5041 -0.7556
  528TMC3    O1 7848   3.095   1.036   1.930 -0.1278 -0.1408  0.3541
  528TMC3    O2 7849   3.351   1.585   1.948  0.4524  0.2643  0.1714
  529MPD2     C 7850   0.960   0.248   0.684 -0.4333  0.0364 -0.8951
  529MPD2    C1 7851   1.019   0.147   0.609  0.2209 -0.2650 -0.1732
  529MPD2    C2 7852   1.028   0.156   0.469 -0.6140  0.1256 -0.6453
  529MPD2    C3 7853   0.992   0.269   0.405  0.0162  0.2439 -0.1125
  529MPD2    C4 7854   0.955   0.376   0.481 -0.5920 -0.1310  0.0847
  529MPD2    C5 7855   0.939   0.370   0.620 -0.6352  0.6503 -0.6227
  529MPD2     H 7856   1.046   0.071   0.405  0.6628  0.3770 -0.6108
  529MPD2    H1 7857   0.935   0.472   0.436  1.5227  0.1096 -0.3363
  529MPD2    H2 7858   0.945   0.250   0.792 -3.2433 -1.5465 -1.2851
  529MPD2    H3 7859   0.910   0.466   0.661 -1.8065  0.8904 -2.0316
  529MPD2     N 7860   0.989   0.288   0.265 -0.0453  0.7170 -0.5147
  529MPD2    H5 7861   0.966   0.374   0.217 -1.6527  1.1009  0.9259
  529MPD2    N1 7862   1.052   0.022   0.674  0.2836 -0.1403  0.6715
  529MPD2    H7 7863   1.100   4.679   0.615 -1.0493 -1.1939  0.7759
  530TMC3    C1 7864   1.085   4.582   0.842  0.3274  0.0489 -0.1879
  530TMC3    C2 7865   1.161   4.548   0.950  0.1527  0.4932  0.3238
  530TMC3    C3 7866   1.150   4.422   0.993  0.1794  0.1915 -0.4110
  530TMC3    C4 7867   1.001   4.495   0.778 -0.3761 -0.2269 -0.1162
  530TMC3    C5 7868   0.987   4.372   0.837 -0.6344 -0.4840 -0.7023
  530TMC3    C6 7869   1.063   4.332   0.940  0.7153 -0.3133 -0.3742
  530TMC3     C 7870   1.070   0.003   0.806 -0.4341 -0.3219 -0.1149
  530TMC3     O 7871   1.053   0.078   0.902  0.5171 -0.3056  0.3203
  530TMC3     H 7872   1.221   4.625   0.997  1.5312  0.0453 -0.6981
  530TMC3    H1 7873   0.928   4.518   0.702 -1.1499 -1.4578  0.2715
  530TMC3    H2 7874   1.049   4.232   0.981  1.7176  0.6052  2.2648
  530TMC3    C7 7875   0.894   4.279   0.774  0.0094  0.1366  0.2022
  530TMC3    C8 7876   1.185   4.397   1.133 -0.1218 -0.2407 -0.0749
  530TMC3    O1 7877   0.866   4.297   0.656  0.6126 -0.1979  0.0632
  530TMC3    O2 7878   1.262   4.306   1.155  0.1516  0.1182 -0.6088
  531MPD2     C 7879   4.470   1.763  12.931  0.4295  0.2655  0.2495
  531MPD2    C1 7880   4.447   1.891  12.979 -0.1591 -0.3496  0.0347
  531MPD2    C2 7881   4.332   1.961  12.948  0.1673  0.5995  0.2530
  531MPD2    C3 7882   4.236   1.905  12.859 -0.0276  0.2622 -0.6725
  531MPD2    C4 7883   4.269   1.787  12.799  0.1932 -0.0144  0.2422
  531MPD2    C5 7884   4.381   1.711  12.841  0.6153  0.4835  0.8731
  531MPD2     H 7885   4.310   2.064  12.975  1.8159  0.7209  1.1160
  531MPD2    H1 7886   4.201   1.743  12.727 -1.2749 -0.7807  2.0842
  531MPD2    H2 7887   4.555   1.705  12.964  0.8419 -1.1177 -3.2063
  531MPD2    H3 7888   4.415   1.616  12.802  1.6347  1.4807 -0.7255
  531MPD2     N 7889   4.115   1.976  12.822 -0.1487  0.2380 -1.0304
  531MPD2    H5 7890   4.060   1.943  12.743 -0.7740 -0.8418 -0.1388
  531MPD2    N1 7891   4.546   1.945  13.065  0.2608 -0.4720 -0.6032
  531MPD2    H7 7892   4.630   1.892  13.083  1.1609  1.1518 -0.0208
  532TMC3    C1 7893   4.645   2.096  13.214  0.1593 -0.3151 -0.3320
  532TMC3    C2 7894   4.635   2.231  13.229 -0.4669 -0.9877 -0.8997
  532TMC3    C3 7895   4.627   2.286  13.355 -0.1503  0.4452 -0.5559
  532TMC3    C4 7896   4.651   2.013  13.326 -0.2243 -0.2373  0.2624
  532TMC3    C5 7897   4.643   2.069  13.453 -0.4714  0.0836 -0.3663
  532TMC3    C6 7898   4.628   2.202  13.467 -0.4734  0.5001  0.5295
  532TMC3     C 7899   4.548   2.074  13.112 -0.1614  0.6763 -0.3919
  532TMC3     O 7900   4.463   2.164  13.092 -0.1485  0.0588  0.2409
  532TMC3     H 7901   4.631   2.297  13.144  0.5486 -0.0432 -0.2196
  532TMC3    H1 7902   4.613   1.914  13.301 -0.1236 -0.1262 -0.3314
  532TMC3    H2 7903   4.627   2.252  13.563 -0.5164  3.0282 -0.7890
  532TMC3    C7 7904   0.009   2.003  13.544  0.7399 -0.1415 -0.0997
  532TMC3    C8 7905   4.515   2.377  13.373  1.4293  0.4293 -0.0853
  532TMC3    O1 7906   0.015   2.046  13.657 -0.2610  0.0464 -0.3754
  532TMC3    O2 7907   4.504   2.444  13.475 -0.1097 -0.4332 -0.3589
  533TMC3    C1 7908   0.375   4.232  13.911  0.4787 -0.1268  0.1335
  533TMC3    C2 7909   0.504   4.249  13.875 -0.4367  0.7918  0.1718
  533TMC3    C3 7910   0.571   4.352  13.945 -0.0878  0.7390 -0.0294
  533TMC3    C4 7911   0.317   4.301  14.014 -0.0783  0.1083 -0.4957
  533TMC3    C5 7912   0.390   4.384  14.087 -0.6844 -0.2709 -0.4621
  533TMC3    C6 7913   0.517   4.417  14.049  0.1771  0.6053 -0.4575
  533TMC3     C 7914   0.335   4.093  13.916  0.2602 -0.1065 -0.3634
  533TMC3     O 7915   0.422   4.011  13.937  0.7205  0.0283  0.7364
  533TMC3     H 7916   0.555   4.182  13.808 -0.2734 -0.7936  1.8897
  533TMC3    H1 7917   0.214   4.284  14.043 -0.2847  1.5637 -0.4198
  533TMC3    H2 7918   0.575   4.484  14.112 -0.6792 -0.3886  1.4170
  533TMC3    C7 7919   0.384   4.358  14.228 -0.3038 -0.1398 -0.1559
  533TMC3    C8 7920   0.710   4.330  13.972  0.6011 -0.2055 -0.2150
  533TMC3    O1 7921   0.278   4.354  14.289  0.7576  0.1325 -0.3770
  533TMC3    O2 7922   0.746   4.321  14.089  1.3999  0.2190 -0.1993
  534MPD2     C 7923   3.137   4.717   1.822 -0.0963 -0.1163 -0.8179
  534MPD2    C1 7924   3.122   0.084   1.718  0.1240  0.5921  0.6402
  534MPD2    C2 7925   3.041   0.048   1.616  0.3545 -0.5566  0.1605
  534MPD2    C3 7926   2.967   4.657   1.620 -0.0971 -0.1688  0.1823
  534MPD2    C4 7927   2.993   4.562   1.716  0.3146  0.6070  0.1207
  534MPD2    C5 7928   3.072   4.590   1.819 -0.4055  0.2282  0.3788
  534MPD2     H 7929   3.024   0.123   1.540  2.4192 -0.8528 -0.5960
  534MPD2    H1 7930   2.947   4.464   1.720  0.5771  0.6181  2.8964
  534MPD2    H2 7931   3.200   0.019   1.906 -1.4680  1.7319 -0.3715
  534MPD2    H3 7932   3.083   4.520   1.901 -0.7508 -0.0046  0.2190
  534MPD2     N 7933   2.860   4.624   1.528 -0.4729 -0.7186 -0.3095
  534MPD2    H5 7934   2.805   4.544   1.555 -1.4454  0.1827  0.3836
  534MPD2    N1 7935   3.167   0.217   1.726  0.3713  0.1626  0.2953
  534MPD2    H7 7936   3.131   0.284   1.659 -1.1208  0.4594  1.3755
  535TMC3    C1 7937   2.717   4.650   1.343  0.1348  0.3269  1.0283
  535TMC3    C2 7938   2.617   4.577   1.403  0.2400  0.4400  0.5240
  535TMC3    C3 7939   2.494   4.566   1.349  0.3095  0.0876  0.1105
  535TMC3    C4 7940   2.691   4.719   1.225  0.3900  0.9742  0.4372
  535TMC3    C5 7941   2.568   4.697   1.162  0.4230  0.2408 -0.2182
  535TMC3    C6 7942   2.469   4.624   1.225 -0.2143 -0.4119 -0.2958
  535TMC3     C 7943   2.840   4.684   1.404  0.2399  0.6618  0.4085
  535TMC3     O 7944   2.901   0.051   1.357  0.3864  0.6409  0.0320
  535TMC3     H 7945   2.643   4.522   1.493  2.5726  1.2272  0.3410
  535TMC3    H1 7946   2.766   0.049   1.169  0.0798  1.0216  0.0766
  535TMC3    H2 7947   2.372   4.608   1.179  0.3738  1.0912 -2.0809
  535TMC3    C7 7948   2.521   0.074   1.071  0.0801  0.1143  0.5444
  535TMC3    C8 7949   2.373   4.557   1.436 -0.2003  0.4597 -0.5497
  535TMC3    O1 7950   2.603   0.145   1.011 -0.4068  0.2628 -0.1438
  535TMC3    O2 7951   2.266   4.574   1.376 -0.0786 -0.1712  0.3326
  536MPD2     C 7952   1.864   3.909  16.913  0.1108 -0.9521  0.4280
  536MPD2    C1 7953   1.751   3.851  16.958  0.1432  0.0292  0.6236
  536MPD2    C2 7954   1.645   3.829  16.862  0.3526  0.4203 -0.1214
  536MPD2    C3 7955   1.663   3.871  16.730  0.3425  0.1981 -0.6739
  536MPD2    C4 7956   1.782   3.922  16.686 -0.1975 -0.0130  1.0497
  536MPD2    C5 7957   1.876   3.948  16.781 -0.3005 -0.4195  0.7922
  536MPD2     H 7958   1.550   3.788  16.894  1.5887 -0.5214  2.4275
  536MPD2    H1 7959   1.801   3.932  16.580 -1.8756  2.9751  1.0248
  536MPD2    H2 7960   1.949   3.937  16.974 -1.0886  1.9727  0.7602
  536MPD2    H3 7961   1.964   4.000  16.747 -0.1182  0.9525  3.3945
  536MPD2     N 7962   1.554   3.862  16.636  0.0680 -0.3098  0.1723
  536MPD2    H5 7963   1.574   3.890  16.541  3.3725 -0.5439  0.8026
  536MPD2    N1 7964   1.726   3.819  17.096 -0.1802 -0.1730  0.2374
  536MPD2    H7 7965   1.804   3.822  17.161  0.6828  1.7166 -0.8606
  537TMC3    C1 7966   1.621   3.704  17.266 -0.3061 -0.5119 -0.0169
  537TMC3    C2 7967   1.743   3.654  17.308  0.0177 -0.0217 -0.1129
  537TMC3    C3 7968   1.754   3.543  17.389  0.4132  0.0819 -0.2948
  537TMC3    C4 7969   1.510   3.642  17.313 -0.6711  0.4152 -0.2066
  537TMC3    C5 7970   1.527   3.536  17.401 -0.2134  0.1771 -0.4049
  537TMC3    C6 7971   1.644   3.488  17.445  0.1006  0.8711 -0.2944
  537TMC3     C 7972   1.605   3.788  17.148  0.3576  0.6494  0.8969
  537TMC3     O 7973   1.495   3.828  17.124 -0.0311  0.2899  0.3987
  537TMC3     H 7974   1.832   3.705  17.274  0.2565  1.2360  2.3330
  537TMC3    H1 7975   1.407   3.654  17.282 -0.3726 -0.0217 -1.3521
  537TMC3    H2 7976   1.648   3.421  17.530  2.2409 -0.1478 -1.1855
  537TMC3    C7 7977   1.416   3.440  17.408 -0.5149 -0.5276  0.1643
  537TMC3    C8 7978   1.873   3.489  17.426 -0.1877 -0.5375  0.0552
  537TMC3    O1 7979   1.304   3.479  17.382  0.2793  0.2908 -0.1674
  537TMC3    O2 7980   1.879   3.467  17.545 -0.6024 -0.4143  0.6075
  538TMC3    C1 7981   2.734   1.513  10.952  0.3249 -0.0529  0.2150
  538TMC3    C2 7982   2.777   1.411  10.866 -0.2194 -0.0559  0.8417
  538TMC3    C3 7983   2.688   1.374  10.773 -0.2138 -0.1676 -0.2575
  538TMC3    C4 7984   2.618   1.577  10.947 -0.5487  0.4645  0.0967
  538TMC3    C5 7985   2.528   1.524  10.854  0.2388 -0.5214  0.5149
  538TMC3    C6 7986   2.562   1.428  10.768  0.1218 -0.3725  0.5029
  538TMC3     C 7987   2.801   1.542  11.072 -0.0039 -0.7907  0.1743
  538TMC3     O 7988   2.769   1.644  11.134  0.0940  0.2977  0.6537
  538TMC3     H 7989   2.863   1.346  10.880 -1.4312 -1.7526  0.5068
  538TMC3    H1 7990   2.587   1.658  11.012 -2.3230 -0.9943  1.0731
  538TMC3    H2 7991   2.494   1.383  10.697 -1.6556  1.0907  1.2852
  538TMC3    C7 7992   2.386   1.559  10.861 -0.3508  0.4444 -0.3528
  538TMC3    C8 7993   2.725   1.276  10.671 -0.3257 -0.0209 -0.1945
  538TMC3    O1 7994   2.314   1.465  10.833 -0.0810 -0.1805 -0.5711
  538TMC3    O2 7995   2.639   1.209  10.622 -0.3431  0.4428  0.2031
  539MPD2     C 7996   2.873   1.065  11.998 -0.3996 -0.1268 -0.2215
  539MPD2    C1 7997   2.818   0.978  11.909 -0.7557  0.3231 -1.1659
  539MPD2    C2 7998   2.717   1.031  11.828 -0.6186  0.2521 -0.3422
  539MPD2    C3 7999   2.686   1.160  11.833 -0.6541  0.4078  0.3848
  539MPD2    C4 8000   2.746   1.244  11.922 -0.5510 -0.3716 -0.0688
  539MPD2    C5 8001   2.845   1.195  12.001  0.0154 -0.8753 -0.5297
  539MPD2     H 8002   2.667   0.968  11.755  0.9669  0.3746 -1.5398
  539MPD2    H1 8003   2.729   1.351  11.919  2.0039  0.0203 -1.2097
  539MPD2    H2 8004   2.958   1.028  12.054  0.8703  1.1044 -1.3228
  539MPD2    H3 8005   2.896   1.260  12.070  1.7487 -2.6239 -0.1556
  539MPD2     N 8006   2.580   1.216  11.758 -0.0461 -0.5699  0.1116
  539MPD2    H5 8007   2.561   1.313  11.779  0.6679 -0.2363 -0.7814
  539MPD2    N1 8008   2.865   0.845  11.891 -0.5768 -0.6254  0.3415
  539MPD2    H7 8009   2.816   0.788  11.822 -0.6851 -0.5124  0.3238
  540TMC3    C1 8010   2.386   1.246  11.623  0.5686 -1.0301  0.3412
  540TMC3    C2 8011   2.310   1.193  11.523 -0.5031 -0.0993  0.7894
  540TMC3    C3 8012   2.201   1.268  11.475 -0.1724  0.2704  0.0487
  540TMC3    C4 8013   2.364   1.370  11.667 -0.5424  0.9710  0.2062
  540TMC3    C5 8014   2.261   1.442  11.628  0.1096 -0.2065 -0.5338
  540TMC3    C6 8015   2.174   1.387  11.537  0.2437 -0.1151 -0.1326
  540TMC3     C 8016   2.487   1.154  11.676  0.7059 -0.3372  0.1841
  540TMC3     O 8017   2.497   1.044  11.628 -0.2099 -0.3239 -0.4016
  540TMC3     H 8018   2.340   1.108  11.463 -1.5361 -0.3681  0.6575
  540TMC3    H1 8019   2.435   1.407  11.739  0.7223  0.2094 -0.6305
  540TMC3    H2 8020   2.077   1.430  11.516 -0.0758 -0.7435  0.0305
  540TMC3    C7 8021   2.185   1.499  11.734 -0.6967  0.4984 -0.5733
  540TMC3    C8 8022   2.156   1.244  11.346 -0.0587  0.2002  0.4163
  540TMC3    O1 8023   2.067   1.462  11.738  0.0324  0.1463 -0.0225
  540TMC3    O2 8024   2.115   1.344  11.290 -0.1697  0.2738 -0.3880
  541MPD2     C 8025   1.424   2.122  13.388 -0.6324 -0.2914  0.2089
  541MPD2    C1 8026   1.315   2.204  13.408  1.0275 -0.1410 -0.0557
  541MPD2    C2 8027   1.249   2.260  13.299  0.0175  0.2765  1.2970
  541MPD2    C3 8028   1.283   2.215  13.170  0.0000 -0.6040 -0.3156
  541MPD2    C4 8029   1.384   2.116  13.155  0.1489 -0.3203 -0.0448
  541MPD2    C5 8030   1.457   2.074  13.264  0.6223 -0.9167 -0.2841
  541MPD2     H 8031   1.164   2.326  13.312 -1.3423 -1.0980 -0.5803
  541MPD2    H1 8032   1.406   2.082  13.054  1.1552 -1.2126  0.4707
  541MPD2    H2 8033   1.469   2.073  13.474 -0.2728 -0.7401 -0.2326
  541MPD2    H3 8034   1.522   1.992  13.240 -0.7653 -2.6543  1.8990
  541MPD2     N 8035   1.198   2.227  13.062 -0.0481 -0.3116  0.0417
  541MPD2    H5 8036   1.224   2.174  12.980 -0.5015  0.1834 -0.4193
  541MPD2    N1 8037   1.272   2.217  13.541 -0.2127  0.5060  0.0278
  541MPD2    H7 8038   1.298   2.141  13.602 -1.1235 -1.5826 -2.2139
  542TMC3    C1 8039   1.021   2.324  12.945  0.4694  0.4201 -0.9784
  542TMC3    C2 8040   1.030   2.224  12.852 -0.1992  0.2473 -0.0917
  542TMC3    C3 8041   0.954   2.232  12.738  0.0720  0.6535 -0.5583
  542TMC3    C4 8042   0.921   2.424  12.928 -0.4175 -0.4479 -0.1634
  542TMC3    C5 8043   0.837   2.419  12.824 -0.0608  0.1636 -0.1990
  542TMC3    C6 8044   0.853   2.327  12.724 -0.5225  0.1320  0.1267
  542TMC3     C 8045   1.113   2.332  13.052 -0.0083  0.3082 -0.0806
  542TMC3     O 8046   1.124   2.430  13.119  0.0636  0.1764  0.0167
  542TMC3     H 8047   1.105   2.147  12.865 -0.4144  0.0935  0.2408
  542TMC3    H1 8048   0.912   2.504  13.000  0.2805 -0.8854  0.4170
  542TMC3    H2 8049   0.779   2.317  12.645  0.2981  0.4582 -0.6792
  542TMC3    C7 8050   0.769   2.543  12.798  0.2708 -0.2131 -0.7197
  542TMC3    C8 8051   1.001   2.167  12.615  0.5074 -0.6720  0.0231
  542TMC3    O1 8052   0.755   2.623  12.890 -0.0825  0.0274 -0.2764
  542TMC3    O2 8053   0.926   2.184  12.517 -0.1261  0.0705 -0.1361
  543TMC3    C1 8054   0.067   4.035   0.056  0.9273  1.1369  0.4678
  543TMC3    C2 8055   0.051   3.900   0.070 -0.0769 -0.2055 -0.9665
  543TMC3    C3 8056   0.094   3.843   0.190  0.1149  0.6620  0.2753
  543TMC3    C4 8057   0.136   4.114   0.145 -0.0533 -0.1398  0.7774
  543TMC3    C5 8058   0.188   4.049   0.247  0.5926 -0.4055  0.2138
  543TMC3    C6 8059   0.163   3.917   0.276  0.7847 -0.0393  0.3119
  543TMC3     C 8060   0.069   4.074  17.615  0.3732  0.4298  0.1459
  543TMC3     O 8061   0.147   4.163  17.586  0.3131 -0.3799 -0.5199
  543TMC3     H 8062   0.004   3.847  17.688 -0.4783 -1.6684  0.2143
  543TMC3    H1 8063   0.153   4.219   0.122  0.6287 -0.3602  0.2502
  543TMC3    H2 8064   0.186   3.870   0.370 -0.6169  1.1184  1.2279
  543TMC3    C7 8065   0.278   4.112   0.344  0.5455 -0.2101 -0.5932
  543TMC3    C8 8066   0.102   3.698   0.191 -0.4306  0.4020 -0.6479
  543TMC3    O1 8067   0.364   4.041   0.392  0.1950  0.2491  0.0742
  543TMC3    O2 8068   0.007   3.639   0.142 -0.1839  0.1521 -0.2744
  544MPD2     C 8069   0.396   3.263   0.210  0.4170 -0.4082  0.1235
  544MPD2    C1 8070   0.271   3.282   0.157 -0.7390 -0.3700 -0.4725
  544MPD2    C2 8071   0.212   3.414   0.161  0.0054  0.3828 -0.7906
  544MPD2    C3 8072   0.279   3.516   0.226  0.4664  0.6586 -0.0227
  544MPD2    C4 8073   0.407   3.497   0.276  0.2080 -0.0297 -0.3447
  544MPD2    C5 8074   0.462   3.374   0.261 -0.2139  0.0703 -0.5742
  544MPD2     H 8075   0.120   3.430   0.105 -0.5506 -1.2287 -0.3418
  544MPD2    H1 8076   0.444   3.584   0.330 -0.6631  0.3863 -0.4178
  544MPD2    H2 8077   0.440   3.165   0.222  1.4968  0.0924  0.2184
  544MPD2    H3 8078   0.556   3.356   0.311 -1.0780 -1.8346  0.4072
  544MPD2     N 8079   0.226   3.649   0.238  0.8696  0.1606  0.0752
  544MPD2    H5 8080   0.290   3.721   0.268  1.6959 -0.4880 -0.1183
  544MPD2    N1 8081   0.218   3.180   0.077  0.0332 -1.0676  0.7533
  544MPD2    H7 8082   0.281   3.102   0.059  0.9971 -0.1669  0.1583
  545TMC3    C1 8083   0.077   3.074  17.638 -0.1881 -0.1110 -0.6849
  545TMC3    C2 8084   4.674   3.029  17.619 -0.2306 -0.5615 -0.6775
  545TMC3    C3 8085   4.651   2.924  17.536  0.2485  0.0635  0.1931
  545TMC3    C4 8086   0.183   2.989  17.606 -0.2599 -0.2386 -0.0547
  545TMC3    C5 8087   0.159   2.873  17.532 -0.6633 -0.7425  0.4974
  545TMC3    C6 8088   0.033   2.847  17.491  0.2147 -0.3717 -0.7250
  545TMC3     C 8089   0.095   3.188   0.021 -0.0581  0.2931 -0.2064
  545TMC3     O 8090   4.719   3.251   0.051  0.0796  0.2419 -0.0419
  545TMC3     H 8091   4.588   3.083  17.657 -1.0311 -1.4365 -1.2608
  545TMC3    H1 8092   0.286   3.013  17.626 -0.7498 -0.7352  3.1233
  545TMC3    H2 8093   0.019   2.762  17.426  0.9944 -0.4513 -0.7938
  545TMC3    C7 8094   0.263   2.771  17.531 -0.2117  0.2117 -0.1629
  545TMC3    C8 8095   4.508   2.889  17.501  0.6609  0.4528 -0.4904
  545TMC3    O1 8096   0.282   2.711  17.427  0.0476  0.5869  0.5304
  545TMC3    O2 8097   4.430   2.928  17.587 -0.1064  0.1086  0.0134
  546MPD2     C 8098   1.581   3.772   0.088  0.2223 -0.1803 -0.1247
  546MPD2    C1 8099   1.491   3.813  17.683  0.4232  0.1047 -0.0839
  546MPD2    C2 8100   1.531   3.898  17.581  0.3196  0.1949  0.1206
  546MPD2    C3 8101   1.661   3.946  17.577  0.3486  0.4413  0.6173
  546MPD2    C4 8102   1.751   3.903  17.674  0.4613  0.7740  0.1652
  546MPD2    C5 8103   1.711   3.813   0.077  0.0710 -0.0238  0.1840
  546MPD2     H 8104   1.459   3.919  17.503 -0.2424 -1.2632  0.2500
  546MPD2    H1 8105   1.852   3.941  17.675  0.0454  1.8335  1.6946
  546MPD2    H2 8106   1.548   3.700   0.163  1.4818 -1.0735 -0.4222
  546MPD2    H3 8107   1.778   3.786   0.158 -0.4245 -0.9415  0.2839
  546MPD2     N 8108   1.709   4.042  17.489  0.0305  0.5374  0.0315
  546MPD2    H5 8109   1.795   4.085  17.521  1.2103 -1.6973 -0.1319
  546MPD2    N1 8110   1.366   3.745  17.682  0.6753  0.1230  0.1195
  546MPD2    H7 8111   1.338   3.693   0.065 -0.2645  0.0688 -0.2313
  547TMC3    C1 8112   1.166   3.660  17.612  0.0095  0.1165  0.0573
  547TMC3    C2 8113   1.047   3.680  17.542 -0.0376 -0.4225  0.0781
  547TMC3    C3 8114   0.961   3.577  17.554 -0.2819 -0.5096  0.2511
  547TMC3    C4 8115   1.188   3.547  17.689  0.0197 -0.4857  0.4104
  547TMC3    C5 8116   1.097   3.442  17.688  0.8617 -0.8489  0.4166
  547TMC3    C6 8117   0.978   3.461  17.622  0.8392  0.1032  0.1291
  547TMC3     C 8118   1.273   3.745  17.581 -0.1832 -0.6820  0.8429
  547TMC3     O 8119   1.258   3.807  17.476 -0.0790 -0.8969  1.0284
  547TMC3     H 8120   1.026   3.774  17.494 -0.2772  0.0227  1.0582
  547TMC3    H1 8121   1.288   3.516   0.017  0.5847  0.9424 -0.0416
  547TMC3    H2 8122   0.899   3.388  17.636 -0.2579  1.3307  0.3388
  547TMC3    C7 8123   1.106   3.333   0.087 -0.1127  0.2848 -0.3415
  547TMC3    C8 8124   0.877   3.572  17.434 -0.5811  0.0837 -0.1002
  547TMC3    O1 8125   1.183   3.356   0.181 -0.1944  0.1141 -0.2121
  547TMC3    O2 8126   0.839   3.677  17.386 -0.0790  0.0360  0.1064
  548MPD2     C 8127   1.842   4.107  12.704 -0.0717  0.1203  0.6883
  548MPD2    C1 8128   1.780   3.985  12.682 -0.3102 -0.3946  0.1141
  548MPD2    C2 8129   1.845   3.888  12.605 -0.0730 -0.2197  0.3329
  548MPD2    C3 8130   1.976   3.905  12.559  0.1758  0.8468  0.1656
  548MPD2    C4 8131   2.035   4.029  12.586 -0.4554 -0.0185 -0.2636
  548MPD2    C5 8132   1.968   4.125  12.653 -0.4116  0.3571 -0.0665
  548MPD2     H 8133   1.805   3.789  12.587 -1.6526  0.5143 -0.2336
  548MPD2    H1 8134   2.141   4.041  12.565 -0.7209 -1.0580 -2.2761
  548MPD2    H2 8135   1.796   4.191  12.754  0.1990 -0.0034  1.1410
  548MPD2    H3 8136   2.023   4.218  12.662 -0.0174 -0.0239  1.4361
  548MPD2     N 8137   2.033   3.805  12.486 -0.7182  0.5039 -0.4995
  548MPD2    H5 8138   1.978   3.720  12.477  0.7318 -0.5593  0.7797
  548MPD2    N1 8139   1.648   3.971  12.730 -0.5703 -0.1740 -0.1646
  548MPD2    H7 8140   1.599   4.050  12.772  1.4371  0.7367  0.4459
  549TMC3    C1 8141   1.429   3.867  12.706 -0.1817  0.0446  0.1056
  549TMC3    C2 8142   1.380   3.989  12.680 -0.1684  0.1574 -0.5140
  549TMC3    C3 8143   1.249   3.996  12.652 -0.2430 -1.1735 -0.8251
  549TMC3    C4 8144   1.354   3.750  12.705  0.3910  0.6913 -0.8663
  549TMC3    C5 8145   1.219   3.764  12.689 -0.0654 -0.1825 -0.0390
  549TMC3    C6 8146   1.169   3.888  12.661 -0.4186 -0.1206 -0.7768
  549TMC3     C 8147   1.576   3.855  12.725 -1.0393  0.5311 -0.5104
  549TMC3     O 8148   1.624   3.743  12.718  0.6261 -0.0924  0.0677
  549TMC3     H 8149   1.439   4.076  12.654 -0.5091  1.0640  1.7924
  549TMC3    H1 8150   1.398   3.652  12.719  3.6435  2.1818 -0.6896
  549TMC3    H2 8151   1.063   3.899  12.639 -0.5053 -0.3031 -0.4658
  549TMC3    C7 8152   1.131   3.649  12.699  0.4989  0.5683  0.3333
  549TMC3    C8 8153   1.186   4.118  12.607  0.0388 -0.5387 -0.0483
  549TMC3    O1 8154   1.031   3.670  12.637 -0.2495  0.6196 -0.3543
  549TMC3    O2 8155   1.067   4.114  12.586  0.3093  0.3703  0.7429
  550TMC3    C1 8156   0.334   1.885  12.852  0.2240 -0.7442 -0.3756
  550TMC3    C2 8157   0.263   1.999  12.859 -0.5353 -0.2794  0.1739
  550TMC3    C3 8158   0.132   1.997  12.821 -0.1499  0.4932 -0.6809
  550TMC3    C4 8159   0.276   1.767  12.811  0.7233  1.3871 -0.3469
  550TMC3    C5 8160   0.142   1.767  12.788  0.0757 -0.1954  0.8771
  550TMC3    C6 8161   0.065   1.883  12.786  0.5852  0.1168 -0.0455
  550TMC3     C 8162   0.469   1.910  12.809 -0.9291 -0.5983  0.0954
  550TMC3     O 8163   0.547   1.968  12.883 -0.6291 -0.2648 -0.0513
  550TMC3     H 8164   0.315   2.090  12.887  1.1864 -0.8618 -1.0768
  550TMC3    H1 8165   0.331   1.673  12.814  0.9798  1.5208 -0.8823
  550TMC3    H2 8166   4.683   1.880  12.763  0.9389 -0.7197 -1.5670
  550TMC3    C7 8167   0.078   1.648  12.738 -0.1736 -0.2398  0.0283
  550TMC3    C8 8168   0.053   2.118  12.840  0.1446  0.3022  0.2457
  550TMC3    O1 8169   0.106   1.539  12.784 -0.2326  0.6829  0.5504
  550TMC3    O2 8170   0.101   2.215  12.897  0.6250  0.0621  0.1166
  551TMC3    C1 8171   2.500   4.588  13.469  0.5729  0.1636 -0.5272
  551TMC3    C2 8172   2.548   4.664  13.365  0.0785 -0.4356  0.1321
  551TMC3    C3 8173   2.570   0.070  13.398  0.8516 -0.0716  0.2714
  551TMC3    C4 8174   2.500   4.624  13.600 -0.0282  0.1742 -0.3399
  551TMC3    C5 8175   2.531   0.036  13.622 -0.2685  0.8314 -0.1709
  551TMC3    C6 8176   2.558   0.122  13.524 -0.0256  0.2149 -0.1167
  551TMC3     C 8177   2.401   4.491  13.418  0.2756  1.3082 -0.2409
  551TMC3     O 8178   2.371   4.506  13.297  0.0126 -0.1296 -0.3090
  551TMC3     H 8179   2.551   4.628  13.262  0.4901  1.6451 -0.5855
  551TMC3    H1 8180   2.491   4.553  13.681 -0.8197  1.9122  1.1053
  551TMC3    H2 8181   2.548   0.227  13.547 -1.1779  0.0233  0.2514
  551TMC3    C7 8182   2.551   0.076  13.761 -0.4942 -0.2932  0.5801
  551TMC3    C8 8183   2.593   0.170  13.288 -0.7778  0.8560  0.2536
  551TMC3    O1 8184   2.519   0.000  13.847 -0.3442  0.2561  0.2039
  551TMC3    O2 8185   2.567   0.288  13.305 -0.1236 -0.0329  0.3672
  552MPD2     C 8186   4.284   1.949  13.962 -0.2677  0.4105 -0.2034
  552MPD2    C1 8187   4.424   1.944  13.957 -0.3236 -0.5841 -0.3065
  552MPD2    C2 8188   4.499   1.992  14.058  0.2413 -0.3639 -0.1400
  552MPD2    C3 8189   4.443   2.047  14.177  0.3943 -0.4224 -0.1473
  552MPD2    C4 8190   4.307   2.058  14.177 -0.2005  0.6017 -0.1957
  552MPD2    C5 8191   4.228   2.015  14.071  0.4064 -0.0643 -0.5216
  552MPD2     H 8192   4.607   1.993  14.050  0.1977  1.8335 -0.3181
  552MPD2    H1 8193   4.263   2.111  14.260 -2.9415  3.4885 -3.4663
  552MPD2    H2 8194   4.226   1.900  13.885  0.7335 -1.0643 -0.0202
  552MPD2    H3 8195   4.122   2.034  14.085  0.2741 -0.2763 -1.2144
  552MPD2     N 8196   4.511   2.109  14.286  0.6543  0.2989 -0.5143
  552MPD2    H5 8197   4.460   2.155  14.361  0.6068 -0.5373 -0.0331
  552MPD2    N1 8198   4.495   1.887  13.848  0.5657  0.5402  0.2258
  552MPD2    H7 8199   4.594   1.910  13.846  1.5501 -3.8218 -2.3724
  553TMC3    C1 8200   4.551   1.740  13.686 -0.2378  0.4419 -0.1481
  553TMC3    C2 8201   4.520   1.707  13.559  0.1335  0.0326 -0.2659
  553TMC3    C3 8202   4.614   1.620  13.506 -0.2643 -0.7051  0.3106
  553TMC3    C4 8203   4.654   1.696  13.765 -0.3709 -0.6849 -0.2968
  553TMC3    C5 8204   0.002   1.599  13.708 -0.0864 -0.5690  0.8877
  553TMC3    C6 8205   4.708   1.559  13.579  0.1740  0.1546 -0.3545
  553TMC3     C 8206   4.446   1.808  13.748  0.4128 -0.2964 -0.3805
  553TMC3     O 8207   4.331   1.776  13.716 -0.6899  0.1694  0.0918
  553TMC3     H 8208   4.434   1.743  13.503  3.1258  2.1877 -3.4462
  553TMC3    H1 8209   4.649   1.715  13.871 -0.1329 -1.2917 -0.1775
  553TMC3    H2 8210   0.048   1.490  13.527  0.4112  0.4388 -0.4379
  553TMC3    C7 8211   0.111   1.549  13.785  0.0814 -0.8558  0.3935
  553TMC3    C8 8212   4.604   1.580  13.371 -0.0103  0.0297  0.5600
  553TMC3    O1 8213   0.125   1.602  13.894 -0.1021 -0.0326  0.0565
  553TMC3    O2 8214   4.710   1.572  13.312 -0.3301  0.3312 -0.5406
  554TMC3    C1 8215   1.475   0.596  11.881 -0.1465  0.8063  0.5658
  554TMC3    C2 8216   1.440   0.543  11.761 -0.1313  0.2790  0.1840
  554TMC3    C3 8217   1.521   0.559  11.651 -0.7010 -0.8327 -0.1025
  554TMC3    C4 8218   1.579   0.685  11.885  0.3781 -0.0690  0.7646
  554TMC3    C5 8219   1.647   0.709  11.769  0.4689  0.6225 -0.0853
  554TMC3    C6 8220   1.623   0.648  11.653 -0.3601 -0.5865 -0.3553
  554TMC3     C 8221   1.442   0.521  12.009  0.2979 -0.8191  0.6878
  554TMC3     O 8222   1.336   0.460  11.997  0.4543 -0.0824 -0.3996
  554TMC3     H 8223   1.349   0.486  11.768 -0.1083  0.1365 -0.7169
  554TMC3    H1 8224   1.597   0.747  11.972  0.9118  0.9345 -0.0595
  554TMC3    H2 8225   1.689   0.651  11.567  0.7285  0.9229  0.5419
  554TMC3    C7 8226   1.701   0.840  11.765  0.1439  0.0823 -0.1553
  554TMC3    C8 8227   1.490   0.495  11.525 -0.2401  0.7904 -0.6942
  554TMC3    O1 8228   1.745   0.888  11.868 -0.9120  0.3418 -0.4040
  554TMC3    O2 8229   1.529   0.556  11.425 -0.3447 -0.1720  0.6371
  555TMC3    C1 8230   0.562   0.257  14.920 -0.5585  0.5531  0.3602
  555TMC3    C2 8231   0.541   0.376  14.976  0.3354  0.5237 -0.3330
  555TMC3    C3 8232   0.541   0.373  15.107  0.0497 -0.2703  0.2287
  555TMC3    C4 8233   0.586   0.140  14.985 -0.0267  0.2259 -0.6444
  555TMC3    C5 8234   0.603   0.145  15.123 -0.1440 -0.0772  0.3094
  555TMC3    C6 8235   0.569   0.262  15.185  0.5066  0.0925  0.3907
  555TMC3     C 8236   0.551   0.245  14.777 -0.2700  0.7088 -0.3135
  555TMC3     O 8237   0.593   0.148  14.715  0.0702  0.2204 -0.3993
  555TMC3     H 8238   0.526   0.469  14.922 -0.4570  0.7911  0.3558
  555TMC3    H1 8239   0.571   0.050  14.927 -0.7439  0.0817 -0.2394
  555TMC3    H2 8240   0.575   0.279  15.292  0.1327  2.3755  0.0440
  555TMC3    C7 8241   0.576   0.031  15.204 -0.1715  0.5873 -0.4810
  555TMC3    C8 8242   0.513   0.502  15.167  0.2456 -0.3618 -0.8689
  555TMC3    O1 8243   0.558   0.049  15.321  0.4398  0.0167 -0.1593
  555TMC3    O2 8244   0.457   0.589  15.097  0.6887 -0.2305  0.7058
  556MPD2     C 8245   3.555   2.085  10.631 -0.2586 -0.2537  0.0931
  556MPD2    C1 8246   3.585   1.957  10.647 -0.5861  0.2759  0.9984
  556MPD2    C2 8247   3.582   1.875  10.539 -0.2442  0.3743  0.1725
  556MPD2    C3 8248   3.552   1.924  10.421 -0.9881  0.2895  0.2413
  556MPD2    C4 8249   3.515   2.050  10.401  0.5642 -0.6123  0.2729
  556MPD2    C5 8250   3.517   2.132  10.510 -0.4407 -1.0214  0.4949
  556MPD2     H 8251   3.625   1.777  10.556 -1.0188  0.1637  0.9008
  556MPD2    H1 8252   3.479   2.088  10.306  3.6714 -0.2155 -0.7646
  556MPD2    H2 8253   3.564   2.146  10.720  1.8767 -1.4056  0.6778
  556MPD2    H3 8254   3.499   2.238  10.497  1.2232 -0.8830 -0.7766
  556MPD2     N 8255   3.542   1.825  10.320  0.1361  0.5705  0.5270
  556MPD2    H5 8256   3.560   1.728  10.344  2.5048  0.5813 -1.2259
  556MPD2    N1 8257   3.614   1.904  10.774  0.0233  0.4503 -0.0559
  556MPD2    H7 8258   3.656   1.812  10.774 -2.0149 -0.4644 -1.7125
  557TMC3    C1 8259   3.452   1.713  10.146 -0.7226 -0.5329  0.0762
  557TMC3    C2 8260   3.516   1.653  10.042  0.5479 -0.7470  0.2265
  557TMC3    C3 8261   3.482   1.522  10.016 -0.3542  0.1361  0.3438
  557TMC3    C4 8262   3.375   1.648  10.232 -0.2993  0.1906 -0.2346
  557TMC3    C5 8263   3.343   1.521  10.209 -0.2695  0.3078  0.0513
  557TMC3    C6 8264   3.401   1.454  10.109 -0.1416  0.3666  0.1243
  557TMC3     C 8265   3.500   1.842  10.193 -0.1802 -0.9698  0.4252
  557TMC3     O 8266   3.464   1.939  10.127  0.0124  0.0022  0.7434
  557TMC3     H 8267   3.590   1.707   9.986 -0.5281  1.3578  0.8401
  557TMC3    H1 8268   3.311   1.699  10.304 -3.5223 -3.0192 -0.8160
  557TMC3    H2 8269   3.381   1.349  10.090 -0.4887  0.1975  1.4080
  557TMC3    C7 8270   3.241   1.463  10.302  0.2200  0.5039 -0.5697
  557TMC3    C8 8271   3.547   1.445   9.907  0.0935 -0.5146 -0.1640
  557TMC3    O1 8272   3.204   1.534  10.395 -0.6110  0.0783  0.1615
  557TMC3    O2 8273   3.662   1.472   9.875 -0.1348 -0.4827 -0.6549
  558TMC3    C1 8274   1.781   4.592  10.451 -0.2422 -0.1480  0.2021
  558TMC3    C2 8275   1.671   4.546  10.515 -0.4020  0.2506  0.2046
  558TMC3    C3 8276   1.555   4.543  10.440 -0.4677 -0.2687  0.2810
  558TMC3    C4 8277   1.785   4.634  10.323 -0.7567 -0.3633 -0.8380
  558TMC3    C5 8278   1.665   4.633  10.251  0.0160  0.0122 -0.0685
  558TMC3    C6 8279   1.552   4.598  10.312  0.3491  0.0325 -0.2373
  558TMC3     C 8280   1.896   4.512  10.488 -0.1716  0.6757  0.2169
  558TMC3     O 8281   1.934   4.513  10.606  0.2314  0.3830  0.0637
  558TMC3     H 8282   1.686   4.491  10.608 -2.6671  2.6685  1.9958
  558TMC3    H1 8283   1.873   4.677  10.277 -0.1645 -1.4491 -0.7040
  558TMC3    H2 8284   1.459   4.606  10.257 -0.5817  1.4211  1.5411
  558TMC3    C7 8285   1.689   4.563  10.125 -0.6091 -0.0403  0.0182
  558TMC3    C8 8286   1.438   4.464  10.472  0.3378 -1.2261 -0.6570
  558TMC3    O1 8287   1.798   4.588  10.076 -0.6706 -0.2662  0.1084
  558TMC3    O2 8288   1.363   4.443  10.379 -0.7730  0.1466  0.3496
  559MPD2     C 8289   1.308   4.702  10.874  0.0292  0.6433  0.4134
  559MPD2    C1 8290   1.253   4.662  10.994  0.6108  0.1135  0.3660
  559MPD2    C2 8291   1.331   4.684  11.109  0.4238 -0.4770 -0.2006
  559MPD2    C3 8292   1.457   0.017  11.104 -0.0688  1.1202 -0.4590
  559MPD2    C4 8293   1.503   0.052  10.978 -0.1701 -0.5408  0.0463
  559MPD2    C5 8294   1.433   0.030  10.867 -0.1915 -0.3613  0.1260
  559MPD2     H 8295   1.288   4.655  11.205 -0.1998  1.9264  0.2477
  559MPD2    H1 8296   1.602   0.093  10.966  0.0054 -1.4819 -1.6052
  559MPD2    H2 8297   1.253   4.676  10.785 -0.6418 -1.4774  1.4541
  559MPD2    H3 8298   1.477   0.052  10.770 -1.9779  1.1504 -0.3381
  559MPD2     N 8299   1.520   0.059  11.229 -0.2461  0.5372  0.0674
  559MPD2    H5 8300   1.471   0.039  11.315 -1.1184 -0.8738 -0.7628
  559MPD2    N1 8301   1.122   4.607  11.000 -0.5549 -0.0534 -0.1948
  559MPD2    H7 8302   1.066   4.638  10.921 -1.9308 -0.8517  0.4767
  560TMC3    C1 8303   1.682   0.143  11.383  0.5339 -0.5501  0.7896
  560TMC3    C2 8304   1.589   0.116  11.481  0.5573 -0.5791  0.5367
  560TMC3    C3 8305   1.634   0.057  11.600 -0.2994  0.7879 -0.2084
  560TMC3    C4 8306   1.815   0.155  11.416  0.0883 -0.2725  0.1583
  560TMC3    C5 8307   1.856   0.097  11.533  0.5703  0.2190  0.0654
  560TMC3    C6 8308   1.768   0.035  11.622  0.0563 -0.8271  0.3692
  560TMC3     C 8309   1.649   0.110  11.242 -0.3069  0.2385  0.3231
  560TMC3     O 8310   1.739   0.133  11.165  0.1600  0.2143 -0.6198
  560TMC3     H 8311   1.485   0.118  11.452  0.6949 -0.5751  0.0497
  560TMC3    H1 8312   1.888   0.185  11.342 -0.1938 -0.0558 -0.0354
  560TMC3    H2 8313   1.806   4.702  11.706 -0.3686  1.3688  2.0894
  560TMC3    C7 8314   1.971   0.157  11.605  0.3270 -0.1796  0.4184
  560TMC3    C8 8315   1.532   4.693  11.658  0.2760  0.8493 -0.3145
  560TMC3    O1 8316   2.035   0.083  11.675  0.1276  0.3054 -0.2025
  560TMC3    O2 8317   1.426   4.688  11.596  0.6826  0.8989 -0.3895
  561TMC3    C1 8318   3.742   3.762  12.150 -0.2786 -0.5337 -0.2059
  561TMC3    C2 8319   3.687   3.762  12.277  0.6621 -0.5188 -0.4910
  561TMC3    C3 8320   3.669   3.874  12.340 -1.0400  0.6103 -0.1425
  561TMC3    C4 8321   3.778   3.882  12.096 -0.8047  0.4510  0.1185
  561TMC3    C5 8322   3.758   3.993  12.165  0.5464  0.7164  0.5087
  561TMC3    C6 8323   3.699   3.996  12.286 -0.3191  0.6662 -0.4841
  561TMC3     C 8324   3.755   3.637  12.073  0.5844  0.2881 -0.2199
  561TMC3     O 8325   3.717   3.544  12.142  0.0980  0.5785 -0.2244
  561TMC3     H 8326   3.640   3.671  12.312 -0.1796  0.9319  2.1363
  561TMC3    H1 8327   3.793   3.894  11.989  0.3864 -0.7440  0.1453
  561TMC3    H2 8328   3.666   4.086  12.335 -3.1972 -0.8156  0.3278
  561TMC3    C7 8329   3.793   4.128  12.115 -0.1116  0.4740  0.0191
  561TMC3    C8 8330   3.612   3.855  12.475 -0.5040  0.3632 -0.4244
  561TMC3    O1 8331   3.730   4.224  12.156  0.2225 -0.7233  0.1011
  561TMC3    O2 8332   3.639   3.747  12.534  0.0110  0.3326  0.0429
  562TMC3    C1 8333   0.333   0.929  16.285  0.2284 -0.3350 -0.6479
  562TMC3    C2 8334   0.298   1.063  16.295  0.7707 -0.2600 -0.2688
  562TMC3    C3 8335   0.219   1.113  16.196 -0.5493 -1.2139  0.0762
  562TMC3    C4 8336   0.284   0.852  16.188 -0.0825 -0.3584 -0.8517
  562TMC3    C5 8337   0.192   0.900  16.099 -0.0656 -0.4905  0.0563
  562TMC3    C6 8338   0.160   1.041  16.097 -0.1717 -0.2916 -0.0179
  562TMC3     C 8339   0.432   0.872  16.371  1.0666  0.0239 -0.6353
  562TMC3     O 8340   0.431   0.754  16.395 -0.1429  0.0899  0.0796
  562TMC3     H 8341   0.339   1.118  16.379 -0.0229  0.0498 -0.0849
  562TMC3    H1 8342   0.313   0.747  16.186  1.1017 -0.0500 -0.4566
  562TMC3    H2 8343   0.088   1.075  16.024 -0.9180 -0.4980  0.6196
  562TMC3    C7 8344   0.176   0.828  15.976  0.2654  0.7722 -0.3185
  562TMC3    C8 8345   0.204   1.256  16.202  0.8622  0.0413  0.2867
  562TMC3    O1 8346   0.130   0.888  15.881  0.6772 -0.1590  0.0570
  562TMC3    O2 8347   0.247   1.309  16.300  0.1849 -0.7442  0.1653
  563MPD2     C 8348   2.702   2.435  15.504  0.9623  0.0708 -0.4854
  563MPD2    C1 8349   2.730   2.467  15.633  0.2267  0.6586  0.1796
  563MPD2    C2 8350   2.860   2.507  15.662 -0.5614 -0.0542  0.2324
  563MPD2    C3 8351   2.956   2.518  15.565 -0.0483  0.3331 -0.4092
  563MPD2    C4 8352   2.920   2.498  15.432  0.1966  0.4502 -0.1207
  563MPD2    C5 8353   2.799   2.449  15.402 -0.4882 -0.5463 -0.7343
  563MPD2     H 8354   2.889   2.527  15.764 -0.1455  1.1960 -0.1325
  563MPD2    H1 8355   3.005   2.503  15.365  0.1706  1.3339 -0.0795
  563MPD2    H2 8356   2.599   2.418  15.473  0.3384  2.9737 -0.0338
  563MPD2    H3 8357   2.779   2.436  15.297  0.5654 -1.7170 -0.8004
  563MPD2     N 8358   3.081   2.545  15.611  0.3627  0.1153  0.1778
  563MPD2    H5 8359   3.100   2.538  15.710  1.0004 -2.1520 -0.1019
  563MPD2    N1 8360   2.626   2.464  15.721  0.0924 -0.5572 -0.6126
  563MPD2    H7 8361   2.539   2.427  15.687 -0.5495  1.4165 -1.1276
  564TMC3    C1 8362   2.530   2.434  15.941  0.0142 -0.3347  0.4588
  564TMC3    C2 8363   2.429   2.373  15.874  0.2939  0.1104 -0.2806
  564TMC3    C3 8364   2.331   2.317  15.957 -0.2951 -0.6445  0.2385
  564TMC3    C4 8365   2.537   2.453  16.076 -1.2538  1.0522  0.1738
  564TMC3    C5 8366   2.441   2.405  16.151 -0.7704  0.0925  0.0717
  564TMC3    C6 8367   2.327   2.352  16.094 -0.0538 -0.0744  0.1249
  564TMC3     C 8368   2.638   2.482  15.862  0.2322 -0.0613  0.0769
  564TMC3     O 8369   2.738   2.514  15.923 -0.0298 -0.2286 -0.1171
  564TMC3     H 8370   2.419   2.357  15.768 -1.0768 -1.8033  0.1435
  564TMC3    H1 8371   2.626   2.495  16.121  0.6605  0.1238 -2.7483
  564TMC3    H2 8372   2.245   2.331  16.161  1.7463 -1.6067  1.8640
  564TMC3    C7 8373   2.489   2.329  16.262  0.3292 -0.3008 -1.0720
  564TMC3    C8 8374   2.310   2.172  15.951  0.1954 -0.1358  0.1791
  564TMC3    O1 8375   2.594   2.366  16.316 -0.0003  0.2833 -0.4348
  564TMC3    O2 8376   2.232   2.126  16.038 -0.4395  0.1274 -0.1053
  565TMC3    C1 8377   3.752   2.690  10.268 -0.1370 -0.5995  0.0004
  565TMC3    C2 8378   3.705   2.671  10.393 -0.3199  0.6107  0.5023
  565TMC3    C3 8379   3.604   2.585  10.417  0.3496  0.1527 -0.2971
  565TMC3    C4 8380   3.715   2.606  10.166 -0.1844  0.4288 -0.1126
  565TMC3    C5 8381   3.632   2.505  10.202  0.0162 -0.0896 -0.1188
  565TMC3    C6 8382   3.563   2.504  10.317  0.5649 -0.3624  0.1103
  565TMC3     C 8383   3.855   2.793  10.240 -0.0445 -0.4020  0.5053
  565TMC3     O 8384   3.934   2.762  10.155  1.0059 -0.4781 -0.6385
  565TMC3     H 8385   3.744   2.733  10.473 -1.6477  3.0533 -0.7288
  565TMC3    H1 8386   3.762   2.607  10.068 -1.8416 -0.1144 -0.9160
  565TMC3    H2 8387   3.499   2.417  10.332  1.5814 -1.2816 -0.9049
  565TMC3    C7 8388   3.567   2.427  10.099  0.3395 -0.0318  0.9032
  565TMC3    C8 8389   3.603   2.529  10.550  0.4068 -0.2443 -0.4832
  565TMC3    O1 8390   3.455   2.389  10.122 -0.3387 -0.4351  1.1598
  565TMC3    O2 8391   3.640   2.414  10.560  0.2150  0.1525  0.1944
  566MPD2     C 8392   0.017   0.374  14.449  0.4383  0.1400 -0.3053
  566MPD2    C1 8393   0.052   0.261  14.387 -0.4212 -0.9173 -0.1209
  566MPD2    C2 8394   0.047   0.246  14.249 -0.0999  0.0684  0.6069
  566MPD2    C3 8395   4.709   0.341  14.170  0.4364  0.0741  0.4314
  566MPD2    C4 8396   4.674   0.457  14.234  0.6473  0.0902 -0.3498
  566MPD2    C5 8397   4.700   0.475  14.369  0.0926  0.9165 -1.0320
  566MPD2     H 8398   0.089   0.160  14.199  1.7150  2.6789 -2.4103
  566MPD2    H1 8399   4.639   0.541  14.175  0.2703  0.3292  0.2093
  566MPD2    H2 8400   0.028   0.387  14.556  1.4718 -0.1456 -0.3733
  566MPD2    H3 8401   4.678   0.569  14.418 -0.4548  0.4258 -0.3324
  566MPD2     N 8402   4.691   0.329  14.030 -0.2875  0.2001 -0.1036
  566MPD2    H5 8403   4.652   0.403  13.973 -0.0535 -1.4074 -2.3762
  566MPD2    N1 8404   0.128   0.179  14.469 -0.4707 -0.6998  0.8254
  566MPD2    H7 8405   0.141   0.210  14.565  0.9111 -1.3133  0.8488
  567TMC3    C1 8406   0.259   4.722  14.533 -0.1698  0.1700  0.2177
  567TMC3    C2 8407   0.358   4.641  14.482  0.0147 -0.0467 -0.1376
  567TMC3    C3 8408   0.433   4.573  14.572 -0.0924  0.2351 -0.2121
  567TMC3    C4 8409   0.234   0.018  14.667  0.1872  0.1423  0.8287
  567TMC3    C5 8410   0.313   4.681  14.757 -0.0346  0.1303  0.7959
  567TMC3    C6 8411   0.413   4.590  14.710  0.9416  0.2402  0.6049
  567TMC3     C 8412   0.183   0.059  14.433  0.5785  0.3482 -0.1797
  567TMC3     O 8413   0.165   4.720  14.329 -0.6021  0.2625 -0.0108
  567TMC3     H 8414   0.370   4.640  14.374 -2.3339  1.7132 -0.4362
  567TMC3    H1 8415   0.141   0.065  14.694  1.0776  2.0937  0.5149
  567TMC3    H2 8416   0.473   4.531  14.779  0.4335 -0.0614  0.7857
  567TMC3    C7 8417   0.288   4.688  14.901  0.4910  1.1104 -0.0812
  567TMC3    C8 8418   0.568   4.576  14.542 -0.2038  0.2800 -0.0683
  567TMC3    O1 8419   0.353   4.610  14.966 -0.2018  0.2000 -0.0013
  567TMC3    O2 8420   0.638   4.537  14.638 -0.3416 -0.5342 -0.0836
  568MPD2     C 8421   2.226   0.736  16.626 -0.2631  0.0636 -0.4990
  568MPD2    C1 8422   2.208   0.861  16.691 -0.0076  0.1390  0.5368
  568MPD2    C2 8423   2.195   0.980  16.624 -0.0517 -0.0550  0.4544
  568MPD2    C3 8424   2.213   0.983  16.486  0.1003 -0.2551 -0.8153
  568MPD2    C4 8425   2.244   0.868  16.422 -0.1959 -0.2032 -1.1756
  568MPD2    C5 8426   2.250   0.746  16.485  0.5887 -0.0548 -0.1242
  568MPD2     H 8427   2.165   1.070  16.678 -0.0331 -0.5739  1.3314
  568MPD2    H1 8428   2.264   0.862  16.316  0.4245 -1.3188 -0.9981
  568MPD2    H2 8429   2.242   0.640  16.674  0.5433  0.7423  0.5927
  568MPD2    H3 8430   2.276   0.665  16.418 -0.9259 -0.8311  0.2290
  568MPD2     N 8431   2.186   1.108  16.418  0.2974  1.2587 -0.0160
  568MPD2    H5 8432   2.136   1.183  16.465  0.8005  0.4531  1.7721
  568MPD2    N1 8433   2.195   0.862  16.834 -0.7515  0.1457  0.0143
  568MPD2    H7 8434   2.178   0.774  16.882  2.8626  0.5796  2.1054
  569TMC3    C1 8435   2.173   1.269  16.245 -0.4266 -0.0071  0.1436
  569TMC3    C2 8436   2.064   1.335  16.299  0.6812 -0.1988 -0.6391
  569TMC3    C3 8437   2.061   1.472  16.282  0.6840  0.6673  0.1412
  569TMC3    C4 8438   2.258   1.328  16.155  0.5325  0.4715  0.1997
  569TMC3    C5 8439   2.251   1.460  16.142 -0.2614 -0.0613  0.5604
  569TMC3    C6 8440   2.157   1.539  16.205 -0.0184 -0.5780  0.0107
  569TMC3     C 8441   2.204   1.130  16.287  0.1985 -0.1923 -0.1835
  569TMC3     O 8442   2.262   1.065  16.201  0.2948 -0.1114  0.6046
  569TMC3     H 8443   1.990   1.286  16.362  0.9560 -2.4001 -2.0325
  569TMC3    H1 8444   2.335   1.268  16.108  1.7445  0.6363  2.0101
  569TMC3    H2 8445   2.149   1.646  16.195 -0.7010 -0.4419  1.8729
  569TMC3    C7 8446   2.345   1.520  16.052  0.2588  0.6883 -0.0860
  569TMC3    C8 8447   1.978   1.549  16.372 -0.1065 -0.0728  0.3341
  569TMC3    O1 8448   2.443   1.450  16.017  0.3637  0.1528 -0.3071
  569TMC3    O2 8449   1.857   1.558  16.350 -0.1535  0.6892  0.1684
  570TMC3    C1 8450   1.361   4.608  16.062 -0.7583  0.0321 -0.5492
  570TMC3    C2 8451   1.450   4.571  15.970 -0.3746  0.4370  0.0408
  570TMC3    C3 8452   1.479   4.667  15.880  0.1167 -0.4263 -0.2479
  570TMC3    C4 8453   1.297   0.000  16.064 -0.5318 -0.2261 -0.4631
  570TMC3    C5 8454   1.325   0.091  15.964  0.1990 -0.1930 -0.3456
  570TMC3    C6 8455   1.423   0.066  15.870 -0.4728 -0.0152  0.4504
  570TMC3     C 8456   1.350   4.516  16.179  0.5211  0.2281  0.1595
  570TMC3     O 8457   1.391   4.401  16.172  0.1182  0.1924  0.4808
  570TMC3     H 8458   1.504   4.477  15.981 -0.4238  0.4657  0.5228
  570TMC3    H1 8459   1.212   0.014  16.130  0.8276  1.4349  0.9599
  570TMC3    H2 8460   1.454   0.144  15.802  0.0605 -1.5756 -1.1070
  570TMC3    C7 8461   1.277   0.226  15.983 -0.3368 -0.1591  0.3554
  570TMC3    C8 8462   1.616   4.676  15.825  0.0156  0.5043  0.1594
  570TMC3    O1 8463   1.219   0.251  16.087  0.5321 -0.5702 -0.3806
  570TMC3    O2 8464   1.641   0.034  15.745  0.4698  0.3143 -0.1262
  571MPD2     C 8465   0.252   1.623  17.117 -0.2972 -0.2259 -0.3736
  571MPD2    C1 8466   0.132   1.563  17.118  0.3447  0.5203 -0.0077
  571MPD2    C2 8467   0.034   1.623  17.196  0.0294 -1.0672  0.1629
  571MPD2    C3 8468   0.056   1.750  17.255  0.1039  0.3389  0.1580
  571MPD2    C4 8469   0.181   1.809  17.242 -0.0185  0.1065  0.2832
  571MPD2    C5 8470   0.279   1.742  17.174 -0.5306  0.5657 -0.3111
  571MPD2     H 8471   4.662   1.576  17.208 -0.9865  1.2763  1.0781
  571MPD2    H1 8472   0.205   1.898  17.299  0.0884  0.4803 -0.3482
  571MPD2    H2 8473   0.343   1.584  17.072 -0.4538 -0.9210 -0.0879
  571MPD2    H3 8474   0.380   1.782  17.183  0.1735 -1.4754  0.8736
  571MPD2     N 8475   4.681   1.808  17.337  0.2011 -0.8905  0.0253
  571MPD2    H5 8476   4.711   1.872  17.410  0.5741 -0.7896 -0.2148
  571MPD2    N1 8477   0.111   1.446  17.044 -0.8790  0.0683  0.0761
  571MPD2    H7 8478   0.195   1.417  16.995 -0.6465  1.8693 -0.6062
  572TMC3    C1 8479   4.476   1.855  17.440 -0.0623  0.1629 -0.2140
  572TMC3    C2 8480   4.353   1.799  17.474 -0.2760  0.1318 -0.3720
  572TMC3    C3 8481   4.308   1.819  17.598  0.5475 -0.1245  0.0730
  572TMC3    C4 8482   4.524   1.962  17.504  0.8038 -0.2967  0.0204
  572TMC3    C5 8483   4.461   2.001  17.622 -0.0452  0.4003  0.3586
  572TMC3    C6 8484   4.353   1.926  17.668 -0.2613 -0.1032  0.0639
  572TMC3     C 8485   4.544   1.780  17.338 -0.6252  1.1395  0.5576
  572TMC3     O 8486   4.482   1.699  17.268  0.1409 -0.0578 -0.5056
  572TMC3     H 8487   4.327   1.703  17.431  0.1582 -0.5809  0.9392
  572TMC3    H1 8488   4.614   2.008  17.466  1.5063 -1.9179 -0.2705
  572TMC3    H2 8489   4.308   1.973   0.056  0.7155 -1.2833  1.2080
  572TMC3    C7 8490   4.522   2.105   0.005 -0.3359 -0.2140  0.7427
  572TMC3    C8 8491   4.172   1.788  17.611  0.2379  0.8049 -0.3889
  572TMC3    O1 8492   4.451   2.139   0.102  0.0211  0.1986  0.1268
  572TMC3    O2 8493   4.104   1.770  17.511 -0.2232 -0.3574 -0.7462
  573MPD2     C 8494   0.145   2.474   0.989  0.3067 -0.8509  0.1287
  573MPD2    C1 8495   0.263   2.510   1.057  0.0958 -0.2851  0.1894
  573MPD2    C2 8496   0.372   2.546   0.985  0.7494 -0.1404  0.0567
  573MPD2    C3 8497   0.368   2.547   0.844  1.1792 -0.1928  0.1912
  573MPD2    C4 8498   0.253   2.513   0.780 -0.1843 -0.6176  0.0549
  573MPD2    C5 8499   0.143   2.473   0.850  0.4536 -0.0465 -0.1597
  573MPD2     H 8500   0.468   2.574   1.027  0.1743  3.6203 -1.1875
  573MPD2    H1 8501   0.251   2.503   0.672 -3.9499 -0.4946  0.1139
  573MPD2    H2 8502   0.054   2.435   1.034 -1.4154 -1.4808 -3.8688
  573MPD2    H3 8503   0.052   2.450   0.795 -1.1903  2.8328  1.3511
  573MPD2     N 8504   0.476   2.569   0.757 -0.3089  0.9524  0.5653
  573MPD2    H5 8505   0.448   2.573   0.659  1.3414 -0.1518  0.0437
  573MPD2    N1 8506   0.259   2.511   1.195 -0.3223  0.1344  0.4686
  573MPD2    H7 8507   0.177   2.470   1.239 -0.7873  1.7343  1.0849
  574TMC3    C1 8508   0.710   2.610   0.690 -0.1447 -0.0953 -0.0830
  574TMC3    C2 8509   0.685   2.562   0.561  0.4411 -0.5767  0.2968
  574TMC3    C3 8510   0.779   2.587   0.469 -0.5567 -0.8232 -0.4218
  574TMC3    C4 8511   0.832   2.666   0.729  0.4665 -0.2911  0.2844
  574TMC3    C5 8512   0.917   2.687   0.625  0.5960  0.4011  0.0712
  574TMC3    C6 8513   0.896   2.642   0.494  0.3907 -0.0615  0.6053
  574TMC3     C 8514   0.613   2.594   0.793 -0.6046 -0.9089 -1.0766
  574TMC3     O 8515   0.658   2.608   0.903 -0.4615  0.8947  0.6721
  574TMC3     H 8516   0.592   2.519   0.528 -0.6822  2.1880 -0.1550
  574TMC3    H1 8517   0.856   2.700   0.829 -1.9457 -1.5869  1.2833
  574TMC3    H2 8518   0.973   2.659   0.419  0.5304 -0.7294  0.5966
  574TMC3    C7 8519   1.050   2.737   0.653  0.1205 -0.5742 -0.1352
  574TMC3    C8 8520   0.759   2.567   0.326  0.3620  0.2549  0.3445
  574TMC3    O1 8521   1.131   2.733   0.560  0.7037 -0.4585 -0.5015
  574TMC3    O2 8522   0.849   2.516   0.267 -0.7165 -0.8473  0.0304
  575TMC3    C1 8523   3.469   3.245  11.221  0.3421  0.8404 -0.0228
  575TMC3    C2 8524   3.380   3.218  11.323  0.9167  0.7750 -0.5016
  575TMC3    C3 8525   3.353   3.087  11.346 -0.3205 -0.6263  0.2302
  575TMC3    C4 8526   3.517   3.143  11.141 -0.2593  0.4544  0.0691
  575TMC3    C5 8527   3.471   3.019  11.157  0.1900  0.9314 -0.5124
  575TMC3    C6 8528   3.380   2.989  11.257  0.3107  0.2128  0.0892
  575TMC3     C 8529   3.527   3.377  11.193  0.4651 -0.3001 -0.2754
  575TMC3     O 8530   3.632   3.372  11.132  0.6786  0.2879  0.0865
  575TMC3     H 8531   3.337   3.293  11.389 -1.9103 -1.5058  0.2271
  575TMC3    H1 8532   3.576   3.172  11.055  0.7491 -0.6752  0.3790
  575TMC3    H2 8533   3.329   2.894  11.257  2.3016 -0.8395 -1.7393
  575TMC3    C7 8534   3.490   2.933  11.043 -0.3510 -0.1155 -0.1398
  575TMC3    C8 8535   3.286   3.048  11.465 -0.5345 -1.0583 -0.4785
  575TMC3    O1 8536   3.533   2.981  10.936 -0.1418  0.2737  0.5334
  575TMC3    O2 8537   3.217   3.138  11.506  0.2876  0.1174 -0.5603
  576MPD2     C 8538   2.661   0.160  12.827 -0.1056  0.7080  0.2942
  576MPD2    C1 8539   2.768   0.171  12.734 -0.0212 -0.3003  0.6603
  576MPD2    C2 8540   2.778   0.284  12.652 -0.1813  0.3002 -0.1589
  576MPD2    C3 8541   2.680   0.386  12.646 -0.1488 -0.4339  0.0476
  576MPD2    C4 8542   2.580   0.373  12.739  0.3316  0.2307 -0.1390
  576MPD2    C5 8543   2.577   0.270  12.827 -0.1787 -0.2140  0.0589
  576MPD2     H 8544   2.852   0.281  12.573  0.8649  1.1202  0.7880
  576MPD2    H1 8545   2.498   0.443  12.735  3.5594  4.0617 -0.2526
  576MPD2    H2 8546   2.642   0.086  12.904 -0.6939  2.3262  1.7043
  576MPD2    H3 8547   2.490   0.271  12.891 -0.5544 -0.5665 -0.4504
  576MPD2     N 8548   2.681   0.485  12.541 -0.1280 -0.2494 -0.3162
  576MPD2    H5 8549   2.751   0.471  12.468 -1.9598 -1.7175 -1.7935
  576MPD2    N1 8550   2.874   0.072  12.724 -0.4950 -0.5689  0.0843
  576MPD2    H7 8551   2.952   0.103  12.668 -2.4272 -0.0649 -2.3355
  577TMC3    C1 8552   2.992   4.585  12.733 -0.6238 -0.0635  0.0362
  577TMC3    C2 8553   3.040   4.505  12.835 -0.7685 -0.2937 -0.0320
  577TMC3    C3 8554   3.163   4.450  12.818 -0.1288  0.2039 -0.3469
  577TMC3    C4 8555   3.071   4.625  12.626  0.5217 -0.5170 -0.1871
  577TMC3    C5 8556   3.203   4.587  12.625 -0.0926 -0.0254  0.3668
  577TMC3    C6 8557   3.247   4.491  12.713  0.5942 -0.0159  0.3875
  577TMC3     C 8558   2.879   4.666  12.778 -0.0995  0.3019 -0.0828
  577TMC3     O 8559   2.813   4.625  12.868  0.4096 -0.1673 -0.3809
  577TMC3     H 8560   2.984   4.475  12.923  1.1268 -2.3225  0.4709
  577TMC3    H1 8561   3.023   4.667  12.538 -0.8007  0.0590  0.8205
  577TMC3    H2 8562   3.353   4.469  12.714  0.1542 -1.9925  3.7970
  577TMC3    C7 8563   3.285   4.603  12.501  0.5454  0.5969  0.3114
  577TMC3    C8 8564   3.171   4.311  12.861 -0.4998  0.0120  0.7083
  577TMC3    O1 8565   3.391   4.533  12.483 -0.0149  0.1971 -0.3665
  577TMC3    O2 8566   3.148   4.287  12.977 -0.5981 -0.7574  0.6014
  578MPD2     C 8567   1.245   0.214   1.187 -0.1824  0.5414 -0.6230
  578MPD2    C1 8568   1.330   0.126   1.137 -0.0842 -0.9625 -0.5433
  578MPD2    C2 8569   1.388   0.036   1.217  0.0294 -0.8285 -0.7499
  578MPD2    C3 8570   1.370   0.047   1.349  0.8706  0.0440 -0.4140
  578MPD2    C4 8571   1.286   0.137   1.410 -0.2385 -0.4246  0.3409
  578MPD2    C5 8572   1.217   0.222   1.325  0.5163 -0.1795  0.1117
  578MPD2     H 8573   1.456   4.683   1.181  2.5728  1.1835 -0.2793
  578MPD2    H1 8574   1.277   0.148   1.518  0.7754 -0.6137  0.4380
  578MPD2    H2 8575   1.206   0.280   1.111  2.4227 -0.0831 -2.5081
  578MPD2    H3 8576   1.150   0.296   1.367 -0.4729  0.4800 -2.6683
  578MPD2     N 8577   1.449   4.668   1.417  0.0881 -0.4048  0.2146
  578MPD2    H5 8578   1.487   4.603   1.350  1.4050  0.8167 -0.2097
  578MPD2    N1 8579   1.344   0.136   0.999 -0.3068 -0.0055  0.4452
  578MPD2    H7 8580   1.276   0.191   0.948 -0.5207  0.5423  1.3328
  579TMC3    C1 8581   1.547   4.529   1.578  0.0603  0.3791  0.4145
  579TMC3    C2 8582   1.631   4.532   1.684  0.0177 -0.4946 -0.6166
  579TMC3    C3 8583   1.723   4.430   1.701  0.4169  0.0626  0.0613
  579TMC3    C4 8584   1.558   4.435   1.477 -0.2228  1.1977 -0.2672
  579TMC3    C5 8585   1.656   4.342   1.488 -0.4766 -0.0532  0.3722
  579TMC3    C6 8586   1.738   4.340   1.596 -0.5312 -0.4080 -0.5813
  579TMC3     C 8587   1.462   4.650   1.553 -0.3797  0.0602  0.4590
  579TMC3     O 8588   1.420   0.002   1.642 -0.5924 -0.1012  0.0636
  579TMC3     H 8589   1.619   4.607   1.761  2.6052 -0.2020 -0.4876
  579TMC3    H1 8590   1.472   4.428   1.411 -0.4124  0.1224  0.0884
  579TMC3    H2 8591   1.817   4.267   1.606 -0.7384 -0.2462  2.2950
  579TMC3    C7 8592   1.661   4.225   1.400  0.0554 -0.4874 -0.4432
  579TMC3    C8 8593   1.844   4.466   1.767 -0.2159 -0.4347  0.4339
  579TMC3    O1 8594   1.714   4.125   1.441  0.3420 -0.0023  0.2011
  579TMC3    O2 8595   1.814   4.528   1.870 -0.6597  0.3543 -0.1256
  580TMC3    C1 8596   0.792   3.117  12.026 -0.1064 -0.1479 -0.1746
  580TMC3    C2 8597   0.795   3.117  11.891  0.5183  0.4319  0.5953
  580TMC3    C3 8598   0.772   3.000  11.824 -0.6107  0.3470 -0.2301
  580TMC3    C4 8599   0.767   3.001  12.099 -0.1732  0.4087  0.8836
  580TMC3    C5 8600   0.729   2.891  12.027 -0.4219 -0.6361  0.0683
  580TMC3    C6 8601   0.742   2.888  11.891  0.2489 -0.0747  0.4731
  580TMC3     C 8602   0.886   3.216  12.080  0.5309 -0.1648 -0.8149
  580TMC3     O 8603   0.912   3.313  12.012  0.1615 -0.6167 -0.2487
  580TMC3     H 8604   0.778   3.210  11.838 -0.8226  0.3847  0.9414
  580TMC3    H1 8605   0.753   3.013  12.206  0.2813 -2.3052  1.2426
  580TMC3    H2 8606   0.744   2.795  11.835  0.4456 -0.8530  1.7603
  580TMC3    C7 8607   0.760   2.762  12.083  0.1861 -0.4376 -0.3692
  580TMC3    C8 8608   0.839   2.988  11.697  0.0752  0.3540  0.2893
  580TMC3    O1 8609   0.723   2.658  12.030 -0.3033 -0.1408  0.2086
  580TMC3    O2 8610   0.820   2.897  11.626 -0.0643 -0.3083  0.0531
  581MPD2     C 8611   3.650   3.426  14.825 -0.1587 -0.2929  0.2958
  581MPD2    C1 8612   3.683   3.551  14.867 -0.3272 -0.5210  0.2071
  581MPD2    C2 8613   3.589   3.650  14.887  0.6057 -0.3931  0.8093
  581MPD2    C3 8614   3.457   3.637  14.837  0.5309 -0.3784 -0.4068
  581MPD2    C4 8615   3.431   3.519  14.774  0.6933  0.2368 -0.0662
  581MPD2    C5 8616   3.523   3.417  14.775  0.2463  0.6666 -0.3332
  581MPD2     H 8617   3.606   3.738  14.949  0.9790  0.8860 -1.0966
  581MPD2    H1 8618   3.330   3.506  14.735  0.8029 -1.6208  0.2886
  581MPD2    H2 8619   3.712   3.338  14.816 -1.2087 -1.0688  0.6944
  581MPD2    H3 8620   3.500   3.332  14.713 -2.5231 -0.7266  2.6222
  581MPD2     N 8621   3.364   3.740  14.845 -0.0395  0.1112 -0.2399
  581MPD2    H5 8622   3.392   3.833  14.875 -0.6963 -0.0783  0.9637
  581MPD2    N1 8623   3.817   3.558  14.902 -0.4886 -0.9271 -0.6422
  581MPD2    H7 8624   3.870   3.473  14.891 -1.1998 -1.3818 -0.5850
  582TMC3    C1 8625   3.991   3.631  15.055  0.1702  0.0231  0.8821
  582TMC3    C2 8626   3.987   3.715  15.160  0.1585 -0.6243  0.1800
  582TMC3    C3 8627   4.009   3.662  15.285 -0.6248  0.5088 -0.0518
  582TMC3    C4 8628   4.007   3.499  15.075 -0.5232 -0.3933 -0.4554
  582TMC3    C5 8629   4.028   3.441  15.194  0.6553  0.0593 -0.2825
  582TMC3    C6 8630   4.021   3.526  15.301  0.0335 -0.0156 -0.2887
  582TMC3     C 8631   3.874   3.669  14.976  0.0465  0.3854  0.4072
  582TMC3     O 8632   3.845   3.787  14.986  0.3124 -0.6281 -0.0515
  582TMC3     H 8633   3.968   3.822  15.169 -0.0454 -0.6570  0.1430
  582TMC3    H1 8634   4.026   3.436  14.990  0.0529 -1.8511  0.7546
  582TMC3    H2 8635   4.050   3.483  15.396 -2.3865  0.9693  0.8992
  582TMC3    C7 8636   3.914   3.348  15.210 -0.0423 -0.0845  0.3239
  582TMC3    C8 8637   3.992   3.750  15.396  0.3124 -0.5752  0.0622
  582TMC3    O1 8638   3.925   3.243  15.146 -0.6038  0.0378 -0.6796
  582TMC3    O2 8639   3.893   3.823  15.388 -0.0342  0.4445  0.3552
  583MPD2     C 8640   3.234   0.800  16.667  0.8775 -0.4938  0.4818
  583MPD2    C1 8641   3.279   0.923  16.629 -0.2598  0.0883  0.5526
  583MPD2    C2 8642   3.280   1.021  16.725 -0.6939 -0.3311 -0.5327
  583MPD2    C3 8643   3.257   0.993  16.861 -0.0286 -0.9002  0.5455
  583MPD2    C4 8644   3.217   0.865  16.894  0.4067 -0.0825 -0.1429
  583MPD2    C5 8645   3.204   0.770  16.796 -0.1930  0.6838  0.3379
  583MPD2     H 8646   3.310   1.119  16.691  1.4557 -0.6466  0.4321
  583MPD2    H1 8647   3.206   0.827  16.995 -0.4917  1.6559  0.4189
  583MPD2    H2 8648   3.226   0.720  16.594 -1.1729  0.6419 -0.5257
  583MPD2    H3 8649   3.183   0.667  16.821 -0.3872  1.2738  2.6430
  583MPD2     N 8650   3.272   1.100  16.946  0.3601  0.0100  0.0561
  583MPD2    H5 8651   3.302   1.181  16.893 -0.7435 -0.4141 -1.2284
  583MPD2    N1 8652   3.323   0.953  16.502 -0.6409  0.1269  0.4272
  583MPD2    H7 8653   3.356   1.049  16.500  0.0685 -0.1161  0.6167
  584TMC3    C1 8654   3.300   1.222  17.150 -0.9981 -0.1517  0.2436
  584TMC3    C2 8655   3.314   1.345  17.092 -0.4302 -0.7444  0.2268
  584TMC3    C3 8656   3.345   1.451  17.174  0.2634  0.0793  0.6057
  584TMC3    C4 8657   3.306   1.220  17.286  0.4225 -0.6103  0.2593
  584TMC3    C5 8658   3.308   1.332  17.366  0.2432  0.6270 -0.1425
  584TMC3    C6 8659   3.329   1.448  17.307 -0.7802  0.8075  0.8321
  584TMC3     C 8660   3.271   1.097  17.087  0.7858 -0.2950 -0.3060
  584TMC3     O 8661   3.252   1.005  17.168  0.0510 -0.0080  0.4582
  584TMC3     H 8662   3.336   1.339  16.986 -1.2759  1.2293 -0.0606
  584TMC3    H1 8663   3.307   1.127  17.342  0.6816 -0.8025 -0.0673
  584TMC3    H2 8664   3.366   1.521  17.379 -0.6550  1.2003  0.3649
  584TMC3    C7 8665   3.263   1.322  17.501 -0.3241  0.2956  0.3112
  584TMC3    C8 8666   3.354   1.579  17.102 -0.0003 -0.5786  0.3587
  584TMC3    O1 8667   3.271   1.217  17.558 -0.6225 -0.6474 -0.0570
  584TMC3    O2 8668   3.340   1.582  16.982 -0.5471 -0.2512 -0.1615
  585MPD2     C 8669   2.810   0.110   0.423 -0.2303  0.1075  0.1169
  585MPD2    C1 8670   2.728   0.128   0.315  0.8509 -0.5550  0.5768
  585MPD2    C2 8671   2.747   0.056   0.206  0.1764  0.2953 -0.7959
  585MPD2    C3 8672   2.843   4.682   0.201 -0.1934 -0.3093 -0.4594
  585MPD2    C4 8673   2.930   4.665   0.312 -0.3259  0.1625  0.0707
  585MPD2    C5 8674   2.912   0.024   0.421 -0.4663  0.2930  0.7021
  585MPD2     H 8675   2.684   0.070   0.118  0.1870  2.8556 -0.4028
  585MPD2    H1 8676   3.001   4.583   0.315 -0.7876 -0.1780  1.5308
  585MPD2    H2 8677   2.793   0.170   0.512 -1.4792 -0.3566  0.1970
  585MPD2    H3 8678   2.982   0.019   0.503  0.3606 -0.7300 -0.0766
  585MPD2     N 8679   2.858   4.617   0.080 -0.4311 -0.7528  0.2814
  585MPD2    H5 8680   2.775   4.621   0.021 -0.2325 -1.3283 -0.0390
  585MPD2    N1 8681   2.632   0.233   0.336 -0.0638 -0.0299 -0.2416
  585MPD2    H7 8682   2.624   0.273   0.429  2.8772  5.4385 -2.3493
  586TMC3    C1 8683   2.952   4.468  17.621  0.1893  0.1588  0.2017
  586TMC3    C2 8684   3.060   4.444  17.539  0.0663  0.1567 -0.0382
  586TMC3    C3 8685   3.045   4.359  17.436 -0.0625 -0.3365  0.5901
  586TMC3    C4 8686   2.842   4.389  17.618 -0.4744  0.5950 -0.2349
  586TMC3    C5 8687   2.835   4.290  17.529  0.1126  0.0490 -0.3769
  586TMC3    C6 8688   2.930   4.288  17.426 -0.8263  0.4432 -0.0873
  586TMC3     C 8689   2.971   4.539   0.046 -0.0240 -0.5958  0.3526
  586TMC3     O 8690   3.081   4.546   0.096 -0.2414 -0.1417  0.5628
  586TMC3     H 8691   3.157   4.484  17.565  0.4606 -0.2418 -0.8866
  586TMC3    H1 8692   2.766   4.390  17.696  0.6014  2.6268  0.7775
  586TMC3    H2 8693   2.916   4.214  17.349 -2.5878  1.3861 -0.6780
  586TMC3    C7 8694   2.811   4.165  17.596 -0.8118 -0.5648  0.9041
  586TMC3    C8 8695   3.172   4.291  17.409 -0.6067  0.5337 -0.3839
  586TMC3    O1 8696   2.727   4.151  17.683  0.2005  0.4182 -0.9014
  586TMC3    O2 8697   3.250   4.281  17.502 -0.0700  0.4426  0.3860
  587TMC3    C1 8698   0.367   2.969  17.174  0.3055  0.6338  0.1734
  587TMC3    C2 8699   0.326   3.095  17.215  0.3183  0.4318  0.0040
  587TMC3    C3 8700   0.404   3.157  17.308  0.2952 -0.2716  0.1219
  587TMC3    C4 8701   0.483   2.904  17.213 -0.6347  0.5928 -0.0641
  587TMC3    C5 8702   0.561   2.977  17.302  0.4816 -0.0408 -0.2397
  587TMC3    C6 8703   0.524   3.100  17.345 -0.4236 -0.2892  0.8819
  587TMC3     C 8704   0.301   2.901  17.062 -0.2180 -0.8755 -0.0105
  587TMC3     O 8705   0.352   2.800  17.019 -0.0244  0.0389 -0.2379
  587TMC3     H 8706   0.228   3.135  17.193 -0.0716  0.3622  1.6430
  587TMC3    H1 8707   0.502   2.799  17.193 -0.4225  0.0359  3.0920
  587TMC3    H2 8708   0.583   3.145  17.424  0.0217 -0.5167  0.6798
  587TMC3    C7 8709   0.673   2.918  17.374 -0.2014 -0.1567 -0.7785
  587TMC3    C8 8710   0.358   3.285  17.368 -0.1417 -0.2689 -0.0167
  587TMC3    O1 8711   0.697   2.964  17.483 -0.1839 -0.1458  0.0222
  587TMC3    O2 8712   0.414   3.316  17.471  0.0282  0.4062 -0.2812
  588TMC3    C1 8713   2.384   0.493   9.597  0.5472  0.2647  0.5195
  588TMC3    C2 8714   2.347   0.365   9.631 -0.4277  0.2905  0.6535
  588TMC3    C3 8715   2.444   0.294   9.701  0.5622 -0.7887 -0.3061
  588TMC3    C4 8716   2.497   0.561   9.653  0.8959  0.0972  0.3121
  588TMC3    C5 8717   2.578   0.483   9.732  0.2557  0.8090 -0.4831
  588TMC3    C6 8718   2.555   0.348   9.759 -0.5326  0.3564  0.2203
  588TMC3     C 8719   2.271   0.572   9.563 -0.2810  0.4721 -0.4156
  588TMC3     O 8720   2.194   0.532   9.478  0.7883  0.1004  0.0212
  588TMC3     H 8721   2.268   0.310   9.581  1.2421  0.7325 -2.4480
  588TMC3    H1 8722   2.523   0.660   9.618 -0.8552  0.0020 -1.2845
  588TMC3    H2 8723   2.630   0.300   9.821  0.4270  0.9985 -0.4309
  588TMC3    C7 8724   2.638   0.550   9.849 -0.0849  0.3044 -0.5861
  588TMC3    C8 8725   2.415   0.151   9.708  0.6609  0.3673 -0.3311
  588TMC3    O1 8726   2.688   0.481   9.937 -0.1735  0.2640  0.5578
  588TMC3    O2 8727   2.298   0.127   9.686 -0.0295  0.3996  1.0838
  589TMC3    C1 8728   1.537   3.090   1.423  0.0317  0.2657 -0.3085
  589TMC3    C2 8729   1.606   3.105   1.538 -0.2383 -0.1835 -0.4450
  589TMC3    C3 8730   1.723   3.029   1.544 -0.6956 -0.1890 -0.1700
  589TMC3    C4 8731   1.572   2.998   1.333  0.8702  0.1807  0.1911
  589TMC3    C5 8732   1.690   2.919   1.349 -0.4506 -0.3905  0.6933
  589TMC3    C6 8733   1.769   2.933   1.459  0.1032 -0.6559 -0.0890
  589TMC3     C 8734   1.464   3.205   1.378 -0.4880 -0.4987  0.0622
  589TMC3     O 8735   1.428   3.210   1.262 -0.1305 -0.2141  0.6376
  589TMC3     H 8736   1.568   3.161   1.623  0.5423 -0.3806  0.0325
  589TMC3    H1 8737   1.521   2.996   1.238 -0.9053  0.6364  1.1472
  589TMC3    H2 8738   1.844   2.859   1.484  1.4170 -0.3099 -2.9715
  589TMC3    C7 8739   1.715   2.821   1.242  0.0025 -0.2248  0.0723
  589TMC3    C8 8740   1.811   3.067   1.656  0.6179 -1.1135  0.0370
  589TMC3    O1 8741   1.624   2.782   1.168  0.0411  0.0124 -0.1246
  589TMC3    O2 8742   1.756   3.121   1.750  0.0172  1.0114 -0.1175
  590MPD2     C 8743   0.805   1.035  16.071 -0.3468  0.0951 -0.5220
  590MPD2    C1 8744   0.820   1.167  16.110  0.2576  0.3507 -0.3882
  590MPD2    C2 8745   0.946   1.210  16.148 -0.3255 -0.3259  0.3922
  590MPD2    C3 8746   1.054   1.121  16.151 -0.2020 -0.0321  0.2248
  590MPD2    C4 8747   1.030   0.988  16.118  0.0964  0.2028  0.3030
  590MPD2    C5 8748   0.911   0.950  16.065  0.3983  0.3026 -1.0387
  590MPD2     H 8749   0.956   1.314  16.175 -2.9558 -0.0956  0.5483
  590MPD2    H1 8750   1.102   0.907  16.117  1.6908  1.6394 -2.0991
  590MPD2    H2 8751   0.710   1.000  16.032 -0.2687  0.4657 -1.0607
  590MPD2    H3 8752   0.891   0.848  16.034 -1.8826 -0.1858  2.0133
  590MPD2     N 8753   1.172   1.172  16.191  0.0339  0.5812 -0.0346
  590MPD2    H5 8754   1.173   1.268  16.226  1.4935 -0.0454  1.6633
  590MPD2    N1 8755   0.700   1.245  16.098  0.5310 -0.4590  0.4671
  590MPD2    H7 8756   0.626   1.206  16.041  0.3457 -0.3028  0.6016
  591TMC3    C1 8757   1.399   1.178  16.242 -0.2725 -0.3672  0.3191
  591TMC3    C2 8758   1.512   1.157  16.165  0.4002  0.5081 -0.4454
  591TMC3    C3 8759   1.611   1.246  16.180  0.0398 -0.3657  0.6986
  591TMC3    C4 8760   1.381   1.291  16.319  0.5968 -0.0552  0.1317
  591TMC3    C5 8761   1.490   1.375  16.326 -0.4358  0.4173 -0.0295
  591TMC3    C6 8762   1.611   1.360  16.258  0.0005  0.5024  0.1188
  591TMC3     C 8763   1.292   1.107  16.179 -0.2842  0.3323 -0.1413
  591TMC3     O 8764   1.323   1.002  16.120  0.0375  0.2236  0.2061
  591TMC3     H 8765   1.520   1.082  16.087  0.4899  0.2987 -0.2378
  591TMC3    H1 8766   1.309   1.301  16.399 -0.8775  2.0192 -1.4528
  591TMC3    H2 8767   1.700   1.418  16.278  0.6609 -1.0587  1.6732
  591TMC3    C7 8768   1.464   1.500  16.399  0.1021  0.7502 -1.0065
  591TMC3    C8 8769   1.741   1.202  16.128  0.3279 -0.4805  0.1416
  591TMC3    O1 8770   1.395   1.495  16.499 -0.0569 -0.1546 -0.7325
  591TMC3    O2 8771   1.758   1.084  16.106  0.0979 -0.8068  0.0707
  592MPD2     C 8772   1.906   3.316  11.321  0.2824 -0.0927 -0.0947
  592MPD2    C1 8773   1.972   3.301  11.441  0.6991  0.0039  0.1591
  592MPD2    C2 8774   1.907   3.222  11.535  0.0042  0.1746 -0.2896
  592MPD2    C3 8775   1.788   3.159  11.512 -0.8303  0.2873 -0.3758
  592MPD2    C4 8776   1.715   3.182  11.396 -0.3063  0.0559  1.0770
  592MPD2    C5 8777   1.779   3.268  11.308 -0.4712 -0.1847 -0.0522
  592MPD2     H 8778   1.950   3.211  11.634 -2.4911 -0.2340  0.7509
  592MPD2    H1 8779   1.621   3.140  11.360  0.2704 -2.1486  2.1743
  592MPD2    H2 8780   1.939   3.387  11.246 -4.1809  2.0231 -0.0747
  592MPD2    H3 8781   1.728   3.273  11.213 -1.5045  0.1331  0.5223
  592MPD2     N 8782   1.740   3.079  11.617 -0.2685 -0.2984  0.1011
  592MPD2    H5 8783   1.801   3.073  11.698 -0.5328  0.6104  0.3667
  592MPD2    N1 8784   2.086   3.384  11.465  0.2171 -0.1010  0.1893
  592MPD2    H7 8785   2.124   3.444  11.393  0.4646 -0.7373 -0.2063
  593TMC3    C1 8786   2.256   3.486  11.590  0.6135 -0.0581 -0.2478
  593TMC3    C2 8787   2.267   3.566  11.699  0.4053  0.1379  0.3010
  593TMC3    C3 8788   2.379   3.648  11.703  0.0338 -0.1329 -0.1256
  593TMC3    C4 8789   2.352   3.472  11.496 -0.1261  0.4099 -0.0339
  593TMC3    C5 8790   2.459   3.557  11.495  0.0615  0.8986  0.1318
  593TMC3    C6 8791   2.477   3.642  11.598  0.5645 -0.4644 -0.3145
  593TMC3     C 8792   2.139   3.404  11.593 -0.0317 -0.2654  0.0075
  593TMC3     O 8793   2.098   3.378  11.707 -0.2987 -0.3105 -0.6236
  593TMC3     H 8794   2.179   3.574  11.761  0.6743  1.7773  0.4738
  593TMC3    H1 8795   2.343   3.402  11.413  0.6322 -0.7423  0.8450
  593TMC3    H2 8796   2.567   3.700  11.614  0.4268 -0.6257  1.0453
  593TMC3    C7 8797   2.580   3.515  11.423  0.3061  0.0894 -0.2245
  593TMC3    C8 8798   2.388   3.740  11.816  0.3793  0.5502 -0.7698
  593TMC3    O1 8799   2.644   3.599  11.362 -0.4337  0.6932 -0.1188
  593TMC3    O2 8800   2.287   3.743  11.887 -0.0061 -1.0901  0.2258
  594MPD2     C 8801   0.632   2.041  14.584 -1.3329 -0.4332  0.8999
  594MPD2    C1 8802   0.564   2.159  14.555  0.1066 -0.0076 -0.4519
  594MPD2    C2 8803   0.633   2.274  14.531  0.5615 -0.2052 -0.0412
  594MPD2    C3 8804   0.766   2.278  14.543 -0.2051 -0.1170  0.5224
  594MPD2    C4 8805   0.833   2.163  14.558  0.0493 -0.0979  0.3665
  594MPD2    C5 8806   0.768   2.044  14.563  0.2267 -0.0125  1.2595
  594MPD2     H 8807   0.571   2.362  14.516 -0.0944 -0.7194 -0.3932
  594MPD2    H1 8808   0.941   2.161  14.545 -0.1121 -0.8794 -0.8524
  594MPD2    H2 8809   0.580   1.946  14.586 -1.1709 -0.5822 -1.6054
  594MPD2    H3 8810   0.822   1.950  14.560 -2.5664 -1.6386  2.2023
  594MPD2     N 8811   0.835   2.399  14.565 -0.1848 -0.6170 -0.0790
  594MPD2    H5 8812   0.793   2.487  14.535 -1.9685 -1.7192 -0.8126
  594MPD2    N1 8813   0.423   2.142  14.542  0.3724 -0.3746  0.3259
  594MPD2    H7 8814   0.381   2.050  14.559 -1.4127  0.1539 -1.2003
  595TMC3    C1 8815   1.182   2.702  14.607  0.4705  0.6582  0.1253
  595TMC3    C2 8816   1.126   2.575  14.613 -0.3881  0.0335  0.5785
  595TMC3    C3 8817   0.998   2.554  14.631  0.1644  0.0537  0.3971
  595TMC3    C4 8818   1.097   2.810  14.610 -0.1053  1.1509 -0.5540
  595TMC3    C5 8819   0.962   2.788  14.597  0.0351  0.6524 -0.1358
  595TMC3    C6 8820   0.915   2.663  14.630  0.1435 -0.2229 -0.1344
  595TMC3     C 8821   1.311   2.720  14.665 -0.2103 -0.0582 -0.2175
  595TMC3     O 8822   1.332   2.776  14.774 -0.3729  0.4618  0.4166
  595TMC3     H 8823   1.196   2.495  14.631  0.1071  0.1137 -1.0598
  595TMC3    H1 8824   1.146   2.907  14.617  0.1455  0.9696  0.1422
  595TMC3    H2 8825   0.808   2.653  14.618  0.0772 -0.9614  1.1598
  595TMC3    C7 8826   0.877   2.899  14.542 -0.5653 -0.3668 -0.4152
  595TMC3    C8 8827   0.952   2.414  14.631  0.2619  0.2440 -1.1179
  595TMC3    O1 8828   0.756   2.917  14.561 -0.0489  0.9214 -0.5252
  595TMC3    O2 8829   1.018   2.334  14.694  0.1162 -0.6400  0.0829
  596MPD2     C 8830   3.970   0.554  16.694 -0.6021 -0.1096  0.1406
  596MPD2    C1 8831   4.076   0.632  16.665  0.1245 -0.1632  0.4042
  596MPD2    C2 8832   4.148   0.614  16.548  0.7606  0.2928 -0.9435
  596MPD2    C3 8833   4.114   0.516  16.459  0.5493  0.2233 -0.0338
  596MPD2    C4 8834   4.016   0.422  16.498 -0.2721 -0.3426  0.3679
  596MPD2    C5 8835   3.946   0.442  16.618  0.1244  0.3268  0.2872
  596MPD2     H 8836   4.232   0.680  16.527  0.2471  0.6459 -1.8822
  596MPD2    H1 8837   3.995   0.332  16.441 -1.2858 -0.0038  0.2051
  596MPD2    H2 8838   3.905   0.573  16.779 -0.2283  1.3417  0.1115
  596MPD2    H3 8839   3.874   0.372  16.658  0.1227  0.9757  1.4090
  596MPD2     N 8840   4.181   0.503  16.334  0.1960 -0.1446 -0.0352
  596MPD2    H5 8841   4.168   0.428  16.267 -2.9338 -3.0168  3.8299
  596MPD2    N1 8842   4.111   0.750  16.731  0.1294  0.5356 -0.3636
  596MPD2    H7 8843   4.197   0.797  16.704  1.4034 -0.9960  0.9855
  597TMC3    C1 8844   4.059   0.953  16.852  1.1161 -0.1200 -0.0685
  597TMC3    C2 8845   4.167   1.013  16.786  0.2603 -0.7438  0.3430
  597TMC3    C3 8846   4.208   1.127  16.844  0.7209 -0.0992  0.2444
  597TMC3    C4 8847   3.980   1.014  16.947 -0.1457  0.4636  0.0365
  597TMC3    C5 8848   4.035   1.130  16.997 -0.0904 -0.6964 -0.2943
  597TMC3    C6 8849   4.143   1.192  16.942  0.1783 -0.3057  0.2108
  597TMC3     C 8850   4.028   0.810  16.824 -0.0736  0.0336 -0.3147
  597TMC3     O 8851   3.924   0.767  16.875  0.3380  0.4040 -0.6205
  597TMC3     H 8852   4.207   0.971  16.695 -0.0417 -0.9900  0.3252
  597TMC3    H1 8853   3.893   0.969  16.993 -0.8660 -1.8936 -3.6286
  597TMC3    H2 8854   4.177   1.284  16.988  0.3751 -0.7672  0.9883
  597TMC3    C7 8855   3.951   1.196  17.095  0.3143 -0.1105 -0.0564
  597TMC3    C8 8856   4.329   1.192  16.800  0.2507  0.7252  0.6113
  597TMC3    O1 8857   3.868   1.121  17.147 -0.0772  0.6859  0.2173
  597TMC3    O2 8858   4.355   1.293  16.863  0.1164  0.3162 -0.6546
  598TMC3    C1 8859   2.985   2.165  15.584  0.6792 -0.0374  0.0342
  598TMC3    C2 8860   2.856   2.140  15.630  0.4920  0.3963 -0.3627
  598TMC3    C3 8861   2.766   2.110  15.532 -0.2145  0.2318 -0.3196
  598TMC3    C4 8862   3.023   2.132  15.456 -0.2029  0.1388 -0.9033
  598TMC3    C5 8863   2.921   2.101  15.373  0.5563 -0.1154 -0.5802
  598TMC3    C6 8864   2.795   2.076  15.405  0.4213  0.0941 -0.3621
  598TMC3     C 8865   3.096   2.194  15.673 -0.1010  0.0612 -0.0473
  598TMC3     O 8866   3.201   2.230  15.624 -1.0667 -0.0962 -0.2556
  598TMC3     H 8867   2.825   2.164  15.730 -0.3535 -1.4740 -0.1664
  598TMC3    H1 8868   3.127   2.140  15.426 -0.0839  1.1158 -0.2322
  598TMC3    H2 8869   2.720   2.069  15.327 -1.0939  1.8711  0.9084
  598TMC3    C7 8870   2.941   2.120  15.230  0.8311  0.5255  0.6993
  598TMC3    C8 8871   2.628   2.125  15.571 -0.4270 -0.3690  0.0251
  598TMC3    O1 8872   2.899   2.035  15.157  0.0441  0.4206  0.0073
  598TMC3    O2 8873   2.590   2.196  15.663  0.1851 -0.1676  0.1775
  599MPD2     C 8874   2.751   0.128  16.012  0.4523 -0.6051  0.1478
  599MPD2    C1 8875   2.678   0.020  16.052 -0.1488  0.7039  0.2629
  599MPD2    C2 8876   2.543   0.033  16.052  0.2399 -0.1610  0.0232
  599MPD2    C3 8877   2.484   0.159  16.025 -0.7029 -0.5259  0.3300
  599MPD2    C4 8878   2.566   0.266  15.997 -0.4078 -0.4150  0.4939
  599MPD2    C5 8879   2.696   0.249  15.972  0.0366  0.3371  0.7219
  599MPD2     H 8880   2.475   4.685  16.095 -0.0181  1.0584  1.6773
  599MPD2    H1 8881   2.528   0.366  15.982  0.8905  0.1494  0.9376
  599MPD2    H2 8882   2.859   0.121  16.000  0.4774 -0.6877  0.4188
  599MPD2    H3 8883   2.754   0.324  15.920 -0.4682 -0.4883 -0.9999
  599MPD2     N 8884   2.341   0.179  16.026  0.2217  0.6617  0.4597
  599MPD2    H5 8885   2.308   0.274  16.017  0.4831  0.9508  2.5749
  599MPD2    N1 8886   2.737   4.622  16.104  0.2715  0.7817  0.1811
  599MPD2    H7 8887   2.836   4.612  16.125 -0.3334 -0.2267  2.5808
  600TMC3    C1 8888   2.112   0.128  16.052 -0.2185  0.3232 -0.0432
  600TMC3    C2 8889   2.034   0.012  16.061  0.5446  0.3448 -0.1045
  600TMC3    C3 8890   1.926   0.014  16.149 -0.4100 -0.3438 -0.3119
  600TMC3    C4 8891   2.080   0.238  16.128 -0.2697 -0.2122  0.7868
  600TMC3    C5 8892   1.959   0.238  16.192  0.5170  0.1759  0.3213
  600TMC3    C6 8893   1.885   0.125  16.207 -0.5100 -0.0523 -0.2647
  600TMC3     C 8894   2.252   0.081  16.045 -0.7394  0.9287  0.2950
  600TMC3     O 8895   2.263   4.684  16.067  0.0367  0.1245 -0.2202
  600TMC3     H 8896   2.054   4.655  15.993 -0.8962 -0.6743  0.7007
  600TMC3    H1 8897   2.143   0.327  16.133 -0.1632 -0.0981 -2.4990
  600TMC3    H2 8898   1.782   0.126  16.241 -1.3663  1.6029 -2.8696
  600TMC3    C7 8899   1.911   0.359  16.252  0.0211 -0.2797 -0.5136
  600TMC3    C8 8900   1.849   4.620  16.172 -0.4502  0.3307 -0.4075
  600TMC3    O1 8901   1.792   0.352  16.275 -0.4226  0.4032  0.4681
  600TMC3    O2 8902   1.736   4.636  16.211 -0.2580 -0.4529 -0.4356
  601MPD2     C 8903   0.078   2.524   0.089  0.3647  0.2072 -0.2399
  601MPD2    C1 8904   4.674   2.504   0.117  0.0162 -0.0137 -0.6769
  601MPD2    C2 8905   4.617   2.380   0.080  0.3182  0.0923  0.3082
  601MPD2    C3 8906   4.692   2.281   0.019  0.8718 -0.2675 -0.7081
  601MPD2    C4 8907   0.103   2.315  17.689  0.0866  0.1117  0.0636
  601MPD2    C5 8908   0.159   2.435   0.021  0.3695  0.0318 -0.5902
  601MPD2     H 8909   4.509   2.368   0.084  0.1277  1.2993 -1.8360
  601MPD2    H1 8910   0.163   2.239  17.642  0.1481  0.1082  0.1472
  601MPD2    H2 8911   0.126   2.618   0.114 -0.0837 -0.1786  2.0973
  601MPD2    H3 8912   0.265   2.451   0.005  1.0723 -0.8442  3.0660
  601MPD2     N 8913   4.635   2.158  17.666 -0.2359 -0.2403 -0.1514
  601MPD2    H5 8914   4.698   2.093  17.620  0.8814  0.9564 -0.3283
  601MPD2    N1 8915   4.579   2.604   0.167 -0.3187  0.2738  0.2628
  601MPD2    H7 8916   4.486   2.571   0.191  0.5682 -0.8590  2.1290
  602TMC3    C1 8917   4.478   2.827   0.174 -0.5993 -0.0620  0.0278
  602TMC3    C2 8918   4.496   2.961   0.199 -0.2033 -0.0601 -0.0396
  602TMC3    C3 8919   4.389   3.045   0.171  0.2406  0.5766  0.1821
  602TMC3    C4 8920   4.350   2.778   0.145 -0.1734 -0.2820  0.2794
  602TMC3    C5 8921   4.241   2.863   0.140  0.3616 -0.5283 -0.5533
  602TMC3    C6 8922   4.263   2.996   0.141  0.0284  0.1869 -0.2001
  602TMC3     C 8923   4.603   2.737   0.181  0.5026 -0.0654  0.4169
  602TMC3     O 8924   4.712   2.791   0.165 -0.1341  0.0652  0.0009
  602TMC3     H 8925   4.591   3.008   0.224  0.3731 -1.6773  0.8367
  602TMC3    H1 8926   4.328   2.674   0.123 -0.3219 -0.2176  0.1197
  602TMC3    H2 8927   4.179   3.058   0.169 -0.3567 -1.2953  1.9623
  602TMC3    C7 8928   4.105   2.829   0.092  0.0549  0.4599 -0.1694
  602TMC3    C8 8929   4.391   3.186   0.194 -0.4756  0.2595 -0.2630
  602TMC3    O1 8930   4.059   2.727   0.139  0.0435  0.4460 -0.1517
  602TMC3    O2 8931   4.443   3.230   0.297  0.1862 -0.2717 -0.8682
  603TMC3    C1 8932   3.246   2.088  10.884  0.3021  0.6338  0.3433
  603TMC3    C2 8933   3.237   2.169  10.991 -0.4103 -0.5217  0.1875
  603TMC3    C3 8934   3.239   2.303  10.969 -0.3161 -0.1493  0.0306
  603TMC3    C4 8935   3.254   2.141  10.754 -0.0423 -0.2839  0.0187
  603TMC3    C5 8936   3.249   2.277  10.740  0.4729 -0.0320  0.4373
  603TMC3    C6 8937   3.250   2.365  10.846 -0.4593  0.0668  0.3621
  603TMC3     C 8938   3.228   1.947  10.908 -0.2527 -0.1643  0.0577
  603TMC3     O 8939   3.198   1.917  11.024 -0.2248  0.3868  0.1222
  603TMC3     H 8940   3.240   2.133  11.094 -1.9915 -0.0642  0.3939
  603TMC3    H1 8941   3.256   2.084  10.662  2.0280 -1.4455  0.7862
  603TMC3    H2 8942   3.236   2.471  10.830  1.2887  0.1323 -0.7561
  603TMC3    C7 8943   3.235   2.338  10.608 -1.1394  0.3224 -0.7183
  603TMC3    C8 8944   3.185   2.389  11.076 -0.4735 -0.4639 -0.3566
  603TMC3    O1 8945   3.297   2.441  10.589  0.6569 -0.3418  0.1393
  603TMC3    O2 8946   3.162   2.330  11.179  0.0603 -0.2352 -0.2039
  604MPD2     C 8947   3.455   1.828  16.412 -0.3197  0.2620 -0.4980
  604MPD2    C1 8948   3.351   1.740  16.390  0.3522 -0.3971  0.2751
  604MPD2    C2 8949   3.341   1.671  16.267 -0.7369 -0.2497 -0.4299
  604MPD2    C3 8950   3.439   1.693  16.171  0.5502 -0.0624  0.0364
  604MPD2    C4 8951   3.538   1.788  16.185  0.6422 -1.3298 -0.5810
  604MPD2    C5 8952   3.539   1.860  16.306 -0.4684 -0.0844 -0.1250
  604MPD2     H 8953   3.258   1.603  16.252 -1.0072  0.2203 -1.0234
  604MPD2    H1 8954   3.609   1.820  16.109  0.2136 -1.1694 -0.9153
  604MPD2    H2 8955   3.449   1.891  16.500 -0.0402 -1.2634  0.6096
  604MPD2    H3 8956   3.613   1.938  16.309 -1.2610  0.6675 -0.3169
  604MPD2     N 8957   3.424   1.624  16.045 -0.1074 -0.0495  0.1124
  604MPD2    H5 8958   3.330   1.589  16.032 -0.5242  0.0126  2.8054
  604MPD2    N1 8959   3.251   1.735  16.494 -0.2583 -0.6799 -0.2906
  604MPD2    H7 8960   3.271   1.787  16.579  0.7627  0.9351 -1.4988
  605TMC3    C1 8961   3.051   1.742  16.597 -0.3350 -0.6353 -0.4431
  605TMC3    C2 8962   3.124   1.785  16.708  0.4955 -0.0845  0.7916
  605TMC3    C3 8963   3.102   1.910  16.757 -1.0714  0.0930  0.2574
  605TMC3    C4 8964   2.939   1.818  16.563 -0.2190 -0.5778  0.0404
  605TMC3    C5 8965   2.911   1.937  16.624  0.2259 -0.5836  0.3504
  605TMC3    C6 8966   2.996   1.985  16.722 -0.0067  0.0141  0.5725
  605TMC3     C 8967   3.121   1.697  16.480  0.0275  0.4706 -0.2104
  605TMC3     O 8968   3.058   1.661  16.384 -0.3214  0.2437 -0.1827
  605TMC3     H 8969   3.207   1.731  16.753 -0.4170 -0.4677  2.0317
  605TMC3    H1 8970   2.891   1.796  16.468  0.6859 -0.1540 -0.5074
  605TMC3    H2 8971   2.973   2.086  16.756  1.0241 -0.0129  1.3716
  605TMC3    C7 8972   2.804   2.011  16.574 -0.2084 -0.5886 -0.6403
  605TMC3    C8 8973   3.229   1.977  16.761  0.3352  0.0165  0.5026
  605TMC3    O1 8974   2.800   2.132  16.582 -0.3311 -0.2817 -0.1585
  605TMC3    O2 8975   3.326   1.924  16.703  0.2921 -0.1741 -0.4553
  606TMC3    C1 8976   0.087   0.462  16.902 -0.5003  0.0096  0.1737
  606TMC3    C2 8977   0.177   0.425  16.994 -0.3855 -0.3973 -0.1840
  606TMC3    C3 8978   0.182   0.292  17.033  0.3523  0.4235  0.2977
  606TMC3    C4 8979   4.715   0.379  16.856 -0.4670 -0.5399 -0.8707
  606TMC3    C5 8980   4.706   0.255  16.915 -0.7529 -0.1167 -0.7668
  606TMC3    C6 8981   0.071   0.208  17.009  0.2274 -0.3454  0.1982
  606TMC3     C 8982   0.108   0.593  16.838  0.8588  0.8909 -0.6518
  606TMC3     O 8983   0.186   0.674  16.885 -0.4159 -0.1328 -0.2805
  606TMC3     H 8984   0.264   0.490  17.005  1.2612 -2.4027 -1.3908
  606TMC3    H1 8985   4.634   0.398  16.787 -0.3463 -0.2815 -0.9419
  606TMC3    H2 8986   0.074   0.100  17.020 -0.8438 -0.3094  0.8421
  606TMC3    C7 8987   4.635   0.158  16.839 -0.4035 -0.4477  0.3580
  606TMC3    C8 8988   0.283   0.256  17.125  0.6371  0.5452 -0.7881
  606TMC3    O1 8989   4.648   0.163  16.719 -0.1979 -0.9011 -0.2614
  606TMC3    O2 8990   0.350   0.345  17.178 -0.2677 -0.0465  0.2969
  607MPD2     C 8991   1.831   2.686  11.504  0.6971 -0.1531 -0.3241
  607MPD2    C1 8992   1.932   2.736  11.581 -0.4166  1.1344 -1.0603
  607MPD2    C2 8993   1.937   2.698  11.713  0.4679 -0.3353 -0.0628
  607MPD2    C3 8994   1.856   2.598  11.766  0.6203 -0.3590 -0.3071
  607MPD2    C4 8995   1.754   2.540  11.683 -0.9147  0.3816  0.4493
  607MPD2    C5 8996   1.746   2.592  11.557 -0.3800  0.2071 -0.1720
  607MPD2     H 8997   2.010   2.750  11.773 -2.0406  1.4304  1.4417
  607MPD2    H1 8998   1.678   2.469  11.713 -1.1146  0.4928  0.2060
  607MPD2    H2 8999   1.821   2.705  11.397 -1.4105 -0.4466 -0.1888
  607MPD2    H3 9000   1.652   2.555  11.518 -1.2432  1.3224  0.8762
  607MPD2     N 9001   1.883   2.565  11.904 -0.2063  0.0380 -0.0356
  607MPD2    H5 9002   1.949   2.627  11.951  0.8374 -0.1042 -1.3341
  607MPD2    N1 9003   2.023   2.845  11.545  0.6778 -0.4450  0.5708
  607MPD2    H7 9004   2.091   2.878  11.613  0.0051  3.2758 -0.5750
  608TMC3    C1 9005   2.138   3.001  11.423  0.3733 -0.4286  0.3043
  608TMC3    C2 9006   2.184   3.046  11.545  0.8643 -0.0432  0.0331
  608TMC3    C3 9007   2.311   3.091  11.549  0.3460 -0.5295  0.5630
  608TMC3    C4 9008   2.209   3.016  11.309 -0.5087 -0.0312 -0.0580
  608TMC3    C5 9009   2.337   3.063  11.320  0.2781 -0.5630  0.7220
  608TMC3    C6 9010   2.393   3.100  11.438 -0.7845 -0.4721  0.5750
  608TMC3     C 9011   2.032   2.898  11.425  0.6344 -0.9778 -0.0531
  608TMC3     O 9012   1.972   2.862  11.322  0.2852  0.7172 -0.3107
  608TMC3     H 9013   2.108   3.067  11.619  1.2932  1.2772  0.0917
  608TMC3    H1 9014   2.184   2.989  11.207  1.1231 -0.0949 -0.4407
  608TMC3    H2 9015   2.501   3.099  11.449 -0.4804  1.9236 -2.0347
  608TMC3    C7 9016   2.398   3.083  11.187 -0.4457  0.8004  0.8022
  608TMC3    C8 9017   2.362   3.129  11.682 -0.1405  1.1307  0.1046
  608TMC3    O1 9018   2.321   3.132  11.100 -0.1534 -0.0803  0.3428
  608TMC3    O2 9019   2.421   3.233  11.697 -0.1112  0.3393  0.2566
  609TMC3    C1 9020   1.053   0.798   9.295 -0.2805 -0.9436 -0.1218
  609TMC3    C2 9021   1.108   0.747   9.181  0.1568 -0.2323 -0.3554
  609TMC3    C3 9022   1.242   0.743   9.169  0.4256  0.1331 -0.0925
  609TMC3    C4 9023   1.133   0.856   9.388 -0.1583  0.3626 -0.4908
  609TMC3    C5 9024   1.271   0.851   9.375 -0.2078 -0.5439 -0.0937
  609TMC3    C6 9025   1.326   0.784   9.269 -1.0834 -0.2967 -0.4545
  609TMC3     C 9026   0.912   0.832   9.286  0.5529 -0.2318  0.5154
  609TMC3     O 9027   0.872   0.866   9.175 -0.3591  0.5099 -0.7454
  609TMC3     H 9028   1.043   0.714   9.101 -0.4248  1.5689 -0.6330
  609TMC3    H1 9029   1.088   0.910   9.471  0.3955 -0.3665  0.2814
  609TMC3    H2 9030   1.427   0.807   9.236 -0.4006 -1.6656  0.7239
  609TMC3    C7 9031   1.340   0.880   9.504 -0.2438  0.2819 -0.1671
  609TMC3    C8 9032   1.310   0.661   9.066  0.4246 -0.3225 -0.6606
  609TMC3    O1 9033   1.285   0.949   9.589 -0.7269 -0.2371  0.1991
  609TMC3    O2 9034   1.429   0.680   9.040  0.6702 -0.1896  0.2537
  610TMC3    C1 9035   2.406   2.243  12.536  0.1423 -0.1421 -0.4400
  610TMC3    C2 9036   2.467   2.337  12.455  0.1399 -0.1628 -0.6549
  610TMC3    C3 9037   2.596   2.313  12.423 -0.5371 -0.7000  0.3543
  610TMC3    C4 9038   2.467   2.127  12.581 -1.3055  0.0089 -0.4372
  610TMC3    C5 9039   2.598   2.114  12.547  0.7358 -1.1961  0.0444
  610TMC3    C6 9040   2.660   2.200  12.465 -0.2393  1.0848  0.1204
  610TMC3     C 9041   2.261   2.258  12.565  0.5127  0.3138 -0.7145
  610TMC3     O 9042   2.196   2.162  12.594  0.3318 -0.4225 -0.0225
  610TMC3     H 9043   2.419   2.431  12.427 -1.5505  0.2178  3.5951
  610TMC3    H1 9044   2.407   2.060  12.642 -1.8070 -0.0255 -0.9712
  610TMC3    H2 9045   2.751   2.166  12.416  0.4914  0.5917  1.8366
  610TMC3    C7 9046   2.681   2.030  12.634  0.0437  0.0085 -0.5085
  610TMC3    C8 9047   2.682   2.409  12.352 -0.0744 -0.2106 -0.7475
  610TMC3    O1 9048   2.799   2.061  12.618 -0.0954 -0.6657  0.0425
  610TMC3    O2 9049   2.801   2.389  12.370  0.0123 -0.0650 -0.3566
  611MPD2     C 9050   2.111   2.373  10.510  0.4506  0.3533 -0.0159
  611MPD2    C1 9051   2.072   2.282  10.416 -0.2550 -0.4747  0.3949
  611MPD2    C2 9052   2.162   2.219  10.339 -0.8226  0.1965  0.5338
  611MPD2    C3 9053   2.298   2.247  10.353 -0.0862 -0.3395 -0.2372
  611MPD2    C4 9054   2.335   2.329  10.454  0.5997 -0.3852 -0.3468
  611MPD2    C5 9055   2.241   2.394  10.529  0.2940 -0.3273  0.0314
  611MPD2     H 9056   2.127   2.146  10.267 -1.7162  0.2673  0.8934
  611MPD2    H1 9057   2.440   2.352  10.471  0.4100 -0.6387  1.1821
  611MPD2    H2 9058   2.044   2.417  10.583  0.5142 -0.0269  0.2714
  611MPD2    H3 9059   2.274   2.467  10.602 -0.7178  0.5083 -0.3442
  611MPD2     N 9060   2.391   2.194  10.256 -0.4561 -0.3131 -0.4081
  611MPD2    H5 9061   2.489   2.215  10.269 -0.5381 -0.9158  1.1405
  611MPD2    N1 9062   1.935   2.257  10.414 -0.3704  0.3402  0.0974
  611MPD2    H7 9063   1.878   2.312  10.478  1.8172  0.7274  1.7002
  612TMC3    C1 9064   2.463   2.102  10.059  0.3571 -0.2746 -0.3731
  612TMC3    C2 9065   2.593   2.133  10.096 -0.0746 -0.2308 -0.0417
  612TMC3    C3 9066   2.691   2.147   9.994 -0.5380  0.9704 -0.8110
  612TMC3    C4 9067   2.425   2.084   9.928  1.2408 -0.9881  0.2478
  612TMC3    C5 9068   2.519   2.096   9.833 -0.0339 -0.5852  0.4045
  612TMC3    C6 9069   2.651   2.129   9.858 -0.1097 -0.3823 -0.2304
  612TMC3     C 9070   2.354   2.116  10.146  0.5011  0.1610 -0.6219
  612TMC3     O 9071   2.245   2.098  10.098 -0.1829 -0.0036  0.8523
  612TMC3     H 9072   2.619   2.150  10.200  1.0487  0.5741 -0.4645
  612TMC3    H1 9073   2.329   2.038   9.908  0.9143  0.1062 -0.7234
  612TMC3    H2 9074   2.726   2.144   9.781  1.1728 -1.7024  0.7593
  612TMC3    C7 9075   2.487   2.081   9.694  0.5135  0.7255  0.8871
  612TMC3    C8 9076   2.816   2.218  10.020  0.2523  0.6829 -0.4166
  612TMC3    O1 9077   2.581   2.082   9.617 -0.0383 -0.0267 -0.1195
  612TMC3    O2 9078   2.869   2.276   9.921 -0.3656  0.4656 -0.0155
  613MPD2     C 9079   0.770   0.294  16.480  0.0216  0.1866  0.3585
  613MPD2    C1 9080   0.675   0.352  16.394  0.7669 -0.5637  0.7422
  613MPD2    C2 9081   0.575   0.282  16.333  0.1140  0.5235  0.0656
  613MPD2    C3 9082   0.569   0.150  16.364 -0.3390 -0.4339 -0.0638
  613MPD2    C4 9083   0.647   0.089  16.462 -0.3322  0.1530  0.4745
  613MPD2    C5 9084   0.749   0.166  16.521 -0.0919 -0.9952  0.2002
  613MPD2     H 9085   0.502   0.319  16.263 -1.5884 -1.9406  0.5476
  613MPD2    H1 9086   0.634   4.712  16.497 -2.5428  0.5675  0.8660
  613MPD2    H2 9087   0.853   0.351  16.518  1.4956 -2.6878  1.3961
  613MPD2    H3 9088   0.822   0.119  16.586 -1.1477  1.5949  3.2526
  613MPD2     N 9089   0.487   0.070  16.285  0.2630  0.2657 -0.3098
  613MPD2    H5 9090   0.496   4.694  16.298 -0.7474  0.0220 -1.4911
  613MPD2    N1 9091   0.702   0.484  16.345  0.1473  0.3440 -0.1540
  613MPD2    H7 9092   0.789   0.525  16.377 -0.5382  0.1422  1.9842
  614TMC3    C1 9093   0.707   0.646  16.180 -0.2910  0.3241 -0.1546
  614TMC3    C2 9094   0.836   0.597  16.152  0.3139  0.6207 -0.2115
  614TMC3    C3 9095   0.878   0.576  16.025 -0.1090 -0.3984  0.1817
  614TMC3    C4 9096   0.636   0.703  16.082 -0.1573 -0.4642  0.5238
  614TMC3    C5 9097   0.674   0.675  15.954  0.1943 -0.1326  0.4519
  614TMC3    C6 9098   0.793   0.610  15.922 -0.2857 -0.4492 -0.2140
  614TMC3     C 9099   0.626   0.558  16.253 -0.0912  0.1061 -0.3423
  614TMC3     O 9100   0.513   0.537  16.213 -0.0271 -0.6538 -0.1667
  614TMC3     H 9101   0.890   0.541  16.228  1.4051 -0.8403 -2.0377
  614TMC3    H1 9102   0.542   0.756  16.096  0.3468  0.6735 -0.3309
  614TMC3    H2 9103   0.826   0.596  15.820 -0.6984  0.9218 -0.5353
  614TMC3    C7 9104   0.602   0.726  15.849 -0.5336  0.0483  0.1870
  614TMC3    C8 9105   0.930   0.443  16.004  0.1017 -0.2353  0.1071
  614TMC3    O1 9106   0.546   0.837  15.864  0.0980 -0.2683  0.2756
  614TMC3    O2 9107   0.886   0.364  16.082 -0.0958 -0.5267 -0.2465
  615MPD2     C 9108   0.704   2.077  16.230  0.3073  1.1031  0.5658
  615MPD2    C1 9109   0.580   2.129  16.249  0.7121 -0.2484 -0.5912
  615MPD2    C2 9110   0.472   2.088  16.169 -0.3058 -0.1135  0.1431
  615MPD2    C3 9111   0.495   1.997  16.067  0.3367 -0.6717  0.1195
  615MPD2    C4 9112   0.619   1.946  16.049 -0.0782  0.0105  0.3143
  615MPD2    C5 9113   0.723   1.990  16.124 -0.4976  1.1199  0.0150
  615MPD2     H 9114   0.373   2.128  16.185 -1.2634 -3.2092  1.9117
  615MPD2    H1 9115   0.634   1.877  15.967 -1.8444 -0.2025  0.1710
  615MPD2    H2 9116   0.792   2.116  16.279 -0.2081  1.9389  0.8446
  615MPD2    H3 9117   0.820   1.945  16.105 -1.1595 -0.1179 -0.4390
  615MPD2     N 9118   0.393   1.950  15.985  0.7692 -0.0328  0.5195
  615MPD2    H5 9119   0.419   1.878  15.918 -0.5819 -0.6402  0.6488
  615MPD2    N1 9120   0.544   2.221  16.349 -0.0267 -0.0375 -0.3642
  615MPD2    H7 9121   0.446   2.244  16.355 -0.1917 -1.4101  2.5931
  616TMC3    C1 9122   0.556   2.353  16.544 -0.7817  0.1223  0.2337
  616TMC3    C2 9123   0.585   2.484  16.572 -0.5030  0.1067  0.4538
  616TMC3    C3 9124   0.501   2.554  16.646  0.1597  0.6240  0.9482
  616TMC3    C4 9125   0.443   2.293  16.589 -0.1360 -0.1381 -0.2742
  616TMC3    C5 9126   0.359   2.370  16.667  0.3024 -0.4670  0.0758
  616TMC3    C6 9127   0.381   2.505  16.689  0.3757  0.5068  0.2704
  616TMC3     C 9128   0.631   2.283  16.440  0.1226 -0.0241  0.1242
  616TMC3     O 9129   0.753   2.292  16.428  0.0240 -0.4447  0.7381
  616TMC3     H 9130   0.668   2.530  16.519  0.8776  0.3029  2.7936
  616TMC3    H1 9131   0.415   2.192  16.559 -0.4033 -0.4452  1.0129
  616TMC3    H2 9132   0.302   2.571  16.725 -0.8068 -0.1947 -1.0306
  616TMC3    C7 9133   0.226   2.315  16.697  0.5037 -0.0521 -0.1389
  616TMC3    C8 9134   0.522   2.700  16.653 -0.0171 -0.3633 -0.9938
  616TMC3    O1 9135   0.177   2.225  16.625  0.2680  0.3908 -0.0359
  616TMC3    O2 9136   0.422   2.763  16.683  0.4266 -0.5357 -0.7520
  617MPD2     C 9137   3.475   0.538  14.112 -0.8734  0.6130  0.3617
  617MPD2    C1 9138   3.465   0.421  14.042  0.6898  0.1747  0.5610
  617MPD2    C2 9139   3.338   0.365  14.040 -0.1566 -0.0395  0.6812
  617MPD2    C3 9140   3.233   0.407  14.122 -0.1131  0.5151 -0.1095
  617MPD2    C4 9141   3.255   0.502  14.216  0.1858 -0.0609 -0.0799
  617MPD2    C5 9142   3.373   0.573  14.196  0.8353  0.5381  0.5161
  617MPD2     H 9143   3.325   0.278  13.977 -0.2867 -0.2097  0.9438
  617MPD2    H1 9144   3.182   0.537  14.288 -0.1469 -0.6148 -0.1459
  617MPD2    H2 9145   3.559   0.606  14.102 -0.1459 -0.4284 -0.6115
  617MPD2    H3 9146   3.392   0.667  14.246  2.2892 -0.3587  1.6572
  617MPD2     N 9147   3.109   0.336  14.131 -0.0088  0.8060  0.0119
  617MPD2    H5 9148   3.039   0.373  14.195  0.3827  0.0990  0.8494
  617MPD2    N1 9149   3.568   0.380  13.958 -0.1721 -0.6409  0.0422
  617MPD2    H7 9150   3.653   0.436  13.960  0.6945 -1.9138 -0.3537
  618TMC3    C1 9151   3.722   0.230  13.889  0.7205 -0.0853  0.0605
  618TMC3    C2 9152   3.778   0.113  13.932 -0.5166 -0.4305 -0.3564
  618TMC3    C3 9153   3.898   0.080  13.883 -0.3027  0.1632  0.5493
  618TMC3    C4 9154   3.774   0.295  13.780 -0.3733 -0.4995  0.3818
  618TMC3    C5 9155   3.878   0.243  13.713 -0.8279 -0.7962 -0.7592
  618TMC3    C6 9156   3.948   0.141  13.771 -0.0912  0.3927 -0.0276
  618TMC3     C 9157   3.589   0.250  13.926 -0.4067 -0.7172  0.8020
  618TMC3     O 9158   3.523   0.149  13.948 -0.1808 -0.1610  0.3814
  618TMC3     H 9159   3.751   0.062  14.024 -0.5544  1.6768  0.7896
  618TMC3    H1 9160   3.729   0.388  13.745  1.2347  0.4830  0.9514
  618TMC3    H2 9161   4.052   0.137  13.741 -0.7301  1.0046 -2.2933
  618TMC3    C7 9162   3.952   0.332  13.624  0.1228 -0.2781  1.0603
  618TMC3    C8 9163   3.943   4.664  13.899  0.2812 -0.6418 -0.5085
  618TMC3    O1 9164   3.971   0.448  13.664  0.2066  0.6009 -0.8788
  618TMC3    O2 9165   3.886   4.596  13.986  0.5549  0.4098  0.1409
  619MPD2     C 9166   4.560   1.238  13.661 -0.0673 -0.8155  0.0969
  619MPD2    C1 9167   4.524   1.235  13.528  0.3937  0.9194  0.2338
  619MPD2    C2 9168   4.391   1.255  13.487  0.4316 -0.2739 -0.5746
  619MPD2    C3 9169   4.290   1.272  13.582  0.0623 -0.1239 -0.0033
  619MPD2    C4 9170   4.334   1.278  13.716 -0.6662 -0.1608  0.4429
  619MPD2    C5 9171   4.463   1.255  13.757  0.1050  0.5849  0.4645
  619MPD2     H 9172   4.365   1.251  13.382  0.5652  1.4904 -0.6749
  619MPD2    H1 9173   4.267   1.297  13.800 -1.7614 -1.0324 -0.2301
  619MPD2    H2 9174   4.659   1.216  13.700 -0.6730  2.3449  3.4897
  619MPD2    H3 9175   4.494   1.241  13.860 -1.0388 -2.0719  0.4390
  619MPD2     N 9176   4.151   1.284  13.563  0.2790 -0.3597 -0.2873
  619MPD2    H5 9177   4.085   1.293  13.639 -0.3881 -1.1907 -0.7713
  619MPD2    N1 9178   4.619   1.220  13.417  0.1608  0.3221 -0.1226
  619MPD2    H7 9179   4.580   1.217  13.324 -3.0311  0.2647  1.2059
  620TMC3    C1 9180   0.093   1.226  13.297 -0.1593 -0.1070  0.6072
  620TMC3    C2 9181   0.028   1.203  13.179 -1.0618 -1.0780  0.2569
  620TMC3    C3 9182   0.074   1.270  13.071 -0.1179  1.2515 -0.2234
  620TMC3    C4 9183   0.205   1.307  13.310  0.5424 -0.3839 -0.7940
  620TMC3    C5 9184   0.246   1.374  13.202  0.2201  0.2847  0.4184
  620TMC3    C6 9185   0.179   1.356  13.078 -0.9938  0.4849 -0.1269
  620TMC3     C 9186   0.028   1.216  13.430  0.6431  0.2925 -0.4807
  620TMC3     O 9187   0.099   1.236  13.527 -0.0912 -0.4913 -0.4722
  620TMC3     H 9188   4.665   1.140  13.173 -2.0298  0.3689 -0.7600
  620TMC3    H1 9189   0.249   1.319  13.408 -0.8851  1.0018 -0.3080
  620TMC3    H2 9190   0.202   1.408  12.986 -0.5061 -1.0708 -0.9011
  620TMC3    C7 9191   0.290   1.515  13.233  0.0137  0.2137  0.4376
  620TMC3    C8 9192   0.020   1.243  12.936  0.2213 -0.3531  0.1262
  620TMC3    O1 9193   0.243   1.597  13.157 -0.1477 -0.5942 -0.3818
  620TMC3    O2 9194   0.079   1.163  12.866  0.0925  0.2035 -0.3570
  621MPD2     C 9195   0.623   0.279   9.638 -0.2386  0.0066 -0.1642
  621MPD2    C1 9196   0.753   0.313   9.668 -0.4178 -0.6103  0.2611
  621MPD2    C2 9197   0.781   0.421   9.751 -0.5109  0.3048 -0.0269
  621MPD2    C3 9198   0.675   0.502   9.799  0.4963  1.2262  0.0644
  621MPD2    C4 9199   0.546   0.460   9.782 -0.6227 -0.2498  0.6327
  621MPD2    C5 9200   0.524   0.345   9.708  0.2488  0.5028  0.0025
  621MPD2     H 9201   0.883   0.449   9.771 -1.0707  0.1109  3.1354
  621MPD2    H1 9202   0.463   0.517   9.821 -0.4287 -1.0190  2.1827
  621MPD2    H2 9203   0.591   0.205   9.566 -1.6661  0.1416  0.3193
  621MPD2    H3 9204   0.420   0.322   9.690  0.7292 -1.1705 -0.7146
  621MPD2     N 9205   0.696   0.615   9.881 -0.3469  0.2818  0.5820
  621MPD2    H5 9206   0.613   0.666   9.912  0.9574  1.8026  1.5553
  621MPD2    N1 9207   0.850   0.228   9.606 -0.4030  0.1043  0.5186
  621MPD2    H7 9208   0.812   0.150   9.553  0.0244  0.6638 -0.6033
  622TMC3    C1 9209   1.075   0.149   9.544 -0.1087  0.0465 -0.5247
  622TMC3    C2 9210   1.038   0.134   9.413 -0.4462 -0.0330 -0.2061
  622TMC3    C3 9211   1.116   0.066   9.325 -0.0182  0.6658 -0.4995
  622TMC3    C4 9212   1.190   0.090   9.588  0.1735  1.0044 -0.3304
  622TMC3    C5 9213   1.251   0.001   9.507 -0.1699  0.5781 -0.0528
  622TMC3    C6 9214   1.221   4.720   9.375  0.1464 -0.3203  0.1173
  622TMC3     C 9215   0.990   0.237   9.637  0.6040  0.4555 -0.8944
  622TMC3     O 9216   1.045   0.289   9.732  0.2247  0.5813  0.0288
  622TMC3     H 9217   0.949   0.177   9.368 -0.2435  2.2000  1.5345
  622TMC3    H1 9218   1.215   0.087   9.694 -1.5521 -2.6250 -0.0474
  622TMC3    H2 9219   1.281   4.654   9.313  0.6520  0.8573 -0.6519
  622TMC3    C7 9220   1.380   4.675   9.561 -0.3236  0.7399  0.3417
  622TMC3    C8 9221   1.083   0.059   9.181  0.0847  0.5018  0.1886
  622TMC3    O1 9222   1.444   0.022   9.643  0.0695  0.8728 -0.0247
  622TMC3    O2 9223   0.969   0.088   9.147 -0.1406  0.0551 -0.3848
  623MPD2     C 9224   3.679   2.153  15.702 -0.0875 -0.3219 -0.3182
  623MPD2    C1 9225   3.723   2.266  15.768  0.0023 -0.5040 -0.7416
  623MPD2    C2 9226   3.775   2.254  15.892  0.5483  0.2545  0.1558
  623MPD2    C3 9227   3.792   2.133  15.958 -0.3431  0.2686 -0.4973
  623MPD2    C4 9228   3.732   2.026  15.899  0.0691 -0.0372 -0.5159
  623MPD2    C5 9229   3.695   2.039  15.767 -1.1307  0.6001  0.1369
  623MPD2     H 9230   3.813   2.346  15.934  1.8471 -1.3435  2.5479
  623MPD2    H1 9231   3.735   1.926  15.942 -1.1919 -0.0086 -0.3706
  623MPD2    H2 9232   3.625   2.151  15.608 -0.9388 -1.6424  0.2017
  623MPD2    H3 9233   3.662   1.951  15.714 -0.0860 -0.4668  1.2749
  623MPD2     N 9234   3.833   2.139  16.091 -0.3654 -0.0384  0.9239
  623MPD2    H5 9235   3.845   2.230  16.133 -2.8173  1.3065 -1.2591
  623MPD2    N1 9236   3.698   2.400  15.725  0.1498  0.6050 -0.0603
  623MPD2    H7 9237   3.729   2.480  15.778 -0.3081 -0.2620  1.5393
  624TMC3    C1 9238   3.971   2.029  16.517  0.4950 -0.5525 -0.1966
  624TMC3    C2 9239   3.880   2.108  16.584  0.3036 -0.4642  0.3935
  624TMC3    C3 9240   3.800   2.183  16.503 -0.1334  0.0671  0.3362
  624TMC3    C4 9241   3.974   1.997  16.382 -0.3775 -0.4374  0.4501
  624TMC3    C5 9242   3.888   2.074  16.309  0.0877  0.1576  0.0581
  624TMC3    C6 9243   3.795   2.157  16.367 -0.1640  0.3585 -0.7883
  624TMC3     C 9244   4.079   1.983  16.594  0.3985  0.3147 -0.0702
  624TMC3     O 9245   4.109   2.060  16.689  0.4331 -0.1466 -0.1296
  624TMC3     H 9246   3.870   2.115  16.692 -1.5996 -3.0294  0.3790
  624TMC3    H1 9247   4.057   1.955  16.326  0.8131  0.5057  1.5200
  624TMC3    H2 9248   3.725   2.213  16.305  0.3509  0.1241 -1.5810
  624TMC3    C7 9249   3.868   2.035  16.171 -0.3441  0.1855  0.4191
  624TMC3    C8 9250   3.666   2.204  16.550  0.4250  0.0020 -0.2062
  624TMC3    O1 9251   3.868   1.918  16.145  0.5035  0.6220 -0.3764
  624TMC3    O2 9252   3.587   2.150  16.475 -0.3295  0.0807 -0.0566
  625MPD2     C 9253   3.711   3.092   0.625 -0.0445  0.5241  0.7614
  625MPD2    C1 9254   3.811   3.177   0.670 -0.1411 -0.4574 -0.9260
  625MPD2    C2 9255   3.915   3.116   0.747 -0.4312  0.1568 -0.3419
  625MPD2    C3 9256   3.910   2.983   0.784 -0.3141 -0.0098 -0.1629
  625MPD2    C4 9257   3.802   2.906   0.742 -0.6755  0.3933  0.8518
  625MPD2    C5 9258   3.710   2.960   0.655  0.2706 -0.3654  0.1294
  625MPD2     H 9259   3.995   3.178   0.786  0.8873 -1.6433 -0.2216
  625MPD2    H1 9260   3.795   2.801   0.767 -2.3561  0.0638 -0.9939
  625MPD2    H2 9261   3.632   3.128   0.561 -0.0025  1.7062  1.3726
  625MPD2    H3 9262   3.633   2.892   0.623 -1.5180  0.7901  1.9875
  625MPD2     N 9263   4.019   2.927   0.851 -0.3443 -0.0421 -0.7498
  625MPD2    H5 9264   4.093   2.997   0.860  2.3519 -3.0276  0.2967
  625MPD2    N1 9265   3.804   3.322   0.658  0.4205  0.4728 -0.5262
  625MPD2    H7 9266   3.872   3.379   0.707 -0.5412 -1.5230  3.1495
  626TMC3    C1 9267   3.711   3.537   0.622 -0.0407  0.0063 -0.5573
  626TMC3    C2 9268   3.650   3.630   0.539  0.4323  0.4462  0.0050
  626TMC3    C3 9269   3.647   3.764   0.576  0.1113  0.5284 -0.5255
  626TMC3    C4 9270   3.772   3.588   0.737 -0.4058  0.1542 -0.0585
  626TMC3    C5 9271   3.775   3.717   0.768  0.6457  0.3030  0.5449
  626TMC3    C6 9272   3.716   3.812   0.688  0.2557  0.1263 -0.6300
  626TMC3     C 9273   3.707   3.395   0.594 -0.4040  0.0658  0.5809
  626TMC3     O 9274   3.625   3.359   0.512 -0.2532 -0.1081  0.2140
  626TMC3     H 9275   3.607   3.599   0.445 -0.5074  2.6680 -0.3043
  626TMC3    H1 9276   3.821   3.533   0.817  1.1919 -0.9325 -1.7896
  626TMC3    H2 9277   3.730   3.917   0.710  0.9624  0.1612 -1.2165
  626TMC3    C7 9278   3.778   3.741   0.912  0.0344  0.3883 -0.4778
  626TMC3    C8 9279   3.606   3.848   0.470 -0.0239 -0.1599  0.0254
  626TMC3    O1 9280   3.873   3.698   0.970 -0.3393  0.5705 -0.1345
  626TMC3    O2 9281   3.584   3.797   0.362  0.3551 -0.0560 -0.2544
  627MPD2     C 9282   2.597   3.792  14.577 -0.3603  0.8518  0.4102
  627MPD2    C1 9283   2.662   3.753  14.689  0.6584  0.2654 -0.4942
  627MPD2    C2 9284   2.625   3.649  14.763  0.1672  0.4587  0.6084
  627MPD2    C3 9285   2.522   3.567  14.712 -0.3970 -0.0456 -0.3933
  627MPD2    C4 9286   2.460   3.594  14.585  0.2339 -0.5532  0.0883
  627MPD2    C5 9287   2.493   3.717  14.527  0.3512  0.1451 -0.4094
  627MPD2     H 9288   2.672   3.615  14.855 -0.2474  0.1370  0.7019
  627MPD2    H1 9289   2.377   3.539  14.541  1.0479 -0.6939 -1.2625
  627MPD2    H2 9290   2.611   3.890  14.532  0.8324 -1.0267 -3.3536
  627MPD2    H3 9291   2.435   3.767  14.450 -0.7190 -1.9250 -0.9600
  627MPD2     N 9292   2.479   3.449  14.783 -0.3203 -0.5558 -0.2565
  627MPD2    H5 9293   2.526   3.436  14.872 -0.7861  0.1167  0.0907
  627MPD2    N1 9294   2.773   3.820  14.735  0.8621 -0.7283 -0.3320
  627MPD2    H7 9295   2.799   3.795  14.829 -0.8510 -0.7538  0.1341
  628TMC3    C1 9296   2.965   3.955  14.746 -0.7835  0.1721 -0.5843
  628TMC3    C2 9297   3.042   3.861  14.810  0.2274  0.1421 -0.0125
  628TMC3    C3 9298   3.170   3.868  14.823 -0.2713  0.6995 -0.8092
  628TMC3    C4 9299   3.029   4.067  14.699 -0.3515 -0.8102  0.2065
  628TMC3    C5 9300   3.165   4.072  14.724 -0.0776 -1.0487 -0.6147
  628TMC3    C6 9301   3.240   3.971  14.775  0.5888 -0.0316 -0.4891
  628TMC3     C 9302   2.831   3.935  14.691  0.5467 -0.0247  0.5428
  628TMC3     O 9303   2.793   4.009  14.597  0.1363  0.3770 -0.0316
  628TMC3     H 9304   2.999   3.765  14.835  0.8522 -0.3093 -0.6976
  628TMC3    H1 9305   2.969   4.142  14.648 -3.0970 -2.2012  1.3774
  628TMC3    H2 9306   3.343   3.986  14.808  0.6705 -3.6583  0.8651
  628TMC3    C7 9307   3.244   4.178  14.665  0.1616  0.2049 -0.1956
  628TMC3    C8 9308   3.236   3.741  14.809 -0.2192  0.1839 -1.2587
  628TMC3    O1 9309   3.363   4.153  14.645 -0.0538 -0.3795  0.1455
  628TMC3    O2 9310   3.167   3.645  14.773  0.2818 -0.6111  0.4170
  629MPD2     C 9311   0.794   3.138  16.693 -0.3383  0.0971 -0.5385
  629MPD2    C1 9312   0.871   3.044  16.624  0.2295 -0.3422 -0.7888
  629MPD2    C2 9313   0.821   2.915  16.618 -0.7169  0.2574  0.2145
  629MPD2    C3 9314   0.696   2.882  16.662 -0.2567 -0.1315  0.4253
  629MPD2    C4 9315   0.626   2.983  16.722 -0.0767  0.1290 -0.4862
  629MPD2    C5 9316   0.673   3.103  16.742  0.1992  0.3427  0.6662
  629MPD2     H 9317   0.882   2.836  16.574 -0.4336 -0.1458  1.3226
  629MPD2    H1 9318   0.526   2.961  16.756  0.4011 -2.4807 -0.8102
  629MPD2    H2 9319   0.824   3.242  16.696 -0.3454  0.0643  1.0895
  629MPD2    H3 9320   0.612   3.184  16.781  0.7826  1.9648 -1.7799
  629MPD2     N 9321   0.656   2.744  16.650  0.5296  0.0372  0.4419
  629MPD2    H5 9322   0.723   2.676  16.615  0.6905  0.2695  0.3027
  629MPD2    N1 9323   0.996   3.086  16.569 -0.3894 -0.2588  0.3579
  629MPD2    H7 9324   1.024   3.180  16.595 -1.9314 -0.3168  2.2402
  630TMC3    C1 9325   1.179   3.076  16.413 -1.4825 -0.6325 -0.2408
  630TMC3    C2 9326   1.218   3.204  16.443  0.4771 -0.7490 -0.8247
  630TMC3    C3 9327   1.335   3.246  16.387  0.5142 -0.1943  0.2178
  630TMC3    C4 9328   1.248   2.996  16.325 -0.0888  0.0600  0.4737
  630TMC3    C5 9329   1.376   3.030  16.298 -0.7127 -0.6864  0.0960
  630TMC3    C6 9330   1.420   3.162  16.314  0.2024  0.5126  1.2095
  630TMC3     C 9331   1.076   3.009  16.486 -0.3302 -0.3895 -0.0180
  630TMC3     O 9332   1.059   2.897  16.442  0.5574  0.5855  0.0496
  630TMC3     H 9333   1.154   3.263  16.507  1.0622 -0.1088 -0.8392
  630TMC3    H1 9334   1.216   2.894  16.307 -0.0281  0.4953 -2.1328
  630TMC3    H2 9335   1.522   3.192  16.293 -0.3303  1.2246 -0.2920
  630TMC3    C7 9336   1.460   2.939  16.366 -0.6793 -0.7477  0.3429
  630TMC3    C8 9337   1.419   3.341  16.461 -0.2236  0.5273 -0.7237
  630TMC3    O1 9338   1.417   2.829  16.405  0.2007  0.4057 -0.8419
  630TMC3    O2 9339   1.521   3.386  16.411  0.1005  0.1651 -0.1076
  631MPD2     C 9340   4.053   2.069  15.724  0.4509  0.4309 -0.0940
  631MPD2    C1 9341   4.136   2.144  15.648  0.1985  0.4625 -0.4071
  631MPD2    C2 9342   4.280   2.118  15.644  0.1681 -0.7240 -0.6254
  631MPD2    C3 9343   4.329   2.033  15.741  0.7808 -0.1010 -0.7517
  631MPD2    C4 9344   4.243   1.968  15.821 -0.6262  0.4203 -0.2813
  631MPD2    C5 9345   4.107   1.986  15.815 -0.0693  0.1833 -0.2289
  631MPD2     H 9346   4.346   2.180  15.585  0.9453  0.2625  1.2547
  631MPD2    H1 9347   4.276   1.904  15.902 -1.9358  2.5519  1.9268
  631MPD2    H2 9348   3.947   2.080  15.704  0.2513  0.2926  0.9000
  631MPD2    H3 9349   4.050   1.920  15.880 -0.2902 -1.0272 -1.6541
  631MPD2     N 9350   4.472   2.014  15.741 -0.4870 -0.0341 -0.3771
  631MPD2    H5 9351   4.522   2.064  15.668  0.4590  0.9608  0.9408
  631MPD2    N1 9352   4.067   2.231  15.563  0.1768 -0.0578 -0.4794
  631MPD2    H7 9353   3.973   2.205  15.533  0.5316 -2.3948  0.4111
  632TMC3    C1 9354   4.051   2.410  15.402 -0.0824 -0.0997  0.2486
  632TMC3    C2 9355   3.957   2.491  15.449  0.1503  0.3965  0.4153
  632TMC3    C3 9356   3.909   2.593  15.371  0.9104 -0.1260  0.4078
  632TMC3    C4 9357   4.115   2.438  15.283  0.5890  0.1297  0.2897
  632TMC3    C5 9358   4.075   2.550  15.210  0.4207  0.2103  0.4615
  632TMC3    C6 9359   3.970   2.631  15.252 -0.8580 -0.2897 -0.0616
  632TMC3     C 9360   4.131   2.331  15.491  0.2964 -0.5453 -0.0758
  632TMC3     O 9361   4.246   2.371  15.492  0.6722  0.3900  0.3657
  632TMC3     H 9362   3.914   2.473  15.546  2.5802 -0.3145  1.3577
  632TMC3    H1 9363   4.200   2.377  15.254  0.3905 -0.0477  0.0792
  632TMC3    H2 9364   3.957   2.727  15.203 -0.7091 -1.0942 -1.6832
  632TMC3    C7 9365   4.146   2.585  15.090  0.2717  0.0562 -0.0445
  632TMC3    C8 9366   3.828   2.688  15.446 -0.1316 -0.5359 -0.2258
  632TMC3    O1 9367   4.087   2.635  14.997 -0.1325 -0.2800 -0.1065
  632TMC3    O2 9368   3.821   2.666  15.567 -0.4229 -0.4579  0.3505
  633MPD2     C 9369   3.622   0.433  17.196 -0.0243  0.8383 -0.3020
  633MPD2    C1 9370   3.574   0.388  17.073 -0.9524 -0.1826 -0.1821
  633MPD2    C2 9371   3.600   0.262  17.039 -0.5419  0.0476 -0.2907
  633MPD2    C3 9372   3.659   0.178  17.134  0.2992 -0.3932 -0.6845
  633MPD2    C4 9373   3.688   0.215  17.262  0.2188 -0.4163  0.4161
  633MPD2    C5 9374   3.664   0.341  17.295 -0.2621 -0.2671 -0.2038
  633MPD2     H 9375   3.577   0.230  16.938 -2.0453 -1.6374  0.5972
  633MPD2    H1 9376   3.711   0.145  17.341 -1.0639 -0.7329  0.4965
  633MPD2    H2 9377   3.612   0.538  17.222 -1.1535  0.9066 -1.0255
  633MPD2    H3 9378   3.677   0.373  17.398 -0.4039 -2.2153  0.4159
  633MPD2     N 9379   3.698   0.050  17.081  0.0020 -0.4060 -0.1604
  633MPD2    H5 9380   3.669   0.032  16.986  0.0840 -1.7120  0.0634
  633MPD2    N1 9381   3.522   0.477  16.969  0.5897 -0.1679 -0.0867
  633MPD2    H7 9382   3.506   0.431  16.880 -0.4199 -1.0483  0.5497
  634TMC3    C1 9383   3.520   0.676  16.852  0.0434 -0.2007 -0.5368
  634TMC3    C2 9384   3.575   0.605  16.743  0.2674 -0.1788 -0.3483
  634TMC3    C3 9385   3.643   0.670  16.644  0.4418  0.7344 -0.2137
  634TMC3    C4 9386   3.549   0.808  16.861  0.1625  0.8730  0.3318
  634TMC3    C5 9387   3.617   0.869  16.763 -0.5251  0.1336 -0.1841
  634TMC3    C6 9388   3.667   0.802  16.652  0.8221  0.1696 -0.0368
  634TMC3     C 9389   3.507   0.610  16.980  0.2553  0.1720  0.1270
  634TMC3     O 9390   3.500   0.677  17.078  0.1656 -0.0550 -0.2809
  634TMC3     H 9391   3.560   0.499  16.722  2.0886 -0.3395 -0.9065
  634TMC3    H1 9392   3.504   0.866  16.940 -2.6439 -1.5127  0.4786
  634TMC3    H2 9393   3.722   0.861  16.580  0.3254 -0.6117 -1.0501
  634TMC3    C7 9394   3.600   1.011  16.728  0.2281 -0.1235  0.3602
  634TMC3    C8 9395   3.649   0.594  16.523 -0.3956 -0.7228  0.3163
  634TMC3    O1 9396   3.602   1.035  16.608  0.2386 -0.0296 -0.2373
  634TMC3    O2 9397   3.557   0.513  16.511 -0.0738 -0.1304 -0.1450
  635TMC3    C1 9398   0.019   1.233  16.972 -0.1536 -0.2461 -0.3424
  635TMC3    C2 9399   0.145   1.191  16.960 -0.0813 -0.2138  0.3628
  635TMC3    C3 9400   0.168   1.056  16.968  0.6118  0.4539  0.3835
  635TMC3    C4 9401   4.639   1.146  16.980  0.2309  0.5956  0.5392
  635TMC3    C5 9402   4.662   1.013  16.974 -0.3492  0.2469 -0.4724
  635TMC3    C6 9403   0.067   0.961  16.974  0.0922 -0.2000  1.2018
  635TMC3     C 9404   4.716   1.373  17.019  0.0369  0.4306 -0.1160
  635TMC3     O 9405   4.607   1.386  17.077 -0.3478 -0.1713 -0.7693
  635TMC3     H 9406   0.224   1.261  16.938  0.9208 -0.9099  1.7960
  635TMC3    H1 9407   4.538   1.185  16.980  0.4817  1.2410  1.3626
  635TMC3    H2 9408   0.076   0.853  16.977  0.2671 -0.2720 -1.4313
  635TMC3    C7 9409   4.552   0.918  16.990  0.2708 -0.5185 -0.2750
  635TMC3    C8 9410   0.289   1.027  17.044 -0.2444 -0.4936  0.5352
  635TMC3    O1 9411   4.578   0.798  16.968  0.3961  0.0370 -0.2928
  635TMC3    O2 9412   0.361   1.123  17.074 -0.1168 -0.1706  0.2216
  636MPD2     C 9413   0.184   0.630  15.743  0.6163  0.6059  0.1255
  636MPD2    C1 9414   0.215   0.604  15.871  0.1248 -1.0594  0.3755
  636MPD2    C2 9415   0.256   0.479  15.910 -0.3358  0.3280 -0.4463
  636MPD2    C3 9416   0.256   0.376  15.815  0.4443 -0.0148 -0.3167
  636MPD2    C4 9417   0.216   0.395  15.681 -0.4183 -0.8393 -0.2632
  636MPD2    C5 9418   0.186   0.526  15.644  0.3411  0.4312  0.3557
  636MPD2     H 9419   0.295   0.455  16.008 -3.4205  0.2627  0.7408
  636MPD2    H1 9420   0.201   0.317  15.607 -2.2822  1.3106 -2.1424
  636MPD2    H2 9421   0.164   0.734  15.717  4.0364  0.3792 -3.3632
  636MPD2    H3 9422   0.156   0.549  15.542 -2.1594 -0.8049  0.8015
  636MPD2     N 9423   0.283   0.246  15.856  0.8651 -0.0647  0.8158
  636MPD2    H5 9424   0.302   0.235  15.955  2.4236  2.5150  0.8060
  636MPD2    N1 9425   0.213   0.696  15.978  0.0362 -0.7026  0.2470
  636MPD2    H7 9426   0.235   0.651  16.066  0.2634 -1.1050 -0.0167
  637TMC3    C1 9427   0.321   0.024  15.862  0.0379 -0.9469  0.0629
  637TMC3    C2 9428   0.279   0.048  15.994 -0.4003 -0.6062 -0.5259
  637TMC3    C3 9429   0.366   0.008  16.094 -0.1524 -0.4344 -0.1298
  637TMC3    C4 9430   0.444   4.697  15.832 -0.1834 -0.5245 -0.3999
  637TMC3    C5 9431   0.524   4.656  15.933  0.2866 -0.4289  0.0401
  637TMC3    C6 9432   0.479   4.664  16.056 -0.7588 -0.2815  0.3793
  637TMC3     C 9433   0.278   0.132  15.782  0.1294  0.5240 -0.1718
  637TMC3     O 9434   0.297   0.110  15.663 -0.1718 -0.1524 -0.6209
  637TMC3     H 9435   0.185   0.092  16.025  0.1030 -0.7494  1.2081
  637TMC3    H1 9436   0.471   4.691  15.727  4.1297  0.5776  0.6472
  637TMC3    H2 9437   0.548   4.621  16.128 -0.9827 -1.8481 -0.3452
  637TMC3    C7 9438   0.657   4.719  15.926 -0.8593  0.2342  0.3001
  637TMC3    C8 9439   0.392   0.106  16.193  0.7968 -0.1076  0.2234
  637TMC3    O1 9440   0.687   0.048  16.031  0.3977  1.5109 -0.2730
  637TMC3    O2 9441   0.334   0.213  16.175 -0.4754  0.4336 -0.5009
  638MPD2     C 9442   0.638   4.155  14.384 -0.8884  0.6894 -0.4612
  638MPD2    C1 9443   0.521   4.233  14.387 -0.7081 -0.7180 -0.2261
  638MPD2    C2 9444   0.444   4.223  14.495  0.4893 -0.1113  0.0035
  638MPD2    C3 9445   0.480   4.153  14.608  0.1933  0.1424 -0.1957
  638MPD2    C4 9446   0.601   4.086  14.614 -0.6373  0.8066 -0.6247
  638MPD2    C5 9447   0.678   4.090  14.496  0.1323 -0.9783  0.0207
  638MPD2     H 9448   0.355   4.284  14.486 -1.4382 -2.5493  2.2949
  638MPD2    H1 9449   0.642   4.044  14.705 -0.2570  0.7189 -0.8390
  638MPD2    H2 9450   0.711   4.164  14.305 -1.6139 -6.3482 -1.8878
  638MPD2    H3 9451   0.777   4.045  14.493  0.3313 -0.6874  2.2351
  638MPD2     N 9452   0.393   4.148  14.714  0.4323  0.1128  0.9299
  638MPD2    H5 9453   0.296   4.170  14.694  0.0745  0.2020  2.7367
  638MPD2    N1 9454   0.504   4.309  14.270  0.4101 -0.3460  0.2079
  638MPD2    H7 9455   0.575   4.316  14.197  1.8455 -0.2790  1.5983
  639TMC3    C1 9456   0.340   4.035  14.920 -0.2806  0.3579  1.1634
  639TMC3    C2 9457   0.264   3.943  14.846  0.4490  0.2575  0.4023
  639TMC3    C3 9458   0.192   3.856  14.915 -0.0707  0.2684  0.1495
  639TMC3    C4 9459   0.352   4.024  15.056  0.2486 -0.1136 -0.0515
  639TMC3    C5 9460   0.282   3.921  15.118 -0.0246  0.2439 -0.4111
  639TMC3    C6 9461   0.197   3.844  15.050 -0.1463 -0.2351 -0.5057
  639TMC3     C 9462   0.432   4.111  14.842  0.7945 -0.5361  0.5445
  639TMC3     O 9463   0.539   4.148  14.888  0.1009  0.1596  0.0322
  639TMC3     H 9464   0.272   3.935  14.738 -2.6972 -0.3976  0.2249
  639TMC3    H1 9465   0.414   4.083  15.122 -0.6082 -0.5791  1.1659
  639TMC3    H2 9466   0.151   3.756  15.094 -2.9164  0.6033 -1.6917
  639TMC3    C7 9467   0.322   3.872  15.248  0.5329  0.2303 -0.3261
  639TMC3    C8 9468   0.097   3.765  14.841  0.3836  0.1072 -0.2163
  639TMC3    O1 9469   0.234   3.859  15.329  0.2387 -0.2271 -0.1428
  639TMC3    O2 9470   0.122   3.728  14.729 -0.1504  0.2497 -0.1495
  640MPD2     C 9471   0.654   2.359   9.901  0.9508  0.2464 -0.2301
  640MPD2    C1 9472   0.733   2.407   9.801 -0.1708 -1.0228  0.2699
  640MPD2    C2 9473   0.739   2.544   9.776  0.6347 -0.5104  0.6593
  640MPD2    C3 9474   0.685   2.631   9.863  0.8936 -0.2054  0.3796
  640MPD2    C4 9475   0.614   2.580   9.970  0.3208 -0.3596  0.6172
  640MPD2    C5 9476   0.593   2.440   9.986 -0.7661 -0.4204  0.5241
  640MPD2     H 9477   0.800   2.577   9.692  0.8524 -0.1028  0.9712
  640MPD2    H1 9478   0.594   2.646  10.053  1.3334 -1.0846  1.4374
  640MPD2    H2 9479   0.642   2.252   9.916 -1.0041  0.8224  2.2744
  640MPD2    H3 9480   0.550   2.404  10.079  1.0104  1.6145  2.1569
  640MPD2     N 9481   0.718   2.769   9.868  0.3863  0.3636 -0.4643
  640MPD2    H5 9482   0.698   2.814   9.957  1.8591 -0.9619  0.5349
  640MPD2    N1 9483   0.789   2.308   9.719 -0.4407  0.0315 -0.4515
  640MPD2    H7 9484   0.779   2.210   9.744  1.1829 -0.2914 -1.0578
  641TMC3    C1 9485   0.930   2.210   9.564  0.2760  0.3359  0.2528
  641TMC3    C2 9486   0.963   2.110   9.646 -1.0446  0.6498 -0.0787
  641TMC3    C3 9487   1.028   2.004   9.590  0.0456 -0.3100 -0.1103
  641TMC3    C4 9488   0.961   2.215   9.435 -0.0465  0.7232  0.0932
  641TMC3    C5 9489   1.025   2.111   9.377 -0.5510 -0.2520  0.1205
  641TMC3    C6 9490   1.053   1.997   9.454 -0.2892  0.1793 -0.2060
  641TMC3     C 9491   0.872   2.332   9.614 -0.8545 -0.1168  0.3688
  641TMC3     O 9492   0.913   2.439   9.574 -0.8558  0.1697  0.1053
  641TMC3     H 9493   0.952   2.123   9.753 -0.1741  0.7545  0.0007
  641TMC3    H1 9494   0.945   2.308   9.382 -2.0781 -1.1661 -2.5873
  641TMC3    H2 9495   1.095   1.906   9.412  2.9561  1.6776 -0.2108
  641TMC3    C7 9496   1.037   2.098   9.237 -0.2339 -1.3291 -0.5401
  641TMC3    C8 9497   1.076   1.892   9.669 -0.4095 -0.2167 -0.0299
  641TMC3    O1 9498   1.110   2.009   9.197  0.1201  0.7553 -0.3790
  641TMC3    O2 9499   1.169   1.824   9.622 -0.1494  0.3838 -0.2283
  642TMC3    C1 9500   2.193   3.699  12.356  0.3539  0.1779 -0.4762
  642TMC3    C2 9501   2.299   3.710  12.272  0.1229 -0.0116  0.6095
  642TMC3    C3 9502   2.333   3.610  12.182 -0.1861  0.0706 -0.0607
  642TMC3    C4 9503   2.118   3.579  12.350 -0.2329  0.0906 -0.3246
  642TMC3    C5 9504   2.150   3.484  12.251  0.0677  0.1898 -0.3873
  642TMC3    C6 9505   2.247   3.501  12.162 -0.2601  0.5447 -0.4177
  642TMC3     C 9506   2.150   3.821  12.414 -0.2565 -0.5621  0.1476
  642TMC3     O 9507   2.231   3.912  12.413 -0.1945  0.2477  0.2170
  642TMC3     H 9508   2.373   3.789  12.281 -0.7281  0.8594 -0.0738
  642TMC3    H1 9509   2.034   3.560  12.416 -0.6747 -0.7416 -1.1398
  642TMC3    H2 9510   2.273   3.432  12.082  0.2012 -1.3139  1.3215
  642TMC3    C7 9511   2.065   3.372  12.234  0.4665 -0.4035 -0.5462
  642TMC3    C8 9512   2.471   3.578  12.158  0.3769  0.2442 -0.0868
  642TMC3    O1 9513   2.037   3.351  12.119  0.1157 -0.6727  0.2922
  642TMC3    O2 9514   2.509   3.483  12.091  0.1667 -0.3932 -0.1267
  643TMC3    C1 9515   1.106   3.411   0.790 -0.9480 -0.2562 -0.4783
  643TMC3    C2 9516   1.010   3.481   0.725 -0.0674  0.5081 -0.2388
  643TMC3    C3 9517   0.909   3.418   0.667  0.3777 -0.0923  0.4177
  643TMC3    C4 9518   1.116   3.274   0.775 -0.5203 -0.0771  0.0396
  643TMC3    C5 9519   1.018   3.208   0.706 -0.3464  0.7679 -0.8435
  643TMC3    C6 9520   0.908   3.280   0.665  0.2813 -0.4240 -0.2974
  643TMC3     C 9521   1.213   3.488   0.845  0.6144  0.0837 -0.6989
  643TMC3     O 9522   1.230   3.599   0.791 -0.6679  0.9365 -0.3114
  643TMC3     H 9523   1.000   3.588   0.737 -1.5197  0.7189 -3.3468
  643TMC3    H1 9524   1.209   3.225   0.805  0.3185  1.6137  0.2022
  643TMC3    H2 9525   0.831   3.222   0.616 -0.5531  0.2555  0.2193
  643TMC3    C7 9526   1.076   3.141   0.595 -0.6129 -0.2841 -0.0101
  643TMC3    C8 9527   0.829   3.486   0.568 -0.6187  0.3059 -0.3310
  643TMC3    O1 9528   1.178   3.190   0.551  0.2899  0.0450 -0.1562
  643TMC3    O2 9529   0.719   3.430   0.550  0.1493 -0.0700 -0.0155
  644MPD2     C 9530   0.943   2.763  10.222 -0.2026 -0.4257  0.0727
  644MPD2    C1 9531   1.009   2.796  10.106  1.0107 -0.1683  0.9270
  644MPD2    C2 9532   1.070   2.919  10.107  0.8466 -0.1295  0.5073
  644MPD2    C3 9533   1.060   3.015  10.211  1.2491  0.3372 -0.1436
  644MPD2    C4 9534   0.982   2.985  10.320 -0.0982  0.0671 -0.1723
  644MPD2    C5 9535   0.925   2.857  10.321  0.0750  0.2172 -0.3983
  644MPD2     H 9536   1.117   2.953  10.016 -1.1795  1.5394  0.0893
  644MPD2    H1 9537   0.967   3.048  10.407  0.9960  1.5719 -1.0579
  644MPD2    H2 9538   0.912   2.659  10.227 -0.7835 -0.3044 -0.9162
  644MPD2    H3 9539   0.894   2.822  10.419 -1.2735  1.6594 -0.3089
  644MPD2     N 9540   1.137   3.134  10.202 -0.9478  0.6632 -0.0197
  644MPD2    H5 9541   1.171   3.166  10.112 -2.9268 -1.3867 -1.4940
  644MPD2    N1 9542   1.017   2.703  10.005 -0.0298  0.8811 -0.1675
  644MPD2    H7 9543   0.960   2.623  10.030 -0.0797  1.5101  1.6924
  645TMC3    C1 9544   1.261   3.318  10.252  0.7272  0.2762  0.0090
  645TMC3    C2 9545   1.329   3.399  10.339 -0.0640 -0.1978  1.1177
  645TMC3    C3 9546   1.393   3.513  10.297 -0.0631  0.2326  0.1896
  645TMC3    C4 9547   1.260   3.358  10.114  0.3178  0.0247  0.2522
  645TMC3    C5 9548   1.325   3.475  10.080 -0.0248 -0.1609 -0.5386
  645TMC3    C6 9549   1.392   3.555  10.169  0.0669 -0.3841 -0.4822
  645TMC3     C 9550   1.183   3.211  10.302 -0.4637 -0.0345 -1.3156
  645TMC3     O 9551   1.158   3.210  10.425 -0.1602  0.2809  0.0335
  645TMC3     H 9552   1.340   3.366  10.441  0.2672  0.0094  1.1482
  645TMC3    H1 9553   1.195   3.310  10.042  1.6273 -2.1433  0.5173
  645TMC3    H2 9554   1.439   3.649  10.144 -2.3982  0.8740 -0.3502
  645TMC3    C7 9555   1.336   3.516   9.943  0.9645 -0.3188 -0.8026
  645TMC3    C8 9556   1.487   3.584  10.383  0.2015 -0.0096  0.2253
  645TMC3    O1 9557   1.434   3.583   9.920 -0.6371 -0.8569 -0.2710
  645TMC3    O2 9558   1.583   3.641  10.333  0.7830  0.3224 -0.3435
  646MPD2     C 9559   0.135   2.706  14.375 -0.4220  0.4297  0.0159
  646MPD2    C1 9560   0.150   2.816  14.456 -0.7140  0.0234  1.1605
  646MPD2    C2 9561   0.069   2.925  14.449  0.5789  0.7637 -0.0054
  646MPD2    C3 9562   4.697   2.935  14.357 -1.0601  0.3757 -1.1326
  646MPD2    C4 9563   4.679   2.832  14.274  0.1045  0.0796  0.0634
  646MPD2    C5 9564   0.029   2.717  14.283 -0.1206 -0.8114  0.2046
  646MPD2     H 9565   0.075   3.005  14.522 -1.8519  0.0908  0.9346
  646MPD2    H1 9566   4.597   2.829  14.204 -0.5298 -1.1420  0.8482
  646MPD2    H2 9567   0.191   2.614  14.382 -2.0017 -0.7161 -2.5616
  646MPD2    H3 9568   4.722   2.631  14.226  0.5527 -0.6094 -0.4698
  646MPD2     N 9569   4.606   3.044  14.370 -0.5067 -0.5541  0.1623
  646MPD2    H5 9570   4.646   3.128  14.410  1.1521 -0.5232 -1.5499
  646MPD2    N1 9571   0.257   2.799  14.550  0.0151 -0.3715 -0.5121
  646MPD2    H7 9572   0.313   2.716  14.530  0.1400 -1.2955  3.7834
  647TMC3    C1 9573   0.400   2.842  14.725 -0.7069 -0.4634  0.3488
  647TMC3    C2 9574   0.438   2.914  14.840 -0.3002  0.7176  0.3755
  647TMC3    C3 9575   0.554   2.881  14.900  0.8691  0.2907  0.5504
  647TMC3    C4 9576   0.460   2.726  14.688  0.3586 -0.5135 -0.0567
  647TMC3    C5 9577   0.574   2.702  14.758 -0.3134 -0.0104 -0.8398
  647TMC3    C6 9578   0.635   2.785  14.843  0.3442 -0.1034 -0.4738
  647TMC3     C 9579   0.291   2.888  14.645  0.5923  0.0347 -0.3389
  647TMC3     O 9580   0.270   3.008  14.672  0.2552  0.0016 -0.6092
  647TMC3     H 9581   0.384   2.999  14.880 -0.1135  1.3742 -0.7631
  647TMC3    H1 9582   0.426   2.647  14.623 -2.3199  0.7053 -0.1679
  647TMC3    H2 9583   0.723   2.745  14.892 -0.4842  0.1620  1.2399
  647TMC3    C7 9584   0.606   2.562  14.793 -0.2620  0.1162 -0.9126
  647TMC3    C8 9585   0.526   2.831  15.032  0.3309  0.2908  0.0633
  647TMC3    O1 9586   0.724   2.535  14.805 -0.3659 -0.2529 -0.0522
  647TMC3    O2 9587   0.626   2.801  15.095  0.1792  0.3637  0.5610
  648TMC3    C1 9588   4.262   0.585  16.136  0.3270 -0.6385  0.0704
  648TMC3    C2 9589   4.293   0.466  16.089  0.2292  0.5769 -0.3963
  648TMC3    C3 9590   4.269   0.438  15.958  0.2204  0.4866  0.4311
  648TMC3    C4 9591   4.225   0.690  16.054 -0.3488  0.2417 -0.1338
  648TMC3    C5 9592   4.215   0.664  15.918 -0.2804  0.1026  0.1786
  648TMC3    C6 9593   4.235   0.537  15.867 -0.0709 -0.6042 -0.7348
  648TMC3     C 9594   4.248   0.608  16.277  0.9391 -0.5192  0.1943
  648TMC3     O 9595   4.271   0.726  16.307 -0.2083  0.0748  0.5270
  648TMC3     H 9596   4.323   0.381  16.150  0.1364  0.5588 -0.3754
  648TMC3    H1 9597   4.176   0.776  16.098 -1.1687 -0.3430  0.0900
  648TMC3    H2 9598   4.232   0.526  15.759 -0.2523 -0.5734 -0.7315
  648TMC3    C7 9599   4.147   0.759  15.837 -0.3657 -1.0231  0.4399
  648TMC3    C8 9600   4.335   0.315  15.906  0.5388  0.4974  0.8697
  648TMC3    O1 9601   4.112   0.717  15.727  0.0764  0.1464  0.0566
  648TMC3    O2 9602   4.396   0.249  15.987  0.9348  0.2003 -0.2022
  649TMC3    C1 9603   3.486   1.357  12.559  0.1414 -0.0187  0.7100
  649TMC3    C2 9604   3.622   1.373  12.565 -0.3508 -0.3211 -0.3132
  649TMC3    C3 9605   3.679   1.385  12.690  0.3478  0.2610 -0.0588
  649TMC3    C4 9606   3.409   1.331  12.668  0.2867 -0.1500  0.3489
  649TMC3    C5 9607   3.476   1.327  12.788 -0.9633  0.2161  0.1588
  649TMC3    C6 9608   3.611   1.360  12.805 -0.0687  0.5987  0.6889
  649TMC3     C 9609   3.408   1.379  12.436 -0.0130  0.0286 -0.0791
  649TMC3     O 9610   3.290   1.397  12.455 -0.4749 -0.6535  0.0139
  649TMC3     H 9611   3.681   1.384  12.475 -0.7454 -1.1157 -0.6691
  649TMC3    H1 9612   3.304   1.308  12.655 -0.5855  3.0970  1.6123
  649TMC3    H2 9613   3.647   1.374  12.906 -1.3476 -0.5182  1.3006
  649TMC3    C7 9614   3.406   1.285  12.900  0.4330 -0.6621  0.0842
  649TMC3    C8 9615   3.821   1.423  12.708  0.0363  0.1933  0.2908
  649TMC3    O1 9616   3.285   1.272  12.899  0.2113  0.3700 -0.3952
  649TMC3    O2 9617   3.866   1.390  12.815 -0.1185  0.1105  0.4005
  650TMC3    C1 9618   1.391   2.698  12.923  0.0316 -0.3929 -0.2441
  650TMC3    C2 9619   1.372   2.831  12.933  0.3861  0.4569  0.3847
  650TMC3    C3 9620   1.273   2.882  12.854  0.0558  0.4085  0.1231
  650TMC3    C4 9621   1.306   2.619  12.851  0.2258  0.3250 -0.0270
  650TMC3    C5 9622   1.211   2.678  12.771  0.1767 -0.2251  0.7580
  650TMC3    C6 9623   1.196   2.810  12.772  0.5312 -0.2423  0.7281
  650TMC3     C 9624   1.486   2.633  13.009  0.0279  0.4167 -0.0241
  650TMC3     O 9625   1.507   2.677  13.121  0.2363  0.1821  0.5239
  650TMC3     H 9626   1.438   2.898  12.987 -0.4139  1.5130  0.0602
  650TMC3    H1 9627   1.303   2.510  12.855 -0.4270  0.3605  0.4389
  650TMC3    H2 9628   1.113   2.860  12.722  1.9338  0.3415 -1.0131
  650TMC3    C7 9629   1.155   2.587  12.668 -0.1058 -0.1074  0.0343
  650TMC3    C8 9630   1.240   3.025  12.871  0.3204 -0.6900 -0.0497
  650TMC3    O1 9631   1.144   2.468  12.692  0.3969  0.0262  0.1170
  650TMC3    O2 9632   1.339   3.094  12.899  0.3821 -0.6300  0.7842
  651MPD2     C 9633   0.303   4.224  11.635 -0.2791  0.1634  0.1594
  651MPD2    C1 9634   0.251   4.326  11.561  0.2643 -0.0356 -0.6824
  651MPD2    C2 9635   0.333   4.371  11.458  0.0896  0.2334 -0.6499
  651MPD2    C3 9636   0.467   4.331  11.439 -0.2218 -0.7898 -0.1883
  651MPD2    C4 9637   0.508   4.219  11.506 -0.4701  0.5050 -0.3501
  651MPD2    C5 9638   0.432   4.182  11.615 -0.1195 -0.1341  0.5195
  651MPD2     H 9639   0.297   4.450  11.393 -0.2101  0.0193 -0.7433
  651MPD2    H1 9640   0.608   4.180  11.488 -1.2839 -1.5882 -0.2733
  651MPD2    H2 9641   0.251   4.182  11.720  0.3752  1.0477  0.9920
  651MPD2    H3 9642   0.479   4.103  11.672 -0.9119 -2.0340 -1.4591
  651MPD2     N 9643   0.544   4.399  11.338 -0.8212  0.0904  0.3772
  651MPD2    H5 9644   0.504   4.486  11.305 -0.7389 -0.2941 -0.7108
  651MPD2    N1 9645   0.117   4.371  11.559  0.2471 -0.3649 -0.4250
  651MPD2    H7 9646   0.079   4.430  11.486  0.1842 -1.3580 -1.2076
  652TMC3    C1 9647   0.916   4.546  11.111 -0.3517  0.6503  0.0741
  652TMC3    C2 9648   0.849   4.446  11.176 -0.3584  0.2351 -1.0164
  652TMC3    C3 9649   0.718   4.470  11.218 -0.3461 -0.5105 -1.0510
  652TMC3    C4 9650   0.856   4.663  11.081 -0.9234  0.6033  0.4485
  652TMC3    C5 9651   0.735   4.688  11.140  0.0767 -0.3023 -0.7031
  652TMC3    C6 9652   0.655   4.590  11.199 -0.1044 -0.7726 -0.3693
  652TMC3     C 9653   1.065   4.546  11.110 -0.0376 -0.2019 -0.2259
  652TMC3     O 9654   1.119   4.481  11.201 -0.0429  0.4966 -0.3087
  652TMC3     H 9655   0.908   4.370  11.227  2.0563  1.9337 -1.2822
  652TMC3    H1 9656   0.914   0.020  11.040 -0.7413 -0.2507 -0.9749
  652TMC3    H2 9657   0.559   4.618  11.241  0.1985 -0.2084 -0.0387
  652TMC3    C7 9658   0.710   0.098  11.207 -0.6116  0.7728  0.3464
  652TMC3    C8 9659   0.666   4.368  11.294  0.7383  0.3144  0.1271
  652TMC3    O1 9660   0.618   0.101  11.290  0.0131 -0.0105 -0.2135
  652TMC3    O2 9661   0.732   4.266  11.311 -0.5179  0.2343 -0.1893
  653MPD2     C 9662   3.605   0.857   0.043  0.3264  0.5797 -0.0736
  653MPD2    C1 9663   3.514   0.934  17.677 -0.2471  0.4416  0.0994
  653MPD2    C2 9664   3.425   0.878  17.593 -0.1323 -0.0541  0.3828
  653MPD2    C3 9665   3.430   0.736  17.564  0.4693 -0.1339 -0.5895
  653MPD2    C4 9666   3.528   0.661  17.629  0.5296  0.4049 -0.6018
  653MPD2    C5 9667   3.617   0.725   0.014  0.4780 -0.2056 -0.8082
  653MPD2     H 9668   3.357   0.940  17.535  1.9356  1.2360 -0.6499
  653MPD2    H1 9669   3.540   0.554  17.618  0.1752  0.2370  0.7062
  653MPD2    H2 9670   3.672   0.905   0.113 -0.1484 -1.7544  1.9835
  653MPD2    H3 9671   3.699   0.673   0.063  0.4398  0.2920 -0.2242
  653MPD2     N 9672   3.334   0.680  17.471  0.2371 -0.3723  0.1164
  653MPD2    H5 9673   3.268   0.743  17.428 -0.5503 -2.0280 -1.1036
  653MPD2    N1 9674   3.498   1.074   0.004  0.0298  0.0072  0.2251
  653MPD2    H7 9675   3.428   1.131  17.657  0.4363 -1.2616 -1.9993
  654TMC3    C1 9676   3.203   0.498  17.375 -0.3511  0.2364 -0.1517
  654TMC3    C2 9677   3.090   0.564  17.389 -0.4701 -0.4300 -0.0538
  654TMC3    C3 9678   2.978   0.526  17.327  0.9082  0.6480  0.6228
  654TMC3    C4 9679   3.209   0.391  17.295 -0.1301  0.2709 -0.1585
  654TMC3    C5 9680   3.094   0.349  17.232 -0.5217  0.2900 -0.3503
  654TMC3    C6 9681   2.978   0.421  17.240  0.7678  0.5273 -0.3668
  654TMC3     C 9682   3.327   0.541  17.446  0.2023 -0.0898  0.2624
  654TMC3     O 9683   3.412   0.455  17.456  0.0918 -0.0411 -0.3855
  654TMC3     H 9684   3.094   0.647  17.459  2.5735  0.6235 -1.4437
  654TMC3    H1 9685   3.302   0.337  17.290 -0.6029 -0.6871  1.1696
  654TMC3    H2 9686   2.885   0.386  17.196  0.3768 -0.7776  1.5298
  654TMC3    C7 9687   3.094   0.228  17.155  0.1068  0.1147 -0.2802
  654TMC3    C8 9688   2.868   0.615  17.320  0.6692  0.1839 -0.0768
  654TMC3    O1 9689   3.012   0.214  17.068  0.3353 -0.1013 -0.6781
  654TMC3    O2 9690   2.781   0.594  17.241  0.1047  0.0531 -0.4131
  655MPD2     C 9691   4.546   0.778  15.983 -0.0009 -0.6049  0.0204
  655MPD2    C1 9692   4.502   0.878  15.901  0.1749 -0.1142  0.1626
  655MPD2    C2 9693   4.511   0.855  15.769 -0.2892  0.0719  0.5358
  655MPD2    C3 9694   4.547   0.738  15.704  0.4280  0.4836  0.1581
  655MPD2    C4 9695   4.576   0.633  15.792 -0.2348 -0.0445 -0.4190
  655MPD2    C5 9696   4.578   0.656  15.927  0.0378 -0.2198 -1.0708
  655MPD2     H 9697   4.491   0.949  15.719 -0.8288 -1.7772 -2.6841
  655MPD2    H1 9698   4.598   0.535  15.752  0.7022  0.2918 -0.7121
  655MPD2    H2 9699   4.550   0.782  16.092 -0.3951 -0.1886  0.0212
  655MPD2    H3 9700   4.603   0.573  15.992  0.3015  1.3479  0.7917
  655MPD2     N 9701   4.558   0.717  15.564 -0.8183 -0.2897  0.2684
  655MPD2    H5 9702   4.573   0.618  15.546  0.8626  0.3201 -1.6254
  655MPD2    N1 9703   4.466   1.004  15.941 -1.2751 -0.0834  0.5281
  655MPD2    H7 9704   4.445   1.068  15.865  0.9736 -2.2583 -1.9695
  656TMC3    C1 9705   4.476   1.204  16.053 -0.0743  1.1593 -0.4704
  656TMC3    C2 9706   4.390   1.245  16.149  0.1339  0.7237  0.5749
  656TMC3    C3 9707   4.313   1.357  16.128  0.7574 -0.0924 -0.6966
  656TMC3    C4 9708   4.474   1.263  15.927  0.3179  0.1462 -0.2977
  656TMC3    C5 9709   4.386   1.364  15.904 -0.1636  0.3208 -0.1051
  656TMC3    C6 9710   4.312   1.421  16.006 -0.4731  0.5554  0.9377
  656TMC3     C 9711   4.499   1.061  16.063  0.9637 -0.5212 -0.2630
  656TMC3     O 9712   4.521   1.016  16.174 -0.4245  0.0553  0.3959
  656TMC3     H 9713   4.377   1.191  16.242 -1.6244  0.0753 -0.0510
  656TMC3    H1 9714   4.542   1.224  15.852  0.0504 -0.3025 -0.3065
  656TMC3    H2 9715   4.244   1.505  15.997  0.1271  1.1242  1.6838
  656TMC3    C7 9716   4.325   1.326  15.777 -0.5105  1.0444  0.0559
  656TMC3    C8 9717   4.185   1.352  16.195 -0.3017 -0.0228  0.2487
  656TMC3    O1 9718   4.376   1.234  15.709  0.5860 -0.0406 -0.4620
  656TMC3    O2 9719   4.091   1.331  16.123  0.8562  0.5904  0.4239
  657TMC3    C1 9720   3.707   0.270  14.868 -0.7247  0.0794 -0.1884
  657TMC3    C2 9721   3.640   0.345  14.959  0.2830 -0.0857 -0.0553
  657TMC3    C3 9722   3.632   0.478  14.935 -0.5042  0.1900  0.1878
  657TMC3    C4 9723   3.763   0.328  14.757 -0.0898  0.6829  0.3115
  657TMC3    C5 9724   3.746   0.461  14.737 -0.0768 -0.3691  1.0616
  657TMC3    C6 9725   3.675   0.541  14.827  0.2598  0.2983  0.7255
  657TMC3     C 9726   3.751   0.135  14.908  0.4564 -0.1748  0.2810
  657TMC3     O 9727   3.678   0.076  14.986  0.3563  0.2097  0.8372
  657TMC3     H 9728   3.599   0.299  15.048 -1.8518  2.0379  0.0573
  657TMC3    H1 9729   3.817   0.267  14.686 -0.2438 -0.0195  0.7948
  657TMC3    H2 9730   3.669   0.648  14.816 -0.2914 -0.0220 -2.1335
  657TMC3    C7 9731   3.828   0.498  14.622 -0.0136 -0.4111  0.0433
  657TMC3    C8 9732   3.610   0.563  15.048 -0.2350  0.1090 -0.4260
  657TMC3    O1 9733   3.940   0.444  14.621 -0.3208 -0.5020 -0.2830
  657TMC3    O2 9734   3.581   0.683  15.033  0.2726 -0.6012  0.6462
  658MPD2     C 9735   0.133   0.206  15.313  0.1071 -0.5859 -0.3312
  658MPD2    C1 9736   0.097   0.283  15.207  0.5280  0.2243  0.1292
  658MPD2    C2 9737   0.131   0.237  15.077  0.3173  0.4703  0.6371
  658MPD2    C3 9738   0.188   0.119  15.061  0.1972  0.6446  0.6901
  658MPD2    C4 9739   0.236   0.047  15.172 -0.3452 -0.4230 -0.0224
  658MPD2    C5 9740   0.206   0.092  15.297 -0.7514 -0.1404 -0.4338
  658MPD2     H 9741   0.110   0.297  14.989 -0.4951  1.7337  1.6748
  658MPD2    H1 9742   0.287   4.676  15.157  1.3594  0.5990 -0.7716
  658MPD2    H2 9743   0.092   0.234  15.410  0.6219 -0.6109 -0.1071
  658MPD2    H3 9744   0.229   0.039  15.389  0.5968 -0.8642 -1.1969
  658MPD2     N 9745   0.214   0.075  14.931  0.0633  0.3977 -0.0202
  658MPD2    H5 9746   0.169   0.120  14.852  1.6191  0.0965 -1.0792
  658MPD2    N1 9747   0.022   0.403  15.228 -0.3894 -0.2007 -0.2958
  658MPD2    H7 9748   0.009   0.429  15.325 -0.4672 -0.8425 -0.1317
  659TMC3    C1 9749   4.605   0.583  15.181  0.0867  0.0014  0.0500
  659TMC3    C2 9750   4.623   0.637  15.307  0.0272  0.0294 -0.3302
  659TMC3    C3 9751   4.566   0.762  15.329  0.1844 -0.8403  0.9091
  659TMC3    C4 9752   4.542   0.649  15.086  0.7299  0.4120 -0.4606
  659TMC3    C5 9753   4.484   0.778  15.106 -0.2344 -0.1741 -0.3222
  659TMC3    C6 9754   4.493   0.830  15.229 -0.3861 -0.8769 -0.7020
  659TMC3     C 9755   4.668   0.457  15.133  0.6338  0.0850  0.1217
  659TMC3     O 9756   4.627   0.410  15.028 -0.0871 -0.1070 -0.1099
  659TMC3     H 9757   4.674   0.584  15.387 -0.7438  1.8896  1.4003
  659TMC3    H1 9758   4.513   0.598  14.995 -0.0655 -3.2713  1.8601
  659TMC3    H2 9759   4.468   0.936  15.237  2.5064 -0.5177  3.4101
  659TMC3    C7 9760   4.431   0.853  14.992  0.2673  0.4336  0.9166
  659TMC3    C8 9761   4.542   0.807  15.468 -0.0131  0.6380 -0.2487
  659TMC3    O1 9762   4.367   0.953  15.021  0.0127 -0.7312  0.2225
  659TMC3    O2 9763   4.493   0.916  15.487 -0.3251  0.0495 -0.6094
  660MPD2     C 9764   3.279   3.501  12.615  0.3224  0.4232 -0.5725
  660MPD2    C1 9765   3.191   3.614  12.623  0.3146 -0.4918 -0.5746
  660MPD2    C2 9766   3.087   3.601  12.717  0.0786  0.0576  0.0704
  660MPD2    C3 9767   3.072   3.486  12.792 -0.3685 -0.3222  1.2092
  660MPD2    C4 9768   3.168   3.385  12.789  0.3083 -0.1190  0.0324
  660MPD2    C5 9769   3.272   3.394  12.703 -0.0100 -0.1502  0.1116
  660MPD2     H 9770   3.019   3.686  12.722 -0.6369 -0.3494 -2.6893
  660MPD2    H1 9771   3.164   3.297  12.852 -2.7435  1.9835  2.7629
  660MPD2    H2 9772   3.366   3.509  12.551 -0.0216 -0.9989 -1.2212
  660MPD2    H3 9773   3.350   3.319  12.702  0.0005 -0.1378 -0.1113
  660MPD2     N 9774   2.973   3.476  12.890  0.3435  0.2556 -0.0382
  660MPD2    H5 9775   2.954   3.386  12.932 -0.0060  1.0482  1.5156
  660MPD2    N1 9776   3.215   3.730  12.544 -0.2154 -0.8327  0.1757
  660MPD2    H7 9777   3.290   3.727  12.476 -0.9534  2.7116 -0.7818
  661TMC3    C1 9778   3.163   3.911  12.405  0.0486  0.5404 -0.1400
  661TMC3    C2 9779   3.244   3.862  12.311  0.1320  0.1327 -0.0455
  661TMC3    C3 9780   3.226   3.907  12.182 -0.4091 -0.0593  0.4979
  661TMC3    C4 9781   3.061   3.999  12.372  0.0331 -0.7478  0.1227
  661TMC3    C5 9782   3.038   4.028  12.241  0.0960 -0.8016 -0.5762
  661TMC3    C6 9783   3.117   3.978  12.145  0.4385  0.0235  0.4982
  661TMC3     C 9784   3.150   3.847  12.535  0.3430 -0.1274  0.5455
  661TMC3     O 9785   3.054   3.884  12.600 -0.0876 -0.2767 -0.1361
  661TMC3     H 9786   3.337   3.808  12.324 -1.6144 -2.6178  0.9907
  661TMC3    H1 9787   2.994   4.035  12.449  0.9882 -1.5766  1.3413
  661TMC3    H2 9788   3.105   4.013  12.043  0.5300  0.7729  0.7480
  661TMC3    C7 9789   2.898   4.059  12.215 -0.0260 -0.3025  0.4412
  661TMC3    C8 9790   3.338   3.872  12.088 -0.0084  0.2982 -0.7497
  661TMC3    O1 9791   2.835   4.102  12.314 -0.1922 -0.3124  0.0117
  661TMC3    O2 9792   3.398   3.768  12.103  0.8252  0.2361  0.0587
  662MPD2     C 9793   3.321   3.839  17.198 -0.1399  0.3304  0.0707
  662MPD2    C1 9794   3.347   3.894  17.321  0.5533  0.4236  0.0703
  662MPD2    C2 9795   3.297   4.022  17.346  0.4581 -0.2198  0.6307
  662MPD2    C3 9796   3.226   4.096  17.254  0.5850  0.9115 -0.4683
  662MPD2    C4 9797   3.202   4.037  17.133 -0.3934 -0.4977 -0.0880
  662MPD2    C5 9798   3.263   3.915  17.107 -1.0028 -0.2162  0.2697
  662MPD2     H 9799   3.327   4.070  17.439  0.4536 -0.1683  0.6055
  662MPD2    H1 9800   3.174   4.101  17.050  0.5843 -1.1488 -0.9324
  662MPD2    H2 9801   3.357   3.744  17.161 -0.9766 -0.2455  0.7495
  662MPD2    H3 9802   3.251   3.873  17.008  2.1570 -1.6104  0.4561
  662MPD2     N 9803   3.165   4.223  17.285 -0.1512  0.7789 -0.1305
  662MPD2    H5 9804   3.100   4.257  17.215 -2.1977 -1.3334  0.7074
  662MPD2    N1 9805   3.401   3.821  17.429 -0.1704 -0.2446  0.2104
  662MPD2    H7 9806   3.405   3.872  17.517 -0.7710  1.0973 -0.5471
  663TMC3    C1 9807   3.485   3.646  17.554  0.1068  0.4477 -0.1229
  663TMC3    C2 9808   3.540   3.748  17.631  0.5621  0.5028  0.6209
  663TMC3    C3 9809   3.492   3.756   0.057 -0.1805 -0.1306 -0.6098
  663TMC3    C4 9810   3.407   3.542  17.595 -0.2512  0.3279  0.3916
  663TMC3    C5 9811   3.380   3.546   0.026 -0.2340 -0.1973 -0.2949
  663TMC3    C6 9812   3.405   3.657   0.104  0.8991  0.5940  0.3170
  663TMC3     C 9813   3.445   3.688  17.424 -0.0981  0.0967  0.1168
  663TMC3     O 9814   3.425   3.601  17.340 -0.3688 -0.5108  0.5457
  663TMC3     H 9815   3.593   3.835  17.594  2.8542 -1.7819 -1.5022
  663TMC3    H1 9816   3.364   3.475  17.522 -0.4107 -0.3578  1.1225
  663TMC3    H2 9817   3.382   3.649   0.210 -0.0322  1.6119  0.1951
  663TMC3    C7 9818   3.270   3.462   0.066  0.2159  0.2000  0.3824
  663TMC3    C8 9819   3.421   3.880   0.067 -1.2696 -0.1281 -0.1729
  663TMC3    O1 9820   3.184   3.526   0.131 -0.3171 -0.1180  0.2272
  663TMC3    O2 9821   3.418   3.946  17.663  0.3328  0.8456  0.4123
  664MPD2     C 9822   1.231   2.178  17.235 -0.1087  0.1997 -0.2393
  664MPD2    C1 9823   1.290   2.275  17.313  1.1691 -0.6789 -0.3840
  664MPD2    C2 9824   1.279   2.274  17.449 -0.7973 -0.5910  0.0696
  664MPD2    C3 9825   1.190   2.189  17.512  0.0322 -0.0685 -0.2043
  664MPD2    C4 9826   1.122   2.095  17.434 -0.0061 -0.0831  0.3508
  664MPD2    C5 9827   1.148   2.092  17.295  0.2753  0.0896 -0.0674
  664MPD2     H 9828   1.324   2.360  17.497 -2.3053  0.6310 -0.7045
  664MPD2    H1 9829   1.044   2.030  17.472  1.0208  0.6905  3.8033
  664MPD2    H2 9830   1.257   2.174  17.130  0.3801  0.4191 -0.1278
  664MPD2    H3 9831   1.097   2.016  17.236 -0.6285  0.3967  0.3077
  664MPD2     N 9832   1.166   2.218  17.652 -0.8100  0.3348 -0.0689
  664MPD2    H5 9833   1.220   2.291  17.696 -1.4445  0.8659 -0.1759
  664MPD2    N1 9834   1.382   2.370  17.257  0.1029  0.3201 -0.1551
  664MPD2    H7 9835   1.440   2.420  17.324 -0.9249  3.2149 -1.4291
  665TMC3    C1 9836   1.072   2.199   0.180  0.4131  0.1232  0.4523
  665TMC3    C2 9837   0.957   2.181   0.246  0.0052  0.3862 -0.6705
  665TMC3    C3 9838   0.944   2.233   0.370 -0.3138 -0.6808  0.1071
  665TMC3    C4 9839   1.177   2.262   0.234 -0.0593  0.0870  0.1619
  665TMC3    C5 9840   1.162   2.315   0.364 -0.3982  0.1748  0.9138
  665TMC3    C6 9841   1.043   2.299   0.431 -0.2738 -0.1515  0.1679
  665TMC3     C 9842   1.072   2.156   0.036 -0.0780  0.1091 -0.3523
  665TMC3     O 9843   0.985   2.070   0.013 -0.1296 -0.2565  0.5010
  665TMC3     H 9844   0.877   2.132   0.193  3.0378 -3.3580 -1.7933
  665TMC3    H1 9845   1.268   2.279   0.178  0.8706  2.4335  2.4271
  665TMC3    H2 9846   1.024   2.345   0.528 -0.9835 -0.1534  0.0269
  665TMC3    C7 9847   1.279   2.352   0.439 -0.0956 -0.0734 -0.6760
  665TMC3    C8 9848   0.815   2.224   0.436 -0.1283 -0.4965  0.3943
  665TMC3    O1 9849   1.380   2.330   0.371 -0.1166  0.0652 -0.0698
  665TMC3    O2 9850   0.818   2.220   0.558  0.2396  0.1991  0.0642
  666TMC3    C1 9851   0.822   0.799   9.983  0.0785  0.0048 -0.3711
  666TMC3    C2 9852   0.893   0.815  10.094 -0.3625  0.5998 -0.1702
  666TMC3    C3 9853   0.890   0.941  10.158  0.3118 -0.5014  0.0407
  666TMC3    C4 9854   0.729   0.887   9.936 -0.5710 -0.1726 -0.7082
  666TMC3    C5 9855   0.730   1.012   9.998 -0.4824  0.1134  0.4063
  666TMC3    C6 9856   0.811   1.042  10.103  0.1052 -0.6689 -0.0855
  666TMC3     C 9857   0.818   0.667   9.924  0.1878 -0.0147 -0.0148
  666TMC3     O 9858   0.931   0.627   9.895  0.8958 -0.0230 -0.1419
  666TMC3     H 9859   0.960   0.742  10.136  0.9219  0.2774 -2.7704
  666TMC3    H1 9860   0.677   0.859   9.845 -1.6179  0.8973 -0.4421
  666TMC3    H2 9861   0.800   1.138  10.152 -0.7512  0.4336 -2.4092
  666TMC3    C7 9862   0.637   1.113   9.954  0.1329  0.1841 -0.4726
  666TMC3    C8 9863   0.960   0.951  10.281  0.0482 -0.2198 -0.7313
  666TMC3    O1 9864   0.593   1.189  10.041  0.1578 -0.1606  0.2649
  666TMC3    O2 9865   1.008   0.852  10.341 -0.6285  0.3254 -0.0029
  667MPD2     C 9866   2.458   2.026  15.161  0.5855 -0.5394  0.3159
  667MPD2    C1 9867   2.355   2.118  15.175  0.0684 -0.6967  0.1635
  667MPD2    C2 9868   2.227   2.077  15.170  0.2484  0.4647  0.3497
  667MPD2    C3 9869   2.194   1.938  15.157 -0.1070 -0.2733  0.0765
  667MPD2    C4 9870   2.297   1.853  15.140 -0.0340 -0.1028  0.3077
  667MPD2    C5 9871   2.425   1.900  15.141  0.2474 -0.1793  0.2981
  667MPD2     H 9872   2.149   2.150  15.190 -1.5158 -1.3273  0.0533
  667MPD2    H1 9873   2.285   1.749  15.111 -0.3322  0.0954 -0.2747
  667MPD2    H2 9874   2.564   2.044  15.177  0.5198  1.3280 -1.4317
  667MPD2    H3 9875   2.502   1.825  15.130 -0.6410 -0.7203 -2.2807
  667MPD2     N 9876   2.065   1.885  15.172 -0.3347 -0.2675  0.6328
  667MPD2    H5 9877   2.051   1.786  15.153 -0.7400 -0.1121  0.1384
  667MPD2    N1 9878   2.379   2.257  15.188 -0.1351  0.5375 -0.8910
  667MPD2    H7 9879   2.296   2.315  15.182  0.7302  1.6948 -1.5132
  668TMC3    C1 9880   2.476   2.459  15.223  0.0616 -0.1134  0.5612
  668TMC3    C2 9881   2.559   2.552  15.166  0.2933  0.2773 -0.0517
  668TMC3    C3 9882   2.570   2.676  15.219 -0.3362 -0.2206 -0.0982
  668TMC3    C4 9883   2.401   2.489  15.332  0.4448 -0.1882  0.1943
  668TMC3    C5 9884   2.415   2.610  15.390 -0.0929 -0.4774 -0.4490
  668TMC3    C6 9885   2.501   2.704  15.333 -0.3504 -0.6847 -0.3337
  668TMC3     C 9886   2.499   2.321  15.184  0.1977  0.4407  0.6654
  668TMC3     O 9887   2.615   2.279  15.195  0.7177 -0.2927 -0.4448
  668TMC3     H 9888   2.627   2.524  15.086 -0.6897  0.8963 -1.1078
  668TMC3    H1 9889   2.348   2.409  15.383  0.3916  0.9275  1.9027
  668TMC3    H2 9890   2.497   2.807  15.366  1.8192 -0.0467 -2.0405
  668TMC3    C7 9891   2.388   2.622  15.535  0.0579  0.2979 -0.1859
  668TMC3    C8 9892   2.625   2.791  15.145 -0.2888 -0.0689 -0.1817
  668TMC3    O1 9893   2.346   2.519  15.589  0.1594  0.2484 -0.5557
  668TMC3    O2 9894   2.635   2.893  15.207 -0.5556 -0.2218  0.4563
  669TMC3    C1 9895   0.049   2.062  14.635 -0.0145  0.2239  0.1169
  669TMC3    C2 9896   4.676   2.081  14.540 -0.6666  0.7300 -0.6966
  669TMC3    C3 9897   4.698   2.160  14.424  0.5657  0.5449  0.4332
  669TMC3    C4 9898   0.175   2.119  14.612  0.7263 -0.6597  0.4021
  669TMC3    C5 9899   0.202   2.186  14.500  0.1959  0.3234  0.1035
  669TMC3    C6 9900   0.097   2.216  14.409  0.0353 -0.4280  1.1335
  669TMC3     C 9901   0.025   1.987  14.764  0.0233 -0.6649  0.3017
  669TMC3     O 9902   4.646   1.997  14.822  0.0571 -0.3984 -0.2162
  669TMC3     H 9903   4.594   2.010  14.546 -0.6746  0.9822  2.5319
  669TMC3    H1 9904   0.245   2.121  14.695  1.2203  1.0092 -0.0694
  669TMC3    H2 9905   0.117   2.280  14.324  1.9709 -0.5433  1.5029
  669TMC3    C7 9906   0.340   2.230  14.480 -1.4970  0.2452 -0.1129
  669TMC3    C8 9907   4.649   2.111  14.295 -0.0078  0.2871  0.0312
  669TMC3    O1 9908   0.369   2.332  14.421  0.4836  0.3881 -0.4890
  669TMC3    O2 9909   0.013   2.064  14.227  0.3949  0.3851 -0.4094
  670MPD2     C 9910   3.298   4.456  13.993 -0.5818  0.1046 -0.0073
  670MPD2    C1 9911   3.372   4.338  14.005  0.7099 -0.0592 -0.2234
  670MPD2    C2 9912   3.341   4.251  14.107 -0.1620 -0.2264  0.1869
  670MPD2    C3 9913   3.230   4.267  14.191 -0.5334 -0.4609 -0.0094
  670MPD2    C4 9914   3.158   4.389  14.185 -0.3168  0.4037  0.3904
  670MPD2    C5 9915   3.198   4.474  14.085 -0.3579  0.2299 -0.3537
  670MPD2     H 9916   3.392   4.155  14.106 -0.3959 -0.3399 -1.2742
  670MPD2    H1 9917   3.085   4.415  14.260  0.2318  3.5373 -0.1462
  670MPD2    H2 9918   3.313   4.533  13.918  1.0421  1.5777  1.8402
  670MPD2    H3 9919   3.148   4.570  14.092 -1.8513 -0.5458 -0.3040
  670MPD2     N 9920   3.192   4.169  14.292  0.7418  0.5168  0.1477
  670MPD2    H5 9921   3.117   4.199  14.353 -0.4582  0.1804 -1.1704
  670MPD2    N1 9922   3.472   4.327  13.913 -0.4421  0.0150  0.1065
  670MPD2    H7 9923   3.473   4.390  13.834  0.4449  0.1575  0.2312
  671TMC3    C1 9924   3.198   3.961  14.419 -0.0620 -0.1688  0.1567
  671TMC3    C2 9925   3.271   3.846  14.437 -0.1549  0.4054  0.4214
  671TMC3    C3 9926   3.207   3.724  14.432 -0.2152 -0.1563 -0.2856
  671TMC3    C4 9927   3.063   3.959  14.413  0.1180  0.4292 -0.2231
  671TMC3    C5 9928   3.003   3.835  14.395 -0.3075  0.5098  0.4074
  671TMC3    C6 9929   3.071   3.725  14.413 -0.6304 -0.1101 -0.2528
  671TMC3     C 9930   3.256   4.046  14.317  0.4209  0.2759 -0.4023
  671TMC3     O 9931   3.345   3.993  14.248 -0.3439 -0.5244  0.1024
  671TMC3     H 9932   3.375   3.853  14.411 -0.0286  0.7214  0.9948
  671TMC3    H1 9933   3.004   4.047  14.391 -2.4316 -1.4165 -0.7690
  671TMC3    H2 9934   3.022   3.629  14.397  0.2174 -0.8371  1.5192
  671TMC3    C7 9935   2.910   3.835  14.282 -0.8157  0.1079  0.3155
  671TMC3    C8 9936   3.280   3.611  14.384 -0.0166  0.4479  0.8586
  671TMC3    O1 9937   2.902   3.937  14.216  0.4859 -0.6095  0.0291
  671TMC3    O2 9938   3.219   3.534  14.312  0.3568 -0.3923 -0.4278
  672MPD2     C 9939   3.350   0.094   1.280  0.2113 -0.0900  0.3964
  672MPD2    C1 9940   3.449   0.164   1.215 -0.0686  0.3301 -0.4702
  672MPD2    C2 9941   3.532   0.248   1.281  0.0026 -0.5042 -0.2791
  672MPD2    C3 9942   3.529   0.253   1.419 -0.0703 -0.0476  0.7187
  672MPD2    C4 9943   3.439   0.169   1.486  0.5009  0.1446  0.3276
  672MPD2    C5 9944   3.348   0.097   1.415  0.0922  0.1522  0.4431
  672MPD2     H 9945   3.611   0.297   1.226  0.3162 -0.2707  0.3830
  672MPD2    H1 9946   3.439   0.157   1.593 -2.2333  2.5054  0.5918
  672MPD2    H2 9947   3.272   0.040   1.228  0.1149  1.3595 -0.9862
  672MPD2    H3 9948   3.280   0.028   1.462 -1.4557  1.4705  0.1407
  672MPD2     N 9949   3.618   0.342   1.487 -0.1303  0.7714  1.2094
  672MPD2    H5 9950   3.623   0.340   1.588 -0.0338  0.6077  1.2017
  672MPD2    N1 9951   3.473   0.150   1.071  0.2715  1.0153 -0.1640
  672MPD2    H7 9952   3.551   0.203   1.033  1.5075 -0.0795  0.8292
  673TMC3    C1 9953   3.466   0.034   0.859  0.3292  0.2004 -0.2194
  673TMC3    C2 9954   3.503   4.631   0.824 -0.2714 -0.6358  1.0492
  673TMC3    C3 9955   3.600   4.621   0.720 -0.8610 -0.4957  0.4067
  673TMC3    C4 9956   3.520   0.146   0.799  0.3700  0.1406 -0.3393
  673TMC3    C5 9957   3.619   0.136   0.709  0.2967  0.0017 -0.4994
  673TMC3    C6 9958   3.661   0.009   0.670  0.1526 -0.4826  0.5680
  673TMC3     C 9959   3.416   0.048   0.994 -0.5954  0.3664 -0.1590
  673TMC3     O 9960   3.362   4.672   1.039 -0.1317  0.8313 -0.2029
  673TMC3     H 9961   3.459   4.544   0.871  1.0608 -2.1992 -0.5974
  673TMC3    H1 9962   3.488   0.245   0.830  1.1580  0.1684  0.3866
  673TMC3    H2 9963   3.741   0.003   0.597 -0.2398 -1.1728  0.1917
  673TMC3    C7 9964   3.663   0.249   0.630  0.2447 -0.4451  0.6109
  673TMC3    C8 9965   3.681   4.504   0.705 -0.1219 -0.0105 -0.1496
  673TMC3    O1 9966   3.724   0.213   0.528  0.4111  0.8234  0.2311
  673TMC3    O2 9967   3.750   4.493   0.604  0.5659 -0.2110  0.1379
  674MPD2     C 9968   3.047   0.786   0.323  0.3118  0.3778 -0.0971
  674MPD2    C1 9969   3.025   0.652   0.343 -0.7069  0.1802  0.0733
  674MPD2    C2 9970   2.896   0.609   0.336  0.2904  0.1805  0.4970
  674MPD2    C3 9971   2.789   0.699   0.323 -0.1100 -0.0474  0.5049
  674MPD2    C4 9972   2.815   0.831   0.308 -0.1105  0.4097 -0.3511
  674MPD2    C5 9973   2.945   0.877   0.308  0.4056 -0.3090 -0.0079
  674MPD2     H 9974   2.866   0.505   0.339 -2.8619  1.1195  1.8724
  674MPD2    H1 9975   2.744   0.913   0.302 -0.1356  0.4640  0.5845
  674MPD2    H2 9976   3.152   0.804   0.304  0.0206 -0.2736 -2.2370
  674MPD2    H3 9977   2.961   0.983   0.289 -1.1748  0.0241  0.4969
  674MPD2     N 9978   2.663   0.645   0.319 -0.8864  0.0819  0.3625
  674MPD2    H5 9979   2.663   0.543   0.316  0.0430  0.1073 -0.3983
  674MPD2    N1 9980   3.138   0.563   0.367  0.3755 -0.7612 -0.6459
  674MPD2    H7 9981   3.233   0.597   0.356  0.8722 -0.6173  3.9127
  675TMC3    C1 9982   3.251   0.363   0.427  0.2567 -0.0250  0.0566
  675TMC3    C2 9983   3.232   0.235   0.473 -0.3374  0.1355  0.7344
  675TMC3    C3 9984   3.338   0.151   0.465 -0.7086  0.3442 -0.4190
  675TMC3    C4 9985   3.364   0.401   0.359 -0.1355 -0.1304  0.4128
  675TMC3    C5 9986   3.464   0.314   0.337  0.0039 -0.1459  0.2123
  675TMC3    C6 9987   3.455   0.187   0.387  0.3567  0.1720 -0.3180
  675TMC3     C 9988   3.124   0.436   0.413  0.2449  0.1831 -0.6716
  675TMC3     O 9989   3.034   0.386   0.477  0.2489  0.1092 -0.4176
  675TMC3     H 9990   3.139   0.202   0.517 -0.9234  0.3856 -0.3214
  675TMC3    H1 9991   3.388   0.503   0.334 -3.1431  0.4471 -0.0679
  675TMC3    H2 9992   3.536   0.121   0.359 -0.3697 -0.7817 -0.1775
  675TMC3    C7 9993   3.571   0.352   0.249  0.0946 -0.2578 -0.1176
  675TMC3    C8 9994   3.321   0.004   0.473 -0.5068 -0.0549 -0.4550
  675TMC3    O1 9995   3.554   0.456   0.179  0.9184 -0.8990  0.2741
  675TMC3    O2 9996   3.404   4.666   0.403 -0.3256 -0.8970  0.3694
  676MPD2     C 9997   1.220   2.459  11.136  0.2342  0.1689  1.1904
  676MPD2    C1 9998   1.150   2.395  11.241 -0.6084  0.0321  0.2205
  676MPD2    C2 9999   1.130   2.258  11.248 -0.3395 -0.2613  0.1495
  676MPD2    C310000   1.165   2.177  11.147 -0.2144 -0.0320  0.1583
  676MPD2    C410001   1.241   2.235  11.046 -0.6121 -0.2046 -1.0496
  676MPD2    C510002   1.268   2.368  11.038  0.5222  0.5037  0.0629
  676MPD2     H10003   1.079   2.218  11.335 -1.6928  0.1317 -0.4642
  676MPD2    H110004   1.298   2.172  10.979  2.0190  0.4564  0.5635
  676MPD2    H210005   1.229   2.566  11.120 -0.0684 -0.1685 -1.2788
  676MPD2    H310006   1.337   2.387  10.957 -2.5757 -1.9605 -3.1510
  676MPD2     N10007   1.146   2.038  11.140 -0.7942 -0.1350  0.4310
  676MPD2    H510008   1.205   1.986  11.075  1.3315 -0.4494  2.6094
  676MPD2    N110009   1.090   2.467  11.352  0.0022 -0.5548  0.7838
  676MPD2    H710010   1.046   2.416  11.428 -4.1393 -2.0544 -2.6201
  677TMC3    C110011   1.020   2.626  11.500 -0.5177  0.5442 -0.1724
  677TMC3    C210012   0.920   2.539  11.544  0.6007 -0.1438  1.1665
  677TMC3    C310013   0.902   2.517  11.676 -0.1904 -0.5148  0.5127
  677TMC3    C410014   1.079   2.715  11.583  0.2740 -0.0755  0.3199
  677TMC3    C510015   1.039   2.705  11.713 -0.1888 -0.2466 -0.4967
  677TMC3    C610016   0.958   2.606  11.759  0.3327  0.6094 -0.9708
  677TMC3     C10017   1.102   2.600  11.381 -0.0795  0.4917  1.0003
  677TMC3     O10018   1.162   2.690  11.321  0.5531 -0.6510 -0.5814
  677TMC3     H10019   0.855   2.486  11.475  0.4938  0.5726  0.7214
  677TMC3    H110020   1.157   2.784  11.554  0.4451 -0.0957  0.7358
  677TMC3    H210021   0.926   2.613  11.863 -0.6220 -0.6158 -1.1791
  677TMC3    C710022   1.104   2.783  11.816 -0.6620 -0.6414  0.1856
  677TMC3    C810023   0.973   2.390  11.701  0.1087  0.1386 -0.3309
  677TMC3    O110024   1.101   2.736  11.927  0.0961 -0.0349 -0.4467
  677TMC3    O210025   1.037   2.353  11.605  0.0971  0.3080 -0.2007
  678MPD2     C10026   2.270   3.218   1.817  0.1736 -0.5739  0.1178
  678MPD2    C110027   2.280   3.149   1.701 -0.2731  0.3341 -0.0875
  678MPD2    C210028   2.174   3.086   1.642  0.1736 -0.3239 -0.0851
  678MPD2    C310029   2.052   3.097   1.697  0.6741 -0.0587  0.0889
  678MPD2    C410030   2.037   3.161   1.820 -1.0995  0.3368 -0.0259
  678MPD2    C510031   2.148   3.222   1.876 -0.5860 -0.8189  0.2400
  678MPD2     H10032   2.198   3.038   1.548  0.4895  0.1246 -0.2389
  678MPD2    H110033   1.941   3.165   1.871 -1.6509  0.4185 -1.0642
  678MPD2    H210034   2.346   3.283   1.859 -0.2564  0.4036 -0.6212
  678MPD2    H310035   2.152   3.276   1.970  2.1313  1.0169 -0.9291
  678MPD2     N10036   1.945   3.040   1.626  0.6548 -0.7441 -0.0181
  678MPD2    H510037   1.975   2.989   1.543 -1.1468 -2.4979  0.4069
  678MPD2    N110038   2.407   3.143   1.637  0.2612 -0.4508 -0.1253
  678MPD2    H710039   2.419   3.074   1.564 -1.4022  0.0814 -0.8867
  679TMC3    C110040   2.773   3.017   1.502 -0.0298  0.1608 -0.0282
  679TMC3    C210041   2.650   3.048   1.561 -0.2429  0.2940 -0.4255
  679TMC3    C310042   2.620   3.182   1.581 -0.1571 -0.0216  0.7154
  679TMC3    C410043   2.851   3.120   1.447  0.1365 -0.0788 -0.8210
  679TMC3    C510044   2.810   3.252   1.461 -0.8697 -0.0849 -0.2724
  679TMC3    C610045   2.704   3.287   1.546 -0.1187 -0.2123 -0.2697
  679TMC3     C10046   2.817   2.885   1.487 -0.1174 -0.6731 -0.2100
  679TMC3     O10047   2.933   2.865   1.458 -0.0070 -0.3569 -0.0238
  679TMC3     H10048   2.596   2.973   1.617  0.1568 -0.5639 -1.1806
  679TMC3    H110049   2.935   3.098   1.382 -0.7013  0.1650 -1.9846
  679TMC3    H210050   2.674   3.391   1.545 -3.8278 -1.2838 -1.4888
  679TMC3    C710051   2.846   3.349   1.356 -0.8624 -0.2350  0.3557
  679TMC3    C810052   2.515   3.216   1.669 -0.1213  0.3214 -0.1848
  679TMC3    O110053   2.762   3.430   1.314 -0.5384  0.7179 -0.5045
  679TMC3    O210054   2.520   3.325   1.725 -0.1194 -0.3974  0.0364
  680MPD2     C10055   2.829   1.817  13.493 -0.5403 -0.5188 -0.2357
  680MPD2    C110056   2.857   1.751  13.610  0.0344  0.1830  0.0899
  680MPD2    C210057   2.848   1.819  13.729  0.0444  0.7548  0.4062
  680MPD2    C310058   2.819   1.954  13.739 -0.0604  0.1063 -0.1140
  680MPD2    C410059   2.788   2.014  13.619  0.0556 -0.0565 -0.3181
  680MPD2    C510060   2.790   1.950  13.495 -0.4104 -0.9944  0.1021
  680MPD2     H10061   2.875   1.768  13.821  0.2412  0.9799  0.4740
  680MPD2    H110062   2.748   2.115  13.628  0.8257  0.4125 -2.0365
  680MPD2    H210063   2.834   1.773  13.394  2.1238  0.9284 -0.7299
  680MPD2    H310064   2.767   2.009  13.407  3.2105 -0.8780 -0.7667
  680MPD2     N10065   2.839   2.024  13.856  0.1119  0.2376  0.2933
  680MPD2    H510066   2.866   2.121  13.842  0.2492  0.3493  1.3701
  680MPD2    N110067   2.885   1.616  13.618 -0.1826  0.0184 -0.0163
  680MPD2    H710068   2.915   1.572  13.705 -0.4089 -1.8900 -0.9012
  681TMC3    C110069   2.935   1.392  13.562 -0.1806 -0.6697 -0.0579
  681TMC3    C210070   2.869   1.357  13.675  0.4754  0.1170  0.3124
  681TMC3    C310071   2.897   1.228  13.717 -0.0994  0.3138 -0.2332
  681TMC3    C410072   3.007   1.310  13.482  0.9471  0.0202 -1.0760
  681TMC3    C510073   3.026   1.182  13.536  0.6114 -0.8252  0.1575
  681TMC3    C610074   2.974   1.138  13.651  0.2999 -0.1790  0.2229
  681TMC3     C10075   2.901   1.526  13.519 -0.0959 -0.6986  0.6413
  681TMC3     O10076   2.896   1.541  13.395 -0.3937  0.2037 -0.0546
  681TMC3     H10077   2.786   1.418  13.708 -1.5546 -2.6038  0.2221
  681TMC3    H110078   3.058   1.354  13.398  0.3570 -1.2700 -2.1176
  681TMC3    H210079   2.984   1.035  13.683 -0.6703 -0.4338 -0.2825
  681TMC3    C710080   3.132   1.102  13.477 -0.1160 -0.4599  0.5797
  681TMC3    C810081   2.798   1.180  13.817 -0.1547 -0.2864  0.1041
  681TMC3    O110082   3.179   1.011  13.545  0.1985 -0.0818  0.1860
  681TMC3    O210083   2.760   1.068  13.799  0.2042  0.0618 -1.3191
  682MPD2     C10084   4.406   1.690  10.369  0.0334 -0.9477 -0.7943
  682MPD2    C110085   4.436   1.577  10.434  0.4944  0.0055  0.0637
  682MPD2    C210086   4.484   1.594  10.564 -0.4537  0.3978 -0.9244
  682MPD2    C310087   4.474   1.716  10.632  0.2235  0.6523  0.8131
  682MPD2    C410088   4.435   1.828  10.561 -0.2103 -0.2844 -0.5988
  682MPD2    C510089   4.410   1.815  10.426 -0.3325 -0.2833 -0.0850
  682MPD2     H10090   4.511   1.505  10.620 -1.0800  2.1284  2.1550
  682MPD2    H110091   4.445   1.928  10.602  1.0028 -0.1436 -1.2307
  682MPD2    H210092   4.384   1.691  10.263 -1.8974  1.3926 -0.3666
  682MPD2    H310093   4.402   1.902  10.363 -0.3045  1.1777  1.9431
  682MPD2     N10094   4.498   1.738  10.767 -0.5235  0.5523  0.0419
  682MPD2    H510095   4.497   1.831  10.807  0.6356  0.6280 -0.1099
  682MPD2    N110096   4.461   1.457  10.377 -0.0265 -0.5799  0.6509
  682MPD2    H710097   4.497   1.385  10.439 -0.9490  0.3982  2.3270
  683TMC3    C110098   4.563   1.861  11.151  0.6180 -0.1665  0.7285
  683TMC3    C210099   4.594   1.768  11.247  0.1751  0.2402  0.2229
  683TMC3    C310100   4.628   1.646  11.203 -0.2503  0.0991  0.0303
  683TMC3    C410101   4.552   1.824  11.021  0.4393  0.2098 -0.1971
  683TMC3    C510102   4.589   1.701  10.974  0.1048  0.4383  0.0391
  683TMC3    C610103   4.621   1.613  11.074  0.0076 -0.0198  0.0577
  683TMC3     C10104   4.525   1.990  11.195  0.9455  0.0476 -0.1605
  683TMC3     O10105   4.446   2.048  11.122 -0.1973 -0.3661 -0.5407
  683TMC3     H10106   4.602   1.794  11.352  0.7267  0.1894  0.1933
  683TMC3    H110107   4.524   1.908  10.958 -0.4943 -0.8360 -1.1849
  683TMC3    H210108   4.659   1.516  11.045  0.4432  0.1800 -0.0404
  683TMC3    C710109   4.541   1.640  10.854  0.1003 -0.1417  0.5114
  683TMC3    C810110   4.675   1.538  11.283  0.0528  0.3025  0.4378
  683TMC3    O110111   4.576   1.524  10.830 -0.0919  0.3018  0.2915
  683TMC3    O210112   4.625   1.430  11.257  0.1036 -0.2045 -0.2430
  684MPD2     C10113   3.311   2.609  16.249  0.0361 -0.6131 -0.0988
  684MPD2    C110114   3.277   2.705  16.159  0.0244 -0.1167  0.4065
  684MPD2    C210115   3.207   2.809  16.205 -0.3968  0.2895 -0.3369
  684MPD2    C310116   3.198   2.836  16.340  0.0257 -0.2880  0.2433
  684MPD2    C410117   3.248   2.747  16.427  0.3060 -0.2238  0.5272
  684MPD2    C510118   3.298   2.628  16.383 -0.8317  0.4685  0.0155
  684MPD2     H10119   3.171   2.878  16.129  1.0108  0.5805 -0.7424
  684MPD2    H110120   3.254   2.773  16.532 -1.9350 -0.5833  0.7451
  684MPD2    H210121   3.367   2.521  16.219  4.9369  1.8877  1.5719
  684MPD2    H310122   3.333   2.557  16.457 -0.7345 -0.4013 -0.8774
  684MPD2     N10123   3.155   2.959  16.402  0.7370 -0.1064 -0.2808
  684MPD2    H510124   3.180   2.970  16.500  2.9338  1.6434 -1.0247
  684MPD2    N110125   3.304   2.701  16.015 -0.1756 -0.3856  0.0882
  684MPD2    H710126   3.256   2.771  15.958  1.8409  0.4053 -0.6251
  685TMC3    C110127   3.413   2.623  15.819  0.0795  0.2726  0.4637
  685TMC3    C210128   3.301   2.628  15.745 -0.2481  0.6392  0.3391
  685TMC3    C310129   3.309   2.590  15.614 -0.2117 -0.3058  0.1217
  685TMC3    C410130   3.528   2.574  15.769 -0.2585 -0.5811 -0.8952
  685TMC3    C510131   3.540   2.545  15.640 -1.0015 -0.3783 -0.5387
  685TMC3    C610132   3.432   2.563  15.558  0.6685  0.1371 -0.2898
  685TMC3     C10133   3.403   2.617  15.961 -0.9850  0.0515 -0.1715
  685TMC3     O10134   3.491   2.552  16.014  0.0268 -0.0200 -0.1456
  685TMC3     H10135   3.209   2.671  15.784 -1.5623 -1.4044 -0.5214
  685TMC3    H110136   3.617   2.591  15.828  0.9674 -0.0807 -2.8977
  685TMC3    H210137   3.445   2.542  15.453  2.6223 -1.5051  0.2880
  685TMC3    C710138   3.627   2.425  15.613 -0.2323  0.4862  0.3829
  685TMC3    C810139   3.189   2.565  15.533 -0.0392 -0.3629  0.5141
  685TMC3    O110140   3.611   2.364  15.507 -0.2008  0.0395  0.0343
  685TMC3    O210141   3.193   2.579  15.407  0.0238  0.0537  0.4031
  686MPD2     C10142   4.559   2.325  15.421 -0.0890  0.3603  0.0794
  686MPD2    C110143   4.623   2.298  15.536  0.2375  0.1898 -0.1896
  686MPD2    C210144   0.003   2.212  15.536 -0.4827 -0.1966 -0.1215
  686MPD2    C310145   0.040   2.143  15.425 -0.8622  0.4455 -0.3605
  686MPD2    C410146   4.700   2.169  15.311 -0.1218  0.2693 -0.5468
  686MPD2    C510147   4.598   2.257  15.308  0.3762 -0.0646 -0.1724
  686MPD2     H10148   0.057   2.194  15.629  0.7302  0.1348 -0.7677
  686MPD2    H110149   0.012   2.122  15.220 -0.6494 -0.7873 -0.2024
  686MPD2    H210150   4.464   2.376  15.410 -0.8806 -0.7323  1.7026
  686MPD2    H310151   4.553   2.259  15.210  0.1918  1.1944 -0.0586
  686MPD2     N10152   0.147   2.051  15.424  0.0779  0.0864 -0.3565
  686MPD2    H510153   0.183   2.043  15.329  1.9940  3.1681  0.1251
  686MPD2    N110154   4.566   2.349  15.653 -0.4701  0.3895  0.0765
  686MPD2    H710155   4.480   2.401  15.639 -2.8400 -3.6220 -0.3076
  687TMC3    C110156   0.149   1.971  15.657 -0.0066 -0.2406 -0.0889
  687TMC3    C210157   0.011   1.953  15.670 -1.0180 -0.4788 -0.0519
  687TMC3    C310158   4.683   1.922  15.793  0.2218 -0.0845  0.2502
  687TMC3    C410159   0.230   1.958  15.766 -0.7616 -0.1786  0.0604
  687TMC3    C510160   0.180   1.930  15.888  0.3606 -0.7418 -0.9636
  687TMC3    C610161   0.043   1.913  15.908  0.4932  0.0638  0.2643
  687TMC3     C10162   0.212   1.990  15.531 -0.1947  0.1361 -0.2516
  687TMC3     O10163   0.325   1.943  15.524 -0.1407 -0.3612 -0.5375
  687TMC3     H10164   4.673   1.945  15.582 -1.6419 -0.3585  0.3849
  687TMC3    H110165   0.329   2.003  15.755 -1.6906  2.0764  0.9649
  687TMC3    H210166   0.013   1.887  16.009  0.9717 -0.9640  0.1393
  687TMC3    C710167   0.258   1.984  15.996  0.1036  0.1794  0.6781
  687TMC3    C810168   4.539   1.943  15.830  0.1080  0.1117  0.0224
  687TMC3    O110169   0.194   2.026  16.091  0.1456  0.2461  0.3432
  687TMC3    O210170   4.512   1.902  15.941 -0.0610  0.9890  0.2057
  688MPD2     C10171   3.752   1.621  17.318 -0.1394  0.4305 -0.4587
  688MPD2    C110172   3.752   1.492  17.364 -0.3728 -0.1707  0.8373
  688MPD2    C210173   3.818   1.385  17.298  0.6283 -0.1184 -0.3388
  688MPD2    C310174   3.883   1.422  17.181  0.4672  0.6650 -0.0978
  688MPD2    C410175   3.885   1.556  17.135  0.3583  0.1103  0.0401
  688MPD2    C510176   3.830   1.658  17.214 -0.0633  0.3183  0.6387
  688MPD2     H10177   3.822   1.285  17.340  0.3944  0.8423  1.9565
  688MPD2    H110178   3.940   1.585  17.046  2.8885 -0.8733  1.2990
  688MPD2    H210179   3.708   1.710  17.362 -1.0070  0.1291 -0.7243
  688MPD2    H310180   3.836   1.762  17.185  1.6163  0.3587  1.1344
  688MPD2     N10181   3.960   1.334  17.097 -0.5095  0.1970 -0.0403
  688MPD2    H510182   4.020   1.384  17.032 -0.1951  0.3435  0.3641
  688MPD2    N110183   3.686   1.449  17.484 -0.9177 -0.0771  0.5309
  688MPD2    H710184   3.694   1.352  17.514 -0.4261 -0.7906 -1.8575
  689TMC3    C110185   3.561   1.478  17.689 -0.6538 -0.8800  0.2978
  689TMC3    C210186   3.583   1.546   0.108 -0.0103 -0.5647 -0.9861
  689TMC3    C310187   3.549   1.480   0.222 -0.3592 -0.0139  0.0537
  689TMC3    C410188   3.530   1.346  17.682 -0.0023  0.5463  0.2827
  689TMC3    C510189   3.509   1.284   0.106  0.1433  0.3816  0.2396
  689TMC3    C610190   3.520   1.350   0.226 -0.2927 -0.9390 -0.9809
  689TMC3     C10191   3.607   1.537  17.563 -0.0892 -0.7967 -0.3228
  689TMC3     O10192   3.586   1.660  17.560  0.4351 -0.2620  0.3167
  689TMC3     H10193   3.622   1.647   0.116 -1.7763 -0.0813  1.4215
  689TMC3    H110194   3.525   1.287  17.592 -1.7836  1.1655 -0.0257
  689TMC3    H210195   3.519   1.293   0.318 -2.0577 -2.9426 -2.2325
  689TMC3    C710196   3.554   1.145   0.105 -0.6133  0.4661  0.1385
  689TMC3    C810197   3.595   1.544   0.350  0.1442 -0.7107  0.6166
  689TMC3    O110198   3.645   1.121   0.184 -0.0130  0.1605  0.1297
  689TMC3    O210199   3.504   1.548   0.440 -0.5166 -0.3393 -0.3173
  690MPD2     C10200   0.718   3.134  16.346 -0.0331  1.0136 -0.1894
  690MPD2    C110201   0.759   3.044  16.245 -0.6198 -0.8382  0.0501
  690MPD2    C210202   0.865   3.070  16.158 -0.5154 -0.1885  0.4656
  690MPD2    C310203   0.935   3.189  16.179  0.3138  0.1973 -0.9500
  690MPD2    C410204   0.901   3.275  16.277 -0.1917 -0.5919  0.1626
  690MPD2    C510205   0.790   3.253  16.357 -0.0829  0.2367  0.3619
  690MPD2     H10206   0.899   2.994  16.088  1.5066 -0.5987  1.9007
  690MPD2    H110207   0.963   3.361  16.300 -0.2170 -0.6168  0.3295
  690MPD2    H210208   0.635   3.116  16.413 -0.6661  1.1533 -0.9354
  690MPD2    H310209   0.764   3.314  16.443 -1.5372 -1.3262  1.0364
  690MPD2     N10210   1.039   3.213  16.087 -0.3512  0.2583 -0.4793
  690MPD2    H510211   1.030   3.146  16.011 -0.3653  1.6235 -1.6732
  690MPD2    N110212   0.691   2.923  16.214 -0.0842  0.5184 -0.2995
  690MPD2    H710213   0.736   2.864  16.145  2.0742  3.5339 -1.4402
  691TMC3    C110214   0.531   2.752  16.216 -0.3406 -1.2084 -0.8654
  691TMC3    C210215   0.425   2.738  16.143 -0.7135  0.2729  0.2405
  691TMC3    C310216   0.401   2.614  16.083  0.3371  0.0976  0.0742
  691TMC3    C410217   0.630   2.662  16.216 -0.1576  0.5414  0.1739
  691TMC3    C510218   0.607   2.542  16.158  0.5786 -0.1678 -0.4014
  691TMC3    C610219   0.496   2.516  16.087  0.0388 -0.5101  0.2077
  691TMC3     C10220   0.569   2.883  16.259 -0.5742  0.7618 -0.0869
  691TMC3     O10221   0.494   2.951  16.325 -0.8105 -0.1188  0.1471
  691TMC3     H10222   0.356   2.820  16.129 -0.4716  0.6991  1.5599
  691TMC3    H110223   0.718   2.687  16.274  0.5373 -1.5296  0.0124
  691TMC3    H210224   0.474   2.414  16.055  0.0967 -0.4581 -0.0032
  691TMC3    C710225   0.731   2.481  16.109  0.0942  0.6927  0.0557
  691TMC3    C810226   0.318   2.604  15.967 -0.1623 -0.4863 -0.7600
  691TMC3    O110227   0.834   2.494  16.174  0.4248  0.0020 -0.0264
  691TMC3    O210228   0.277   2.494  15.927  0.4322  0.4396  0.5610
  692TMC3    C110229   2.778   4.401  16.139  0.3334 -0.1470 -0.1065
  692TMC3    C210230   2.882   4.431  16.228 -0.1734 -0.0057  0.1841
  692TMC3    C310231   2.969   4.333  16.261  0.3937  0.0804  0.4658
  692TMC3    C410232   2.765   4.280  16.080 -0.0596  1.1556 -0.3987
  692TMC3    C510233   2.868   4.192  16.101 -0.1273  0.2649 -0.3322
  692TMC3    C610234   2.981   4.227  16.173  0.3604  0.2771 -0.4842
  692TMC3     C10235   2.677   4.502  16.110  0.0607  0.0363  0.6145
  692TMC3     O10236   2.576   4.469  16.051 -0.6489  0.4483 -0.3698
  692TMC3     H10237   2.862   4.519  16.288  0.1006 -0.2163  0.5912
  692TMC3    H110238   2.682   4.270  16.011  0.0330 -1.0932 -0.1866
  692TMC3    H210239   3.049   4.146  16.197 -0.4396 -0.5049 -0.8334
  692TMC3    C710240   2.856   4.063  16.030  0.3762 -0.2834  0.1953
  692TMC3    C810241   2.938   4.280  16.386  0.8699 -0.4784  0.1638
  692TMC3    O110242   2.813   4.073  15.912 -0.1363 -0.1012  0.0941
  692TMC3    O210243   2.929   4.158  16.393  0.1567  0.1174 -0.4569
  693MPD2     C10244   1.970   1.805  11.017 -0.8278 -0.5615 -0.2988
  693MPD2    C110245   1.988   1.694  10.936 -0.5175 -0.6453  0.2333
  693MPD2    C210246   2.109   1.643  10.906  0.9793 -0.2399  0.6960
  693MPD2    C310247   2.224   1.704  10.960 -0.2403 -0.0725 -0.6092
  693MPD2    C410248   2.205   1.809  11.048  0.4928  0.6675 -0.2248
  693MPD2    C510249   2.079   1.852  11.085 -0.3302  0.6713 -0.4040
  693MPD2     H10250   2.118   1.564  10.832 -1.4490 -0.6683  0.8650
  693MPD2    H110251   2.285   1.866  11.093  1.6148 -3.1874  2.6532
  693MPD2    H210252   1.874   1.844  11.048 -0.6791  0.7095 -1.4743
  693MPD2    H310253   2.084   1.932  11.158 -1.2162  1.5080 -1.2550
  693MPD2     N10254   2.359   1.672  10.929  0.2666  0.2164 -0.3026
  693MPD2    H510255   2.422   1.744  10.964 -1.2107  0.1201  2.5047
  693MPD2    N110256   1.866   1.627  10.898 -0.5767  0.4872  0.3240
  693MPD2    H710257   1.781   1.668  10.934 -1.4379 -1.2721  0.2893
  694TMC3    C110258   1.757   1.425  10.871  0.7710  0.1967 -0.3859
  694TMC3    C210259   1.735   1.309  10.807 -0.0512 -0.2147  0.0201
  694TMC3    C310260   1.705   1.195  10.878 -0.0526  0.4112  0.1102
  694TMC3    C410261   1.738   1.429  11.000 -0.1860  0.3907 -0.2374
  694TMC3    C510262   1.712   1.316  11.068  0.0169  0.5631  0.5207
  694TMC3    C610263   1.697   1.196  11.009  0.2380  0.4694  1.0015
  694TMC3     C10264   1.861   1.512  10.819 -0.2197 -0.5061 -0.2653
  694TMC3     O10265   1.945   1.464  10.743  0.1866 -0.0478  0.4575
  694TMC3     H10266   1.753   1.304  10.700 -0.9746  1.9604 -0.2226
  694TMC3    H110267   1.746   1.520  11.058  0.3924  1.3682 -1.8613
  694TMC3    H210268   1.663   1.106  11.059 -2.0404  0.2056 -1.0094
  694TMC3    C710269   1.732   1.325  11.211 -0.1316 -0.0312 -0.3315
  694TMC3    C810270   1.639   1.085  10.821  0.5158  0.2398 -0.1377
  694TMC3    O110271   1.776   1.432  11.252 -0.2798  0.4030  0.0806
  694TMC3    O210272   1.648   0.974  10.871  0.4424 -0.1961  0.6671
  695MPD2     C10273   3.284   3.336  13.297  0.2688 -0.1879  0.1716
  695MPD2    C110274   3.259   3.362  13.429 -0.2591  0.5833  0.1196
  695MPD2    C210275   3.151   3.436  13.464  0.3314  0.1804 -0.0721
  695MPD2    C310276   3.072   3.500  13.368 -0.2272  0.3062  0.7059
  695MPD2    C410277   3.097   3.474  13.235  0.3358  0.2305 -0.0729
  695MPD2    C510278   3.200   3.390  13.203  0.4032  0.5740  0.6735
  695MPD2     H10279   3.133   3.463  13.568  0.5095  0.2737 -0.0645
  695MPD2    H110280   3.029   3.503  13.155 -1.8524  2.5180  2.6240
  695MPD2    H210281   3.369   3.279  13.261 -1.5025 -2.9221  0.3239
  695MPD2    H310282   3.214   3.351  13.103  0.4354  0.9206  0.5463
  695MPD2     N10283   2.969   3.583  13.412  0.3801  0.2117 -0.4094
  695MPD2    H510284   2.954   3.589  13.512 -1.7776  0.5708 -0.7512
  695MPD2    N110285   3.346   3.328  13.536 -0.5548 -0.5659 -0.1440
  695MPD2    H710286   3.327   3.370  13.626  1.4960 -1.3832  0.6458
  696TMC3    C110287   2.835   3.772  13.419  0.7257 -0.7790 -0.1058
  696TMC3    C210288   2.760   3.717  13.517 -0.9909  0.6673 -0.6805
  696TMC3    C310289   2.688   3.803  13.596  0.0083 -0.3357 -0.1652
  696TMC3    C410290   2.846   3.908  13.406  0.0268 -0.5065  0.0046
  696TMC3    C510291   2.787   3.990  13.495  0.1033 -0.4792 -0.3089
  696TMC3    C610292   2.708   3.939  13.596 -0.3148  0.2274 -0.3642
  696TMC3     C10293   2.908   3.682  13.338  0.2475 -0.2535 -0.1538
  696TMC3     O10294   2.924   3.711  13.221 -0.4414 -0.0330 -0.1300
  696TMC3     H10295   2.748   3.610  13.536  0.6692  0.5537 -0.2928
  696TMC3    H110296   2.912   3.947  13.330  0.3769 -0.6209  0.2503
  696TMC3    H210297   2.660   4.003  13.668 -0.2049  1.1337 -1.1039
  696TMC3    C710298   2.792   4.129  13.452  0.7230  0.6198  0.0849
  696TMC3    C810299   2.632   3.744  13.708 -0.1835 -1.0540 -0.4836
  696TMC3    O110300   2.835   4.149  13.339 -0.2389  0.4768  0.4941
  696TMC3    O210301   2.557   3.646  13.699  0.1737 -1.2396 -0.2672
  697MPD2     C10302   2.370   0.747  15.939 -0.1004  0.1088  0.3356
  697MPD2    C110303   2.422   0.714  15.820  0.2049 -0.3252 -0.0188
  697MPD2    C210304   2.490   0.800  15.738 -0.2708 -0.4102 -0.1224
  697MPD2    C310305   2.495   0.936  15.771 -0.5630  0.1369 -0.1526
  697MPD2    C410306   2.434   0.974  15.886 -0.6122  0.1266 -0.0545
  697MPD2    C510307   2.380   0.881  15.972 -0.3615 -0.1503 -0.1319
  697MPD2     H10308   2.543   0.761  15.652 -1.2721 -1.6660 -0.1731
  697MPD2    H110309   2.423   1.080  15.908 -1.3085  0.2382 -0.9054
  697MPD2    H210310   2.333   0.676  16.012 -2.3989 -0.3078 -1.2330
  697MPD2    H310311   2.337   0.913  16.066  0.5847  0.6193  0.0417
  697MPD2     N10312   2.574   1.025  15.689 -0.6075 -0.1016 -0.5949
  697MPD2    H510313   2.595   1.001  15.592  0.5727  0.3419 -0.4503
  697MPD2    N110314   2.429   0.578  15.770  0.1186 -0.2466  0.5221
  697MPD2    H710315   2.488   0.567  15.688 -1.0855  1.7873 -0.6294
  698TMC3    C110316   2.686   1.222  15.638 -0.1520  0.4840  0.2684
  698TMC3    C210317   2.744   1.331  15.690  0.1446 -0.1242 -0.9517
  698TMC3    C310318   2.805   1.417  15.604  0.0676 -0.3823  0.3032
  698TMC3    C410319   2.697   1.186  15.499 -0.2416  0.1055 -0.2121
  698TMC3    C510320   2.759   1.279  15.417  0.0625  0.5726  0.3629
  698TMC3    C610321   2.817   1.392  15.466  0.4597  0.0573 -0.3048
  698TMC3     C10322   2.616   1.144  15.731  0.6816 -0.0863  0.2109
  698TMC3     O10323   2.601   1.196  15.842  0.4472 -0.2221 -0.0779
  698TMC3     H10324   2.748   1.347  15.797 -0.7249  2.0649 -1.2557
  698TMC3    H110325   2.661   1.097  15.450 -0.6256 -0.2880  0.8119
  698TMC3    H210326   2.853   1.473  15.403  0.9900  0.5952  0.6997
  698TMC3    C710327   2.762   1.264  15.278  0.2552 -0.3126 -0.6007
  698TMC3    C810328   2.882   1.521  15.662  0.7205 -0.8196 -0.3832
  698TMC3    O110329   2.678   1.194  15.228 -0.4317 -0.4316  0.3852
  698TMC3    O210330   2.860   1.564  15.774  0.6908  0.1230  0.3294
  699TMC3    C110331   2.783   3.539  13.021  0.0403 -0.2969 -0.4775
  699TMC3    C210332   2.798   3.412  13.076 -0.7108  0.0100 -0.0452
  699TMC3    C310333   2.688   3.358  13.132 -0.1081 -0.1103 -0.1578
  699TMC3    C410334   2.681   3.617  13.048  0.3571  0.0034  0.2413
  699TMC3    C510335   2.581   3.563  13.117 -0.0621 -0.4240  0.9794
  699TMC3    C610336   2.575   3.430  13.153 -0.2489  0.0596  0.0410
  699TMC3     C10337   2.891   3.583  12.929 -0.6948 -0.3736 -0.0423
  699TMC3     O10338   2.882   3.699  12.901 -0.3192  0.0239  0.6921
  699TMC3     H10339   2.890   3.355  13.077 -1.4283 -1.1344  0.8318
  699TMC3    H110340   2.679   3.715  13.001 -0.5035 -0.2920 -0.3310
  699TMC3    H210341   2.492   3.386  13.209  0.6233 -1.7095 -0.0510
  699TMC3    C710342   2.482   3.647  13.176 -0.4167  0.9109 -0.3781
  699TMC3    C810343   2.708   3.255  13.233 -0.5291 -0.7796 -0.0708
  699TMC3    O110344   2.382   3.597  13.225  0.7372 -0.5585  0.0010
  699TMC3    O210345   2.608   3.198  13.268  0.1440 -0.0217 -0.5315
  700TMC3    C110346   1.529   1.847  17.323  0.1396 -0.1021 -0.0628
  700TMC3    C210347   1.540   1.712  17.309 -0.0007  0.6739 -0.1344
  700TMC3    C310348   1.604   1.640  17.406 -0.3805 -0.3564  0.3478
  700TMC3    C410349   1.587   1.917  17.428 -0.4815 -0.0004  0.4685
  700TMC3    C510350   1.644   1.838  17.529  0.6549  0.2683 -0.5929
  700TMC3    C610351   1.654   1.699  17.517  0.1588 -0.2061 -0.2393
  700TMC3     C10352   1.512   1.909  17.195 -0.3006  0.7852  0.7885
  700TMC3     O10353   1.446   1.851  17.108  0.7562  0.1563  0.1734
  700TMC3     H10354   1.519   1.672  17.210 -0.6602  0.5612  0.0564
  700TMC3    H110355   1.586   2.025  17.440  0.4861 -0.0242  0.7431
  700TMC3    H210356   1.707   1.633  17.584 -0.8227 -1.6766 -0.9017
  700TMC3    C710357   1.761   1.912  17.586  0.2046 -0.0144  0.4925
  700TMC3    C810358   1.663   1.517  17.371 -0.9142  0.8881 -0.0069
  700TMC3    O110359   1.875   1.861  17.579 -0.5910  0.1420 -0.0292
  700TMC3    O210360   1.771   1.492  17.420 -0.5514  0.0024 -0.2048
  701TMC3    C110361   1.898   4.478  15.290 -0.8308  0.3437 -0.4259
  701TMC3    C210362   1.897   4.465  15.148  0.5452  0.1621  0.2299
  701TMC3    C310363   1.977   4.554  15.086  0.1162  0.8699  0.4492
  701TMC3    C410364   1.968   4.576  15.357  0.0656 -0.0081  0.1839
  701TMC3    C510365   2.042   4.657  15.284 -0.1765 -0.2710 -0.2999
  701TMC3    C610366   2.050   4.651  15.148  0.0229  0.2988  0.3194
  701TMC3     C10367   1.790   4.395  15.357 -0.0403  0.2561  0.3132
  701TMC3     O10368   1.677   4.383  15.303 -0.0167  0.4404  0.6640
  701TMC3     H10369   1.838   4.388  15.100 -0.4033  1.2330 -0.3294
  701TMC3    H110370   1.957   4.583  15.464  1.9364  0.2299  0.3574
  701TMC3    H210371   2.095   0.009  15.093 -0.2679  0.2004 -0.0658
  701TMC3    C710372   2.059   0.067  15.337  0.0470  0.1101  0.0262
  701TMC3    C810373   1.993   4.550  14.942  0.3475  0.1504 -0.2693
  701TMC3    O110374   2.171   0.119  15.339 -0.6474  0.7884 -0.2631
  701TMC3    O210375   2.099   4.599  14.899  0.5180  0.6775  0.5428
  702MPD2     C10376   1.402   1.498  10.775 -0.8024  0.9820  0.3063
  702MPD2    C110377   1.358   1.627  10.802 -0.0787  0.1206  0.0661
  702MPD2    C210378   1.397   1.737  10.724  0.4944  0.1677 -0.1603
  702MPD2    C310379   1.477   1.715  10.613 -0.0010  0.3953 -0.5024
  702MPD2    C410380   1.509   1.587  10.580  0.0629  0.0900 -0.5316
  702MPD2    C510381   1.477   1.480  10.659  0.2787  0.1022  0.2263
  702MPD2     H10382   1.363   1.835  10.755 -0.8877 -0.4081  0.1634
  702MPD2    H110383   1.571   1.567  10.493 -0.6502  0.6967 -1.1833
  702MPD2    H210384   1.377   1.413  10.837 -2.0103  0.5405 -0.7873
  702MPD2    H310385   1.520   1.386  10.627 -1.2311 -1.1248  1.7684
  702MPD2     N10386   1.510   1.818  10.521 -0.5517 -0.1270 -0.0347
  702MPD2    H510387   1.573   1.794  10.445 -0.3307 -0.0767  0.1329
  702MPD2    N110388   1.278   1.662  10.910  0.2953  0.2724 -0.3184
  702MPD2    H710389   1.259   1.759  10.934  0.3348 -0.7757  4.0257
  703TMC3    C110390   1.535   2.056  10.468  0.3914  0.0720  0.4021
  703TMC3    C210391   1.473   2.179  10.464  0.0047 -0.6165  0.3008
  703TMC3    C310392   1.536   2.290  10.424  0.5918  0.2742 -0.0710
  703TMC3    C410393   1.669   2.036  10.424  0.0515  0.2100 -0.3670
  703TMC3    C510394   1.725   2.153  10.381 -0.6882  0.7125 -0.6346
  703TMC3    C610395   1.664   2.274  10.380  1.3454  0.6436 -0.0118
  703TMC3     C10396   1.462   1.950  10.537  0.6008 -0.3879  0.2710
  703TMC3     O10397   1.371   1.997  10.607  0.2533  0.0421  0.8311
  703TMC3     H10398   1.365   2.173  10.472 -0.0866  0.8583  0.1475
  703TMC3    H110399   1.726   1.945  10.439 -0.5282 -0.3758 -1.7425
  703TMC3    H210400   1.722   2.358  10.345 -0.9716  0.6428 -3.7581
  703TMC3    C710401   1.863   2.155  10.348  0.3798 -0.3507  0.0137
  703TMC3    C810402   1.492   2.422  10.444 -0.0368 -0.1725 -0.3703
  703TMC3    O110403   1.902   2.060  10.283  0.3082  0.0228  0.2985
  703TMC3    O210404   1.545   2.509  10.377  0.1477 -0.2385 -0.5933
  704TMC3    C110405   3.605   0.399  12.365 -0.0114 -0.5438  0.1105
  704TMC3    C210406   3.746   0.405  12.367 -0.6678  0.4571  0.4857
  704TMC3    C310407   3.809   0.370  12.483 -0.5545  0.5061 -0.9335
  704TMC3    C410408   3.532   0.361  12.476 -0.1261  0.0889  0.3082
  704TMC3    C510409   3.603   0.326  12.584 -0.2090  0.2837 -0.2566
  704TMC3    C610410   3.739   0.328  12.591  0.4068 -0.1597 -0.1011
  704TMC3     C10411   3.525   0.438  12.252 -0.7442 -0.0900 -0.3620
  704TMC3     O10412   3.409   0.471  12.273  0.2481  0.2900  0.8176
  704TMC3     H10413   3.794   0.450  12.281  0.2775  1.8165  1.7302
  704TMC3    H110414   3.424   0.360  12.464 -0.0072  3.8274 -1.1053
  704TMC3    H210415   3.785   0.296  12.684  0.6435  1.1007  0.2132
  704TMC3    C710416   3.549   0.236  12.684  0.0296  0.7474  0.5501
  704TMC3    C810417   3.950   0.363  12.467  0.2248  0.1267  0.1405
  704TMC3    O110418   3.536   0.272  12.798 -0.0501 -0.1187 -0.0668
  704TMC3    O210419   3.990   0.371  12.353 -0.1827  0.5125  0.1363
  705MPD2     C10420   3.393   3.662  16.669 -0.7723 -0.2411 -0.2238
  705MPD2    C110421   3.323   3.742  16.584  0.5074  0.1974  0.7277
  705MPD2    C210422   3.205   3.789  16.632  0.2779  0.2146  0.2274
  705MPD2    C310423   3.161   3.756  16.760 -0.8862 -0.0435  0.0955
  705MPD2    C410424   3.234   3.669  16.837 -0.6437 -0.1808  0.0942
  705MPD2    C510425   3.352   3.626  16.791  0.3667 -0.3671 -0.5327
  705MPD2     H10426   3.149   3.850  16.562 -0.1258 -0.5442 -0.1188
  705MPD2    H110427   3.203   3.632  16.934  1.2515 -1.4772  0.1979
  705MPD2    H210428   3.489   3.616  16.648 -0.1584  0.3369  1.2668
  705MPD2    H310429   3.415   3.564  16.854 -0.1536 -0.9476 -0.5814
  705MPD2     N10430   3.033   3.798  16.807 -0.3503  0.8140 -0.0427
  705MPD2    H510431   2.983   3.862  16.747 -2.8071 -0.4104  0.6994
  705MPD2    N110432   3.365   3.777  16.451 -0.7820 -0.0270  0.0019
  705MPD2    H710433   3.312   3.852  16.408  1.1489  1.2196 -0.2017
  706TMC3    C110434   3.613   3.806  16.044 -0.4821  0.4730  0.7976
  706TMC3    C210435   3.539   3.912  16.001 -0.8857  0.3396  0.2543
  706TMC3    C310436   3.444   3.964  16.089  0.1401 -0.5789  0.2983
  706TMC3    C410437   3.594   3.748  16.175 -0.4439 -0.3234  0.5411
  706TMC3    C510438   3.498   3.801  16.258  0.5785 -0.5770 -0.0040
  706TMC3    C610439   3.424   3.908  16.214 -0.1752  0.0582 -0.0011
  706TMC3     C10440   3.755   3.808  16.013  0.8730 -0.1365 -0.9407
  706TMC3     O10441   3.825   3.798  16.117 -0.9067  0.0482 -0.8845
  706TMC3     H10442   3.549   3.945  15.898 -1.9942  0.5241  0.2019
  706TMC3    H110443   3.649   3.658  16.201  0.5397  0.2617  0.4909
  706TMC3    H210444   3.355   3.957  16.281 -0.0641 -3.8101  2.9080
  706TMC3    C710445   3.476   3.731  16.386 -0.8430  0.2569  0.2120
  706TMC3    C810446   3.362   4.087  16.056  0.5441  0.0428  0.0997
  706TMC3    O110447   3.554   3.648  16.419  0.4444  0.0591  0.7017
  706TMC3    O210448   3.309   4.098  15.950  0.3461  0.1220  0.0963
  707TMC3    C110449   4.121   2.260   1.437 -0.6610  0.4573  0.1197
  707TMC3    C210450   4.135   2.133   1.385  0.0257  0.7779 -0.3028
  707TMC3    C310451   4.037   2.088   1.301 -0.0616 -0.1622 -0.0764
  707TMC3    C410452   4.020   2.342   1.394  0.0954 -0.2439  0.0407
  707TMC3    C510453   3.925   2.283   1.312 -0.1255  0.1010  0.0558
  707TMC3    C610454   3.926   2.157   1.260  0.6531  0.4187 -0.1463
  707TMC3     C10455   4.239   2.321   1.503  0.0714 -0.0591  1.0722
  707TMC3     O10456   4.339   2.252   1.504  0.0608 -0.0108  0.1681
  707TMC3     H10457   4.219   2.075   1.420 -0.4651  0.3436  0.1519
  707TMC3    H110458   4.011   2.444   1.429 -0.3913 -1.3979  3.2251
  707TMC3    H210459   3.852   2.132   1.185  0.6718 -3.3362  1.0805
  707TMC3    C710460   3.810   2.365   1.270 -0.0609  0.0542 -0.0100
  707TMC3    C810461   4.095   2.009   1.191  0.2586  0.1903  0.1388
  707TMC3    O110462   3.749   2.336   1.167  0.0448  0.8967  0.4737
  707TMC3    O210463   4.017   1.981   1.100  0.0885 -0.3922 -0.0727
  708MPD2     C10464   1.965   1.724  14.153 -0.1469 -0.1402  1.5289
  708MPD2    C110465   1.902   1.841  14.190 -0.1897  0.2071 -0.4499
  708MPD2    C210466   1.882   1.867  14.323  0.5449  0.2861  0.0732
  708MPD2    C310467   1.913   1.780  14.423 -0.3380  0.6536 -0.3840
  708MPD2    C410468   1.974   1.661  14.387  0.2870 -0.6351 -0.4777
  708MPD2    C510469   1.999   1.638  14.255 -0.4679  0.3314 -0.2421
  708MPD2     H10470   1.847   1.962  14.362 -0.4399 -0.0784  0.0742
  708MPD2    H110471   2.000   1.589  14.463  3.3044  1.4136  0.4274
  708MPD2    H210472   1.997   1.707  14.050 -2.7851 -0.1039  0.6876
  708MPD2    H310473   2.052   1.546  14.231  0.8847  0.7573  1.1239
  708MPD2     N10474   1.857   1.817  14.550  0.0191 -0.0207  0.8125
  708MPD2    H510475   1.820   1.911  14.549 -1.5698 -0.6578 -0.7504
  708MPD2    N110476   1.869   1.935  14.087 -0.9508  0.0128  0.3664
  708MPD2    H710477   1.896   1.913  13.992  0.6985 -0.9246  1.0667
  709TMC3    C110478   1.770   2.122  13.976 -0.1536 -0.7183  0.4138
  709TMC3    C210479   1.729   2.050  13.865 -0.4895 -0.2533 -0.3206
  709TMC3    C310480   1.632   2.101  13.786 -0.1889 -0.1143  0.3880
  709TMC3    C410481   1.701   2.235  14.006  0.4116 -0.1498 -0.9648
  709TMC3    C510482   1.582   2.269  13.944  0.2431 -0.7977  0.1287
  709TMC3    C610483   1.557   2.205  13.827 -0.6713 -0.0532 -0.0880
  709TMC3     C10484   1.808   2.054  14.101 -0.1670 -0.1891  0.0876
  709TMC3     O10485   1.762   2.105  14.203  0.2347 -0.0891  0.2743
  709TMC3     H10486   1.766   1.952  13.840  1.7961  1.1935 -2.7054
  709TMC3    H110487   1.742   2.304  14.080  0.1481 -1.0575  0.0225
  709TMC3    H210488   1.485   2.249  13.758 -0.2116  1.6936  0.5478
  709TMC3    C710489   1.472   2.265  14.041 -0.1267 -0.2387 -0.0590
  709TMC3    C810490   1.540   2.007  13.726  0.0195  0.0361 -0.1122
  709TMC3    O110491   1.361   2.266  13.988 -0.3227  0.1600  0.5354
  709TMC3    O210492   1.422   2.021  13.749 -0.1019  0.4028 -0.0168
  710TMC3    C110493   2.720   4.039   0.795 -0.0024 -0.2936 -0.6551
  710TMC3    C210494   2.798   4.051   0.685 -0.7342 -0.6602 -0.0907
  710TMC3    C310495   2.886   3.950   0.661 -0.1591  0.1159 -0.1051
  710TMC3    C410496   2.751   3.950   0.897 -0.0914 -0.2724 -0.0051
  710TMC3    C510497   2.846   3.860   0.868  0.6342 -0.0214 -0.4312
  710TMC3    C610498   2.919   3.856   0.755  0.7496 -0.2150  0.3991
  710TMC3     C10499   2.601   4.118   0.816  0.2970 -0.0908  0.0353
  710TMC3     O10500   2.540   4.165   0.722  0.0446 -0.4135 -0.2715
  710TMC3     H10501   2.772   4.128   0.614 -0.2556  0.7506  1.2749
  710TMC3    H110502   2.684   3.909   0.971  1.2059 -3.5130 -0.6081
  710TMC3    H210503   3.001   3.786   0.744  0.1802 -1.0436  1.4359
  710TMC3    C710504   2.867   3.748   0.969  0.1407 -0.6694 -0.6420
  710TMC3    C810505   2.980   3.940   0.549 -0.8646  0.1517  0.3460
  710TMC3    O110506   2.773   3.694   1.022 -0.1329 -0.0380  0.2156
  710TMC3    O210507   3.043   3.838   0.539  0.7102 -0.0049 -0.1637
  711TMC3    C110508   2.343   4.182  14.769 -0.6401 -1.2592 -0.4704
  711TMC3    C210509   2.280   4.289  14.833  0.1220  0.6067 -0.7024
  711TMC3    C310510   2.370   4.380  14.889  0.7251  0.9661 -0.0661
  711TMC3    C410511   2.475   4.171  14.746 -0.1201  0.1984  0.6580
  711TMC3    C510512   2.559   4.271  14.773 -0.6568 -1.0379  0.5015
  711TMC3    C610513   2.509   4.378  14.843  0.1811 -0.0746 -0.0722
  711TMC3     C10514   2.272   4.055  14.788 -0.1471  0.8533 -0.2150
  711TMC3     O10515   2.150   4.066  14.797 -0.3436  0.3162 -0.0046
  711TMC3     H10516   2.173   4.296  14.849  0.2424  1.3545 -0.2238
  711TMC3    H110517   2.517   4.086  14.693  1.8272  1.9088 -0.5381
  711TMC3    H210518   2.579   4.440  14.897 -1.1576  0.9916  0.4450
  711TMC3    C710519   2.677   4.221  14.841 -0.0412  0.0423 -0.3876
  711TMC3    C810520   2.354   4.375  15.034  0.2129  0.0463 -0.4278
  711TMC3    O110521   2.666   4.112  14.900 -0.0448 -0.0442  0.5797
  711TMC3    O210522   2.259   4.308  15.080 -0.1533 -0.5084 -0.4098
  712MPD2     C10523   3.644   0.565  13.559  0.2700 -0.0460  0.1548
  712MPD2    C110524   3.570   0.662  13.628 -0.1489  0.1447  1.1943
  712MPD2    C210525   3.626   0.791  13.639  0.6876 -0.1544 -0.1722
  712MPD2    C310526   3.730   0.830  13.562 -0.5394 -0.1996 -0.8549
  712MPD2    C410527   3.799   0.730  13.497  0.4657  0.1536  0.2258
  712MPD2    C510528   3.763   0.601  13.497  0.2716  0.1104  0.2539
  712MPD2     H10529   3.573   0.859  13.704 -0.2346 -1.3360  0.3145
  712MPD2    H110530   3.892   0.755  13.447  0.8072 -1.6716 -0.0361
  712MPD2    H210531   3.603   0.466  13.545 -0.9269  0.4822 -0.1026
  712MPD2    H310532   3.830   0.525  13.461 -1.1257 -1.7492  1.5477
  712MPD2     N10533   3.778   0.966  13.555  0.0261 -0.3774 -0.4738
  712MPD2    H510534   3.856   0.984  13.494 -0.6041  1.7976 -0.6559
  712MPD2    N110535   3.445   0.644  13.694  0.6763  0.4547  0.0513
  712MPD2    H710536   3.414   0.727  13.743  0.3566  0.3023  0.1039
  713TMC3    C110537   3.769   1.204  13.588  0.0991 -0.0070 -0.4596
  713TMC3    C210538   3.904   1.204  13.569 -0.3511 -0.0391  0.0802
  713TMC3    C310539   3.948   1.294  13.469  0.2423  0.6264  0.2069
  713TMC3    C410540   3.690   1.301  13.537  0.3961 -0.1555  0.0843
  713TMC3    C510541   3.739   1.374  13.430 -0.3674 -0.0260  0.4923
  713TMC3    C610542   3.872   1.370  13.390 -0.1672  0.0513  0.2913
  713TMC3     C10543   3.712   1.077  13.620 -0.1545  0.8367 -0.4956
  713TMC3     O10544   3.602   1.076  13.674  0.2627 -0.3198 -0.0760
  713TMC3     H10545   3.972   1.132  13.612 -0.2090 -0.8167 -1.4584
  713TMC3    H110546   3.583   1.311  13.553  0.4133  1.7320 -1.0302
  713TMC3    H210547   3.912   1.440  13.317  0.2141 -2.2847 -1.7289
  713TMC3    C710548   3.647   1.456  13.361 -0.3510 -0.1678 -0.1292
  713TMC3    C810549   4.087   1.284  13.442  0.2026 -0.2543  0.3357
  713TMC3    O110550   3.530   1.443  13.399  0.6803 -0.2061 -0.0303
  713TMC3    O210551   4.129   1.314  13.329  0.4549  0.4865  0.0957
  714MPD2     C10552   1.140   4.495   1.641 -1.0886 -0.8062 -0.2238
  714MPD2    C110553   1.219   4.404   1.570  0.0712  0.1129 -0.0763
  714MPD2    C210554   1.212   4.403   1.432  0.2190  0.1824  0.1918
  714MPD2    C310555   1.128   4.489   1.365  0.6342 -0.2560 -0.1343
  714MPD2    C410556   1.058   4.581   1.436 -1.3601  0.2189 -0.2891
  714MPD2    C510557   1.053   4.577   1.577 -0.4650  0.0681  0.5081
  714MPD2     H10558   1.275   4.335   1.376 -0.7138  0.2129 -0.8945
  714MPD2    H110559   0.990   4.649   1.385  1.1058  2.3763 -0.6650
  714MPD2    H210560   1.152   4.517   1.747  1.2368 -3.1935  0.0067
  714MPD2    H310561   0.994   4.644   1.638 -0.0824  1.1402 -0.2966
  714MPD2     N10562   1.123   4.481   1.220  0.2425 -0.2772  0.6969
  714MPD2    H510563   1.053   4.546   1.186 -0.2519  0.0627  2.3675
  714MPD2    N110564   1.289   4.316   1.650 -0.4899  0.1191 -0.9411
  714MPD2    H710565   1.291   4.337   1.750 -1.1908  2.1760 -1.3621
  715TMC3    C110566   1.432   4.149   1.711 -0.3600 -0.1283 -0.4530
  715TMC3    C210567   1.494   4.026   1.683  0.3843  0.8363  0.0945
  715TMC3    C310568   1.585   3.980   1.780 -0.4200  0.2064 -0.2819
  715TMC3    C410569   1.471   4.219   1.824 -0.1161 -0.5912  0.1433
  715TMC3    C510570   1.559   4.165   1.912 -0.0313 -0.2606 -0.3688
  715TMC3    C610571   1.617   4.048   1.892 -0.9661 -0.4559  0.2946
  715TMC3     C10572   1.358   4.210   1.605  0.3122 -0.0817  1.0009
  715TMC3     O10573   1.355   4.155   1.492 -0.3432  0.0826 -0.1065
  715TMC3     H10574   1.472   3.974   1.590  1.1719 -2.4879  1.7805
  715TMC3    H110575   1.444   4.322   1.839 -2.0519 -1.4324  2.4667
  715TMC3    H210576   1.661   3.998   1.978  1.6857 -0.3394 -1.0051
  715TMC3    C710577   1.586   4.229   2.046 -0.5277 -0.1056  0.4981
  715TMC3    C810578   1.667   3.865   1.729 -0.4265 -0.4507  0.2101
  715TMC3    O110579   1.690   4.191   2.102 -0.2799  0.1338 -0.4038
  715TMC3    O210580   1.618   3.808   1.629  0.2437  0.3522 -0.3898
  716MPD2     C10581   0.916   1.789   9.978 -0.2343  0.0183  0.2697
  716MPD2    C110582   1.019   1.794   9.888 -0.8328  0.8948  0.3533
  716MPD2    C210583   1.139   1.722   9.905 -0.3996  0.4410 -0.0615
  716MPD2    C310584   1.150   1.650  10.021 -0.2402 -0.5120  0.1057
  716MPD2    C410585   1.048   1.652  10.115 -0.5862  0.9749 -0.1453
  716MPD2    C510586   0.931   1.721  10.094 -0.1941 -0.3210 -0.3770
  716MPD2     H10587   1.215   1.728   9.828 -0.1017  3.2023  0.4349
  716MPD2    H110588   1.045   1.584  10.199 -0.7882 -0.7473 -1.5486
  716MPD2    H210589   0.819   1.835   9.963  0.0622 -0.3158 -2.6537
  716MPD2    H310590   0.850   1.728  10.166 -0.4103  0.0176 -0.6555
  716MPD2     N10591   1.275   1.579  10.032 -0.5294  0.4003  0.2135
  716MPD2    H510592   1.352   1.584   9.966  0.6837  0.5214  1.6369
  716MPD2    N110593   0.993   1.875   9.781  0.3943 -0.7033  1.0984
  716MPD2    H710594   0.913   1.937   9.788  0.5051 -0.3318 -1.1403
  717TMC3    C110595   1.435   1.432  10.123  0.1057  0.0270 -0.3122
  717TMC3    C210596   1.455   1.359  10.005 -0.5038 -0.0691 -0.3048
  717TMC3    C310597   1.556   1.266  10.004 -1.0314 -0.2453 -0.2398
  717TMC3    C410598   1.514   1.396  10.238  0.2927  0.3039  0.2798
  717TMC3    C510599   1.607   1.297  10.232  0.1515 -0.2441 -0.4829
  717TMC3    C610600   1.634   1.236  10.114  0.6901  0.0353 -0.3149
  717TMC3     C10601   1.312   1.503  10.143  0.0718 -0.2931 -0.3027
  717TMC3     O10602   1.254   1.483  10.251  0.5161 -0.2481  0.1633
  717TMC3     H10603   1.410   1.388   9.911  1.0843 -0.0011 -1.0468
  717TMC3    H110604   1.503   1.469  10.317  1.2435 -0.1712  0.8561
  717TMC3    H210605   1.729   1.184  10.107 -0.5713 -2.3982  0.6095
  717TMC3    C710606   1.699   1.274  10.343 -0.6105 -0.2735 -0.4974
  717TMC3    C810607   1.552   1.175   9.885 -0.3722  0.6917  0.2352
  717TMC3    O110608   1.698   1.353  10.434 -0.0923 -0.0542 -0.0911
  717TMC3    O210609   1.483   1.202   9.788 -0.1257  0.5164  0.1270
  718MPD2     C10610   0.599   1.222  13.113 -0.2987 -0.3238 -0.0503
  718MPD2    C110611   0.532   1.243  12.997 -0.4197 -0.4835 -0.3344
  718MPD2    C210612   0.428   1.163  12.968 -0.5807 -0.0185 -0.4573
  718MPD2    C310613   0.378   1.059  13.047  0.4325  0.3994  0.4831
  718MPD2    C410614   0.445   1.041  13.170 -0.1016  0.2162  0.4735
  718MPD2    C510615   0.560   1.117  13.200  0.0022  0.0776  0.3066
  718MPD2     H10616   0.379   1.175  12.872 -1.3793  0.3767  0.0012
  718MPD2    H110617   0.407   0.956  13.225  0.2495 -1.1710 -1.4293
  718MPD2    H210618   0.691   1.276  13.131 -0.4463 -0.2446  0.4657
  718MPD2    H310619   0.615   1.089  13.289 -0.9931 -1.0929  0.5632
  718MPD2     N10620   0.265   0.985  13.002 -0.4133 -0.2333  0.3010
  718MPD2    H510621   0.215   1.023  12.922  1.0822 -1.1533 -1.0583
  718MPD2    N110622   0.570   1.349  12.920  0.4545  0.3360 -1.2866
  718MPD2    H710623   0.659   1.394  12.941  0.6660 -1.2843  1.2696
  719TMC3    C110624   0.576   1.495  12.730  0.0663 -0.3008 -0.5376
  719TMC3    C210625   0.499   1.523  12.620  0.8570  0.5648  0.4205
  719TMC3    C310626   0.556   1.493  12.499 -0.5967  0.2003  0.1010
  719TMC3    C410627   0.712   1.465  12.720  0.1930  0.1681 -0.4554
  719TMC3    C510628   0.763   1.469  12.592  1.2034 -0.1596 -0.3026
  719TMC3    C610629   0.690   1.475  12.475  0.8806 -0.7391  0.2879
  719TMC3     C10630   0.504   1.404  12.817  0.6728 -0.2675 -0.5485
  719TMC3     O10631   0.402   1.370  12.764  0.0167 -0.1879  0.1657
  719TMC3     H10632   0.393   1.544  12.629  0.5208 -0.2746 -1.6016
  719TMC3    H110633   0.765   1.424  12.805 -1.2547  1.9103  1.2752
  719TMC3    H210634   0.728   1.463  12.375 -0.8557  0.1510 -0.4809
  719TMC3    C710635   0.907   1.468  12.580  0.4859 -0.4362  0.2863
  719TMC3    C810636   0.471   1.417  12.407  0.3147  0.0635 -0.5472
  719TMC3    O110637   0.951   1.424  12.480  0.4319  0.2667 -0.7383
  719TMC3    O210638   0.476   1.420  12.285  0.7787 -0.4477  0.0517
  720MPD2     C10639   3.643   2.570  14.008  0.2008  0.0068  0.4320
  720MPD2    C110640   3.742   2.593  13.914 -0.3917 -0.3978 -1.1469
  720MPD2    C210641   3.872   2.563  13.958 -0.0923 -0.2763 -0.3324
  720MPD2    C310642   3.901   2.537  14.093 -0.1152 -0.2200 -0.1529
  720MPD2    C410643   3.797   2.515  14.175  0.2938 -0.5272  0.7377
  720MPD2    C510644   3.666   2.535  14.138 -0.8101 -0.6386  0.4386
  720MPD2     H10645   3.955   2.574  13.888  0.7848  2.1089  1.0870
  720MPD2    H110646   3.800   2.488  14.280 -0.9734 -1.1551  0.6106
  720MPD2    H210647   3.536   2.572  13.988  0.9060 -0.2984 -3.2683
  720MPD2    H310648   3.590   2.511  14.211 -0.4274 -1.1142  0.6795
  720MPD2     N10649   4.036   2.532  14.134  0.4589  0.7175 -0.3160
  720MPD2    H510650   4.105   2.546  14.061  0.8802 -2.6133 -0.5500
  720MPD2    N110651   3.728   2.628  13.775  0.2424  0.2669 -0.5848
  720MPD2    H710652   3.814   2.625  13.722 -0.5317  0.9671 -1.9060
  721TMC3    C110653   4.224   2.522  14.264  0.1440 -0.7483  0.7148
  721TMC3    C210654   4.287   2.511  14.387  0.7193 -0.2939 -0.1327
  721TMC3    C310655   4.417   2.465  14.401  0.0229 -0.5313  0.1960
  721TMC3    C410656   4.295   2.495  14.152  0.2654  0.3659  0.4926
  721TMC3    C510657   4.429   2.461  14.171  0.3039  0.3405 -0.0764
  721TMC3    C610658   4.490   2.455  14.290 -0.8941 -0.0771 -0.1001
  721TMC3     C10659   4.083   2.533  14.268 -0.4498 -0.3355 -0.0135
  721TMC3     O10660   4.016   2.536  14.372  0.2316  0.9920 -0.2759
  721TMC3     H10661   4.225   2.529  14.474 -1.4019 -0.4904 -1.5946
  721TMC3    H110662   4.258   2.507  14.050  0.8374 -0.7506  0.1579
  721TMC3    H210663   4.596   2.433  14.294 -0.8633 -0.1902 -1.3953
  721TMC3    C710664   4.509   2.524  14.071  0.2834  0.0834  0.4606
  721TMC3    C810665   4.480   2.466  14.535  0.1280 -0.0178 -0.4214
  721TMC3    O110666   4.617   2.466  14.054 -0.0108 -0.1898  0.1683
  721TMC3    O210667   4.601   2.448  14.532  0.1508 -0.5612 -0.1333
  722MPD2     C10668   2.782   1.114  13.275 -0.6054  0.0657 -0.7153
  722MPD2    C110669   2.728   1.162  13.156  0.3742  0.0387 -0.1274
  722MPD2    C210670   2.600   1.131  13.112  0.3717 -0.0892 -0.7158
  722MPD2    C310671   2.525   1.043  13.188  0.0884 -0.0980 -0.7168
  722MPD2    C410672   2.572   0.994  13.302  0.3467  0.2644  0.4020
  722MPD2    C510673   2.701   1.031  13.342 -0.5043  0.0452  0.3851
  722MPD2     H10674   2.555   1.181  13.027 -0.4167  1.5994  0.7200
  722MPD2    H110675   2.517   0.929  13.369 -0.3622  1.2672  0.7779
  722MPD2    H210676   2.884   1.131  13.308 -0.1084  1.2759 -2.8618
  722MPD2    H310677   2.728   0.990  13.439  2.4047 -0.4117 -0.6203
  722MPD2     N10678   2.394   1.012  13.137 -0.5107 -0.9464 -0.3362
  722MPD2    H510679   2.365   1.067  13.056  0.2580 -0.2842 -0.1620
  722MPD2    N110680   2.791   1.251  13.070  0.2449 -0.5373  0.4738
  722MPD2    H710681   2.741   1.293  12.993  0.6585  2.7114  1.9859
  723TMC3    C110682   2.171   0.938  13.122 -0.1048  0.3438 -0.3399
  723TMC3    C210683   2.089   0.826  13.117  0.0501  0.0898  0.0518
  723TMC3    C310684   1.966   0.844  13.070 -0.4223  0.3704 -0.3194
  723TMC3    C410685   2.138   1.066  13.087 -0.0426  0.2851 -0.0722
  723TMC3    C510686   2.021   1.078  13.035 -0.4020 -0.1136 -0.0599
  723TMC3    C610687   1.927   0.971  13.030 -0.3366 -0.4770  0.2545
  723TMC3     C10688   2.303   0.919  13.185 -1.0155  0.8383 -0.4790
  723TMC3     O10689   2.320   0.819  13.254 -0.0842 -0.0902 -0.1965
  723TMC3     H10690   2.128   0.737  13.166 -0.9460 -0.9214 -0.9791
  723TMC3    H110691   2.209   1.143  13.114  2.2127 -2.1497  0.9042
  723TMC3    H210692   1.827   0.986  12.991 -0.5444 -2.1981  0.1144
  723TMC3    C710693   1.969   1.197  12.976 -0.3337  0.5429 -0.2538
  723TMC3    C810694   1.888   0.727  13.036 -0.5268  0.1266 -0.1425
  723TMC3    O110695   1.858   1.210  12.929  0.5047  0.0200 -0.2534
  723TMC3    O210696   1.769   0.748  13.028 -0.0235  0.0282 -0.1264
  724TMC3    C110697   3.611   3.387  10.184  0.6309 -0.6133 -0.1024
  724TMC3    C210698   3.658   3.304  10.087  0.2915 -0.7444 -1.0735
  724TMC3    C310699   3.772   3.346  10.018 -0.0659  0.0125  0.0306
  724TMC3    C410700   3.674   3.509  10.217  0.3547  0.5758 -0.8241
  724TMC3    C510701   3.791   3.539  10.152  0.2873  0.2846 -0.0181
  724TMC3    C610702   3.845   3.461  10.055  0.5233 -0.5152  0.2856
  724TMC3     C10703   3.481   3.354  10.247  0.4995  0.5114 -0.0620
  724TMC3     O10704   3.480   3.354  10.370  0.2512  0.2065 -0.2776
  724TMC3     H10705   3.593   3.228  10.046 -0.2441 -0.4244 -0.8062
  724TMC3    H110706   3.613   3.577  10.276  1.6093  0.5230  0.5384
  724TMC3    H210707   3.938   3.483  10.005  1.9731 -1.3501  2.5873
  724TMC3    C710708   3.856   3.671  10.155 -0.4757  0.0173 -0.0840
  724TMC3    C810709   3.789   3.288   9.885 -0.2499  0.4254 -0.5889
  724TMC3    O110710   3.966   3.670  10.103 -0.4350 -0.3128  0.0084
  724TMC3    O210711   3.704   3.212   9.841  0.4831 -0.7127  0.0726
  725TMC3    C110712   4.616   2.885  12.953  0.0518 -0.8752 -0.2407
  725TMC3    C210713   4.503   2.924  12.892  0.3109 -0.5653 -0.8649
  725TMC3    C310714   4.385   2.863  12.928 -0.4340  0.2024 -0.7850
  725TMC3    C410715   4.620   2.778  13.040  0.2992 -0.1061  0.0234
  725TMC3    C510716   4.505   2.716  13.072  0.2284  0.2886  0.4954
  725TMC3    C610717   4.386   2.767  13.028  0.1202 -0.6143  0.2086
  725TMC3     C10718   0.017   2.954  12.914  0.3876 -0.3478  0.7032
  725TMC3     O10719   0.006   3.061  12.857 -1.0548 -0.2709 -0.0335
  725TMC3     H10720   4.510   3.009  12.826  0.0438 -0.8815 -1.3044
  725TMC3    H110721   4.705   2.750  13.100  0.7137 -0.4080 -0.6949
  725TMC3    H210722   4.293   2.717  13.052 -0.3248  0.0895 -0.0496
  725TMC3    C710723   4.537   2.574  13.035 -0.1660 -0.0993  0.0091
  725TMC3    C810724   4.299   2.814  12.813  0.6958  0.2107  0.8481
  725TMC3    O110725   4.645   2.536  13.073  0.5381 -0.3162 -0.7859
  725TMC3    O210726   4.231   2.712  12.841 -0.1621  0.0888 -0.2585
  726MPD2     C10727   2.944   3.524  10.799  0.1925 -0.2510  0.4528
  726MPD2    C110728   2.895   3.645  10.753  0.0314  0.1063  0.0016
  726MPD2    C210729   2.783   3.699  10.814 -0.5521 -0.1813  0.7882
  726MPD2    C310730   2.722   3.633  10.918  0.1785 -0.5229  0.4874
  726MPD2    C410731   2.766   3.513  10.962 -0.5245 -0.9226 -0.4284
  726MPD2    C510732   2.877   3.452  10.898 -0.2965  0.9500  1.1574
  726MPD2     H10733   2.759   3.798  10.777 -0.6400 -0.6636 -0.4546
  726MPD2    H110734   2.715   3.465  11.045 -0.5836  0.5875  0.4084
  726MPD2    H210735   3.030   3.470  10.761  0.3069  0.3814 -0.1778
  726MPD2    H310736   2.911   3.353  10.926  0.8807  0.7324 -1.0637
  726MPD2     N10737   2.622   3.698  10.996 -0.5762  0.2374  0.6666
  726MPD2    H510738   2.601   3.672  11.091 -0.1542 -1.4997  0.2845
  726MPD2    N110739   2.975   3.736  10.674  0.3256  0.4240  0.3336
  726MPD2    H710740   2.942   3.832  10.670 -0.2570  0.2107 -0.1195
  727TMC3    C110741   3.131   3.814  10.524  0.1669  0.3770 -1.0515
  727TMC3    C210742   3.266   3.816  10.500  0.7431 -0.5008  0.1940
  727TMC3    C310743   3.318   3.922  10.436  0.1835 -0.6095 -0.1277
  727TMC3    C410744   3.047   3.914  10.498  0.2219  0.1823 -0.2494
  727TMC3    C510745   3.097   4.020  10.435  0.1447 -0.9789 -0.2041
  727TMC3    C610746   3.229   4.027  10.403 -0.0443 -0.4817  0.2922
  727TMC3     C10747   3.091   3.701  10.611  0.3954 -0.2247 -0.0753
  727TMC3     O10748   3.158   3.599  10.608  0.1928  0.2344 -0.1632
  727TMC3     H10749   3.334   3.741  10.540  0.2662 -0.6436  0.7226
  727TMC3    H110750   2.940   3.901  10.500  0.2393 -0.2977 -2.1651
  727TMC3    H210751   3.255   4.107  10.334  3.0413  0.1754  2.2308
  727TMC3    C710752   3.017   4.138  10.414 -0.2255  0.4875 -0.9801
  727TMC3    C810753   3.459   3.957  10.437 -0.2530  0.5541  0.1165
  727TMC3    O110754   3.065   4.243  10.439  0.7530 -0.1250  0.5123
  727TMC3    O210755   3.470   4.080  10.417  0.9570 -0.0247  0.8597
  728TMC3    C110756   1.218   3.321  15.976  0.3678 -0.0470 -0.5103
  728TMC3    C210757   1.339   3.377  15.989 -0.0675 -0.1213 -0.6522
  728TMC3    C310758   1.412   3.379  15.878 -0.7807 -0.2055  0.2128
  728TMC3    C410759   1.161   3.286  15.852  0.3480 -0.0165  0.9520
  728TMC3    C510760   1.247   3.283  15.744  0.8121  0.9215 -0.0998
  728TMC3    C610761   1.377   3.329  15.757  0.1735 -1.1937 -0.3622
  728TMC3     C10762   1.127   3.317  16.094  0.1288  0.1844  0.7998
  728TMC3     O10763   1.145   3.394  16.186 -0.1045  0.0673  0.1132
  728TMC3     H10764   1.367   3.408  16.089 -1.3793 -1.9737  0.2894
  728TMC3    H110765   1.057   3.257  15.843  0.7224 -0.5528 -1.5300
  728TMC3    H210766   1.448   3.307  15.678  0.0247  0.0338 -0.8293
  728TMC3    C710767   1.201   3.237  15.611  0.1807 -0.3684 -0.3530
  728TMC3    C810768   1.558   3.378  15.893  0.4139  0.0881  0.3672
  728TMC3    O110769   1.097   3.175  15.612 -0.3879 -0.2878  0.4191
  728TMC3    O210770   1.594   3.335  16.001  0.1892 -0.1887  0.0893
  729MPD2     C10771   3.666   4.192  16.310  0.1246  0.2700  0.1525
  729MPD2    C110772   3.661   4.321  16.350 -0.6035  0.2683  0.2119
  729MPD2    C210773   3.660   4.357  16.484 -0.1054 -0.0536  0.0213
  729MPD2    C310774   3.663   4.258  16.580 -0.0806 -0.2026 -0.3787
  729MPD2    C410775   3.690   4.132  16.542 -0.0089  0.6349 -0.0545
  729MPD2    C510776   3.688   4.097  16.406  0.0304  0.1052  0.1977
  729MPD2     H10777   3.647   4.462  16.509 -0.6837 -0.2356  0.4865
  729MPD2    H110778   3.712   4.061  16.622 -1.4819 -0.3677 -0.5345
  729MPD2    H210779   3.680   4.167  16.205  1.7262  0.1924  0.3872
  729MPD2    H310780   3.714   3.995  16.379  1.5771  0.7304 -0.6616
  729MPD2     N10781   3.670   4.285  16.718  0.1770  0.2097  0.0652
  729MPD2    H510782   3.697   4.210  16.782 -0.2000 -1.4902 -1.7591
  729MPD2    N110783   3.670   4.407  16.238 -0.0999  0.1037  0.5968
  729MPD2    H710784   3.688   4.359  16.151 -3.8144  0.6828 -0.5262
  730TMC3    C110785   3.727   4.409  16.903 -0.0604 -0.8367 -0.0548
  730TMC3    C210786   3.852   4.347  16.919  0.6013  0.4708 -0.1900
  730TMC3    C310787   3.947   4.408  16.993 -0.2523  1.1598 -0.3028
  730TMC3    C410788   3.695   4.517  16.983  0.1563  0.8841 -0.2777
  730TMC3    C510789   3.792   4.563  17.064 -0.7732 -0.1326  0.5334
  730TMC3    C610790   3.920   4.515  17.071 -0.0597 -0.9043  0.6490
  730TMC3     C10791   3.656   4.399  16.775  0.2214  0.2375  0.7911
  730TMC3     O10792   3.580   4.488  16.740  0.1476  0.4333  0.7689
  730TMC3     H10793   3.872   4.259  16.860 -0.1707  1.1485 -1.4720
  730TMC3    H110794   3.594   4.558  16.989 -0.7390 -1.2510 -0.7351
  730TMC3    H210795   3.997   4.561  17.132 -0.3302  0.7877 -0.2873
  730TMC3    C710796   3.768   4.677  17.148  0.4078  0.8260  1.1064
  730TMC3    C810797   4.047   4.437  16.901 -0.2316  0.0090 -0.1352
  730TMC3    O110798   3.821   4.681  17.258  0.6686 -0.7748 -0.2415
  730TMC3    O210799   4.025   4.411  16.784  0.3375 -0.5874  0.0402
  731MPD2     C10800   4.063   2.263  12.049  0.6547  0.3647  0.2182
  731MPD2    C110801   4.109   2.156  12.132 -0.3730  0.2233 -0.5062
  731MPD2    C210802   4.071   2.149  12.268  0.4055 -0.2105  0.2971
  731MPD2    C310803   4.004   2.263  12.326 -0.0272  0.0276  0.3757
  731MPD2    C410804   3.982   2.376  12.250  0.2330 -0.1156  0.4671
  731MPD2    C510805   4.002   2.369  12.113  0.0424  0.1910  0.8739
  731MPD2     H10806   4.090   2.064  12.333 -0.6420 -0.3484  0.4299
  731MPD2    H110807   3.931   2.467  12.280 -0.5092 -0.0808 -0.9275
  731MPD2    H210808   4.065   2.258  11.941 -2.8325  0.4979  0.1250
  731MPD2    H310809   3.960   2.448  12.053 -0.8592 -1.2193 -0.3496
  731MPD2     N10810   3.973   2.245  12.463 -0.1213 -0.1810 -0.7762
  731MPD2    H510811   3.999   2.153  12.497  1.6211  0.1866 -1.1473
  731MPD2    N110812   4.176   2.057  12.063  0.4759  0.1170  0.3962
  731MPD2    H710813   4.195   2.066  11.963  3.2559 -0.1714  0.9144
  732TMC3    C110814   4.277   1.852  12.007 -0.0021 -0.1694  0.2623
  732TMC3    C210815   4.193   1.813  11.911 -0.6876  0.3822 -0.2927
  732TMC3    C310816   4.216   1.685  11.863 -0.1189  0.0756 -0.8081
  732TMC3    C410817   4.386   1.785  12.052 -0.1669 -0.1039  0.1251
  732TMC3    C510818   4.410   1.665  11.998  0.2992 -0.5025  0.6177
  732TMC3    C610819   4.326   1.605  11.905 -0.0263 -0.0529  0.2198
  732TMC3     C10820   4.220   1.940  12.114 -0.4340 -0.1558 -0.2972
  732TMC3     O10821   4.212   1.885  12.224 -0.6051  0.0399  0.2287
  732TMC3     H10822   4.116   1.876  11.868 -1.9057 -0.0617  1.2559
  732TMC3    H110823   4.445   1.821  12.135 -0.7231  0.1447  0.4125
  732TMC3    H210824   4.350   1.510  11.860  0.0796  0.3749 -0.6272
  732TMC3    C710825   4.490   1.565  12.077 -0.4461 -0.1837 -0.7765
  732TMC3    C810826   4.120   1.630  11.773 -0.5492 -0.1609  0.1569
  732TMC3    O110827   4.484   1.448  12.045  0.3391  0.1328  0.3682
  732TMC3    O210828   4.133   1.513  11.743 -0.5157  0.0020 -0.2173
  733TMC3    C110829   4.580   0.825  12.950  0.1609  0.2680  1.0018
  733TMC3    C210830   4.690   0.821  13.034  0.5593  0.3151  0.4890
  733TMC3    C310831   0.088   0.838  12.980 -0.4576 -0.6546  0.1390
  733TMC3    C410832   4.584   0.850  12.817 -0.3564  0.2149 -0.7422
  733TMC3    C510833   4.707   0.853  12.765  1.0069 -0.7552  0.2594
  733TMC3    C610834   0.097   0.860  12.846 -0.1958  0.2086  0.4176
  733TMC3     C10835   4.447   0.826  13.006  0.5884  0.5826  0.8262
  733TMC3     O10836   4.367   0.906  12.952 -0.2443 -0.4918 -0.1332
  733TMC3     H10837   4.677   0.817  13.142  0.0680  0.9553  0.4525
  733TMC3    H110838   4.497   0.871  12.756 -0.1219  1.1824 -0.7283
  733TMC3    H210839   0.185   0.893  12.792 -0.4565  0.1465 -0.0491
  733TMC3    C710840   4.717   0.906  12.629  0.5048 -0.2598  0.8730
  733TMC3    C810841   0.192   0.891  13.068  0.0865 -1.0541 -0.3010
  733TMC3    O110842   4.655   0.853  12.537 -0.3896 -0.1888 -0.5017
  733TMC3    O210843   0.199   0.863  13.185  0.0208  0.2473  0.5861
  734MPD2     C10844   2.255   3.079  12.185 -0.0758 -0.5218 -0.3302
  734MPD2    C110845   2.188   2.974  12.118  0.5281  0.3887 -0.3758
  734MPD2    C210846   2.213   2.971  11.982 -0.0316 -0.3809 -0.3806
  734MPD2    C310847   2.293   3.069  11.915 -0.1539  0.0334  0.1289
  734MPD2    C410848   2.358   3.170  11.989 -0.2036 -0.3468  0.3010
  734MPD2    C510849   2.333   3.175  12.123  0.0358  0.4238 -0.6023
  734MPD2     H10850   2.168   2.892  11.923  1.4031 -0.5445 -1.2375
  734MPD2    H110851   2.412   3.253  11.943  1.0609 -1.6521 -0.5567
  734MPD2    H210852   2.247   3.092  12.293 -0.0960  1.0397 -0.5167
  734MPD2    H310853   2.368   3.257  12.184  2.4560 -1.1783  0.1547
  734MPD2     N10854   2.307   3.042  11.777 -0.1904 -0.2110  0.2593
  734MPD2    H510855   2.262   2.958  11.744  0.5351 -1.9317  3.6277
  734MPD2    N110856   2.103   2.886  12.194 -0.0263 -0.1436  0.3900
  734MPD2    H710857   2.105   2.892  12.295 -0.4268  0.3740  0.3696
  735TMC3    C110858   1.972   2.699  12.219 -0.1686 -1.1661 -0.3612
  735TMC3    C210859   1.866   2.628  12.162 -0.6005  0.5910  0.0333
  735TMC3    C310860   1.879   2.501  12.118  0.0867  0.3956  0.7196
  735TMC3    C410861   2.082   2.636  12.261  0.4507 -0.8438 -0.1133
  735TMC3    C510862   2.090   2.506  12.213 -0.5876  0.8837  0.0969
  735TMC3    C610863   1.991   2.431  12.148  0.2348 -0.1507  0.7066
  735TMC3     C10864   2.011   2.803  12.135 -0.5186 -0.0432 -0.4726
  735TMC3     O10865   1.971   2.816  12.021 -0.3385  0.4880 -0.0365
  735TMC3     H10866   1.785   2.686  12.119  0.1931  2.0447  0.4572
  735TMC3    H110867   2.155   2.671  12.333  1.0890  0.1209 -1.2447
  735TMC3    H210868   2.014   2.333  12.106 -0.0636  0.3783 -0.6832
  735TMC3    C710869   2.229   2.451  12.208  0.0757  0.1731  0.6310
  735TMC3    C810870   1.814   2.482  11.990 -0.2295  0.9647  0.2760
  735TMC3    O110871   2.320   2.530  12.222  0.5854 -0.5256  0.4187
  735TMC3    O210872   1.702   2.451  11.976 -0.4736 -0.1334  0.3053
  736MPD2     C10873   2.336   2.112  12.122 -0.9407  0.1773 -0.6727
  736MPD2    C110874   2.344   2.250  12.134 -0.8795  0.8772  0.4665
  736MPD2    C210875   2.463   2.318  12.091  0.7476 -0.4584  0.2936
  736MPD2    C310876   2.566   2.244  12.035  0.6787 -0.1592  0.0011
  736MPD2    C410877   2.560   2.110  12.026  0.7222  0.0250 -0.1146
  736MPD2    C510878   2.445   2.044  12.070  0.4320  0.5176 -0.4605
  736MPD2     H10879   2.474   2.426  12.095 -1.8447 -0.1878  0.2707
  736MPD2    H110880   2.632   2.046  11.976  0.4999 -0.0697 -0.3126
  736MPD2    H210881   2.249   2.050  12.144  0.0270  0.0030  2.5724
  736MPD2    H310882   2.435   1.937  12.053  1.3045  0.1975  1.0538
  736MPD2     N10883   2.686   2.298  11.977  0.1116 -0.7588 -0.0581
  736MPD2    H510884   2.760   2.230  11.962 -0.3540 -1.0238 -1.1726
  736MPD2    N110885   2.233   2.321  12.184 -0.0905  0.6489  0.1347
  736MPD2    H710886   2.147   2.270  12.203  0.9101 -2.2836 -3.4779
  737TMC3    C110887   2.842   2.466  11.913 -0.3305 -0.4043 -0.0550
  737TMC3    C210888   2.847   2.565  11.809 -0.2767  0.3374 -0.1549
  737TMC3    C310889   2.949   2.559  11.720 -0.6782 -0.0283  0.3907
  737TMC3    C410890   2.932   2.364  11.915  0.0972 -0.2060 -0.6645
  737TMC3    C510891   3.023   2.354  11.811  0.3729 -0.5354  0.4816
  737TMC3    C610892   3.029   2.449  11.712  0.5436  0.4726  0.1433
  737TMC3     C10893   2.703   2.432  11.945 -0.3665 -0.6994 -0.9408
  737TMC3     O10894   2.615   2.514  11.912  0.0682  0.1751 -0.2032
  737TMC3     H10895   2.770   2.639  11.789  0.9209  1.4586 -0.5890
  737TMC3    H110896   2.936   2.303  12.004 -2.2248  0.5606 -0.0424
  737TMC3    H210897   3.119   2.458  11.653  1.2587  0.4975  1.2342
  737TMC3    C710898   3.093   2.227  11.802  0.1208  0.3561  0.6658
  737TMC3    C810899   2.951   2.653  11.605  0.1512 -0.0290 -0.3062
  737TMC3    O110900   3.077   2.153  11.897 -0.3029  0.4632 -0.1431
  737TMC3    O210901   2.890   2.759  11.612  0.0440  0.1918  0.4633
  738MPD2     C10902   3.100   1.716  15.728 -0.4301  0.1999  0.1494
  738MPD2    C110903   3.055   1.688  15.605  0.8017  0.1349 -0.3927
  738MPD2    C210904   3.111   1.747  15.496 -0.4532 -0.5389  0.7135
  738MPD2    C310905   3.215   1.841  15.507 -0.4763  0.2255 -0.6181
  738MPD2    C410906   3.259   1.876  15.635  0.2148  0.0348  0.0689
  738MPD2    C510907   3.202   1.808  15.742  0.6014 -0.1963  0.0257
  738MPD2     H10908   3.055   1.719  15.407 -3.0907  0.4573  2.0607
  738MPD2    H110909   3.336   1.948  15.660 -0.2413  0.4131  0.3924
  738MPD2    H210910   3.055   1.675  15.818  0.3870  0.1785  0.5476
  738MPD2    H310911   3.235   1.822  15.845  2.3188 -1.0493 -0.4073
  738MPD2     N10912   3.271   1.905  15.397 -0.1604  0.1355 -0.1727
  738MPD2    H510913   3.337   1.977  15.423  0.2607  0.1334 -1.2461
  738MPD2    N110914   2.963   1.579  15.574 -0.0591 -0.2230  0.1694
  738MPD2    H710915   2.962   1.549  15.477 -3.4400  0.2331  0.0680
  739TMC3    C110916   3.333   1.946  15.161 -0.3569  0.2032 -0.3042
  739TMC3    C210917   3.297   1.937  15.031  0.6194 -0.4584 -0.1448
  739TMC3    C310918   3.400   1.948  14.941  0.1921  0.1805  0.5221
  739TMC3    C410919   3.461   1.974  15.201 -0.0093  0.2504 -0.1763
  739TMC3    C510920   3.554   1.994  15.106  0.0821  0.1937 -0.5019
  739TMC3    C610921   3.523   2.003  14.976  0.0020  0.2032  0.3846
  739TMC3     C10922   3.236   1.890  15.260  0.1643 -0.4438 -0.3683
  739TMC3     O10923   3.147   1.822  15.217 -0.2248 -0.2004  0.1687
  739TMC3     H10924   3.200   1.895  15.007  0.5595 -1.4331  1.7645
  739TMC3    H110925   3.483   1.965  15.307 -0.4033  0.4980 -0.0728
  739TMC3    H210926   3.596   2.014  14.897 -0.6467 -0.7010 -0.3387
  739TMC3    C710927   3.689   2.013  15.140  0.1353 -1.0461  0.8183
  739TMC3    C810928   3.376   1.929  14.798  0.4255 -0.6414  0.1973
  739TMC3    O110929   3.717   1.998  15.256 -0.4390 -0.3062  0.0723
  739TMC3    O210930   3.268   1.956  14.753 -0.2519 -0.4907 -0.2869
  740TMC3    C110931   3.833   2.911  14.214  0.4915  0.2556  0.4117
  740TMC3    C210932   3.886   2.927  14.338  0.7043  0.0607 -0.8837
  740TMC3    C310933   4.019   2.890  14.347 -0.0497  0.1657  0.4663
  740TMC3    C410934   3.907   2.888  14.100 -0.5332 -0.4480  0.3264
  740TMC3    C510935   4.038   2.869  14.121 -0.4833  0.0327  0.2146
  740TMC3    C610936   4.095   2.863  14.243  0.4349 -0.7756 -0.2393
  740TMC3     C10937   3.697   2.937  14.196 -0.0087 -0.0493  0.4532
  740TMC3     O10938   3.656   2.956  14.077  0.1154  0.0597 -0.1390
  740TMC3     H10939   3.837   2.961  14.428  2.0981  0.5182 -0.2999
  740TMC3    H110940   3.868   2.879  14.000 -2.3578 -0.3831  1.0282
  740TMC3    H210941   4.203   2.876  14.243  0.4412 -0.8410 -0.4447
  740TMC3    C710942   4.131   2.833  14.013  0.9065  0.4259  0.7392
  740TMC3    C810943   4.065   2.876  14.483  0.5905 -0.6280 -0.7216
  740TMC3    O110944   4.223   2.756  14.027  0.6135  0.5110 -0.8415
  740TMC3    O210945   3.983   2.871  14.572 -0.1626 -0.5768 -0.0683
  741TMC3    C110946   3.499   2.242  14.330 -0.1421 -0.7906 -0.1852
  741TMC3    C210947   3.365   2.256  14.318 -0.0534  0.0096 -0.1808
  741TMC3    C310948   3.282   2.261  14.431 -0.0419 -0.2438  0.4889
  741TMC3    C410949   3.551   2.231  14.452 -0.2483  0.2326 -0.3913
  741TMC3    C510950   3.467   2.216  14.561  0.1700  0.5474  0.4341
  741TMC3    C610951   3.330   2.211  14.550 -0.2345 -0.5473 -0.2179
  741TMC3     C10952   3.579   2.215  14.214  0.6319 -0.3822 -0.3734
  741TMC3     O10953   3.527   2.246  14.106 -0.3627 -0.6573  0.0752
  741TMC3     H10954   3.332   2.283  14.218 -1.2421 -1.0439 -0.0757
  741TMC3    H110955   3.657   2.249  14.468 -0.4762 -0.1600  1.5226
  741TMC3    H210956   3.262   2.191  14.632 -0.8697  2.9406  0.1049
  741TMC3    C710957   3.530   2.236  14.696  0.8180 -0.2040 -0.0660
  741TMC3    C810958   3.139   2.267  14.418 -0.6810  0.7148  0.3289
  741TMC3    O110959   3.650   2.206  14.707  0.3316  0.0561  0.1658
  741TMC3    O210960   3.072   2.229  14.515 -0.8753  0.2379 -0.2588
  742TMC3    C110961   2.902   0.887  15.389  0.4946  0.8032 -0.3417
  742TMC3    C210962   2.813   0.906  15.289 -0.7709  0.2811 -0.4596
  742TMC3    C310963   2.870   0.946  15.170 -0.3980 -0.0766  0.3479
  742TMC3    C410964   3.032   0.924  15.388 -0.2152  0.2272 -0.1140
  742TMC3    C510965   3.078   0.978  15.269  0.1441 -0.2260  0.1110
  742TMC3    C610966   3.000   0.985  15.160 -0.4247 -0.0979  0.1795
  742TMC3     C10967   2.848   0.822  15.509 -0.9303 -0.1736 -0.6749
  742TMC3     O10968   2.730   0.844  15.531 -0.6413 -0.1873  0.0014
  742TMC3     H10969   2.734   0.832  15.285 -0.2973 -0.2324 -0.3278
  742TMC3    H110970   3.101   0.884  15.462 -0.8259 -2.8610 -1.2342
  742TMC3    H210971   3.038   1.013  15.063 -0.7380 -1.1954 -0.2600
  742TMC3    C710972   3.220   0.975  15.247  0.8505 -0.0571  0.4720
  742TMC3    C810973   2.814   0.884  15.057 -0.1215  0.3941 -0.1189
  742TMC3    O110974   3.254   0.957  15.134 -0.0523 -0.5887 -0.2807
  742TMC3    O210975   2.887   0.840  14.966 -0.8593 -1.0511 -0.0588
  743MPD2     C10976   0.335   2.246   1.619  0.2761 -0.2134 -0.1948
  743MPD2    C110977   0.416   2.244   1.509  0.3659  0.7517  0.4536
  743MPD2    C210978   0.542   2.303   1.516 -0.0231 -0.2887 -0.4587
  743MPD2    C310979   0.587   2.339   1.644  0.1831 -0.3091  0.3784
  743MPD2    C410980   0.502   2.338   1.757 -0.0539 -1.1612 -0.4792
  743MPD2    C510981   0.374   2.294   1.740  0.0760  0.3441 -0.4767
  743MPD2     H10982   0.609   2.315   1.432  2.6233 -1.3855  1.5025
  743MPD2    H110983   0.534   2.374   1.854  0.7994 -0.7200 -0.9270
  743MPD2    H210984   0.237   2.201   1.612  0.9178 -1.9217  1.7375
  743MPD2    H310985   0.300   2.308   1.818  1.9221  0.2242  1.3174
  743MPD2     N10986   0.717   2.390   1.656 -0.0453  0.5892  0.3956
  743MPD2    H510987   0.763   2.411   1.568  0.2043 -3.4554 -0.4526
  743MPD2    N110988   0.362   2.199   1.387 -0.1560 -0.1509  0.4374
  743MPD2    H710989   0.264   2.175   1.400  0.5091 -2.5895  0.9163
  744TMC3    C110990   0.356   2.152   1.153  0.1292 -0.6645 -0.3230
  744TMC3    C210991   0.228   2.108   1.164 -0.6387  0.4377 -0.8829
  744TMC3    C310992   0.154   2.087   1.053 -0.2375 -0.2393  0.0091
  744TMC3    C410993   0.407   2.184   1.029  0.2320 -0.5981  0.1504
  744TMC3    C510994   0.334   2.154   0.917  1.1857 -0.5619  0.7452
  744TMC3    C610995   0.211   2.115   0.926  0.7092 -0.7082  0.5699
  744TMC3     C10996   0.438   2.188   1.268  0.2562  0.0513 -0.3381
  744TMC3     O10997   0.551   2.217   1.234  0.4779 -0.3588  0.2568
  744TMC3     H10998   0.179   2.103   1.260 -1.2659  0.1753 -1.2165
  744TMC3    H110999   0.507   2.224   1.014  0.3839 -0.6958  0.8947
  744TMC3    H211000   0.153   2.102   0.836 -0.1759  0.4152  0.9854
  744TMC3    C711001   0.412   2.148   0.800  0.3474 -0.5013  0.0791
  744TMC3    C811002   0.014   2.081   1.068  0.7002 -0.0665 -0.4022
  744TMC3    O111003   0.533   2.130   0.811  0.0494 -0.0203 -0.0808
  744TMC3    O211004   4.696   2.126   1.173  0.1150 -0.0704  0.4568
  745TMC3    C111005   3.220   0.582  13.719 -0.2771  0.3114  0.1960
  745TMC3    C211006   3.207   0.663  13.824 -0.4109  0.3450  0.2523
  745TMC3    C311007   3.086   0.720  13.834 -0.0115 -0.2436 -0.4604
  745TMC3    C411008   3.124   0.566  13.618 -0.0207  0.2220 -0.3347
  745TMC3    C511009   3.006   0.640  13.628  0.4174 -0.4673  0.1360
  745TMC3    C611010   2.983   0.715  13.739 -1.0645  1.2793 -0.2069
  745TMC3     C11011   3.355   0.538  13.680 -0.2166 -0.3091 -0.0152
  745TMC3     O11012   3.363   0.447  13.603 -0.2357 -0.8508 -0.1238
  745TMC3     H11013   3.284   0.665  13.899  0.5117  1.2729 -0.7285
  745TMC3    H111014   3.134   0.493  13.538  1.4747  1.5978 -1.4060
  745TMC3    H211015   2.897   0.781  13.740 -0.7388  1.7171 -1.1838
  745TMC3    C711016   2.967   0.698  13.498 -0.0958 -0.6109  0.1576
  745TMC3    C811017   3.054   0.779  13.961 -0.7113  0.0733  0.0389
  745TMC3    O111018   2.865   0.761  13.508  0.0991  0.5598  0.0572
  745TMC3    O211019   2.943   0.756  14.012 -0.0748 -0.0900  0.0691
  746TMC3    C111020   1.040   1.829  11.191  0.2641  0.0336 -0.3153
  746TMC3    C211021   1.142   1.766  11.124 -0.2354 -0.5106 -0.0753
  746TMC3    C311022   1.137   1.634  11.100  0.1609 -0.2587  0.5666
  746TMC3    C411023   0.922   1.763  11.216 -0.2325 -0.1319  0.5509
  746TMC3    C511024   0.921   1.628  11.187 -0.5272 -0.3392 -1.0565
  746TMC3    C611025   1.022   1.563  11.131  0.4178 -0.0220 -0.3348
  746TMC3     C11026   1.050   1.969  11.218  0.3348 -0.3212 -0.2116
  746TMC3     O11027   0.968   2.012  11.297  0.3642 -0.2979 -0.3044
  746TMC3     H11028   1.238   1.814  11.106  0.7087 -1.4833  2.4590
  746TMC3    H111029   0.842   1.816  11.268  1.3655  1.2254  1.6279
  746TMC3    H211030   1.017   1.460  11.097  0.1391  1.4116 -4.7289
  746TMC3    C711031   0.800   1.545  11.222 -0.4304 -0.1801  0.0309
  746TMC3    C811032   1.227   1.573  11.001 -0.2903 -0.2397  0.4447
  746TMC3    O111033   0.823   1.430  11.253  0.1217  0.4822 -0.5320
  746TMC3    O211034   1.254   1.456  11.014  0.1448  0.4955 -0.1028
  747TMC3    C111035   3.605   1.868  11.012  0.5819  0.0963 -0.4337
  747TMC3    C211036   3.522   1.891  11.120  0.0505 -0.3222  0.0253
  747TMC3    C311037   3.541   1.810  11.231 -0.3817 -0.5309  0.3249
  747TMC3    C411038   3.710   1.781  11.014 -0.2068  0.1047 -0.4871
  747TMC3    C511039   3.733   1.712  11.133 -0.2985  0.2061  0.3256
  747TMC3    C611040   3.643   1.725  11.239  0.2055  0.0096 -0.4620
  747TMC3     C11041   3.589   1.960  10.900  0.4743 -0.7415 -0.2796
  747TMC3     O11042   3.560   2.075  10.927  0.2603 -0.6352 -0.5639
  747TMC3     H11043   3.453   1.974  11.119  0.2972 -0.1112  0.3355
  747TMC3    H111044   3.781   1.780  10.932  0.4488 -2.7098  0.0937
  747TMC3    H211045   3.669   1.675  11.332  0.8465 -0.9007 -1.1220
  747TMC3    C711046   3.871   1.676  11.158 -0.1746 -0.2575 -0.3942
  747TMC3    C811047   3.444   1.812  11.341 -0.0385  0.0383 -0.8705
  747TMC3    O111048   3.926   1.592  11.084  0.1739 -0.3784 -0.0084
  747TMC3    O211049   3.436   1.702  11.396 -0.1091  0.2491 -0.1888
  748MPD2     C11050   0.250   4.100   1.563 -0.3806  0.8979 -0.4006
  748MPD2    C111051   0.296   3.986   1.629 -0.5831 -0.6158 -0.9327
  748MPD2    C211052   0.424   3.942   1.611  0.3887 -0.8722  0.1283
  748MPD2    C311053   0.511   3.998   1.523 -0.5927 -0.2375 -0.4125
  748MPD2    C411054   0.467   4.104   1.447  1.0259 -0.0342 -0.9630
  748MPD2    C511055   0.337   4.156   1.473 -0.0001 -0.4147  0.9057
  748MPD2     H11056   0.460   3.863   1.677 -1.8806 -0.8697  1.3901
  748MPD2    H111057   0.518   4.161   1.371  1.4272 -1.0113 -1.4219
  748MPD2    H211058   0.144   4.120   1.555 -0.7864 -0.2427  1.9279
  748MPD2    H311059   0.297   4.230   1.405 -0.3554 -0.4909  1.0311
  748MPD2     N11060   0.625   3.923   1.500 -0.6525 -0.5120  0.4766
  748MPD2    H511061   0.631   3.839   1.557 -0.8036 -0.4567  0.5751
  748MPD2    N111062   0.195   3.915   1.712 -0.2225 -0.5680  0.4369
  748MPD2    H711063   0.106   3.963   1.713 -0.9341 -1.8492 -0.7452
  749TMC3    C111064   0.797   3.818   1.390 -0.7896  0.1905  0.2911
  749TMC3    C211065   0.794   3.711   1.483  0.2954 -0.0218  0.1758
  749TMC3    C311066   0.852   3.588   1.447 -0.4155 -0.3710  0.2378
  749TMC3    C411067   0.853   3.803   1.269 -0.3104 -0.5636 -0.2608
  749TMC3    C511068   0.895   3.676   1.237 -0.1044 -0.1337 -0.3972
  749TMC3    C611069   0.889   3.567   1.318  0.1236  0.2600 -0.1895
  749TMC3     C11070   0.716   3.941   1.397  0.1376 -0.3251 -0.0267
  749TMC3     O11071   0.698   4.021   1.307 -0.0817 -0.3852  0.4329
  749TMC3     H11072   0.759   3.722   1.585  0.7667 -4.1772  0.7802
  749TMC3    H111073   0.827   3.876   1.194 -0.0931  1.4287  1.6125
  749TMC3    H211074   0.938   3.479   1.279  3.1746  2.0973 -0.5110
  749TMC3    C711075   0.902   3.660   1.094  0.6916 -0.1176  0.2818
  749TMC3    C811076   0.890   3.492   1.558 -0.9452 -0.2356 -0.5910
  749TMC3    O111077   0.839   3.564   1.054 -0.0189 -0.7060 -0.1840
  749TMC3    O211078   0.885   3.543   1.669 -0.8387  0.0881  0.3491
  750MPD2     C11079   1.604   4.036  11.638  0.3554 -0.5468 -0.2530
  750MPD2    C111080   1.520   3.937  11.684  0.7323  0.1684 -0.1754
  750MPD2    C211081   1.440   3.873  11.594 -0.0431  0.3111 -0.0412
  750MPD2    C311082   1.445   3.915  11.456 -0.1934  0.4867  0.6029
  750MPD2    C411083   1.528   4.015  11.414  0.4637 -0.0469 -0.2898
  750MPD2    C511084   1.610   4.066  11.505  0.3018 -0.2422  0.2989
  750MPD2     H11085   1.364   3.804  11.626  0.7010 -0.3725  0.2323
  750MPD2    H111086   1.535   4.051  11.312 -0.3830 -1.5467 -0.8828
  750MPD2    H211087   1.682   4.083  11.697 -1.8138 -2.0182  3.7637
  750MPD2    H311088   1.688   4.133  11.471  0.5994 -0.2269  1.0014
  750MPD2     N11089   1.350   3.866  11.364 -0.1161 -0.2666 -0.0562
  750MPD2    H511090   1.373   3.884  11.267 -0.3038 -1.8770 -0.3917
  750MPD2    N111091   1.535   3.898  11.816 -1.1349  0.1566  0.1255
  750MPD2    H711092   1.609   3.947  11.864 -0.9584  1.2169 -1.2272
  751TMC3    C111093   1.181   3.748  11.263 -0.4325 -0.3706 -0.0972
  751TMC3    C211094   1.085   3.651  11.270 -0.1597  0.0042 -0.0661
  751TMC3    C311095   1.046   3.582  11.154  0.7233  0.1157  0.6689
  751TMC3    C411096   1.230   3.794  11.138  0.7513 -0.1015  0.3479
  751TMC3    C511097   1.193   3.719  11.035 -0.2772 -0.3894  0.1649
  751TMC3    C611098   1.103   3.618  11.037  0.4890  0.0785  0.6407
  751TMC3     C11099   1.236   3.793  11.386 -0.6121 -0.3769 -0.1861
  751TMC3     O11100   1.179   3.773  11.494 -0.2968 -0.2378  0.6305
  751TMC3     H11101   1.055   3.612  11.367  0.6855 -2.2000 -0.6892
  751TMC3    H111102   1.298   3.878  11.124 -0.8339  1.3501  1.2142
  751TMC3    H211103   1.065   3.570  10.948 -0.9687 -2.8464  2.8185
  751TMC3    C711104   1.248   3.764  10.906  0.1506  0.4317  0.4852
  751TMC3    C811105   0.970   3.455  11.156 -0.5384  0.4257  0.0473
  751TMC3    O111106   1.340   3.848  10.900 -0.2930  0.3667 -0.0149
  751TMC3    O211107   0.995   3.385  11.058 -0.4278 -0.0334 -0.4344
  752TMC3    C111108   4.572   4.274  16.494 -0.1092 -0.0310 -0.1911
  752TMC3    C211109   4.460   4.228  16.562  0.3727  0.5977 -0.3539
  752TMC3    C311110   4.476   4.201  16.700 -0.1875 -1.2814 -0.6388
  752TMC3    C411111   4.701   4.272  16.543  0.9064 -0.2236  0.1301
  752TMC3    C511112   4.705   4.261  16.674 -0.0718 -0.0869  0.1557
  752TMC3    C611113   4.606   4.216  16.755  0.0399  0.1461  0.0934
  752TMC3     C11114   4.556   4.301  16.353 -0.4269  0.1886  1.1947
  752TMC3     O11115   4.653   4.341  16.289  0.2891  0.0516 -0.1861
  752TMC3     H11116   4.362   4.245  16.521 -0.0415  0.3553  0.5444
  752TMC3    H111117   0.063   4.308  16.489  0.9950 -0.6554 -0.0152
  752TMC3    H211118   4.630   4.183  16.856  0.3905  1.5844  0.4912
  752TMC3    C711119   0.109   4.211  16.723 -0.1094  0.1918  1.1009
  752TMC3    C811120   4.364   4.179  16.784 -0.8289  0.8167  0.9333
  752TMC3    O111121   0.176   4.148  16.639 -0.0633 -0.6391 -0.0311
  752TMC3    O211122   4.265   4.132  16.732  0.3985  0.3384  0.0480
  753TMC3    C111123   2.216   0.483  13.691  0.3651  0.0338 -0.4770
  753TMC3    C211124   2.275   0.473  13.815  0.0015  0.4978  0.5271
  753TMC3    C311125   2.272   0.348  13.875 -0.4054  0.4047  0.5042
  753TMC3    C411126   2.184   0.368  13.617  0.3434  0.5946  0.2664
  753TMC3    C511127   2.208   0.252  13.677 -0.6865 -0.3158 -0.8683
  753TMC3    C611128   2.239   0.236  13.802 -0.3600 -0.3510  0.2538
  753TMC3     C11129   2.213   0.611  13.621  0.2389 -0.2574  0.4760
  753TMC3     O11130   2.147   0.608  13.518 -0.1284  0.1225 -0.1074
  753TMC3     H11131   2.264   0.559  13.879  0.1104  0.9881 -0.1125
  753TMC3    H111132   2.195   0.365  13.509  0.0106 -1.0460  0.2743
  753TMC3    H211133   2.234   0.141  13.853  1.4513 -0.8132 -0.4089
  753TMC3    C711134   2.154   0.131  13.615  0.0246 -0.2210 -0.3869
  753TMC3    C811135   2.272   0.335  14.019  0.3136  0.8122  1.2132
  753TMC3    O111136   2.181   0.024  13.665 -0.0757  0.2118 -0.1223
  753TMC3    O211137   2.254   0.221  14.060 -0.5429 -0.1298  0.6523
  754MPD2     C11138   1.159   3.937  13.016 -0.1882 -0.0994 -0.3950
  754MPD2    C111139   1.132   3.806  13.022  0.2428  0.2161  0.1663
  754MPD2    C211140   1.007   3.745  12.994 -0.1099 -0.3006 -0.0105
  754MPD2    C311141   0.899   3.831  12.965  0.6706 -0.6798 -0.4769
  754MPD2    C411142   0.918   3.967  12.960  0.4347 -0.2284  0.1313
  754MPD2    C511143   1.050   4.017  12.988 -0.7380 -0.2256  0.5276
  754MPD2     H11144   0.993   3.638  12.985 -3.1524  0.1522 -0.5525
  754MPD2    H111145   0.837   4.034  12.933  1.1610  0.3354 -0.6723
  754MPD2    H211146   1.259   3.979  13.018  0.3652 -1.4545 -0.0920
  754MPD2    H311147   1.065   4.124  12.994  1.3507 -0.4984  0.0527
  754MPD2     N11148   0.771   3.784  12.942  0.1945 -0.2393  0.1352
  754MPD2    H511149   0.706   3.850  12.898  0.0685  0.0925  0.8161
  754MPD2    N111150   1.236   3.717  13.056 -0.0586 -0.2808 -0.8838
  754MPD2    H711151   1.332   3.751  13.058  0.0283 -0.5872 -0.1744
  755MPD2     C11152   0.085   4.321  12.861 -0.6727 -0.3673 -0.2961
  755MPD2    C111153   0.030   4.211  12.920 -0.2992  0.2271  0.1579
  755MPD2    C211154   0.108   4.091  12.937  0.0545 -0.0673 -1.3775
  755MPD2    C311155   0.236   4.088  12.893 -0.0056 -0.2268 -0.1822
  755MPD2    C411156   0.292   4.203  12.840 -0.2017  0.5196 -0.7088
  755MPD2    C511157   0.216   4.319  12.830 -0.2038 -0.2310 -0.0545
  755MPD2     H11158   0.054   4.009  12.982  1.6430  0.6958  1.8781
  755MPD2    H111159   0.391   4.212  12.798  1.2445  0.7858  2.7548
  755MPD2    H211160   0.030   4.412  12.841 -0.8320 -0.0843  1.4172
  755MPD2    H311161   0.275   4.404  12.794 -0.0020 -0.8271 -1.1352
  755MPD2     N11162   0.313   3.972  12.887  0.6253 -0.2866 -0.0985
  755MPD2    H511163   0.412   3.977  12.864  0.6748 -1.0144 -0.0446
  755MPD2    N111164   4.624   4.212  12.970 -0.4023  0.6895 -0.0992
  755MPD2    H711165   4.602   4.121  13.010 -0.8880  1.9879  2.6410
  756MPD2     C11166   1.754   4.287  10.008 -0.0138 -0.8068  0.2463
  756MPD2    C111167   1.627   4.331  10.046  0.5291 -0.3546 -0.1840
  756MPD2    C211168   1.514   4.250  10.026  0.0477 -0.2156 -0.5301
  756MPD2    C311169   1.529   4.139   9.951  0.2541  0.5741 -0.0702
  756MPD2    C411170   1.652   4.098   9.907  0.8683 -0.0211 -0.4906
  756MPD2    C511171   1.763   4.171   9.934 -0.4893  0.0309 -0.2244
  756MPD2     H11172   1.417   4.285  10.059  1.7642  2.0658  2.0893
  756MPD2    H111173   1.661   4.013   9.840  0.9364 -0.1962 -0.2585
  756MPD2    H211174   1.840   4.353  10.012 -1.0283  0.6905 -1.9116
  756MPD2    H311175   1.857   4.149   9.885  0.0559 -0.1412  0.8874
  756MPD2     N11176   1.408   4.069   9.920  0.0956  0.4862  0.1484
  756MPD2    H511177   1.321   4.099   9.962 -1.8608 -2.9256 -1.4697
  756MPD2    N111178   1.608   4.455  10.112  0.5509 -0.4314  0.1780
  756MPD2    H711179   1.511   4.465  10.138  0.5518  1.8392 -0.7383
  757MPD2     C11180   0.553   3.637  10.230 -0.3098  1.0574 -0.1201
  757MPD2    C111181   0.578   3.588  10.107  0.1587  0.0413  0.1102
  757MPD2    C211182   0.666   3.643  10.017  0.2201  0.5759  0.2586
  757MPD2    C311183   0.749   3.742  10.063  0.0223 -0.5152 -0.4952
  757MPD2    C411184   0.727   3.794  10.193 -0.1931 -0.6151 -0.4662
  757MPD2    C511185   0.622   3.748  10.268 -0.0210  0.6554 -0.2309
  757MPD2     H11186   0.704   3.599   9.925 -0.0850  0.5569  0.1414
  757MPD2    H111187   0.790   3.875  10.226 -0.6000  0.4742 -2.3528
  757MPD2    H211188   0.473   3.594  10.288  0.7035 -1.1817 -0.4107
  757MPD2    H311189   0.611   3.790  10.368 -0.8234  0.4951 -0.2544
  757MPD2     N11190   0.862   3.777   9.984 -0.9818  0.2313  0.5330
  757MPD2    H511191   0.853   3.733   9.893 -2.2759  2.8594 -0.6091
  757MPD2    N111192   0.513   3.472  10.065 -0.2001 -0.1691 -0.0276
  757MPD2    H711193   0.457   3.417  10.129 -0.9063  2.7238  1.7759
  758MPD2     C11194   0.701   3.638  16.268 -0.3579 -0.1333 -0.4030
  758MPD2    C111195   0.765   3.671  16.385 -0.2959  0.2979  0.8434
  758MPD2    C211196   0.692   3.699  16.497  0.7954  0.2355  0.1919
  758MPD2    C311197   0.557   3.697  16.490 -0.0891 -0.3363  0.0662
  758MPD2    C411198   0.493   3.656  16.380  0.4067 -0.4184 -0.2140
  758MPD2    C511199   0.562   3.624  16.272  0.3925  0.5192  0.0086
  758MPD2     H11200   0.732   3.723  16.595 -1.9881  1.6533  0.9867
  758MPD2    H111201   0.385   3.656  16.369  0.1468 -0.0062  2.2460
  758MPD2    H211202   0.759   3.607  16.181 -0.6940  0.3988 -0.8145
  758MPD2    H311203   0.511   3.583  16.185 -0.1951  1.1052  0.0823
  758MPD2     N11204   0.490   3.722  16.608  0.6663 -0.3692  0.0115
  758MPD2    H511205   0.552   3.747  16.685  0.0617  0.3310  0.2593
  758MPD2    N111206   0.911   3.673  16.383 -0.0815  0.7334 -0.8615
  758MPD2    H711207   0.954   3.658  16.292  2.0767  0.8137  0.1421
  759MPD2     C11208   0.322   0.541   8.459 -0.7216  0.1986  0.1107
  759MPD2    C111209   0.381   0.506   8.584  0.1972  0.8072 -0.2362
  759MPD2    C211210   0.357   0.591   8.694  0.8925 -0.0335 -0.0699
  759MPD2    C311211   0.281   0.703   8.678  0.3056  0.0701  0.1345
  759MPD2    C411212   0.215   0.732   8.556  0.2237 -0.0127  0.0735
  759MPD2    C511213   0.237   0.648   8.449  0.1409  0.0233 -0.2658
  759MPD2     H11214   0.391   0.558   8.791  0.7791  0.1065  0.0179
  759MPD2    H111215   0.137   0.806   8.547  0.4529  0.3723  1.1804
  759MPD2    H211216   0.341   0.486   8.367 -0.7956 -1.0733  0.8633
  759MPD2    H311217   0.197   0.660   8.349  1.6188  1.0620 -0.7373
  759MPD2     N11218   0.242   0.772   8.792 -0.1297 -0.3051  0.0868
  759MPD2    H511219   0.270   0.724   8.877 -1.2934 -1.0069  0.0827
  759MPD2    N111220   0.442   0.384   8.607  0.4716 -0.5689  1.0371
  759MPD2    H711221   0.460   0.352   8.701 -1.5414 -4.1688  0.2167
  760MPD2     C11222   4.260   3.583  12.041  0.8264 -0.2461 -0.6380
  760MPD2    C111223   4.388   3.581  11.990 -0.3931  0.3074 -0.5137
  760MPD2    C211224   4.461   3.467  11.988 -0.4404 -0.4947  1.0583
  760MPD2    C311225   4.410   3.355  12.045 -0.5472 -0.3192 -0.4949
  760MPD2    C411226   4.284   3.356  12.102 -0.3236  0.3070 -0.4520
  760MPD2    C511227   4.206   3.467  12.090  0.2473 -0.5060 -0.3253
  760MPD2     H11228   4.565   3.487  11.967 -0.8120  0.5598  0.2094
  760MPD2    H111229   4.233   3.268  12.138  2.5684 -0.7675  1.0430
  760MPD2    H211230   4.189   3.665  12.041  0.8424 -0.2233  0.9845
  760MPD2    H311231   4.100   3.457  12.113  0.4682 -0.1317  0.8720
  760MPD2     N11232   4.474   3.230  12.045 -0.0256 -0.8845  0.5674
  760MPD2    H511233   4.420   3.151  12.079 -1.2794 -0.1275  0.3127
  760MPD2    N111234   4.446   3.698  11.928  0.4343  0.4677  0.6398
  760MPD2    H711235   4.542   3.686  11.896  0.0574  1.2295 -0.7879
  761MPD2     C11236   0.661   3.116  11.386  0.1019  0.5130 -0.2492
  761MPD2    C111237   0.737   3.107  11.275  0.0005  0.0557  0.4137
  761MPD2    C211238   0.801   3.218  11.232  0.4572  0.3741 -0.2195
  761MPD2    C311239   0.804   3.333  11.305  0.2087  0.6517 -0.4770
  761MPD2    C411240   0.712   3.346  11.406 -0.8621  0.5396  0.9781
  761MPD2    C511241   0.639   3.241  11.453 -1.1699  0.3224 -0.1675
  761MPD2     H11242   0.858   3.209  11.141 -1.7400 -0.1899 -1.5221
  761MPD2    H111243   0.701   3.441  11.457 -1.1780  1.7793 -1.4068
  761MPD2    H211244   0.619   3.029  11.435  1.1274 -0.5568 -1.2893
  761MPD2    H311245   0.580   3.243  11.544  0.8174  1.1961  1.0860
  761MPD2     N11246   0.900   3.433  11.278 -0.1197 -0.5079  0.2617
  761MPD2    H511247   0.902   3.506  11.348  1.5048 -0.1158 -0.1983
  761MPD2    N111248   0.752   2.979  11.223  0.1092 -0.0893 -0.3274
  761MPD2    H711249   0.695   2.910  11.270  2.8146  0.1536  3.3181
  762MPD2     C11250   1.143   2.765  10.564 -0.4251 -0.4688  0.0986
  762MPD2    C111251   1.139   2.669  10.659  0.1142 -0.5592 -1.1336
  762MPD2    C211252   1.221   2.561  10.645 -0.6647  0.1700  0.7093
  762MPD2    C311253   1.315   2.549  10.545 -0.7701 -0.9636  0.7880
  762MPD2    C411254   1.321   2.648  10.453  0.2311  0.7904 -0.7349
  762MPD2    C511255   1.240   2.752  10.464  0.0969  0.4060 -0.4703
  762MPD2     H11256   1.217   2.481  10.718  1.5835 -1.2448 -0.7208
  762MPD2    H111257   1.383   2.653  10.364  0.6134 -0.1609 -0.5251
  762MPD2    H211258   1.072   2.846  10.575 -0.3465 -0.3754 -0.0944
  762MPD2    H311259   1.246   2.838  10.398  0.1957  1.2313  0.6272
  762MPD2     N11260   1.388   2.431  10.527  0.6252  0.0795  0.2192
  762MPD2    H511261   1.364   2.352  10.587  0.9399  0.2878  0.6233
  762MPD2    N111262   1.048   2.683  10.760  0.2245 -0.1337  0.4581
  762MPD2    H711263   0.989   2.766  10.758 -0.2035 -0.4905 -2.6046
  763MPD2     C11264   2.199   3.577  16.099  0.5844 -0.1374 -0.5068
  763MPD2    C111265   2.313   3.659  16.091  0.3264  0.4770 -0.0237
  763MPD2    C211266   2.324   3.763  16.171 -0.1574  0.0651 -0.1398
  763MPD2    C311267   2.216   3.792  16.256  0.5731  0.0600  0.5107
  763MPD2    C411268   2.096   3.719  16.254 -0.2732  0.0123  0.0940
  763MPD2    C511269   2.093   3.605  16.176  0.1225 -0.7990  0.5533
  763MPD2     H11270   2.414   3.824  16.176 -1.2809  1.5462  1.6660
  763MPD2    H111271   2.009   3.742  16.313  1.0465 -1.3116  2.5726
  763MPD2    H211272   2.184   3.497  16.027 -0.8350 -1.2337  1.0203
  763MPD2    H311273   1.994   3.561  16.166  0.2607 -0.9235 -0.2605
  763MPD2     N11274   2.239   3.893  16.349  0.0423 -0.7710  0.8037
  763MPD2    H511275   2.331   3.936  16.345 -0.4648  0.1410 -0.7310
  763MPD2    N111276   2.417   3.638  15.991 -0.1343  0.0785 -0.6549
  763MPD2    H711277   2.474   3.721  15.979  2.4679 -1.3834  1.4583
  764MPD2     C11278   0.983   0.958  17.247 -0.5365  0.4526  0.7815
  764MPD2    C111279   0.939   0.850  17.175  0.1875 -0.1085  0.2316
  764MPD2    C211280   0.942   0.720  17.239  0.1294  1.0535 -0.2434
  764MPD2    C311281   0.998   0.706  17.365 -0.0238 -0.4389 -0.3249
  764MPD2    C411282   1.057   0.816  17.424 -0.3417 -0.0987 -1.0580
  764MPD2    C511283   1.045   0.936  17.366  0.2406  0.7771 -0.1303
  764MPD2     H11284   0.917   0.630  17.185  1.7477  0.4486  0.0284
  764MPD2    H111285   1.099   0.812  17.524 -3.8461  2.0125  0.5265
  764MPD2    H211286   0.965   1.059  17.211  2.7129  0.5876 -0.4762
  764MPD2    H311287   1.096   1.018  17.415 -1.5348  1.0338  1.2760
  764MPD2     N11288   0.982   0.577  17.420  0.2842 -0.3486 -0.1287
  764MPD2    H511289   0.948   0.504  17.358  1.2913 -1.8171  1.0444
  764MPD2    N111290   0.889   0.856  17.040  0.0366 -0.5638  0.0567
  764MPD2    H711291   0.867   0.767  16.996 -0.8067  0.7781 -2.2183
  765MPD2     C11292   0.066   2.836  15.586 -0.2220  0.1712  0.3698
  765MPD2    C111293   0.155   2.930  15.637  0.4079 -0.0008  0.0102
  765MPD2    C211294   0.244   2.892  15.737  0.7782  0.2813  0.0438
  765MPD2    C311295   0.231   2.762  15.787 -0.0651 -0.0590 -0.2329
  765MPD2    C411296   0.134   2.669  15.738  0.2410 -0.0814  0.1943
  765MPD2    C511297   0.045   2.710  15.642 -0.0510 -0.2943  0.0103
  765MPD2     H11298   0.326   2.959  15.758  0.0381  1.9441 -2.2530
  765MPD2    H111299   0.129   2.564  15.763  1.2715 -0.0020  0.7432
  765MPD2    H211300   0.001   2.872  15.506 -0.2069  0.7894  0.6354
  765MPD2    H311301   4.702   2.639  15.594 -0.5308 -1.9827  3.2425
  765MPD2     N11302   0.322   2.717  15.886  0.3776  0.4189  0.0359
  765MPD2    H511303   0.392   2.783  15.917  0.4530 -0.4220  1.6724
  765MPD2    N111304   0.145   3.062  15.594 -0.1869  0.4900 -0.2325
  765MPD2    H711305   0.068   3.089  15.533 -0.7845 -0.9888 -0.1341
  766MPD2     C11306   4.635   3.201  15.032  0.2538  0.7094 -0.2542
  766MPD2    C111307   0.023   3.276  15.056 -0.3344 -0.3328 -0.7008
  766MPD2    C211308   0.100   3.322  14.944  0.3679 -0.3981 -0.0586
  766MPD2    C311309   0.072   3.294  14.813 -0.1671  0.8173  0.6490
  766MPD2    C411310   4.676   3.229  14.792 -0.2645 -0.2360  0.8491
  766MPD2    C511311   4.604   3.173  14.899 -0.6483 -0.2010 -0.1655
  766MPD2     H11312   0.187   3.385  14.958  0.4973  0.2639 -3.8699
  766MPD2    H111313   4.651   3.211  14.689  1.7801  0.1943  0.2843
  766MPD2    H211314   4.565   3.143  15.090 -0.8305  1.7260 -0.5476
  766MPD2    H311315   4.518   3.108  14.885 -2.2137  1.4436  1.8355
  766MPD2     N11316   0.147   3.340  14.701  0.0408 -0.1615  0.2333
  766MPD2    H511317   0.110   3.331  14.607 -2.3638 -0.0743  1.1854
  766MPD2    N111318   0.049   3.314  15.192 -0.1788  0.0407 -0.2560
  766MPD2    H711319   4.717   3.267  15.261 -0.5889  2.4040  1.0056
  767MPD2     C11320   4.534   3.601  14.994  0.2555  1.4492 -0.3805
  767MPD2    C111321   4.612   3.641  14.890 -0.4777 -0.5964 -0.4145
  767MPD2    C211322   4.590   3.592  14.760 -0.2417  0.1050  0.2793
  767MPD2    C311323   4.485   3.513  14.739 -0.4500  0.0413 -0.4382
  767MPD2    C411324   4.401   3.469  14.846 -0.4610  0.3923 -0.2746
  767MPD2    C511325   4.423   3.525  14.970  0.6500  0.0159 -0.2617
  767MPD2     H11326   4.656   3.622  14.679 -0.7494 -2.3206 -1.0194
  767MPD2    H111327   4.322   3.395  14.842 -0.1657  0.1415 -1.4649
  767MPD2    H211328   4.553   3.645  15.091 -2.8464 -1.1159  1.3827
  767MPD2    H311329   4.364   3.491  15.054 -1.3962  0.7083 -1.4061
  767MPD2     N11330   4.469   3.455  14.610  0.9821  0.0460  0.1550
  767MPD2    H511331   4.398   3.383  14.602 -0.4607  1.5421 -0.4216
  767MPD2    N111332   4.711   3.736  14.917 -0.5899 -0.1814  1.0543
  767MPD2    H711333   4.709   3.769  15.013  1.3781  3.0413 -0.0140
  768MPD2     C11334   0.804   1.130  10.919  0.1018  0.3411 -0.4868
  768MPD2    C111335   0.797   1.066  11.039 -0.1572  0.7802  0.1401
  768MPD2    C211336   0.897   1.100  11.128 -0.1461 -0.1194  0.5331
  768MPD2    C311337   1.003   1.183  11.102  0.3467  0.1184 -0.1394
  768MPD2    C411338   0.999   1.251  10.979 -0.5020 -0.2499  0.0803
  768MPD2    C511339   0.903   1.223  10.887 -0.8911  0.0307 -0.2644
  768MPD2     H11340   0.893   1.049  11.224 -0.7832  1.2068  1.2217
  768MPD2    H111341   1.072   1.327  10.955  0.7958 -1.4127  0.3292
  768MPD2    H211342   0.726   1.119  10.844  0.3471 -0.2767 -0.6478
  768MPD2    H311343   0.893   1.273  10.791  1.3311  2.0308  0.5587
  768MPD2     N11344   1.117   1.207  11.187 -0.4322  0.3518  0.0109
  768MPD2    H511345   1.193   1.267  11.156  0.5452 -0.7507  0.2860
  768MPD2    N111346   0.697   0.977  11.073 -0.5776 -0.0266  0.0053
  768MPD2    H711347   0.691   0.944  11.169 -2.4207 -3.0771 -1.1737
  769MPD2     C11348   1.894   4.372  14.477 -0.0821 -0.3605  1.1182
  769MPD2    C111349   1.770   4.382  14.549 -0.4791 -0.0508  0.5434
  769MPD2    C211350   1.764   4.419  14.681 -0.2420  0.2399 -0.6775
  769MPD2    C311351   1.886   4.453  14.742 -0.3245 -0.7903  0.3240
  769MPD2    C411352   2.010   4.441  14.678 -0.5537  0.7930  0.4592
  769MPD2    C511353   2.011   4.398  14.546  0.5115  0.4079 -1.0561
  769MPD2     H11354   1.677   4.429  14.744 -0.7432 -0.8850 -1.2042
  769MPD2    H111355   2.103   4.450  14.734  0.0946 -1.2315 -0.2733
  769MPD2    H211356   1.907   4.320  14.383  0.7000  2.3733 -0.3057
  769MPD2    H311357   2.103   4.406  14.489 -0.4164 -0.5264 -2.6765
  769MPD2     N11358   1.883   4.499  14.874 -0.1774 -0.6862  0.1684
  769MPD2    H511359   1.790   4.507  14.912 -0.4806  0.4821 -0.8083
  769MPD2    N111360   1.651   4.332  14.491 -0.2562  0.1477 -0.1756
  769MPD2    H711361   1.662   4.295  14.397 -1.9582 -0.8688  0.0228
  770MPD2     C11362   1.122   3.576  14.863 -0.1612 -0.1537  0.6421
  770MPD2    C111363   1.202   3.672  14.924 -0.0996  0.2456 -0.5167
  770MPD2    C211364   1.256   3.770  14.846  0.0987 -0.4374 -0.1320
  770MPD2    C311365   1.225   3.782  14.710 -0.1783  0.2811 -1.1886
  770MPD2    C411366   1.143   3.691  14.652 -0.8249  0.1425  0.0932
  770MPD2    C511367   1.096   3.581  14.727  0.5540  0.3460 -0.8368
  770MPD2     H11368   1.321   3.841  14.895 -0.6871 -1.1191  1.9261
  770MPD2    H111369   1.123   3.691  14.546 -2.1767  1.0448  0.3454
  770MPD2    H211370   1.078   3.500  14.925  0.8449 -0.5627  0.8572
  770MPD2    H311371   1.045   3.498  14.678  0.4618  0.6568 -1.2658
  770MPD2     N11372   1.266   3.901  14.640  0.2602 -0.9319 -1.0321
  770MPD2    H511373   1.351   3.946  14.674 -0.0381 -0.0211 -1.4998
  770MPD2    N111374   1.232   3.666  15.064 -0.3271 -0.6409  0.2200
  770MPD2    H711375   1.174   3.599  15.113 -0.5661  0.4548  1.4254
  771MPD2     C11376   2.472   2.206  13.850  0.2813  0.3898  0.4454
  771MPD2    C111377   2.479   2.297  13.749 -0.1388 -0.6627 -0.8486
  771MPD2    C211378   2.477   2.247  13.619  0.2813 -0.5245  0.2849
  771MPD2    C311379   2.447   2.116  13.588 -0.4128  0.0719 -0.2261
  771MPD2    C411380   2.446   2.023  13.691 -0.4941  0.0433  0.4906
  771MPD2    C511381   2.463   2.069  13.822  0.6917 -0.9853  0.6143
  771MPD2     H11382   2.480   2.325  13.543  1.4885 -0.6069  0.2446
  771MPD2    H111383   2.451   1.915  13.685 -0.9256 -0.0571  1.9330
  771MPD2    H211384   2.487   2.234  13.954  6.1886  0.6651 -0.4444
  771MPD2    H311385   2.473   1.994  13.900 -0.6877 -2.1664 -0.3551
  771MPD2     N11386   2.439   2.085  13.453 -0.9373 -0.0356 -0.2030
  771MPD2    H511387   2.443   2.164  13.390  1.1475 -0.3181 -0.4299
  771MPD2    N111388   2.498   2.441  13.768  0.2739  0.1882 -0.1288
  771MPD2    H711389   2.523   2.508  13.695 -0.0298  0.6617  0.1976
  772MPD2     C11390   2.041   3.120  13.918 -0.2430 -0.1978  0.6210
  772MPD2    C111391   2.051   2.983  13.905 -0.1487 -0.4374 -0.4204
  772MPD2    C211392   1.936   2.913  13.901  0.0009  0.1274  0.0745
  772MPD2    C311393   1.810   2.978  13.902  0.8371  0.4415 -0.6007
  772MPD2    C411394   1.804   3.117  13.905 -0.4122 -0.1604  0.3130
  772MPD2    C511395   1.924   3.187  13.913  0.4876  0.3614  0.1380
  772MPD2     H11396   1.949   2.806  13.891  2.0509  0.5574 -1.9001
  772MPD2    H111397   1.707   3.165  13.912 -1.2077 -1.6173 -0.7762
  772MPD2    H211398   2.129   3.181  13.937 -0.7048  0.7517 -0.2797
  772MPD2    H311399   1.929   3.295  13.913  0.2975  0.3704  0.2210
  772MPD2     N11400   1.684   2.909  13.889  0.4349 -0.7029 -0.4485
  772MPD2    H511401   1.605   2.967  13.864  0.2278 -0.6712  0.2911
  772MPD2    N111402   2.173   2.913  13.903 -0.0559 -0.2767 -0.5904
  772MPD2    H711403   2.173   2.812  13.894  0.4511 -0.3362  0.0953
  773MPD2     C11404   1.633   4.196   0.377  0.1350  0.0287  0.4195
  773MPD2    C111405   1.539   4.092   0.372  0.4567 -0.8855  0.0651
  773MPD2    C211406   1.560   3.987   0.459 -0.1546  0.4949  0.1975
  773MPD2    C311407   1.663   3.989   0.545  0.5222  0.2868 -0.1814
  773MPD2    C411408   1.756   4.085   0.542  0.7931  0.6498  0.1600
  773MPD2    C511409   1.740   4.188   0.462 -0.1460  0.3755 -0.2179
  773MPD2     H11410   1.492   3.903   0.459  0.2016  0.2000  0.8259
  773MPD2    H111411   1.848   4.079   0.599  1.0170  0.9145 -0.1782
  773MPD2    H211412   1.624   4.286   0.318  0.9800 -0.7368 -0.8503
  773MPD2    H311413   1.820   4.260   0.455  1.3930 -1.6002 -2.7730
  773MPD2     N11414   1.693   3.869   0.617 -0.3554 -0.1852 -0.2546
  773MPD2    H511415   1.618   3.802   0.599 -0.1139 -0.4122 -0.4137
  773MPD2    N111416   1.419   4.097   0.293  0.4729 -0.0248  0.6146
  773MPD2    H711417   1.353   4.021   0.309  0.2635 -0.0595 -0.4012
  774MPD2     C11418   0.776   2.728  13.178 -0.4125 -0.7410 -0.1167
  774MPD2    C111419   0.714   2.803  13.277 -0.5502 -0.1727  0.4342
  774MPD2    C211420   0.763   2.930  13.310  0.0381 -0.1559 -0.1557
  774MPD2    C311421   0.874   2.985  13.252  0.3307 -0.5316 -0.4716
  774MPD2    C411422   0.925   2.916  13.144  0.1263 -0.2282 -0.5514
  774MPD2    C511423   0.890   2.786  13.120 -0.1705  0.2054 -0.0708
  774MPD2     H11424   0.715   3.001  13.378 -0.9242  0.0642 -1.0609
  774MPD2    H111425   1.022   2.941  13.102  0.5428  1.5333  1.4195
  774MPD2    H211426   0.740   2.631  13.143  1.5319 -1.8086  0.8566
  774MPD2    H311427   0.940   2.738  13.037 -0.4283  0.5151 -0.4047
  774MPD2     N11428   0.919   3.118  13.286  0.4849  0.1364  0.0228
  774MPD2    H511429   0.857   3.166  13.350  3.4257  2.1518  1.3916
  774MPD2    N111430   0.601   2.748  13.346 -0.1790  0.1115 -0.5437
  774MPD2    H711431   0.579   2.649  13.334  2.4625 -1.0701  3.9303
  775MPD2     C11432   1.877   4.417  15.876 -0.3851  0.0014  0.2848
  775MPD2    C111433   1.825   4.535  15.830 -0.6767 -0.4624  0.7956
  775MPD2    C211434   1.908   4.623  15.762 -0.2417  0.2768 -0.4908
  775MPD2    C311435   2.047   4.597  15.749  0.3249  0.1921 -0.0925
  775MPD2    C411436   2.100   4.477  15.793  0.0249 -0.3529 -0.9010
  775MPD2    C511437   2.015   4.390  15.859 -0.3084 -0.0533 -0.3235
  775MPD2     H11438   1.867   4.720  15.737 -0.2244  0.7269  1.2341
  775MPD2    H111439   2.206   4.455  15.787  0.0245 -0.7649  0.5036
  775MPD2    H211440   1.807   4.352  15.929 -3.5380  2.9651 -0.2268
  775MPD2    H311441   2.054   4.297  15.900  1.3655  0.5294 -0.5926
  775MPD2     N11442   2.136   4.694  15.699  0.0456  0.5581 -0.1682
  775MPD2    H511443   2.236   4.679  15.698 -0.1967 -1.0033 -0.2627
  775MPD2    N111444   1.687   4.567  15.861  0.1072 -0.4786 -0.3965
  775MPD2    H711445   1.642   4.492  15.913 -2.6046  1.4944  0.0967
  776MPD2     C11446   1.064   4.084  12.219  0.1120 -0.6258 -0.0257
  776MPD2    C111447   1.194   4.126  12.232 -0.1451  0.2219  0.4285
  776MPD2    C211448   1.228   4.256  12.205 -0.3824 -0.4121  0.2199
  776MPD2    C311449   1.126   4.350  12.182 -0.3784  0.3535  0.3448
  776MPD2    C411450   1.001   4.300  12.157  0.2297  0.7466  0.4862
  776MPD2    C511451   0.967   4.175  12.183  0.0131 -0.4569 -0.2788
  776MPD2     H11452   1.331   4.287  12.220 -0.1557 -1.1327  0.1170
  776MPD2    H111453   0.920   4.370  12.142 -1.1643 -1.0465 -0.2971
  776MPD2    H211454   1.026   3.984  12.238  0.0078 -0.8393 -1.3959
  776MPD2    H311455   0.864   4.143  12.177  0.0309 -0.8879  1.8502
  776MPD2     N11456   1.154   4.491  12.156  0.7271 -0.1767 -0.8037
  776MPD2    H511457   1.087   4.554  12.113  1.2353  0.9849  0.1210
  776MPD2    N111458   1.289   4.027  12.265 -0.2853  0.2328 -0.7873
  776MPD2    H711459   1.261   3.930  12.255  0.7439 -0.2748  1.2575
  777MPD2     C11460   1.565   2.595   0.788 -0.8849  0.3587 -0.1439
  777MPD2    C111461   1.441   2.571   0.846  0.2112  0.2220 -0.3365
  777MPD2    C211462   1.337   2.526   0.767  0.1263 -0.0045 -0.2200
  777MPD2    C311463   1.361   2.478   0.637  0.3452  0.7369  0.5524
  777MPD2    C411464   1.493   2.487   0.589 -0.7493  0.7455  0.3522
  777MPD2    C511465   1.593   2.557   0.662 -0.3567  0.1144 -0.2699
  777MPD2     H11466   1.233   2.538   0.797  0.4106  1.6996  0.0315
  777MPD2    H111467   1.522   2.450   0.491  2.2585  0.1485  1.4512
  777MPD2    H211468   1.643   2.636   0.850 -1.6009  1.2941  0.1265
  777MPD2    H311469   1.694   2.567   0.626 -0.9755  0.1138 -2.0314
  777MPD2     N11470   1.259   2.415   0.565  0.3364 -0.5819  0.0386
  777MPD2    H511471   1.164   2.416   0.601 -0.5745 -0.1701 -2.3650
  777MPD2    N111472   1.414   2.624   0.972  0.1699 -0.4051  0.7705
  777MPD2    H711473   1.495   2.669   1.013  0.9520 -0.2829 -0.9434
  778MPD2     C11474   2.705   2.987  14.940 -0.3464  0.3293 -0.2252
  778MPD2    C111475   2.688   2.856  14.912 -0.2457 -0.5188  0.2110
  778MPD2    C211476   2.721   2.816  14.784  0.0726 -0.1466 -0.1538
  778MPD2    C311477   2.758   2.912  14.691  0.4072 -0.4448  0.2607
  778MPD2    C411478   2.749   3.049  14.715 -0.3486 -0.0561  0.2062
  778MPD2    C511479   2.736   3.079  14.847  0.4347  0.6097 -0.1460
  778MPD2     H11480   2.711   2.711  14.761  0.6842  0.8026 -4.7313
  778MPD2    H111481   2.775   3.132  14.650 -0.5762  0.9219  1.3668
  778MPD2    H211482   2.691   3.027  15.040 -2.0938 -0.5548 -0.1195
  778MPD2    H311483   2.737   3.182  14.880  0.1288  0.5096  0.1714
  778MPD2     N11484   2.795   2.858  14.570 -0.1217  0.2083 -0.0495
  778MPD2    H511485   2.804   2.757  14.560  0.4903  0.4344 -1.8577
  778MPD2    N111486   2.650   2.761  15.008  0.3711 -0.3872  0.7677
  778MPD2    H711487   2.643   2.667  14.970  0.5516 -0.2526  0.3994
  779MPD2     C11488   2.144   1.428  14.791  0.1197  0.0616 -0.3468
  779MPD2    C111489   2.223   1.418  14.678  0.0885 -0.1824  0.3111
  779MPD2    C211490   2.251   1.537  14.611 -0.3382  0.6299  0.5004
  779MPD2    C311491   2.224   1.653  14.667 -0.0195 -0.2884  0.1202
  779MPD2    C411492   2.161   1.666  14.790 -0.4706 -0.3064  0.5766
  779MPD2    C511493   2.121   1.550  14.849  0.0668  0.4813  0.2327
  779MPD2     H11494   2.305   1.531  14.517  2.4210  0.0157  2.1265
  779MPD2    H111495   2.152   1.761  14.841 -0.9499 -0.0233 -0.0444
  779MPD2    H211496   2.108   1.342  14.846  0.9274  0.4453  0.7792
  779MPD2    H311497   2.072   1.556  14.946  0.4294 -0.3042  0.4691
  779MPD2     N11498   2.288   1.762  14.597 -0.0305  0.0302  0.4222
  779MPD2    H511499   2.328   1.740  14.506  2.5283 -0.3534  1.6252
  779MPD2    N111500   2.287   1.297  14.637 -0.3941 -0.0461  0.2044
  779MPD2    H711501   2.368   1.312  14.578 -0.9081  1.0477 -0.2245
  780MPD2     C11502   1.306   1.566   0.966 -0.1411 -0.2590 -0.4895
  780MPD2    C111503   1.250   1.516   0.846 -0.3027 -0.6049 -0.2713
  780MPD2    C211504   1.291   1.574   0.730 -0.3138  0.0649 -0.6708
  780MPD2    C311505   1.390   1.670   0.724  0.3405 -0.0802 -0.3542
  780MPD2    C411506   1.447   1.708   0.840  0.2916 -0.1927  0.2253
  780MPD2    C511507   1.400   1.664   0.967 -0.5188  0.2061 -0.6959
  780MPD2     H11508   1.245   1.545   0.636 -1.2624 -1.0868  0.1462
  780MPD2    H111509   1.531   1.776   0.844 -0.2253  0.5572 -1.5200
  780MPD2    H211510   1.277   1.518   1.060 -0.9629  0.3323 -0.4422
  780MPD2    H311511   1.451   1.702   1.055 -0.2580  0.8433 -1.1200
  780MPD2     N11512   1.435   1.715   0.602  0.1650 -0.1156  0.7169
  780MPD2    H511513   1.522   1.768   0.609  0.4387 -0.4291 -0.2980
  780MPD2    N111514   1.166   1.402   0.850  0.6464  0.1591 -0.0030
  780MPD2    H711515   1.162   1.349   0.937 -2.3471 -0.2033 -0.3542
  781MPD2     C11516   3.887   2.817  11.763  0.0847 -0.0995  0.0347
  781MPD2    C111517   3.942   2.797  11.888  0.6959  0.3255  0.4369
  781MPD2    C211518   4.030   2.690  11.900 -0.2680 -1.1156 -0.3817
  781MPD2    C311519   4.062   2.600  11.792 -0.3060 -0.1206  0.2603
  781MPD2    C411520   4.015   2.641  11.668  1.0170 -0.1931  0.2923
  781MPD2    C511521   3.924   2.742  11.656  0.4817 -0.9212  0.2955
  781MPD2     H11522   4.070   2.662  11.997  1.9209  1.4780 -0.5241
  781MPD2    H111523   4.043   2.592  11.575  0.2029  1.4028 -0.7992
  781MPD2    H211524   3.826   2.905  11.747  0.8435  0.4213 -0.0097
  781MPD2    H311525   3.892   2.771  11.557 -0.7146 -1.3795  0.5446
  781MPD2     N11526   4.154   2.494  11.812 -0.5012 -0.3043 -0.4488
  781MPD2    H511527   4.217   2.508  11.891 -1.6478 -0.0700  0.4331
  781MPD2    N111528   3.906   2.871  12.010  0.0008 -0.6374  0.0268
  781MPD2    H711529   3.954   2.835  12.092  0.2279 -0.9065 -0.2228
  782MPD2     C11530   1.883   4.279  10.800 -0.6780  0.4310  0.2539
  782MPD2    C111531   1.942   4.164  10.752 -0.2724  0.0614  1.0014
  782MPD2    C211532   2.054   4.107  10.810  0.3505 -0.8236  0.8295
  782MPD2    C311533   2.114   4.180  10.914 -0.2612 -0.0078 -0.5406
  782MPD2    C411534   2.047   4.297  10.961  0.6697  0.3482  0.7375
  782MPD2    C511535   1.934   4.346  10.902  0.1344 -0.1785  0.3552
  782MPD2     H11536   2.104   4.019  10.772  1.7232  0.5394 -0.5076
  782MPD2    H111537   2.090   4.354  11.043  1.2118 -0.4159  0.9855
  782MPD2    H211538   1.796   4.319  10.748 -0.8090 -2.3401 -1.6379
  782MPD2    H311539   1.898   4.444  10.931  1.4628  1.0818 -2.2796
  782MPD2     N11540   2.229   4.131  10.969  0.5016 -0.1939 -0.2822
  782MPD2    H511541   2.274   4.053  10.921  1.0612 -0.9444  1.4595
  782MPD2    N111542   1.886   4.095  10.646 -0.6392  0.2620 -0.1904
  782MPD2    H711543   1.946   4.025  10.603  1.0419  1.3820  0.3601
  783MPD2     C11544   1.046   3.779  10.591 -0.2672 -1.0975  0.1276
  783MPD2    C111545   1.160   3.775  10.667 -0.7254 -0.1582 -0.1419
  783MPD2    C211546   1.275   3.821  10.612 -0.0089  0.5505 -0.6396
  783MPD2    C311547   1.274   3.843  10.476 -0.5562  0.4022  1.1494
  783MPD2    C411548   1.164   3.843  10.398  0.3931 -0.0320  0.1708
  783MPD2    C511549   1.049   3.804  10.457 -0.3018  0.0378 -0.0652
  783MPD2     H11550   1.373   3.819  10.658 -0.1892 -1.6957 -0.3585
  783MPD2    H111551   1.166   3.875  10.295  1.4110  1.0030  0.5084
  783MPD2    H211552   0.954   3.753  10.642  0.6828 -1.3139  1.7405
  783MPD2    H311553   0.954   3.798  10.407  0.0324  1.2266 -0.8339
  783MPD2     N11554   1.402   3.880  10.433  0.2598 -0.9436  0.1427
  783MPD2    H511555   1.473   3.868  10.505 -0.6091 -0.8165  1.0220
  783MPD2    N111556   1.152   3.741  10.807 -0.0881 -0.1382  0.9238
  783MPD2    H711557   1.061   3.710  10.838 -0.6664  1.0434  0.4357
  784MPD2     C11558   3.945   4.133   0.929 -0.1966  0.0950  0.5973
  784MPD2    C111559   3.895   4.212   1.033 -0.5796 -0.5514 -0.4045
  784MPD2    C211560   3.801   4.310   0.995 -0.5619 -0.0820 -0.3639
  784MPD2    C311561   3.769   4.329   0.862 -0.3108  0.2608 -0.3710
  784MPD2    C411562   3.814   4.244   0.767  0.0457  0.1998 -0.2383
  784MPD2    C511563   3.906   4.147   0.799 -0.0352  0.6409  0.4755
  784MPD2     H11564   3.758   4.381   1.065  1.1206  1.2915 -0.7202
  784MPD2    H111565   3.790   4.256   0.662  0.7849 -0.3639 -0.4703
  784MPD2    H211566   4.021   4.059   0.953 -1.0676 -0.6706  1.0435
  784MPD2    H311567   3.946   4.094   0.713  0.7595 -1.4171  2.1147
  784MPD2     N11568   3.694   4.443   0.827 -0.7058 -0.4211  0.2365
  784MPD2    H511569   3.651   4.492   0.904  1.9835  0.3513  1.2494
  784MPD2    N111570   3.940   4.214   1.169 -0.5370 -0.1501 -0.1312
  784MPD2    H711571   3.893   4.273   1.236 -1.0713 -1.1983  0.4142
  785MPD2     C11572   4.243   1.384  10.655  0.4142  0.6022  0.4917
  785MPD2    C111573   4.170   1.484  10.600 -0.2490  0.0633  0.0800
  785MPD2    C211574   4.125   1.465  10.467 -0.8304  0.4648 -0.2914
  785MPD2    C311575   4.155   1.355  10.390 -0.0425  0.0358  0.3455
  785MPD2    C411576   4.226   1.252  10.449 -0.0253  0.4603 -0.3799
  785MPD2    C511577   4.267   1.276  10.577 -0.5059 -0.3394 -0.1294
  785MPD2     H11578   4.064   1.539  10.417  0.7259  1.9361 -0.0120
  785MPD2    H111579   4.275   1.171  10.396 -1.1806  1.1692 -2.5324
  785MPD2    H211580   4.275   1.390  10.758 -2.0647  1.3848  1.2251
  785MPD2    H311581   4.327   1.196  10.620 -1.5605 -1.2034 -0.2652
  785MPD2     N11582   4.104   1.352  10.259 -0.1924  0.5329 -0.4064
  785MPD2    H511583   4.037   1.425  10.241 -0.1897 -0.0629 -2.8907
  785MPD2    N111584   4.133   1.598  10.670 -0.5532 -0.0799 -0.3715
  785MPD2    H711585   4.081   1.666  10.617 -0.0851 -0.5668 -1.4611
  786MPD2     C11586   2.383   0.697  14.824 -0.0233 -0.2475 -0.4931
  786MPD2    C111587   2.518   0.656  14.816  0.1800 -0.1020  0.6960
  786MPD2    C211588   2.620   0.729  14.891  0.0209  0.0055 -0.4019
  786MPD2    C311589   2.582   0.833  14.982  0.0368  0.0213 -0.4889
  786MPD2    C411590   2.444   0.855  15.002  0.2816  1.2013  0.3235
  786MPD2    C511591   2.348   0.792  14.917 -0.2598 -0.8326  0.2046
  786MPD2     H11592   2.724   0.698  14.883  0.0734  0.3028 -0.8342
  786MPD2    H111593   2.420   0.924  15.083 -0.3733  0.6125  0.6342
  786MPD2    H211594   2.298   0.651  14.776 -1.2805  1.2290  0.3358
  786MPD2    H311595   2.244   0.821  14.923  0.0892  0.5843 -0.8897
  786MPD2     N11596   2.677   0.896  15.069  1.0951 -0.3606  0.1041
  786MPD2    H511597   2.635   0.944  15.148  0.0600 -1.9523  0.5157
  786MPD2    N111598   2.567   0.551  14.731  0.2619  0.1774  0.0047
  786MPD2    H711599   2.666   0.545  14.710  0.3734  0.7584  0.3622
  787MPD2     C11600   2.975   0.220  15.024  0.4473 -0.0469  0.5646
  787MPD2    C111601   2.988   0.182  14.888 -0.0507 -0.2566  0.2521
  787MPD2    C211602   3.103   0.116  14.847 -0.1948 -0.3508 -0.1655
  787MPD2    C311603   3.196   0.082  14.942 -0.6079 -1.2806 -0.5614
  787MPD2    C411604   3.179   0.102  15.075  0.7396  0.3730  0.8186
  787MPD2    C511605   3.068   0.173  15.115  0.1942 -0.1046 -0.1002
  787MPD2     H11606   3.117   0.102  14.740 -2.2934  1.2222 -0.6389
  787MPD2    H111607   3.250   0.066  15.149 -1.5931 -0.5559  2.6092
  787MPD2    H211608   2.885   0.265  15.063 -1.0191 -0.3602 -2.4742
  787MPD2    H311609   3.053   0.204  15.218 -0.8455  2.7420 -1.1083
  787MPD2     N11610   3.306   0.011  14.902 -0.0121  0.0485 -0.2599
  787MPD2    H511611   3.318   4.720  14.802 -1.7319  0.8305 -0.5855
  787MPD2    N111612   2.880   0.218  14.807  0.2270 -0.2955 -0.5022
  787MPD2    H711613   2.806   0.269  14.855  2.4720  2.5873 -0.1267
  788MPD2     C11614   4.541   3.236   1.214  0.1884  0.4406 -0.3162
  788MPD2    C111615   4.454   3.233   1.110 -0.5184  0.0569  0.2956
  788MPD2    C211616   4.424   3.348   1.031  1.3090  0.4116  0.1750
  788MPD2    C311617   4.497   3.462   1.058  0.3080 -0.1301 -0.5993
  788MPD2    C411618   4.595   3.456   1.161 -0.3682  0.3422  0.1788
  788MPD2    C511619   4.614   3.350   1.243  0.2456  0.3739 -0.3006
  788MPD2     H11620   4.367   3.334   0.940  2.6545 -0.9605 -0.4647
  788MPD2    H111621   4.644   3.550   1.185 -1.3857  1.0853 -0.6748
  788MPD2    H211622   4.576   3.150   1.271 -1.0493  0.8705  1.0889
  788MPD2    H311623   4.669   3.357   1.336  0.2400  2.7061 -0.4828
  788MPD2     N11624   4.460   3.584   1.006  0.9256 -0.2383 -0.4248
  788MPD2    H511625   4.523   3.662   1.019  2.4105 -1.1855 -2.0345
  788MPD2    N111626   4.391   3.116   1.066  0.6281 -0.1180  0.1332
  788MPD2    H711627   4.319   3.138   0.998  2.2459  2.5454 -0.7152
  789MPD2     C11628   0.206   3.528  17.433  0.2596  0.5758 -0.7872
  789MPD2    C111629   0.186   3.459  17.315 -0.1536  0.2777  0.4582
  789MPD2    C211630   0.100   3.503  17.216 -0.5423  0.3665 -0.7054
  789MPD2    C311631   0.014   3.605  17.244  0.5573  0.4082 -0.0546
  789MPD2    C411632   0.031   3.664  17.369 -0.3682 -0.0273  0.3330
  789MPD2    C511633   0.129   3.634  17.458  0.0197  0.3685 -0.2316
  789MPD2     H11634   0.083   3.439  17.130  2.4767 -0.9638 -0.3238
  789MPD2    H111635   4.693   3.747  17.402 -0.7257 -0.0609 -0.2641
  789MPD2    H211636   0.256   3.502  17.525  0.9205  0.6059 -1.1354
  789MPD2    H311637   0.133   3.684  17.554  1.2260 -1.5071  0.7013
  789MPD2     N11638   4.635   3.655  17.164  0.3121 -0.3206  0.2957
  789MPD2    H511639   4.569   3.720  17.207 -0.6258 -0.6489 -0.6471
  789MPD2    N111640   0.263   3.347  17.290  0.3412  0.0573 -0.7258
  789MPD2    H711641   0.243   3.306  17.199 -0.7424  2.4621 -1.5822
  790MPD2     C11642   1.453   0.480  13.117 -0.3385  0.2355  0.4536
  790MPD2    C111643   1.482   0.368  13.194 -0.3715  0.0255  0.3414
  790MPD2    C211644   1.438   0.246  13.158  0.4236  0.5527  0.3368
  790MPD2    C311645   1.357   0.235  13.046  0.0803 -0.5560 -0.1678
  790MPD2    C411646   1.316   0.354  12.975  0.3643  0.4312 -0.2830
  790MPD2    C511647   1.369   0.473  13.006 -0.1273  0.3388 -0.8080
  790MPD2     H11648   1.463   0.153  13.208  1.8993 -0.2210 -1.8534
  790MPD2    H111649   1.248   0.351  12.891 -1.3864 -0.2763  1.1642
  790MPD2    H211650   1.494   0.577  13.143 -2.0621  1.0137  0.1982
  790MPD2    H311651   1.335   0.557  12.948  2.1379  1.9088  0.1305
  790MPD2     N11652   1.306   0.116  12.999  0.4336  1.0876  0.2880
  790MPD2    H511653   1.331   0.043  13.064  0.5468 -0.4854 -1.5345
  790MPD2    N111654   1.553   0.387  13.315 -0.7394  0.1582  0.3524
  790MPD2    H711655   1.574   0.485  13.330  0.3531 -0.0497  0.1532
  791MPD2     C11656   0.620   4.672  12.717  0.9517  0.2236  0.0866
  791MPD2    C111657   0.690   4.554  12.727  0.5417  0.2424  0.1891
  791MPD2    C211658   0.634   4.441  12.677 -0.1799 -0.4446  0.6940
  791MPD2    C311659   0.517   4.448  12.607  0.2555  0.5018 -0.3998
  791MPD2    C411660   0.457   4.573  12.585  0.1936  0.2638  0.4038
  791MPD2    C511661   0.504   4.687  12.648 -0.0303  0.1401 -0.6636
  791MPD2     H11662   0.675   4.342  12.697  3.2702  0.3451 -2.7169
  791MPD2    H111663   0.371   4.586  12.520  0.8567 -0.5486 -0.6220
  791MPD2    H211664   0.670   0.033  12.761  2.5825 -0.5316 -0.3030
  791MPD2    H311665   0.461   0.059  12.626 -0.3763  0.5177  1.6642
  791MPD2     N11666   0.459   4.322  12.568  0.0474 -0.2730 -0.2361
  791MPD2    H511667   0.507   4.237  12.596  0.7485 -0.6232 -2.5058
  791MPD2    N111668   0.817   4.560  12.799  0.6798  0.4575 -0.2162
  791MPD2    H711669   0.840   4.653  12.832  0.9361  1.1622 -2.3499
  792MPD2     C11670   1.558   4.418  11.880 -0.3558  0.3611 -0.2234
  792MPD2    C111671   1.526   4.483  11.764 -0.1924 -0.4390 -0.3710
  792MPD2    C211672   1.448   4.413  11.672 -0.5413  0.5221  0.1822
  792MPD2    C311673   1.391   4.287  11.695  0.2686 -0.3660 -0.4232
  792MPD2    C411674   1.417   4.230  11.816  0.6384 -0.5592  0.3821
  792MPD2    C511675   1.497   4.299  11.908  0.0515  0.0881 -0.3215
  792MPD2     H11676   1.419   4.457  11.577  1.0107 -0.9071 -0.9342
  792MPD2    H111677   1.388   4.130  11.846  0.8399  0.0600  2.5998
  792MPD2    H211678   1.619   4.468  11.955  2.2831 -2.5639 -0.4337
  792MPD2    H311679   1.522   4.249  12.001  0.7027  0.2721 -0.3967
  792MPD2     N11680   1.309   4.217  11.602  0.2284  0.0203  0.1645
  792MPD2    H511681   1.264   4.131  11.634  0.5054 -0.3512 -0.4468
  792MPD2    N111682   1.590   4.606  11.746  0.0658  0.2465  0.7444
  792MPD2    H711683   1.669   4.625  11.808  0.1352 -2.1869  1.3975
  793MPD2     C11684   1.268   4.237  10.576 -0.3571 -0.6648 -0.1372
  793MPD2    C111685   1.342   4.323  10.654  0.2891  0.8705 -0.0472
  793MPD2    C211686   1.326   4.317  10.791 -0.2541 -0.7918 -0.0261
  793MPD2    C311687   1.242   4.225  10.848  0.2563  0.2931 -0.2309
  793MPD2    C411688   1.176   4.136  10.769 -0.3836 -0.2341  0.6921
  793MPD2    C511689   1.189   4.147  10.639 -0.3002 -0.3485  0.2179
  793MPD2     H11690   1.384   4.377  10.861 -0.4116  0.2014 -0.7455
  793MPD2    H111691   1.108   4.066  10.817  0.2007 -0.1219  1.6873
  793MPD2    H211692   1.283   4.232  10.468 -0.5992 -1.0037 -0.1546
  793MPD2    H311693   1.132   4.091  10.566 -1.3094  0.1144  0.6556
  793MPD2     N11694   1.212   4.218  10.988 -0.5469 -0.2295  0.1344
  793MPD2    H511695   1.280   4.265  11.047 -0.6179 -0.4419  0.3875
  793MPD2    N111696   1.429   4.423  10.606 -0.0627 -0.1041 -0.2684
  793MPD2    H711697   1.491   4.460  10.678  0.9206 -0.3952 -0.9666
  794MPD2     C11698   1.025   4.683  17.472  0.3800  0.1134 -0.3661
  794MPD2    C111699   1.000   4.557  17.435 -0.4148  0.6092  0.3007
  794MPD2    C211700   0.930   4.527  17.322  0.1568  0.2451 -0.1031
  794MPD2    C311701   0.877   4.632  17.247 -0.4174 -0.5551  0.1745
  794MPD2    C411702   0.907   0.037  17.284  0.7904  0.3248  0.3532
  794MPD2    C511703   0.977   0.067  17.400 -0.5104 -0.0115  0.1602
  794MPD2     H11704   0.914   4.423  17.297  0.3564  0.2133 -0.0950
  794MPD2    H111705   0.880   0.125  17.227 -0.6989  0.7358  1.7158
  794MPD2    H211706   1.080   4.711  17.561 -0.6989  2.1116 -0.3380
  794MPD2    H311707   1.011   0.167  17.425  0.4647 -0.2807 -0.0955
  794MPD2     N11708   0.808   4.621  17.124 -0.3686 -0.0950  0.3522
  794MPD2    H511709   0.790   4.712  17.081  1.1957  0.3357  0.5937
  794MPD2    N111710   1.040   4.445  17.512 -0.0930  0.6333 -0.1592
  794MPD2    H711711   1.039   4.355  17.466 -0.7769  0.9359 -0.7408
  795MPD2     C11712   3.518   1.684  12.912  0.1802  0.5707  0.5172
  795MPD2    C111713   3.443   1.610  13.008  0.1665 -0.4628 -0.0381
  795MPD2    C211714   3.492   1.561  13.129 -0.2143  0.5860  0.0294
  795MPD2    C311715   3.634   1.570  13.138 -0.3894  0.4427  0.0753
  795MPD2    C411716   3.711   1.651  13.058 -0.1552 -0.0308  0.5417
  795MPD2    C511717   3.653   1.707  12.946  0.0359 -0.2574  0.0560
  795MPD2     H11718   3.426   1.505  13.193  1.1869 -1.0334  0.0585
  795MPD2    H111719   3.818   1.657  13.070  0.0641 -0.5836 -1.1416
  795MPD2    H211720   3.473   1.727  12.824  2.4745  2.0502  0.0774
  795MPD2    H311721   3.714   1.771  12.884 -4.3405  2.2103 -1.6732
  795MPD2     N11722   3.702   1.514  13.245 -0.4986  0.6371 -0.2980
  795MPD2    H511723   3.803   1.518  13.243 -0.3406 -3.5232 -0.3733
  795MPD2    N111724   3.311   1.579  12.992 -0.2942 -0.5363 -0.2859
  795MPD2    H711725   3.257   1.537  13.066  0.1858  0.9889  0.9344
  796MPD2     C11726   2.943   3.559  15.994  0.0540 -0.5247  0.4912
  796MPD2    C111727   2.969   3.598  16.120  0.6629  0.1707 -0.2097
  796MPD2    C211728   2.948   3.733  16.157 -0.0160  0.1743  0.1879
  796MPD2    C311729   2.901   3.826  16.058  0.4375  0.1061 -1.0093
  796MPD2    C411730   2.888   3.785  15.925 -0.4053  0.5827  0.3214
  796MPD2    C511731   2.901   3.651  15.902 -0.2022 -0.6374  0.2152
  796MPD2     H11732   2.962   3.772  16.258  0.9371 -1.0085  0.5150
  796MPD2    H111733   2.857   3.849  15.843 -1.2237 -1.3704 -0.9052
  796MPD2    H211734   2.952   3.458  15.956 -0.2710 -0.6444  0.7348
  796MPD2    H311735   2.886   3.617  15.800 -1.5929  0.6047  0.0078
  796MPD2     N11736   2.893   3.962  16.104 -0.1256  0.2828 -0.2983
  796MPD2    H511737   2.913   3.982  16.201  0.4959 -0.8810 -0.1882
  796MPD2    N111738   3.007   3.504  16.219 -0.3431  0.7120  0.2938
  796MPD2    H711739   3.017   3.405  16.197 -0.8925  0.2144  2.2146
  797MPD2     C11740   3.813   2.855   0.008  0.2235  0.0723  0.9641
  797MPD2    C111741   3.914   2.946  17.681 -0.0008 -0.1129 -0.0555
  797MPD2    C211742   3.887   3.067  17.633 -0.4827  0.4293  0.6832
  797MPD2    C311743   3.766   3.106  17.601 -0.5954  0.3999  0.0480
  797MPD2    C411744   3.667   3.015  17.611  0.1248 -0.2747 -0.0917
  797MPD2    C511745   3.680   2.887  17.670 -0.8032  0.1226  0.7332
  797MPD2     H11746   3.966   3.140  17.620  0.4268 -0.7008 -0.1109
  797MPD2    H111747   3.566   3.021  17.571 -0.0103  2.4422  0.6030
  797MPD2    H211748   3.830   2.762   0.061 -0.3623  0.2464  1.4585
  797MPD2    H311749   3.599   2.816  17.668 -0.7640  0.1130 -0.4478
  797MPD2     N11750   3.761   3.229  17.534 -0.2887  0.2354 -0.2121
  797MPD2    H511751   3.845   3.265  17.491 -1.8699  1.8958 -1.9344
  797MPD2    N111752   4.054   2.930   0.012 -0.8632  0.2507 -0.2624
  797MPD2    H711753   4.112   3.010  17.690  0.7687 -1.2423 -1.3924
  798MPD2     C11754   4.160   3.643   0.073  0.3364  0.0426 -0.2883
  798MPD2    C111755   4.122   3.546  17.680 -0.1653 -0.0902 -0.6985
  798MPD2    C211756   4.174   3.412  17.686  0.1746 -0.4728  0.2612
  798MPD2    C311757   4.255   3.383   0.097 -1.1159 -0.3331 -0.0026
  798MPD2    C411758   4.293   3.482   0.185  0.0778  0.4216  1.2695
  798MPD2    C511759   4.242   3.610   0.173 -0.2088  0.6377  0.2424
  798MPD2     H11760   4.139   3.332  17.622 -1.6429  1.1107 -0.7009
  798MPD2    H111761   4.352   3.456   0.272  1.0534 -0.6065  0.3056
  798MPD2    H211762   4.123   3.745   0.064 -2.1009 -0.8757 -0.6595
  798MPD2    H311763   4.269   3.678   0.254 -0.2616  1.6637 -0.6030
  798MPD2     N11764   4.301   3.250   0.112  0.3474  0.3247 -0.4502
  798MPD2    H511765   4.270   3.194   0.034  1.5211  1.3303 -1.6565
  798MPD2    N111766   4.024   3.576  17.581  0.3187  0.1329 -0.7105
  798MPD2    H711767   3.973   3.664  17.581 -1.4034 -0.8661 -0.8507
  799MPD2     C11768   3.356   4.410  14.524 -0.3962  0.1496 -0.0721
  799MPD2    C111769   3.220   4.400  14.563  0.4928 -0.7797  0.9383
  799MPD2    C211770   3.132   4.498  14.530 -0.2841  0.1367 -0.2935
  799MPD2    C311771   3.175   4.600  14.448  0.2440  0.0782  0.3736
  799MPD2    C411772   3.305   4.611  14.408  0.6585  0.4269 -0.7792
  799MPD2    C511773   3.395   4.521  14.460  0.1551 -0.0220  0.0754
  799MPD2     H11774   3.030   4.497  14.568  0.0031  0.6906  0.4805
  799MPD2    H111775   3.331   4.701  14.353  2.3763 -0.0552 -0.7713
  799MPD2    H211776   3.432   4.336  14.543  0.3062  0.4524 -1.6243
  799MPD2    H311777   3.502   4.533  14.445  0.4904 -0.7503  1.9418
  799MPD2     N11778   3.087   4.685  14.388 -0.0806 -0.1469 -0.0560
  799MPD2    H511779   3.119   0.047  14.345  2.2333 -1.7712 -1.5675
  799MPD2    N111780   3.167   4.285  14.628  0.3128 -0.1742  0.4276
  799MPD2    H711781   3.067   4.287  14.645 -0.4126 -1.3943 -3.7165
  800MPD2     C11782   3.236   0.926  14.430  0.4731 -0.0446  0.0216
  800MPD2    C111783   3.330   0.953  14.335 -0.1855  0.0363  0.0752
  800MPD2    C211784   3.305   0.918  14.203 -0.4456 -0.1409  1.0805
  800MPD2    C311785   3.194   0.855  14.157  0.0743 -0.5237  0.3584
  800MPD2    C411786   3.101   0.837  14.255 -0.3154  0.6069 -0.2604
  800MPD2    C511787   3.124   0.855  14.388  0.3350  0.3822  0.2941
  800MPD2     H11788   3.393   0.936  14.143 -0.9132  0.6301  0.6239
  800MPD2    H111789   3.005   0.791  14.233 -0.5221  0.6998  0.4498
  800MPD2    H211790   3.245   0.950  14.536  1.2360 -0.4187  0.0404
  800MPD2    H311791   3.043   0.836  14.458  0.3947  2.3262  0.9034
  800MPD2     N11792   3.171   0.832  14.018 -0.4361  0.2986  0.2877
  800MPD2    H511793   3.245   0.862  13.955 -2.0395  0.4410 -1.5377
  800MPD2    N111794   3.448   1.018  14.376  0.1895 -0.1490 -0.1681
  800MPD2    H711795   3.463   1.030  14.475 -2.6320  1.4313  0.0813
  801MPD2     C11796   3.502   1.500  14.869 -0.1942 -0.0709  0.0862
  801MPD2    C111797   3.459   1.478  14.739  0.2520  0.2443 -0.4262
  801MPD2    C211798   3.334   1.515  14.704  0.1480  0.0083 -0.2411
  801MPD2    C311799   3.240   1.566  14.794 -0.0643 -0.1879 -0.0309
  801MPD2    C411800   3.286   1.587  14.920  0.1165  0.1026  0.7082
  801MPD2    C511801   3.419   1.570  14.952 -0.2578  0.1682 -0.6272
  801MPD2     H11802   3.294   1.492  14.607  0.5735 -1.7201 -0.0100
  801MPD2    H111803   3.224   1.621  15.002 -0.1768 -0.2298  0.6278
  801MPD2    H211804   3.599   1.472  14.908 -1.3117 -0.4160  2.6837
  801MPD2    H311805   3.456   1.590  15.052  1.2912  0.5380 -1.2820
  801MPD2     N11806   3.104   1.578  14.768  0.2004  0.3224  0.3596
  801MPD2    H511807   3.052   1.629  14.839 -2.9524 -2.0414 -0.2969
  801MPD2    N111808   3.530   1.406  14.644 -0.1712  0.4835  0.3556
  801MPD2    H711809   3.483   1.394  14.555  0.8955 -0.5576 -0.0711
  802MPD2     C11810   2.870   1.223   0.057 -0.0988 -0.0397 -0.3260
  802MPD2    C111811   2.825   1.345   0.011  0.1130 -0.3526 -0.0954
  802MPD2    C211812   2.837   1.377  17.575 -0.6629 -0.7139 -0.4248
  802MPD2    C311813   2.886   1.281  17.483  0.2540  0.0741  0.2112
  802MPD2    C411814   2.910   1.156  17.530  0.1714  0.1465 -0.3803
  802MPD2    C511815   2.900   1.129  17.664 -0.2482  0.3441 -0.1662
  802MPD2     H11816   2.789   1.467  17.539  1.7196  0.5472 -0.3652
  802MPD2    H111817   2.929   1.073  17.463  0.0021 -0.1483 -0.0603
  802MPD2    H211818   2.874   1.190   0.161 -2.2288  0.2632 -0.1593
  802MPD2    H311819   2.923   1.026  17.687  1.2452 -0.0273 -3.2972
  802MPD2     N11820   2.899   1.321  17.351 -0.5978 -0.2921 -0.5011
  802MPD2    H511821   2.872   1.417  17.331  0.0997  0.1516  0.7588
  802MPD2    N111822   2.766   1.445   0.089  0.5488 -0.1351  0.1253
  802MPD2    H711823   2.740   1.529   0.037 -3.5283 -2.9448 -2.3612
  803MPD2     C11824   4.429   4.355  12.026  0.6323  0.7168  0.0036
  803MPD2    C111825   4.390   4.442  12.122  0.4289 -0.4905 -0.5858
  803MPD2    C211826   4.296   4.400  12.211 -0.3366  0.6569 -0.2589
  803MPD2    C311827   4.241   4.273  12.184  0.6074 -0.4085  0.0703
  803MPD2    C411828   4.280   4.188  12.077  0.1012  0.0296  0.2955
  803MPD2    C511829   4.379   4.231  12.001  1.1116  0.0791 -0.7843
  803MPD2     H11830   4.283   4.451  12.306  0.0739  0.4832 -0.1089
  803MPD2    H111831   4.244   4.087  12.060  0.0685 -0.1270  1.3099
  803MPD2    H211832   4.519   4.380  11.972  0.3942  1.0650 -0.2358
  803MPD2    H311833   4.426   4.173  11.922 -2.5486  1.6620 -4.1050
  803MPD2     N11834   4.143   4.207  12.261  0.1191  0.1938  0.3094
  803MPD2    H511835   4.117   4.110  12.243  1.4641  0.0459 -0.8231
  803MPD2    N111836   4.449   4.570  12.141  0.0647  0.3873  0.3020
  803MPD2    H711837   4.422   4.609  12.231  0.9308  3.9064 -0.9935
  804MPD2     C11838   3.480   1.827  17.003 -0.1586  0.1873 -0.3128
  804MPD2    C111839   3.469   1.794  17.137 -0.0708 -0.2620  0.0118
  804MPD2    C211840   3.529   1.875  17.230  0.4373 -0.1231 -0.4908
  804MPD2    C311841   3.604   1.986  17.194  0.1515 -0.0604  0.2436
  804MPD2    C411842   3.624   2.001  17.056 -0.0630  0.5110 -0.3845
  804MPD2    C511843   3.562   1.927  16.959 -0.7197  0.7410  0.4672
  804MPD2     H11844   3.530   1.847  17.335 -1.1928  1.1272 -0.1433
  804MPD2    H111845   3.691   2.076  17.015  1.6482 -0.3672  0.8354
  804MPD2    H211846   3.439   1.768  16.922 -0.6330 -1.5720  1.1887
  804MPD2    H311847   3.568   1.959  16.856  3.1082  1.1344  0.8235
  804MPD2     N11848   3.672   2.066  17.287 -0.7433 -0.5495 -0.1717
  804MPD2    H511849   3.736   2.137  17.253 -0.6687 -0.9615 -0.8997
  804MPD2    N111850   3.417   1.669  17.180 -0.8565 -0.6586 -0.4783
  804MPD2    H711851   3.436   1.637  17.275 -0.8896  3.3254  0.8845
  805MPD2     C11852   2.339   4.421  15.339 -0.3053  0.4575  0.4042
  805MPD2    C111853   2.436   4.467  15.252 -0.2781 -0.5248  0.2319
  805MPD2    C211854   2.542   4.522  15.322  0.4363 -0.2511 -0.3221
  805MPD2    C311855   2.562   4.537  15.455  0.3440 -0.4622  0.4764
  805MPD2    C411856   2.464   4.487  15.534  0.0784  0.0460  0.4284
  805MPD2    C511857   2.352   4.437  15.475  0.0949  0.1781  0.1741
  805MPD2     H11858   2.625   4.555  15.261  0.5164 -0.2533 -0.2144
  805MPD2    H111859   2.469   4.468  15.640  1.6649  0.2076  0.3853
  805MPD2    H211860   2.247   4.378  15.301 -0.9900  0.7112  1.7435
  805MPD2    H311861   2.276   4.392  15.538  0.3997  0.0179  0.4272
  805MPD2     N11862   2.683   4.578  15.508  0.3408 -0.2674 -0.1322
  805MPD2    H511863   2.760   4.600  15.446 -1.2281  1.4846 -1.4537
  805MPD2    N111864   2.441   4.453  15.112  0.4648  0.7548  0.0706
  805MPD2    H711865   2.513   4.506  15.064 -0.6919  0.0410 -2.4959
  806MPD2     C11866   3.234   4.293   0.720  0.1606  0.3068  0.0102
  806MPD2    C111867   3.207   4.398   0.803 -0.1035  0.3064  0.8022
  806MPD2    C211868   3.199   4.525   0.754 -0.0509 -0.3007  0.2929
  806MPD2    C311869   3.234   4.553   0.623  0.0296 -0.0127  0.2003
  806MPD2    C411870   3.245   4.447   0.533  0.2591 -0.5307 -0.4891
  806MPD2    C511871   3.247   4.326   0.587  0.5063  0.5695 -0.1194
  806MPD2     H11872   3.181   4.604   0.827  0.4253  0.1544 -0.0886
  806MPD2    H111873   3.259   4.456   0.426 -1.1220 -3.1708 -0.8814
  806MPD2    H211874   3.248   4.191   0.752 -0.1070 -0.0021 -0.8555
  806MPD2    H311875   3.280   4.248   0.520  0.3701 -1.4228  2.1439
  806MPD2     N11876   3.246   4.686   0.582 -0.1607 -0.1859  0.6896
  806MPD2    H511877   3.211   0.032   0.648  0.2743 -1.7295  2.5594
  806MPD2    N111878   3.197   4.366   0.941  0.0827  0.3959  0.6122
  806MPD2    H711879   3.238   4.277   0.967 -1.4801  0.0768  2.0105
  807MPD2     C11880   2.794   4.132   1.575 -0.3733  0.6643  0.2740
  807MPD2    C111881   2.932   4.129   1.607  0.0338 -0.1388  0.0212
  807MPD2    C211882   2.985   4.035   1.690 -0.2280  0.1402  0.2419
  807MPD2    C311883   2.906   3.934   1.743 -0.9273  0.1059  0.4364
  807MPD2    C411884   2.768   3.932   1.715  0.5023 -0.2325  0.0751
  807MPD2    C511885   2.720   4.028   1.630 -0.3606  0.4224 -0.0040
  807MPD2     H11886   3.089   4.034   1.719  0.0794  0.1316 -0.8556
  807MPD2    H111887   2.699   3.860   1.757 -0.4871  1.4696  1.3640
  807MPD2    H211888   2.734   4.208   1.527  0.4842 -0.7887 -3.0885
  807MPD2    H311889   2.615   4.017   1.606 -0.0306 -0.5499 -0.9711
  807MPD2     N11890   2.965   3.838   1.823  0.3813 -0.7681  0.0546
  807MPD2    H511891   3.065   3.831   1.838  0.3940  2.2939  1.5131
  807MPD2    N111892   3.023   4.222   1.558  0.3360 -1.1243  0.3579
  807MPD2    H711893   3.121   4.208   1.583  0.5546 -0.9660 -0.3981
  808MPD2     C11894   0.133   3.289   9.018 -0.0733 -0.3462 -0.4166
  808MPD2    C111895   0.101   3.419   9.041  0.1740 -0.0258 -0.1806
  808MPD2    C211896   0.190   3.509   8.988  0.2601  0.6774 -0.2604
  808MPD2    C311897   0.303   3.471   8.921  0.1728  0.3343  0.0622
  808MPD2    C411898   0.334   3.339   8.899 -0.5530 -0.7120  0.7313
  808MPD2    C511899   0.239   3.246   8.940 -0.4340 -0.6024  0.4215
  808MPD2     H11900   0.173   3.616   8.998 -1.6612  0.3934 -0.3617
  808MPD2    H111901   0.418   3.308   8.839 -0.5509  0.8506 -0.0731
  808MPD2    H211902   0.074   3.207   9.057  0.8078 -0.5755  0.3989
  808MPD2    H311903   0.261   3.140   8.927  1.8229 -0.3326  2.0349
  808MPD2     N11904   0.382   3.569   8.860 -0.2307  0.1762  0.2038
  808MPD2    H511905   0.360   3.666   8.880  0.8825  0.3091  0.7857
  808MPD2    N111906   4.718   3.478   9.110  0.4769 -0.2458  0.5249
  808MPD2    H711907   4.721   3.578   9.094  1.4753  0.2418  3.8398
  809MPD2     C11908   1.376   3.566   8.882  0.8902 -0.5949 -0.9825
  809MPD2    C111909   1.318   3.660   8.962  0.2252 -0.4032  0.3199
  809MPD2    C211910   1.189   3.705   8.934 -0.4867 -0.0843 -0.5703
  809MPD2    C311911   1.119   3.643   8.836  0.3558  0.2563  0.2098
  809MPD2    C411912   1.181   3.544   8.754 -0.4109 -0.2242 -0.3904
  809MPD2    C511913   1.310   3.508   8.780  0.0193 -0.3859  0.3543
  809MPD2     H11914   1.148   3.788   8.991  1.3531  0.4214  0.0250
  809MPD2    H111915   1.122   3.496   8.676 -0.0637  0.3823 -1.0351
  809MPD2    H211916   1.476   3.532   8.907  0.7674 -1.0086 -1.0532
  809MPD2    H311917   1.354   3.431   8.717  1.4021 -0.9551  2.0168
  809MPD2     N11918   0.979   3.672   8.794 -0.7246 -0.4798 -0.1612
  809MPD2    H511919   0.941   3.605   8.727 -1.4878  0.7204 -0.9284
  809MPD2    N111920   1.391   3.723   9.064 -0.0146 -0.1353 -0.5615
  809MPD2    H711921   1.348   3.805   9.105 -0.6645 -0.5314 -0.4415
  810MPD2     C11922   3.330   0.018  10.233 -0.3829  0.6788  0.0686
  810MPD2    C111923   3.364   4.617  10.210  0.3529 -0.9075 -0.8360
  810MPD2    C211924   3.494   4.589  10.229  0.3717  0.8222 -0.2669
  810MPD2    C311925   3.584   4.675  10.289 -0.0808  0.0451  0.6915
  810MPD2    C411926   3.545   0.079  10.316  0.7879 -0.5072 -0.3264
  810MPD2    C511927   3.422   0.114  10.279  0.3517  0.2153  0.0089
  810MPD2     H11928   3.528   4.487  10.210 -0.1441  0.5752  0.1392
  810MPD2    H111929   3.614   0.147  10.365  1.0403 -1.0039  0.0054
  810MPD2    H211930   3.228   0.053  10.220  0.1064  2.1234  0.1248
  810MPD2    H311931   3.384   0.215  10.279  0.3239  0.2002 -1.1331
  810MPD2     N11932   3.709   4.639  10.334 -0.3506 -0.0387  0.2169
  810MPD2    H511933   3.751   4.691  10.411  0.8631  0.6959 -0.9245
  810MPD2    N111934   3.260   4.528  10.172  0.2041 -0.1641 -0.2062
  810MPD2    H711935   3.168   4.569  10.163  0.2257  0.0874  0.7205
  811MPD2     C11936   2.533   4.376   9.752  0.5399  0.1816  0.0624
  811MPD2    C111937   2.635   4.450   9.805 -0.4763  0.3314  0.4641
  811MPD2    C211938   2.631   4.591   9.807  0.5355 -0.0962 -0.7109
  811MPD2    C311939   2.522   4.652   9.747  0.3269  0.4801 -0.4533
  811MPD2    C411940   2.413   4.582   9.713 -0.7035 -0.0523  0.4516
  811MPD2    C511941   2.418   4.445   9.718  0.4481 -0.5655 -0.6980
  811MPD2     H11942   2.711   4.654   9.845 -0.3737  0.6665 -0.0611
  811MPD2    H111943   2.327   4.626   9.664 -0.0225 -2.2312 -2.7332
  811MPD2    H211944   2.524   4.269   9.769 -0.0230  0.0930 -0.8281
  811MPD2    H311945   2.332   4.388   9.685 -0.4618  0.6895 -0.5041
  811MPD2     N11946   2.519   0.072   9.745  0.3275  0.2242 -0.8936
  811MPD2    H511947   2.608   0.114   9.770 -0.2604  0.8545  0.1403
  811MPD2    N111948   2.741   4.382   9.874  0.0102 -0.7250  0.1789
  811MPD2    H711949   2.726   4.285   9.899 -0.8198 -0.2378  1.5291
  812MPD2     C11950   2.406   4.328  12.461  0.5084  0.0908 -0.3845
  812MPD2    C111951   2.299   4.366  12.530 -0.4142  0.4372  0.1003
  812MPD2    C211952   2.265   4.291  12.642  0.0531  0.7194 -0.2210
  812MPD2    C311953   2.330   4.174  12.675 -0.0630 -0.3711  0.0395
  812MPD2    C411954   2.444   4.140  12.597  0.7978  0.1686 -0.1686
  812MPD2    C511955   2.467   4.212  12.490 -0.1826  0.1368 -0.6719
  812MPD2     H11956   2.184   4.330  12.702  0.3202  2.0043 -0.7119
  812MPD2    H111957   2.505   4.052  12.611 -0.6430 -0.9236 -0.7748
  812MPD2    H211958   2.439   4.391  12.379  0.2570 -0.3521 -0.8253
  812MPD2    H311959   2.546   4.183  12.422 -0.3970 -0.8472 -0.5069
  812MPD2     N11960   2.289   4.099  12.783  0.0985  0.0946 -0.5791
  812MPD2    H511961   2.216   4.137  12.842 -0.4504 -1.4678 -0.2581
  812MPD2    N111962   2.242   4.494  12.503  0.0414 -0.1814  0.3878
  812MPD2    H711963   2.298   4.546  12.437 -0.0169  1.0271  1.2892
  813MPD2     C11964   1.036   1.869  12.957  0.1389 -0.2023 -0.4713
  813MPD2    C111965   1.145   1.855  13.043 -0.2267  0.0958 -0.8987
  813MPD2    C211966   1.134   1.875  13.181  0.1996 -0.5987 -1.0497
  813MPD2    C311967   1.017   1.938  13.223 -0.2899 -0.3867 -0.1884
  813MPD2    C411968   0.920   1.978  13.132  0.1328 -0.2561 -0.1904
  813MPD2    C511969   0.930   1.942  13.005 -0.3619  0.0900  0.7498
  813MPD2     H11970   1.215   1.845  13.246  0.9499 -1.8067 -2.5511
  813MPD2    H111971   0.834   2.034  13.165 -0.4062 -1.0966 -0.1753
  813MPD2    H211972   1.038   1.851  12.850 -0.3631 -1.2007 -0.3042
  813MPD2    H311973   0.851   1.970  12.937 -0.5189 -2.0861  0.0227
  813MPD2     N11974   1.005   1.968  13.367  0.6370  0.4615 -0.4290
  813MPD2    H511975   1.084   1.935  13.421  0.8350 -0.6208 -1.3686
  813MPD2    N111976   1.271   1.811  12.995  0.0083  0.7702  0.5869
  813MPD2    H711977   1.341   1.785  13.064  0.0173  1.4327  0.8337
  814MPD2     C11978   1.742   2.998  12.364 -0.1341  0.2900  0.1752
  814MPD2    C111979   1.763   3.058  12.241 -0.6744 -0.0539  1.0692
  814MPD2    C211980   1.844   3.166  12.233  0.0127 -0.1397 -0.3060
  814MPD2    C311981   1.904   3.219  12.350 -0.0514 -0.0043 -0.1210
  814MPD2    C411982   1.875   3.162  12.474  0.0499  0.3073 -0.9645
  814MPD2    C511983   1.787   3.051  12.481 -0.0814 -0.0747 -0.2213
  814MPD2     H11984   1.855   3.212  12.135  0.3618  0.7994  0.1759
  814MPD2    H111985   1.912   3.190  12.572 -0.4544  0.6071 -0.8593
  814MPD2    H211986   1.671   2.918  12.380  1.9430 -1.7975 -0.9871
  814MPD2    H311987   1.760   3.003  12.575  0.5282 -0.3283 -0.1732
  814MPD2     N11988   1.998   3.324  12.351 -0.2066 -0.0453  0.2877
  814MPD2    H511989   2.031   3.362  12.439  0.8024 -0.3681  0.0601
  814MPD2    N111990   1.716   3.020  12.118 -0.2777  0.2525  0.2928
  814MPD2    H711991   1.754   3.073  12.040  0.4506 -0.2638  0.2939
  815MPD2     C11992   2.275   1.716  12.023  0.0921  1.0003  0.6973
  815MPD2    C111993   2.197   1.626  11.947  0.4696 -0.2670  0.5811
  815MPD2    C211994   2.086   1.573  12.015 -0.0189 -0.1232  0.4990
  815MPD2    C311995   2.051   1.607  12.146  0.6111 -0.2365 -0.0675
  815MPD2    C411996   2.127   1.700  12.214 -0.3928  0.9432 -0.5868
  815MPD2    C511997   2.239   1.755  12.153  0.5856  0.2716 -0.4094
  815MPD2     H11998   2.029   1.499  11.961 -0.6187 -0.6686  1.8875
  815MPD2    H111999   2.108   1.734  12.315 -1.3148 -0.3155 -0.3378
  815MPD2    H212000   2.371   1.747  11.984 -1.5840  1.3325 -3.0717
  815MPD2    H312001   2.309   1.820  12.204 -0.0806  0.5427  0.1519
  815MPD2     N12002   1.946   1.547  12.199  0.0254  0.0431 -0.5941
  815MPD2    H512003   1.881   1.495  12.141  0.0510 -0.4966 -0.1363
  815MPD2    N112004   2.247   1.585  11.821  0.0176 -0.2792 -0.3412
  815MPD2    H712005   2.341   1.612  11.795  0.3827 -1.2869 -0.0887
  816MPD2     C12006   1.478   1.223  17.250  0.6773  0.1577  0.0890
  816MPD2    C112007   1.590   1.296  17.280 -0.7095 -0.1459 -0.6029
  816MPD2    C212008   1.713   1.234  17.286  0.6346  0.2732 -0.3867
  816MPD2    C312009   1.725   1.099  17.277  0.0040  0.4598  0.1134
  816MPD2    C412010   1.615   1.020  17.255 -0.2907 -0.4927 -0.1298
  816MPD2    C512011   1.492   1.084  17.234 -0.1586 -0.4029  0.7039
  816MPD2     H12012   1.800   1.298  17.295  0.1817  0.8232  0.0166
  816MPD2    H112013   1.613   0.912  17.256  0.1848 -0.5151 -1.1998
  816MPD2    H212014   1.380   1.268  17.256  1.4266  1.7560  0.4394
  816MPD2    H312015   1.400   1.028  17.243  0.0236 -0.8665 -0.3605
  816MPD2     N12016   1.859   1.041  17.284 -0.1346 -0.0363  0.2018
  816MPD2    H512017   1.937   1.100  17.311  1.0876 -1.6549  0.1671
  816MPD2    N112018   1.570   1.427  17.313  0.1401 -0.0807  0.3346
  816MPD2    H712019   1.474   1.459  17.309 -0.3357 -1.5938 -0.2737
  817MPD2     C12020   1.353   1.861  10.219  0.2805  0.5573 -0.0857
  817MPD2    C112021   1.425   1.892  10.104  0.4034 -0.1292  0.4940
  817MPD2    C212022   1.367   1.974  10.007  0.8625  1.3884  0.0146
  817MPD2    C312023   1.247   2.036  10.028  0.5471  0.1042  0.2818
  817MPD2    C412024   1.171   2.007  10.139  0.0226  0.1830 -0.4537
  817MPD2    C512025   1.223   1.921  10.226 -0.2362  0.4795 -0.1390
  817MPD2     H12026   1.419   2.009   9.919  1.6892 -0.0693 -0.0780
  817MPD2    H112027   1.067   2.040  10.144 -0.5764 -1.7423 -0.0031
  817MPD2    H212028   1.394   1.795  10.295  0.4939  0.4033 -0.3377
  817MPD2    H312029   1.165   1.888  10.311  1.4598  0.0199  0.8408
  817MPD2     N12030   1.216   2.137   9.932  0.2920  0.0886 -0.0303
  817MPD2    H512031   1.279   2.158   9.855  1.7429 -1.8805  0.6198
  817MPD2    N112032   1.549   1.834  10.077  0.5962 -0.0083 -0.5707
  817MPD2    H712033   1.580   1.856   9.983 -0.3292 -2.0092 -1.3553
  818MPD2     C12034   0.188   1.176   9.731  0.1710  0.2446 -0.5430
  818MPD2    C112035   0.225   1.151   9.862 -0.5931  0.6709 -0.5286
  818MPD2    C212036   0.354   1.122   9.890  0.2609  0.3123 -0.3572
  818MPD2    C312037   0.450   1.119   9.795  0.2645  0.5741  0.0832
  818MPD2    C412038   0.411   1.120   9.662  1.1127 -0.3640 -0.2192
  818MPD2    C512039   0.282   1.156   9.628 -0.2486  0.5323  0.1231
  818MPD2     H12040   0.374   1.098   9.994 -0.4022  2.3682  0.2371
  818MPD2    H112041   0.483   1.098   9.584  1.5069 -0.8618  0.2871
  818MPD2    H212042   0.089   1.210   9.702  0.1509  0.5139 -0.1515
  818MPD2    H312043   0.240   1.166   9.529  0.5205 -2.7798 -0.5415
  818MPD2     N12044   0.579   1.081   9.829  0.6931  0.1457  0.2560
  818MPD2    H512045   0.644   1.054   9.755 -1.1499  0.9744 -1.6635
  818MPD2    N112046   0.132   1.168   9.966 -0.2394 -0.4347 -0.6841
  818MPD2    H712047   0.161   1.169  10.063 -1.1419 -1.1887 -0.4039
  819MPD2     C12048   3.442   4.259  15.712  0.4342  0.0434  0.4634
  819MPD2    C112049   3.497   4.161  15.631 -1.0210 -0.0504  0.0705
  819MPD2    C212050   3.629   4.116  15.666 -0.5140  1.1016 -0.3025
  819MPD2    C312051   3.691   4.156  15.789  0.5230 -0.8205  0.5095
  819MPD2    C412052   3.624   4.251  15.864  0.2132  0.4536 -0.0738
  819MPD2    C512053   3.503   4.307  15.822 -0.2789  0.1118  0.7221
  819MPD2     H12054   3.684   4.050  15.600 -2.0602 -1.4439  0.9734
  819MPD2    H112055   3.666   4.288  15.957  2.3860  0.3889 -1.0060
  819MPD2    H212056   3.345   4.302  15.688  1.4884  1.5178 -1.2076
  819MPD2    H312057   3.455   4.397  15.859 -0.9627  0.3392 -0.7343
  819MPD2     N12058   3.824   4.116  15.819  0.3140  0.0295 -1.1752
  819MPD2    H512059   3.871   4.060  15.749  1.3404  0.9305 -1.2007
  819MPD2    N112060   3.410   4.108  15.532  0.1507 -0.4067  0.7226
  819MPD2    H712061   3.317   4.150  15.524  0.9688  1.4094  0.6634
  820MPD2     C12062   2.976   4.431  14.883 -0.1600 -0.1656  0.4662
  820MPD2    C112063   2.898   4.318  14.903 -0.0099  0.7697 -0.5493
  820MPD2    C212064   2.941   4.215  14.983  0.1754  0.1378  0.5803
  820MPD2    C312065   3.055   4.234  15.054 -0.7149 -0.3317 -0.4929
  820MPD2    C412066   3.130   4.346  15.038  0.3577 -0.2179 -0.6060
  820MPD2    C512067   3.090   4.440  14.950  0.8127 -0.5244 -0.4469
  820MPD2     H12068   2.878   4.128  14.999  0.0882  0.0782 -0.1062
  820MPD2    H112069   3.228   4.356  15.083  0.0262  3.2230 -0.5764
  820MPD2    H212070   2.946   4.514  14.821  4.7337  2.1175  1.2224
  820MPD2    H312071   3.137   4.535  14.926 -0.9974  0.1272 -1.3986
  820MPD2     N12072   3.105   4.148  15.143  0.7477 -0.4895 -0.2380
  820MPD2    H512073   3.192   4.175  15.188  0.8464 -2.0758  0.5199
  820MPD2    N112074   2.777   4.312  14.840 -0.6158 -0.2794 -0.3066
  820MPD2    H712075   2.757   4.395  14.785 -2.5708  0.4352  1.4861
  821MPD2     C12076   2.974   0.838  13.239 -0.4659 -1.1317  0.5577
  821MPD2    C112077   3.080   0.773  13.293  0.0068 -0.4615 -0.2522
  821MPD2    C212078   3.202   0.762  13.226 -0.9592 -0.0861  0.1656
  821MPD2    C312079   3.216   0.830  13.106 -0.2390 -0.2054  0.1375
  821MPD2    C412080   3.109   0.893  13.052  0.0142 -0.0374 -0.1538
  821MPD2    C512081   2.990   0.897  13.121 -0.6612  0.0394 -0.5564
  821MPD2     H12082   3.280   0.698  13.267 -1.6711 -0.8998  0.2537
  821MPD2    H112083   3.118   0.938  12.954  1.3512  2.0787  0.9429
  821MPD2    H212084   2.877   0.840  13.288 -1.0562  0.4372 -0.6507
  821MPD2    H312085   2.897   0.938  13.085 -0.4186 -0.3922 -1.6840
  821MPD2     N12086   3.342   0.838  13.037  0.2526 -0.7393  0.3127
  821MPD2    H512087   3.339   0.891  12.951 -2.6138 -1.9420 -0.3285
  821MPD2    N112088   3.070   0.701  13.413  0.1154  0.3000 -0.3445
  821MPD2    H712089   3.155   0.655  13.442  1.0171  0.5123 -2.6530
  822MPD2     C12090   3.911   0.920  15.762  0.6044  0.4796  0.2786
  822MPD2    C112091   4.010   0.968  15.848 -0.4369 -0.0749  0.3261
  822MPD2    C212092   3.988   1.092  15.910  0.0225  0.3075 -0.1441
  822MPD2    C312093   3.875   1.162  15.898 -0.0239 -0.7860  0.0512
  822MPD2    C412094   3.777   1.119  15.813 -0.4218 -0.3667  0.1385
  822MPD2    C512095   3.798   1.000  15.741  1.0722 -0.0056  0.1441
  822MPD2     H12096   4.065   1.127  15.978 -0.3355  0.4248  0.2013
  822MPD2    H112097   3.692   1.180  15.784  0.5870  0.8505 -0.2403
  822MPD2    H212098   3.907   0.822  15.715 -1.5119  0.0877  1.2757
  822MPD2    H312099   3.726   0.953  15.675  0.0248 -0.9206  1.9375
  822MPD2     N12100   3.865   1.276  15.981  0.2666 -0.1214  0.2615
  822MPD2    H512101   3.943   1.301  16.041 -0.2186  1.1020  0.3678
  822MPD2    N112102   4.111   0.882  15.893  0.2808  0.7246  0.1276
  822MPD2    H712103   4.149   0.915  15.981  1.2596 -1.3002  0.4503
  823MPD2     C12104   3.632   1.515  16.804  0.3093 -0.1908  0.0663
  823MPD2    C112105   3.607   1.439  16.694  0.6690 -0.0606  0.1835
  823MPD2    C212106   3.577   1.304  16.708 -0.4598  0.9226  0.4116
  823MPD2    C312107   3.593   1.242  16.831  0.6664  0.0052 -0.7249
  823MPD2    C412108   3.618   1.315  16.940  0.5282 -0.1533  0.0875
  823MPD2    C512109   3.632   1.453  16.927 -0.4749  0.1611  0.4376
  823MPD2     H12110   3.547   1.250  16.619  0.8772  0.0243  0.5071
  823MPD2    H112111   3.618   1.272  17.040  2.5800 -2.1721 -0.7748
  823MPD2    H212112   3.651   1.621  16.800 -2.0495  0.2210 -0.5111
  823MPD2    H312113   3.643   1.524  17.008 -2.2338  2.7845 -1.5724
  823MPD2     N12114   3.598   1.100  16.836  0.4590  0.3266  0.2724
  823MPD2    H512115   3.595   1.053  16.926 -0.1966  2.4253  1.3459
  823MPD2    N112116   3.611   1.507  16.566  0.4675 -0.4731 -0.2384
  823MPD2    H712117   3.640   1.603  16.554 -0.0788 -0.7055 -3.4292
  824MPD2     C12118   4.230   0.120  15.612 -0.1721  0.4468 -0.5778
  824MPD2    C112119   4.309   0.156  15.724 -0.1870 -0.3259 -0.0345
  824MPD2    C212120   4.413   0.064  15.749 -0.1766  0.0738  0.2801
  824MPD2    C312121   4.437   4.681  15.666 -0.0702 -0.3248  0.4021
  824MPD2    C412122   4.343   4.649  15.566 -0.3585  0.2787 -0.0614
  824MPD2    C512123   4.242   0.006  15.543 -0.0283  0.1513 -0.3162
  824MPD2     H12124   4.485   0.088  15.827 -0.0214  0.7945 -0.0862
  824MPD2    H112125   4.360   4.562  15.503  2.3043  1.0597 -0.4170
  824MPD2    H212126   4.147   0.186  15.588 -3.9173 -3.5013  1.5150
  824MPD2    H312127   4.163   4.703  15.473 -2.6476 -1.5121  3.2663
  824MPD2     N12128   4.558   4.605  15.672 -0.3441  0.1599 -0.0568
  824MPD2    H512129   4.581   4.539  15.598  0.8325  1.1354 -0.5690
  824MPD2    N112130   4.284   0.280  15.787  0.3358  0.3011  0.3726
  824MPD2    H712131   4.212   0.341  15.750 -0.8233 -1.5292 -0.3826
  825MPD2     C12132   0.532   4.268  15.318  0.0775 -0.0106  0.2293
  825MPD2    C112133   0.451   4.373  15.341 -0.3453  0.0013  0.1110
  825MPD2    C212134   0.466   4.496  15.282 -0.0858 -0.0359 -0.1166
  825MPD2    C312135   0.576   4.512  15.195 -0.1999  0.0146  0.0862
  825MPD2    C412136   0.645   4.403  15.147 -0.3946 -0.2565  0.0811
  825MPD2    C512137   0.622   4.285  15.213  0.2123 -0.6251  0.1133
  825MPD2     H12138   0.406   4.579  15.319 -1.3991 -0.7503 -0.6486
  825MPD2    H112139   0.721   4.410  15.070 -1.5242  1.0264 -0.9273
  825MPD2    H212140   0.526   4.174  15.371 -1.3202  0.2219  0.4707
  825MPD2    H312141   0.702   4.215  15.194  0.1626 -1.0565  1.4593
  825MPD2     N12142   0.606   4.638  15.141  0.4336 -0.7644  0.3157
  825MPD2    H512143   0.655   4.644  15.053 -1.0920 -1.6610 -0.6022
  825MPD2    N112144   0.356   4.355  15.448  0.0897  0.6045 -0.1082
  825MPD2    H712145   0.357   4.277  15.513 -1.3720 -0.5317 -1.4304
  826MPD2     C12146   4.624   4.272  13.448 -0.0589 -0.0190 -0.3316
  826MPD2    C112147   4.708   4.372  13.407 -0.1506 -0.2682 -0.0482
  826MPD2    C212148   4.679   4.499  13.453  0.2554  0.3696  0.0590
  826MPD2    C312149   4.569   4.530  13.529 -0.3537 -0.0959  0.5102
  826MPD2    C412150   4.494   4.432  13.583 -0.6398  0.1574 -0.7689
  826MPD2    C512151   4.526   4.302  13.543 -0.3044 -0.3359  0.0316
  826MPD2     H12152   0.026   4.578  13.435 -0.4267  0.8502 -0.5583
  826MPD2    H112153   4.414   4.456  13.651  0.4612 -1.0406  0.9392
  826MPD2    H212154   4.639   4.172  13.408  1.5628  0.9798 -2.2110
  826MPD2    H312155   4.471   4.215  13.575 -1.2230  0.7177  1.3134
  826MPD2     N12156   4.547   4.666  13.558 -0.5511  0.6603 -0.5591
  826MPD2    H512157   4.481   4.686  13.633 -2.0349 -3.8717 -0.6515
  826MPD2    N112158   0.084   4.341  13.310 -0.0087 -0.1693  0.4766
  826MPD2    H712159   0.108   4.243  13.295  1.0553  0.1849 -0.1926
  827MPD2     C12160   0.823   0.529  10.324 -0.4261 -0.0427  0.2632
  827MPD2    C112161   0.890   0.412  10.352 -0.0175 -0.5655 -0.7547
  827MPD2    C212162   0.867   0.300  10.270  0.0249 -0.2762  0.0710
  827MPD2    C312163   0.768   0.304  10.173 -0.5017  0.2083 -0.8402
  827MPD2    C412164   0.696   0.423  10.150  0.3658  0.3669  0.3654
  827MPD2    C512165   0.719   0.525  10.232  0.6657 -0.0907  0.0788
  827MPD2     H12166   0.929   0.211  10.274  2.4886  1.4561  0.3902
  827MPD2    H112167   0.612   0.428  10.081  0.2936  2.7003  0.6402
  827MPD2    H212168   0.854   0.627  10.359 -0.8816  0.9650 -2.1825
  827MPD2    H312169   0.661   0.617  10.230 -0.7429 -0.9705  0.4635
  827MPD2     N12170   0.750   0.197  10.080 -0.3562  0.1232  0.0555
  827MPD2    H512171   0.829   0.133  10.077  0.8917  1.6340  0.5375
  827MPD2    N112172   0.998   0.420  10.446 -0.8455  0.5699 -0.5196
  827MPD2    H712173   1.016   0.511  10.486  0.3491  0.0006  0.2579
  828MPD2     C12174   4.146   0.715  12.627  0.7115 -0.4361 -0.5255
  828MPD2    C112175   4.112   0.707  12.493  0.1362  0.0533 -0.5681
  828MPD2    C212176   4.218   0.683  12.404 -0.2662  0.2739 -0.4893
  828MPD2    C312177   4.349   0.650  12.454 -0.4943 -0.5013 -0.3320
  828MPD2    C412178   4.375   0.666  12.590  0.1808 -0.6622  0.5348
  828MPD2    C512179   4.272   0.698  12.668  0.3871  1.1007 -0.1485
  828MPD2     H12180   4.203   0.683  12.297 -0.2574  0.5510 -0.4899
  828MPD2    H112181   4.473   0.632  12.622  1.4823  1.5168 -1.1085
  828MPD2    H212182   4.075   0.738  12.706  1.2388 -1.4742  0.2417
  828MPD2    H312183   4.286   0.706  12.775 -1.5178  1.5605  0.0802
  828MPD2     N12184   4.457   0.610  12.368 -0.3305  0.9093 -0.1274
  828MPD2    H512185   4.548   0.610  12.413 -0.6546 -1.4355  0.5126
  828MPD2    N112186   3.983   0.712  12.444  0.2328 -0.5297 -0.1834
  828MPD2    H712187   3.978   0.702  12.343 -1.3680  0.6697 -0.2359
  829MPD2     C12188   3.944   0.824  11.608 -0.1402  0.2018 -0.1978
  829MPD2    C112189   3.811   0.848  11.631  0.0403 -0.6339  0.2823
  829MPD2    C212190   3.764   0.837  11.761  0.2359  0.1861 -0.7203
  829MPD2    C312191   3.850   0.791  11.858 -0.3671  0.4528 -0.0075
  829MPD2    C412192   3.988   0.767  11.835 -0.5639 -0.4090 -0.4963
  829MPD2    C512193   4.037   0.791  11.711 -0.0993 -0.9208  0.2593
  829MPD2     H12194   3.660   0.857  11.786  1.2422 -0.4609  3.9333
  829MPD2    H112195   4.069   0.747  11.905 -0.5543  0.4435 -0.2552
  829MPD2    H212196   3.978   0.835  11.506  0.6166  1.0383  0.1427
  829MPD2    H312197   4.143   0.786  11.689 -0.0116  0.1274  0.4093
  829MPD2     N12198   3.808   0.773  11.992 -0.2999 -0.5580  0.0573
  829MPD2    H512199   3.881   0.739  12.054 -2.4491 -0.1893  2.7670
  829MPD2    N112200   3.733   0.875  11.519 -0.4345 -0.5636  0.9033
  829MPD2    H712201   3.777   0.883  11.428  0.1692  0.0771  1.2494
  830MPD2     C12202   4.184   4.103  15.329  0.6063 -0.2170  0.0405
  830MPD2    C112203   4.260   4.146  15.433  0.4484  0.0215  0.1648
  830MPD2    C212204   4.357   4.243  15.413 -0.5211  0.2131  0.7020
  830MPD2    C312205   4.384   4.288  15.284 -0.2102 -0.2465 -0.0767
  830MPD2    C412206   4.293   4.248  15.184 -0.4997 -0.2729 -0.9327
  830MPD2    C512207   4.197   4.156  15.209  0.4289  0.4309  0.4661
  830MPD2     H12208   4.400   4.294  15.499  0.2287 -0.6128  0.8189
  830MPD2    H112209   4.302   4.289  15.084 -1.3870  3.0972  0.3768
  830MPD2    H212210   4.105   4.031  15.348  0.4237  0.0066  0.1360
  830MPD2    H312211   4.123   4.129  15.135  0.0712  0.2646  0.8817
  830MPD2     N12212   4.476   4.388  15.245 -0.4196 -0.4831 -0.2375
  830MPD2    H512213   4.468   4.407  15.145 -0.6028 -1.3883 -0.3926
  830MPD2    N112214   4.222   4.107  15.558 -0.6706  0.3353 -0.1753
  830MPD2    H712215   4.142   4.045  15.555 -1.6457  1.6257 -1.0299
  831MPD2     C12216   4.093   1.325  16.560 -0.9568 -0.0454 -0.1700
  831MPD2    C112217   4.087   1.307  16.419  0.3777 -0.1859 -0.4025
  831MPD2    C212218   3.968   1.253  16.359 -0.8810 -0.2355  0.2082
  831MPD2    C312219   3.867   1.207  16.441  0.0377  0.2618  0.7805
  831MPD2    C412220   3.878   1.238  16.579 -0.1776 -0.2257 -0.2520
  831MPD2    C512221   3.984   1.302  16.638 -0.0012  0.1820  0.2456
  831MPD2     H12222   3.948   1.255  16.253 -0.9455  1.4628  0.2659
  831MPD2    H112223   3.798   1.199  16.642 -1.3886  1.6849 -0.6230
  831MPD2    H212224   4.181   1.355  16.615 -1.6964  2.0830 -0.1346
  831MPD2    H312225   3.996   1.298  16.746  1.7167  0.8671  0.0966
  831MPD2     N12226   3.754   1.137  16.386 -0.2207  0.2479  0.0017
  831MPD2    H512227   3.676   1.112  16.447  0.3489  0.5722  0.8662
  831MPD2    N112228   4.195   1.345  16.332 -0.3226 -0.3784 -0.3538
  831MPD2    H712229   4.282   1.372  16.376 -0.9949  1.2169  0.0063
  832MPD2     C12230   2.750   2.168  17.411  0.4217 -0.5144  0.4945
  832MPD2    C112231   2.752   2.308  17.392 -0.0175  0.1611  0.4148
  832MPD2    C212232   2.642   2.377  17.331 -0.2309  0.4443 -0.4565
  832MPD2    C312233   2.544   2.294  17.269 -0.4909  0.1605 -0.1833
  832MPD2    C412234   2.545   2.157  17.295 -0.4537 -0.3673 -0.3275
  832MPD2    C512235   2.643   2.097  17.371 -0.3355 -0.2759  0.6789
  832MPD2     H12236   2.645   2.483  17.309 -1.7403  0.7069  0.6139
  832MPD2    H112237   2.461   2.101  17.257 -0.8160 -0.5237  0.7080
  832MPD2    H212238   2.830   2.111  17.457  0.4603 -1.5738 -0.9115
  832MPD2    H312239   2.650   1.990  17.385 -0.9627  0.0701  3.7274
  832MPD2     N12240   2.433   2.344  17.201  0.7142 -0.6725  0.2315
  832MPD2    H512241   2.350   2.285  17.190  0.5971 -0.6677  1.0542
  832MPD2    N112242   2.871   2.371  17.429  0.0818 -0.4787  0.8469
  832MPD2    H712243   2.944   2.311  17.467  0.0986 -0.3488  1.0216
  833MPD2     C12244   0.101   2.832  12.528 -1.0545 -0.7057 -0.0626
  833MPD2    C112245   0.176   2.880  12.421  1.1343 -0.0364 -0.0328
  833MPD2    C212246   0.205   2.805  12.311  0.0549 -0.5889 -0.1745
  833MPD2    C312247   0.156   2.677  12.302 -0.4284 -1.0381  0.0120
  833MPD2    C412248   0.086   2.626  12.413  0.0281  0.4979 -0.5715
  833MPD2    C512249   0.057   2.701  12.527  0.6741 -0.5713 -1.1884
  833MPD2     H12250   0.254   2.850  12.225  1.3521 -0.1634  0.7912
  833MPD2    H112251   0.065   2.520  12.408  2.1390  0.0451  0.1176
  833MPD2    H212252   0.077   2.880  12.622  1.5722  0.9388 -0.2451
  833MPD2    H312253   0.003   2.665  12.614  0.4581 -0.7573 -1.3996
  833MPD2     N12254   0.185   2.587  12.198 -0.5752 -0.4536 -0.0966
  833MPD2    H512255   0.146   2.494  12.208 -1.8832  0.1672  0.5447
  833MPD2    N112256   0.204   3.024  12.419  0.2994  0.3845 -0.5926
  833MPD2    H712257   0.182   3.078  12.502 -0.7916  0.9877 -1.2784
  834MPD2     C12258   4.455   2.214  11.384 -0.6016 -0.2657 -0.2827
  834MPD2    C112259   4.571   2.139  11.390 -0.7237 -0.6313  0.6404
  834MPD2    C212260   4.671   2.183  11.475  0.6631 -0.3957 -0.0090
  834MPD2    C312261   4.655   2.289  11.562  1.1745  0.0236  0.2907
  834MPD2    C412262   4.540   2.360  11.554  0.6752 -0.3619 -0.6640
  834MPD2    C512263   4.444   2.326  11.464  0.8359  0.8969  0.2847
  834MPD2     H12264   0.033   2.118  11.481 -0.4618 -1.8498  0.2726
  834MPD2    H112265   4.518   2.444  11.620 -1.4550 -0.2731 -1.4934
  834MPD2    H212266   4.367   2.182  11.330 -1.2223  0.6206  0.2050
  834MPD2    H312267   4.356   2.389  11.456  2.2646  3.1205  1.8141
  834MPD2     N12268   0.034   2.320  11.653  0.4518 -0.1184  0.2141
  834MPD2    H512269   0.120   2.271  11.633 -1.2051 -2.5049 -1.1031
  834MPD2    N112270   4.593   2.029  11.308  0.2389  0.0625  0.6221
  834MPD2    H712271   4.676   1.973  11.321  0.1417  0.0853  1.3174
  835MPD2     C12272   0.218   0.455  11.021 -0.2103  0.2437  0.6308
  835MPD2    C112273   0.095   0.515  11.010 -0.2756  0.1277 -0.0334
  835MPD2    C212274   0.049   0.600  11.112 -0.5819  0.2761 -0.2655
  835MPD2    C312275   0.134   0.640  11.211 -0.7756  0.7308 -0.4787
  835MPD2    C412276   0.263   0.594  11.210 -0.8655  0.5538  0.0879
  835MPD2    C512277   0.304   0.504  11.115 -0.2115 -0.2453 -0.1118
  835MPD2     H12278   4.669   0.627  11.112 -0.8364 -0.7743  1.9798
  835MPD2    H112279   0.332   0.626  11.288 -0.5998  1.4324 -0.5114
  835MPD2    H212280   0.250   0.379  10.951  0.1482  1.5527 -0.6130
  835MPD2    H312281   0.408   0.474  11.109  0.4078  1.7430  0.9207
  835MPD2     N12282   0.089   0.730  11.317 -0.3805  0.0041  0.3372
  835MPD2    H512283   0.151   0.765  11.389  0.5836 -3.9943  1.4695
  835MPD2    N112284   4.722   0.470  10.915 -0.1279  0.0663  0.0203
  835MPD2    H712285   4.636   0.524  10.909  0.2637  0.6369 -0.5164
  836MPD2     C12286   4.184   1.194  11.332  0.8051  0.4265 -0.0180
  836MPD2    C112287   4.200   1.143  11.460 -0.5675  0.5222  0.2694
  836MPD2    C212288   4.103   1.163  11.560 -0.0871  0.4839 -0.2830
  836MPD2    C312289   3.978   1.228  11.530 -0.2616  0.0991  0.0066
  836MPD2    C412290   3.965   1.278  11.405  0.2625 -0.0847 -0.0688
  836MPD2    C512291   4.069   1.272  11.312  0.0178 -0.4472 -0.9134
  836MPD2     H12292   4.112   1.117  11.658  0.9323 -0.1417 -0.6703
  836MPD2    H112293   3.875   1.335  11.383  1.2760  1.4343 -0.3452
  836MPD2    H212294   4.249   1.169  11.249  2.4446 -1.0608  1.7332
  836MPD2    H312295   4.076   1.317  11.214 -1.8468  0.0071 -0.8319
  836MPD2     N12296   3.858   1.216  11.616  0.8001 -0.5390  0.4585
  836MPD2    H512297   3.767   1.249  11.586  1.0887 -0.1294  0.0504
  836MPD2    N112298   4.320   1.077  11.480 -0.3491  0.7059 -0.0049
  836MPD2    H712299   4.384   1.081  11.401  0.2017  1.5798  0.4840
  837MPD2     C12300   2.648   0.738  10.090 -0.1563 -0.6137 -0.7584
  837MPD2    C112301   2.595   0.765   9.961  0.9294 -0.0637  0.1596
  837MPD2    C212302   2.539   0.894   9.958 -0.4891 -0.2794 -0.2656
  837MPD2    C312303   2.538   0.986  10.061  0.2929  0.7790 -1.1432
  837MPD2    C412304   2.592   0.956  10.182 -0.0995 -0.4468  0.5480
  837MPD2    C512305   2.648   0.834  10.191 -0.7693 -0.3123 -0.1161
  837MPD2     H12306   2.488   0.924   9.867 -0.8369 -2.1062 -0.6752
  837MPD2    H112307   2.627   1.032  10.251  1.1306  0.6748 -1.3123
  837MPD2    H212308   2.693   0.643  10.113  1.6382  0.0553 -1.5225
  837MPD2    H312309   2.690   0.802  10.286 -0.2409  0.6197 -0.0360
  837MPD2     N12310   2.474   1.106  10.041  0.3726 -0.2814  0.1707
  837MPD2    H512311   2.416   1.116   9.958  0.0441  0.1014  0.4450
  837MPD2    N112312   2.587   0.678   9.850  0.1307 -0.3324  0.2861
  837MPD2    H712313   2.549   0.711   9.762  1.8571  1.7062  0.3005
  838MPD2     C12314   1.196   3.162  11.377  0.1067  0.0578  0.1587
  838MPD2    C112315   1.172   3.261  11.476 -0.4885 -0.3803  0.0550
  838MPD2    C212316   1.084   3.233  11.576  0.1805 -0.1657 -0.3195
  838MPD2    C312317   1.014   3.112  11.572  0.0877  0.3931 -0.1571
  838MPD2    C412318   1.020   3.025  11.468 -0.0388 -0.1946  0.0171
  838MPD2    C512319   1.123   3.050  11.375  0.7508  0.5872 -0.4425
  838MPD2     H12320   1.066   3.300  11.660 -0.4342 -0.2962 -0.3434
  838MPD2    H112321   0.974   2.928  11.454 -1.8681  1.0157 -2.3603
  838MPD2    H212322   1.265   3.167  11.293 -1.5640  0.9154 -1.1625
  838MPD2    H312323   1.139   2.990  11.286 -0.2174  1.5967 -1.2931
  838MPD2     N12324   0.923   3.097  11.677  0.0209 -0.0683 -0.1358
  838MPD2    H512325   0.925   3.157  11.759  0.4181 -1.2149  0.7022
  838MPD2    N112326   1.240   3.380  11.488  0.2349 -0.3487 -0.4163
  838MPD2    H712327   1.215   3.439  11.567  2.1966 -1.8520  1.3357
  839MPD2     C12328   1.244   2.978  11.995 -0.4387 -0.4437  0.6104
  839MPD2    C112329   1.237   2.987  11.853  0.3078 -0.2997  0.3931
  839MPD2    C212330   1.299   3.088  11.784 -0.1989 -0.2415  0.4540
  839MPD2    C312331   1.370   3.180  11.858 -0.4537  0.6284  0.2604
  839MPD2    C412332   1.367   3.178  11.998 -0.6064  0.3352 -0.8654
  839MPD2    C512333   1.313   3.069  12.065  0.8109 -0.4794  0.1330
  839MPD2     H12334   1.288   3.094  11.676 -1.8709 -1.4320  0.5508
  839MPD2    H112335   1.409   3.265  12.048  0.2607 -0.3424 -0.4062
  839MPD2    H212336   1.202   2.900  12.058 -1.0690 -0.8647 -0.3233
  839MPD2    H312337   1.320   3.065  12.173 -1.8736  0.8050  0.3453
  839MPD2     N12338   1.443   3.281  11.778  0.2738 -0.0468 -0.5165
  839MPD2    H512339   1.425   3.272  11.679  2.6061  0.6940 -0.9916
  839MPD2    N112340   1.162   2.898  11.774 -0.5791  0.4856  0.6107
  839MPD2    H712341   1.147   2.926  11.678 -1.3031  1.3760  0.9853
  840MPD2     C12342   1.340   0.880  10.438  0.8938  0.1325 -1.3175
  840MPD2    C112343   1.389   0.825  10.554 -0.3513  0.0604 -0.3107
  840MPD2    C212344   1.473   0.898  10.638 -0.5048 -0.0623  0.6815
  840MPD2    C312345   1.504   1.031  10.616 -0.4339  1.1218 -0.5601
  840MPD2    C412346   1.447   1.084  10.497 -0.3597 -0.1897 -0.5245
  840MPD2    C512347   1.368   1.009  10.414  0.3088 -0.3867  0.2005
  840MPD2     H12348   1.522   0.851  10.723 -2.7820 -2.0643  0.8763
  840MPD2    H112349   1.469   1.186  10.468 -2.4001  0.5894  0.6542
  840MPD2    H212350   1.286   0.814  10.371  0.6504 -0.6367 -0.3755
  840MPD2    H312351   1.334   1.058  10.323 -1.7366 -0.4643  0.9444
  840MPD2     N12352   1.582   1.116  10.695  0.6865 -0.7048 -0.4894
  840MPD2    H512353   1.606   1.206  10.655 -2.3972  0.0257 -0.7627
  840MPD2    N112354   1.346   0.694  10.582 -0.3398 -0.1261 -0.7334
  840MPD2    H712355   1.298   0.647  10.506 -2.0144 -1.2702  1.0430
  841MPD2     C12356   1.135   1.901  14.751 -0.3853  0.1935 -0.8928
  841MPD2    C112357   1.186   1.782  14.782 -0.2647  0.6777  0.1042
  841MPD2    C212358   1.280   1.781  14.882  0.3258 -0.2906  0.3853
  841MPD2    C312359   1.322   1.894  14.951  0.1439 -0.0312 -0.2792
  841MPD2    C412360   1.261   2.014  14.918 -0.8917 -0.1123 -0.5061
  841MPD2    C512361   1.167   2.017  14.822 -0.4904 -0.9801  0.1777
  841MPD2     H12362   1.332   1.692  14.915 -0.3229 -1.2497 -1.1913
  841MPD2    H112363   1.298   2.110  14.951 -1.3854  0.6416 -2.1492
  841MPD2    H212364   1.072   1.911  14.662 -2.1792 -0.6185  0.2837
  841MPD2    H312365   1.131   2.112  14.785  1.1082 -0.9064 -1.1759
  841MPD2     N12366   1.430   1.884  15.043  0.1785  0.0594 -0.1837
  841MPD2    H512367   1.479   1.795  15.041  1.1185  0.5549  0.3657
  841MPD2    N112368   1.138   1.673  14.717 -0.6883 -0.4943 -0.2186
  841MPD2    H712369   1.055   1.677  14.660  0.0322 -0.3190 -1.2539
  842MPD2     C12370   1.813   2.966  16.440  0.4478  0.6121  0.0145
  842MPD2    C112371   1.685   2.930  16.460  1.0752  0.5382 -0.7258
  842MPD2    C212372   1.654   2.850  16.575 -0.1999  0.2308  0.7641
  842MPD2    C312373   1.754   2.820  16.665  0.4502 -0.1902 -0.1556
  842MPD2    C412374   1.877   2.862  16.640  0.6760  0.0967 -0.2970
  842MPD2    C512375   1.907   2.941  16.538  0.0433 -0.0661  0.6274
  842MPD2     H12376   1.549   2.836  16.601 -0.1722 -2.5332 -0.5841
  842MPD2    H112377   1.950   2.838  16.716  1.3556 -1.2254 -1.3696
  842MPD2    H212378   1.845   3.032  16.360  1.7991 -0.7484 -0.5724
  842MPD2    H312379   2.010   2.973  16.529  0.0363 -1.4846 -4.3321
  842MPD2     N12380   1.747   2.743  16.785 -0.6507 -0.0938  0.2352
  842MPD2    H512381   1.821   2.743  16.854  1.0784 -2.7032 -1.6421
  842MPD2    N112382   1.588   2.986  16.375  0.0722  0.4221  0.1471
  842MPD2    H712383   1.624   3.051  16.305 -2.2650  0.1703 -1.2904
  843MPD2     C12384   3.008   2.994   0.360  0.1119  0.1817 -0.1986
  843MPD2    C112385   3.108   2.905   0.331 -0.3028 -0.2652  0.4548
  843MPD2    C212386   3.228   2.949   0.305 -0.6111 -0.4188 -0.5881
  843MPD2    C312387   3.263   3.084   0.313  0.6875  0.2476 -0.0001
  843MPD2    C412388   3.167   3.172   0.354 -0.2807 -0.6383  0.5682
  843MPD2    C512389   3.041   3.125   0.367  0.0451 -1.0758 -0.2724
  843MPD2     H12390   3.303   2.880   0.266  3.1502  2.7551  1.0659
  843MPD2    H112391   3.171   3.280   0.353 -0.5924 -0.6106  2.3081
  843MPD2    H212392   2.908   2.953   0.366  0.5039 -0.7985 -0.4747
  843MPD2    H312393   2.962   3.197   0.386  2.3756  1.2168  0.6501
  843MPD2     N12394   3.391   3.137   0.299 -0.2799 -0.3279  0.6795
  843MPD2    H512395   3.398   3.237   0.314 -0.8653 -0.2075  0.1168
  843MPD2    N112396   3.073   2.762   0.323 -0.0925 -0.2357 -0.8055
  843MPD2    H712397   2.985   2.731   0.362  0.6065 -3.2116 -1.6290
  844MPD2     C12398   1.896   1.816  16.485  0.3749  0.0662  0.4323
  844MPD2    C112399   2.020   1.760  16.496  0.6093 -0.0149 -0.3649
  844MPD2    C212400   2.119   1.838  16.550 -0.4079 -0.0843 -0.3736
  844MPD2    C312401   2.103   1.967  16.599 -0.0502  0.5489  0.2255
  844MPD2    C412402   1.975   2.021  16.594 -0.3963 -0.4357 -0.2048
  844MPD2    C512403   1.882   1.943  16.535 -0.4701 -0.2015  0.6949
  844MPD2     H12404   2.215   1.791  16.565 -0.1015  0.3007 -1.1298
  844MPD2    H112405   1.955   2.123  16.625  1.8130  0.2807 -1.1392
  844MPD2    H212406   1.809   1.764  16.446  1.1561  0.2332 -1.5571
  844MPD2    H312407   1.783   1.986  16.521  0.4026  0.7718 -2.3944
  844MPD2     N12408   2.213   2.032  16.665  0.3314  0.3846  0.2256
  844MPD2    H512409   2.299   1.981  16.680  0.3965  0.5913  0.5467
  844MPD2    N112410   2.061   1.639  16.434 -0.0095 -0.5479 -0.3985
  844MPD2    H712411   2.159   1.614  16.437 -0.0841 -0.5830  2.1152
  845MPD2     C12412   2.693   2.983  16.814  0.0545 -0.2587  0.2620
  845MPD2    C112413   2.729   2.902  16.919 -0.1904 -0.0036 -0.0717
  845MPD2    C212414   2.723   2.763  16.904  0.0909  0.3315  0.6773
  845MPD2    C312415   2.662   2.711  16.783  0.0624  0.4041 -0.3554
  845MPD2    C412416   2.624   2.802  16.686  0.3784 -0.3747  0.3913
  845MPD2    C512417   2.642   2.938  16.697 -0.1888  0.0422 -0.0048
  845MPD2     H12418   2.742   2.701  16.991 -2.3025 -0.5156  0.5848
  845MPD2    H112419   2.579   2.769  16.594  0.2933  1.2261 -0.1507
  845MPD2    H212420   2.684   3.090  16.827  0.8750 -0.3021  1.1571
  845MPD2    H312421   2.606   3.010  16.625 -2.3069 -2.7369 -1.6944
  845MPD2     N12422   2.638   2.574  16.780 -0.8147 -0.6031  0.2910
  845MPD2    H512423   2.673   2.523  16.861 -4.2556 -0.3973  1.9254
  845MPD2    N112424   2.758   2.977  17.037 -0.5736 -0.4656 -0.7074
  845MPD2    H712425   2.767   3.079  17.034 -2.0725 -0.2366  2.2259
  846MPD2     C12426   4.295   2.814  13.530 -0.3024 -0.4223 -0.2951
  846MPD2    C112427   4.213   2.924  13.547  0.2403  0.0507  0.5329
  846MPD2    C212428   4.149   2.946  13.670  0.2396  0.1694  0.2749
  846MPD2    C312429   4.161   2.856  13.774 -0.0945 -0.1373  0.2789
  846MPD2    C412430   4.230   2.741  13.759  0.1223 -0.1553 -0.1307
  846MPD2    C512431   4.303   2.731  13.643 -0.2561  0.6452  0.4564
  846MPD2     H12432   4.093   3.037  13.687 -0.4586  0.1197 -1.6877
  846MPD2    H112433   4.235   2.661  13.832 -0.9838 -1.0681 -1.0553
  846MPD2    H212434   4.362   2.803  13.445 -1.8057  3.3975 -1.9757
  846MPD2    H312435   4.370   2.647  13.631  1.4618  1.8102  1.6724
  846MPD2     N12436   4.097   2.891  13.893  0.9506  0.0946  0.1153
  846MPD2    H512437   4.030   2.967  13.892  0.8023 -0.0580 -1.3884
  846MPD2    N112438   4.210   3.027  13.452 -0.3054  0.4082 -0.7097
  846MPD2    H712439   4.175   3.115  13.487  1.2502  0.3368  1.0587
  847MPD2     C12440   4.413   4.332  13.894  0.0175  0.7962 -0.4062
  847MPD2    C112441   4.494   4.380  13.998 -0.2762  0.0301 -0.0303
  847MPD2    C212442   4.556   4.286  14.079  0.4142 -0.9384 -0.1141
  847MPD2    C312443   4.538   4.150  14.064  0.2234  0.0297 -0.1445
  847MPD2    C412444   4.467   4.098  13.951 -0.2691  0.4276  0.1757
  847MPD2    C512445   4.413   4.194  13.874 -0.0023  0.0050 -0.4625
  847MPD2     H12446   4.618   4.320  14.160 -0.2059  1.6945 -0.7443
  847MPD2    H112447   4.453   3.994  13.924  1.0011  0.2059  0.3674
  847MPD2    H212448   4.343   4.387  13.832  2.5651  1.4301 -2.7188
  847MPD2    H312449   4.361   4.153  13.788 -1.0929  0.7642 -0.1656
  847MPD2     N12450   4.584   4.052  14.155 -0.3947 -0.2245 -0.0333
  847MPD2    H512451   4.549   3.960  14.132  2.8752 -1.4461 -0.2359
  847MPD2    N112452   4.507   4.514  14.034  0.1416  0.4520  0.0306
  847MPD2    H712453   4.563   4.534  14.116 -0.5281 -0.2177  0.6483
  848MPD2     C12454   2.292   2.861  16.556  0.4257 -0.3176  0.0809
  848MPD2    C112455   2.275   2.878  16.692 -0.4946 -0.3847  0.3501
  848MPD2    C212456   2.245   3.007  16.746 -0.3223  0.4307  1.0859
  848MPD2    C312457   2.234   3.109  16.656 -0.8499  0.7331 -0.7005
  848MPD2    C412458   2.261   3.089  16.528  0.2075 -0.6893 -0.7565
  848MPD2    C512459   2.290   2.971  16.472 -0.0390 -0.3878  0.2547
  848MPD2     H12460   2.219   3.022  16.850 -1.9008  0.2931  0.7106
  848MPD2    H112461   2.271   3.165  16.451  1.5563 -0.8164 -0.7054
  848MPD2    H212462   2.321   2.763  16.518  1.8701 -0.0020  0.3840
  848MPD2    H312463   2.296   2.956  16.365 -2.0780  1.4670 -0.1141
  848MPD2     N12464   2.219   3.244  16.695  0.2310  0.4846 -0.2088
  848MPD2    H512465   2.224   3.319  16.627  0.4698 -0.3702 -1.1388
  848MPD2    N112466   2.261   2.776  16.788  0.0934 -0.1694 -0.2524
  848MPD2    H712467   2.268   2.798  16.886 -2.6727  0.1238 -0.1062
  849MPD2     C12468   1.308   2.294  14.282 -0.3186  0.4753 -0.0256
  849MPD2    C112469   1.442   2.243  14.284  0.5325 -0.8704 -0.4857
  849MPD2    C212470   1.485   2.195  14.404  0.2440  0.0311 -0.3422
  849MPD2    C312471   1.420   2.201  14.521  0.6135 -0.6624  0.1945
  849MPD2    C412472   1.303   2.265  14.522 -0.2583 -0.1557  0.0270
  849MPD2    C512473   1.248   2.311  14.403  0.0328  0.6203 -0.3791
  849MPD2     H12474   1.583   2.147  14.397 -0.5115 -1.8186  1.5838
  849MPD2    H112475   1.247   2.284  14.613 -1.4262 -0.0778 -0.7082
  849MPD2    H212476   1.266   2.336  14.191  2.0951 -0.1047 -1.3920
  849MPD2    H312477   1.150   2.358  14.406 -0.6712 -0.8641  0.1758
  849MPD2     N12478   1.474   2.140  14.640 -0.2112 -0.2230 -0.2328
  849MPD2    H512479   1.462   2.191  14.727 -0.0292 -2.6574  1.2398
  849MPD2    N112480   1.520   2.237  14.170  0.0139  0.6071  0.1192
  849MPD2    H712481   1.618   2.217  14.188 -0.0524  0.0566 -0.1247
  850MPD2     C12482   4.321   0.833  14.491 -0.4002  0.3705  0.0959
  850MPD2    C112483   4.240   0.859  14.597  0.6239  0.2466 -0.2377
  850MPD2    C212484   4.300   0.866  14.720  0.6537  0.3667 -0.4998
  850MPD2    C312485   4.423   0.817  14.745 -0.8979  0.4274  0.3520
  850MPD2    C412486   4.504   0.793  14.635 -0.4398  0.2887 -0.3897
  850MPD2    C512487   4.452   0.794  14.507  1.0710 -0.4095 -0.1274
  850MPD2     H12488   4.245   0.908  14.804  0.4671 -0.7710 -0.0581
  850MPD2    H112489   4.598   0.740  14.650 -0.9397 -0.6780 -0.6658
  850MPD2    H212490   4.286   0.832  14.388  0.3731 -0.6186 -0.1638
  850MPD2    H312491   4.506   0.756  14.421  0.5229  1.1691 -1.1662
  850MPD2     N12492   4.485   0.819  14.868  0.6870  0.3185 -0.0729
  850MPD2    H512493   4.561   0.753  14.872  0.0149 -0.4753 -0.4566
  850MPD2    N112494   4.109   0.899  14.567 -0.2500  0.2595 -0.3702
  850MPD2    H712495   4.085   0.924  14.472  0.5520  0.0183 -0.6395
  851MPD2     C12496   4.197   0.598  15.351  0.0455  0.0847 -0.0937
  851MPD2    C112497   4.200   0.553  15.223 -1.2606 -0.1714 -0.3543
  851MPD2    C212498   4.262   0.433  15.196 -0.0777 -0.2564  0.1955
  851MPD2    C312499   4.322   0.358  15.294  0.2747  0.0864  0.1940
  851MPD2    C412500   4.329   0.410  15.427 -0.3144 -0.0368 -0.8937
  851MPD2    C512501   4.257   0.521  15.447 -0.3679  0.5612 -0.4226
  851MPD2     H12502   4.267   0.412  15.090  0.0626  0.0804  0.1354
  851MPD2    H112503   4.400   0.369  15.498 -0.6522 -0.0716 -0.5756
  851MPD2    H212504   4.144   0.688  15.381 -1.7892 -1.4045  1.0980
  851MPD2    H312505   4.256   0.562  15.547  2.0992  0.3673 -0.3306
  851MPD2     N12506   4.397   0.248  15.249 -0.1291 -0.3166 -0.6138
  851MPD2    H512507   4.376   0.225  15.153 -0.8405  0.5256 -0.6561
  851MPD2    N112508   4.127   0.627  15.123 -0.7886  0.0876  0.5024
  851MPD2    H712509   4.096   0.719  15.155 -0.0941  0.2284  0.7631
  852MPD2     C12510   4.534   1.684   9.734 -0.4410  0.2860 -0.3776
  852MPD2    C112511   4.507   1.653   9.867 -0.1417  0.0733 -0.5233
  852MPD2    C212512   4.578   1.704   9.976 -0.3625 -0.4618 -0.4494
  852MPD2    C312513   4.686   1.796   9.950 -0.2578 -0.4725 -0.3986
  852MPD2    C412514   4.708   1.824   9.822 -0.1656 -0.2596  0.0879
  852MPD2    C512515   4.634   1.777   9.716 -0.4447 -0.2568 -0.1223
  852MPD2     H12516   4.553   1.683  10.079 -2.1489 -0.1367 -0.8145
  852MPD2    H112517   0.047   1.903   9.783 -1.8385 -0.5038 -3.1760
  852MPD2    H212518   4.490   1.641   9.645  0.9266 -1.4123 -0.2379
  852MPD2    H312519   4.669   1.805   9.617 -0.2522 -1.1348 -0.3042
  852MPD2     N12520   0.022   1.871  10.054 -0.0782  0.6680  0.1577
  852MPD2    H512521   4.710   1.852  10.147  1.9223 -1.7198  0.4639
  852MPD2    N112522   4.402   1.564   9.896 -0.2110  0.4021  0.0830
  852MPD2    H712523   4.395   1.525   9.989  1.1128  1.9649  0.8379
  853MPD2     C12524   1.345   2.083  12.511 -0.8028 -0.2271  0.0639
  853MPD2    C112525   1.206   2.094  12.500  0.2056  0.3239  0.2395
  853MPD2    C212526   1.152   2.053  12.379 -0.2078  0.8539 -0.3889
  853MPD2    C312527   1.228   2.017  12.267  0.0910 -0.0665 -0.4637
  853MPD2    C412528   1.365   2.014  12.282 -0.7493 -0.2453  0.5271
  853MPD2    C512529   1.422   2.048  12.401 -0.6661  0.0353 -0.1751
  853MPD2     H12530   1.047   2.068  12.357 -0.7615 -1.2370  0.8159
  853MPD2    H112531   1.419   1.974  12.197  0.1227 -1.3617  1.6070
  853MPD2    H212532   1.396   2.126  12.596  1.1812 -1.0628 -0.6842
  853MPD2    H312533   1.531   2.047  12.397 -0.6723  1.6636 -0.5460
  853MPD2     N12534   1.179   1.993  12.135 -0.3321 -0.1496  0.1243
  853MPD2    H512535   1.244   2.007  12.058  0.5747  0.2982  0.9765
  853MPD2    N112536   1.135   2.136  12.612  0.3011  0.4829 -0.0720
  853MPD2    H712537   1.189   2.168  12.692 -0.4733  2.7345 -0.4594
  854MPD2     C12538   2.608   1.814  12.928  0.2903  0.1366 -0.0021
  854MPD2    C112539   2.675   1.911  12.848 -0.5346  0.2789 -0.3056
  854MPD2    C212540   2.795   1.959  12.897  0.2029 -0.1235  0.5799
  854MPD2    C312541   2.844   1.908  13.016  0.8739  0.2109  0.5067
  854MPD2    C412542   2.777   1.819  13.099 -0.6522 -0.2954 -0.3098
  854MPD2    C512543   2.657   1.780  13.053 -0.7608 -0.1676 -0.6710
  854MPD2     H12544   2.851   2.036  12.846  1.8344 -0.4717  1.8152
  854MPD2    H112545   2.811   1.773  13.191 -0.9906  0.8155  0.3684
  854MPD2    H212546   2.519   1.760  12.897  0.1803  1.1907 -1.4867
  854MPD2    H312547   2.604   1.706  13.112 -1.6042 -0.9117 -2.3444
  854MPD2     N12548   2.971   1.938  13.056 -0.2925  0.3401 -0.5496
  854MPD2    H512549   2.993   1.893  13.144 -0.7084  2.0745  0.4522
  854MPD2    N112550   2.618   1.954  12.730 -0.2079 -0.0838  0.2362
  854MPD2    H712551   2.521   1.934  12.708 -0.6787  0.4891  1.8392
  855MPD2     C12552   3.577   2.289  13.753  0.3287 -0.4364 -0.2102
  855MPD2    C112553   3.458   2.231  13.734  0.0738 -0.3759  0.4038
  855MPD2    C212554   3.410   2.207  13.604  0.0263 -0.1419  0.4684
  855MPD2    C312555   3.491   2.226  13.496  0.7897 -0.7206  1.1393
  855MPD2    C412556   3.617   2.284  13.519  0.4953  0.4578 -0.4319
  855MPD2    C512557   3.655   2.313  13.643  0.0116  0.4771 -0.6878
  855MPD2     H12558   3.305   2.181  13.595  0.3674 -1.2613 -0.3492
  855MPD2    H112559   3.678   2.315  13.435  1.2236 -0.5717 -0.2747
  855MPD2    H212560   3.601   2.324  13.853  0.3062 -0.8029 -0.0769
  855MPD2    H312561   3.751   2.363  13.655  1.6857 -2.4701 -1.7750
  855MPD2     N12562   3.450   2.206  13.360  0.0982  0.1705  0.4088
  855MPD2    H512563   3.509   2.245  13.286 -0.4235 -0.3112 -0.2566
  855MPD2    N112564   3.378   2.213  13.849  0.6452 -0.5132  0.7728
  855MPD2    H712565   3.422   2.236  13.938 -0.3914 -1.3877  1.5068
  856MPD2     C12566   0.300   3.148  14.061  0.2485 -0.5134  0.0915
  856MPD2    C112567   0.420   3.213  14.058 -0.1510 -0.6771 -0.8557
  856MPD2    C212568   0.428   3.342  14.008  0.3853 -0.1974  0.3812
  856MPD2    C312569   0.311   3.398  13.953  0.7555 -0.3099  0.3808
  856MPD2    C412570   0.199   3.330  13.949 -0.7820  0.0526  0.2113
  856MPD2    C512571   0.190   3.208  14.010 -0.0287 -1.2769 -0.2407
  856MPD2     H12572   0.524   3.391  14.002 -0.2080  1.0096  0.8682
  856MPD2    H112573   0.106   3.368  13.908 -1.4144 -0.0379  1.5578
  856MPD2    H212574   0.293   3.048  14.102 -1.7924 -0.2834  0.3065
  856MPD2    H312575   0.094   3.158  14.022 -0.2629 -1.2074 -1.8947
  856MPD2     N12576   0.309   3.525  13.889  0.2324 -0.3461 -0.5363
  856MPD2    H512577   0.237   3.548  13.822 -0.7704  1.7582  1.2490
  856MPD2    N112578   0.535   3.153  14.103 -0.1060 -0.7272  0.1656
  856MPD2    H712579   0.627   3.192  14.083  0.4950 -0.8287  2.7073
  857MPD2     C12580   1.799   0.226  12.965 -0.9012  0.4346 -0.0905
  857MPD2    C112581   1.934   0.249  12.966 -0.9462 -0.0984  0.1314
  857MPD2    C212582   1.987   0.377  12.989 -0.0701  0.5136  0.5974
  857MPD2    C312583   1.907   0.489  13.002 -0.7873 -1.0392 -0.0805
  857MPD2    C412584   1.769   0.463  12.985 -1.0381  0.5900 -0.3043
  857MPD2    C512585   1.721   0.335  12.974  0.0193  1.4510 -0.3750
  857MPD2     H12586   2.093   0.391  13.001  0.0695 -1.4595  1.7269
  857MPD2    H112587   1.700   0.547  12.992  0.3273  1.8155 -1.6643
  857MPD2    H212588   1.752   0.129  12.959 -1.3774  0.4963  2.3180
  857MPD2    H312589   1.616   0.312  12.962  0.8838 -1.6654 -2.0382
  857MPD2     N12590   1.964   0.614  13.032  0.4831  0.1971 -0.4051
  857MPD2    H512591   2.065   0.625  13.039  0.3720  0.7610  0.2553
  857MPD2    N112592   2.013   0.135  12.950  0.7155 -0.6384  0.0797
  857MPD2    H712593   1.955   0.052  12.936  0.5321 -0.4198 -0.4446
  858MPD2     C12594   1.965   4.541  16.881  0.1871 -0.3837 -0.1278
  858MPD2    C112595   2.095   4.501  16.877  0.5338  0.0406  0.1495
  858MPD2    C212596   2.177   4.542  16.973 -0.4541  0.7400 -1.0929
  858MPD2    C312597   2.134   4.627  17.076 -0.2086 -0.5895  0.8681
  858MPD2    C412598   2.002   4.655  17.088 -0.0388 -0.2472 -0.7715
  858MPD2    C512599   1.918   4.613  16.988 -0.8614  0.0112  0.1251
  858MPD2     H12600   2.282   4.524  16.955 -0.3235 -0.9476  1.3191
  858MPD2    H112601   1.962   4.715  17.168  1.6580  1.1387 -0.9573
  858MPD2    H212602   1.899   4.514  16.799  0.9182  3.5694 -2.0541
  858MPD2    H312603   1.815   4.647  16.977 -0.5256  1.3683  1.1841
  858MPD2     N12604   2.222   4.671  17.183  0.1650  0.2572 -0.3726
  858MPD2    H512605   2.190   0.006  17.259 -0.2987 -0.3946 -0.0478
  858MPD2    N112606   2.163   4.418  16.782 -0.0722 -0.0867  0.9529
  858MPD2    H712607   2.263   4.405  16.789 -0.1073 -0.9310 -0.1873
  859MPD2     C12608   0.687   1.342  15.163 -0.8117  0.2821 -0.5228
  859MPD2    C112609   0.823   1.380  15.165  0.4144 -0.2061  0.7198
  859MPD2    C212610   0.919   1.291  15.203 -0.2521 -0.4150 -0.3160
  859MPD2    C312611   0.883   1.162  15.240 -0.2952  0.2438  0.4651
  859MPD2    C412612   0.748   1.127  15.244 -0.1492  0.0050 -0.0993
  859MPD2    C512613   0.653   1.221  15.213  0.0110  0.5551  0.1422
  859MPD2     H12614   1.023   1.318  15.201 -0.5795  0.7158 -2.0748
  859MPD2    H112615   0.720   1.030  15.282  1.7963  0.6891  3.0769
  859MPD2    H212616   0.613   1.413  15.127  0.0026  1.1731 -0.4642
  859MPD2    H312617   0.554   1.176  15.217  0.0760  0.4361  0.4182
  859MPD2     N12618   0.971   1.067  15.296  0.0700  0.7143 -0.0045
  859MPD2    H512619   0.930   0.977  15.320 -0.1935  1.7157  3.3047
  859MPD2    N112620   0.856   1.514  15.117  0.3344 -0.2277 -0.0708
  859MPD2    H712621   0.777   1.573  15.092  1.7290  0.8108 -1.9964
  860MPD2     C12622   3.866   1.564  11.637 -0.2567 -0.3615  0.2204
  860MPD2    C112623   3.884   1.682  11.702 -0.3118 -0.1719  0.2294
  860MPD2    C212624   3.781   1.771  11.722 -0.1747  0.7851  0.3068
  860MPD2    C312625   3.650   1.733  11.694 -0.5355  0.2072 -0.1133
  860MPD2    C412626   3.633   1.607  11.634  0.0314 -0.2170 -0.2148
  860MPD2    C512627   3.739   1.528  11.608 -0.6250  0.0498 -0.0555
  860MPD2     H12628   3.802   1.871  11.760 -1.0321  1.4182 -0.8754
  860MPD2    H112629   3.535   1.568  11.609 -0.1535  0.4128 -0.4860
  860MPD2    H212630   3.945   1.492  11.617  1.2583  0.9164  1.6518
  860MPD2    H312631   3.730   1.425  11.574  3.4062  0.3649 -2.0930
  860MPD2     N12632   3.532   1.804  11.728  0.3155 -0.4979 -0.6491
  860MPD2    H512633   3.440   1.763  11.712  0.6070 -1.0426 -0.9270
  860MPD2    N112634   4.005   1.711  11.757  0.3455  0.6012 -0.5453
  860MPD2    H712635   4.005   1.799  11.808  4.0503  0.2796 -0.0391
  861MPD2     C12636   3.039   0.437  11.332  0.0426  0.2536 -0.1088
  861MPD2    C112637   2.932   0.455  11.414 -0.3601 -0.0445 -0.0082
  861MPD2    C212638   2.803   0.438  11.362 -0.2970  1.1142 -0.2153
  861MPD2    C312639   2.784   0.400  11.224  0.6960 -0.7032  0.1132
  861MPD2    C412640   2.898   0.376  11.149  0.4185  1.0531 -0.7275
  861MPD2    C512641   3.019   0.409  11.200  0.1217 -0.0449  0.1009
  861MPD2     H12642   2.717   0.451  11.427 -1.2013 -0.4841 -1.0957
  861MPD2    H112643   2.892   0.347  11.045  1.1841 -0.1464 -0.4372
  861MPD2    H212644   3.136   0.458  11.376 -0.4102 -1.4102  1.7089
  861MPD2    H312645   3.104   0.412  11.132  0.0792  1.4805  0.1293
  861MPD2     N12646   2.656   0.394  11.164 -0.4387 -0.1064  0.1016
  861MPD2    H512647   2.655   0.372  11.065 -0.6108 -1.4009  0.3962
  861MPD2    N112648   2.953   0.486  11.550 -0.6169 -0.7049  0.4452
  861MPD2    H712649   2.876   0.524  11.604 -0.2325 -1.3791  1.4784
  862MPD2     C12650   2.413   0.248  10.495  0.2721 -0.4704  0.3590
  862MPD2    C112651   2.452   0.206  10.623 -0.1973 -0.1937 -0.2725
  862MPD2    C212652   2.522   0.082  10.634  0.1131  0.3345  0.2443
  862MPD2    C312653   2.551   0.001  10.527  0.4108 -0.2442  0.1622
  862MPD2    C412654   2.517   0.048  10.408  0.6575  0.1492 -0.4772
  862MPD2    C512655   2.445   0.164  10.395  0.4379 -0.7219 -0.2687
  862MPD2     H12656   2.548   0.043  10.732 -1.7580 -1.8089 -0.1332
  862MPD2    H112657   2.537   4.705  10.326  2.8216 -0.0486  0.2229
  862MPD2    H212658   2.368   0.345  10.476  2.5743 -0.0730 -3.0738
  862MPD2    H312659   2.422   0.181  10.291 -1.0800 -4.0728 -0.4947
  862MPD2     N12660   2.618   4.602  10.538  0.1586  0.1579  0.0682
  862MPD2    H512661   2.617   4.543  10.455 -0.1850 -2.0807  1.6481
  862MPD2    N112662   2.433   0.276  10.746 -0.4847  0.4892 -0.5535
  862MPD2    H712663   2.496   0.268  10.825  0.5641  0.8452 -1.3489
  863MPD2     C12664   0.641   3.324  17.054  0.5928  0.6711 -0.3162
  863MPD2    C112665   0.603   3.439  17.120  0.0911 -0.2689 -0.6961
  863MPD2    C212666   0.667   3.479  17.237 -0.5134  0.4495 -0.0931
  863MPD2    C312667   0.770   3.397  17.292 -0.5194 -0.1927 -0.0910
  863MPD2    C412668   0.804   3.280  17.227  0.1066  0.2111 -0.2848
  863MPD2    C512669   0.733   3.244  17.118  0.4330  0.2369  0.2257
  863MPD2     H12670   0.638   3.568  17.291  0.6024  0.2381  0.8344
  863MPD2    H112671   0.893   3.224  17.255  0.6426  1.0867 -0.2406
  863MPD2    H212672   0.598   3.291  16.960 -2.1594  0.4519  1.0273
  863MPD2    H312673   0.766   3.150  17.075  0.0671 -0.6548  1.8896
  863MPD2     N12674   0.855   3.439  17.392 -0.4390  0.3356  0.7199
  863MPD2    H512675   0.918   3.373  17.436 -1.5786 -0.9055  0.5014
  863MPD2    N112676   0.508   3.517  17.053 -0.0921  0.0324 -0.2124
  863MPD2    H712677   0.486   3.483  16.959  0.3672  0.0179 -0.3183
  864MPD2     C12678   1.278   0.624  17.191 -0.0108  0.3174  0.2352
  864MPD2    C112679   1.253   0.545  17.085  0.1347 -0.1370 -0.7100
  864MPD2    C212680   1.244   0.598  16.956 -0.0767 -0.1341  0.4030
  864MPD2    C312681   1.262   0.735  16.940  0.3742 -0.2813  1.1645
  864MPD2    C412682   1.286   0.812  17.047  0.4878  0.2862 -0.3002
  864MPD2    C512683   1.289   0.758  17.172  0.3176 -0.3919  0.6766
  864MPD2     H12684   1.217   0.542  16.867  0.5060  1.6242 -0.8880
  864MPD2    H112685   1.288   0.920  17.042 -1.5217  0.2944 -0.8242
  864MPD2    H212686   1.281   0.589  17.293 -1.6232  0.8940  0.4735
  864MPD2    H312687   1.290   0.825  17.256  1.7414  1.7368 -1.0360
  864MPD2     N12688   1.268   0.798  16.816 -0.0441  0.0123 -0.7575
  864MPD2    H512689   1.307   0.891  16.811  1.6404 -0.6027  0.7224
  864MPD2    N112690   1.239   0.413  17.118  0.0303 -0.8623  0.1694
  864MPD2    H712691   1.261   0.398  17.216  1.8369 -0.2990 -0.1424
  865MPD2     C12692   1.348   0.515  15.776 -0.1044  0.4115  0.1230
  865MPD2    C112693   1.314   0.449  15.886  0.5748 -0.1313  0.0074
  865MPD2    C212694   1.300   0.519  16.003  0.0156  1.2127  0.5458
  865MPD2    C312695   1.321   0.654  16.008  0.3300  0.0026 -0.2657
  865MPD2    C412696   1.351   0.717  15.893 -0.2314  0.1993 -0.6643
  865MPD2    C512697   1.368   0.651  15.776  0.2923  0.3237 -0.3113
  865MPD2     H12698   1.292   0.460  16.094  1.6595 -0.3797 -0.3302
  865MPD2    H112699   1.363   0.824  15.890  2.0880 -0.1066 -2.3924
  865MPD2    H212700   1.358   0.459  15.683  2.1261  0.0806  0.5576
  865MPD2    H312701   1.395   0.714  15.692 -0.5594 -3.0859 -3.1399
  865MPD2     N12702   1.313   0.730  16.128 -0.9429  0.0615  0.9099
  865MPD2    H512703   1.347   0.825  16.118 -0.6463 -0.2958 -1.5737
  865MPD2    N112704   1.313   0.308  15.880 -0.0504  0.5397  0.1054
  865MPD2    H712705   1.336   0.262  15.793  3.2843  1.3819  0.5429
  866MPD2     C12706   3.271   0.770  11.532  0.7078 -0.9412  0.2350
  866MPD2    C112707   3.231   0.729  11.402  0.6404  0.2358  0.0264
  866MPD2    C212708   3.112   0.777  11.354 -0.1152 -0.3422  1.2122
  866MPD2    C312709   3.027   0.860  11.434  0.0335  0.4322 -0.5366
  866MPD2    C412710   3.074   0.908  11.549 -0.1258 -0.5007  0.4093
  866MPD2    C512711   3.193   0.859  11.597 -0.1106 -0.6023  0.1465
  866MPD2     H12712   3.076   0.756  11.253 -0.7684  1.8146  1.0094
  866MPD2    H112713   3.022   0.988  11.600  1.5805  0.3843  0.7396
  866MPD2    H212714   3.371   0.747  11.566  1.3210  1.7018  0.2161
  866MPD2    H312715   3.231   0.909  11.685  0.7830 -1.2056  0.1007
  866MPD2     N12716   2.892   0.904  11.399 -0.4869  0.3400  0.1543
  866MPD2    H512717   2.863   0.982  11.457 -1.9453 -0.6632  0.7561
  866MPD2    N112718   3.319   0.646  11.329 -0.2387  0.5030 -0.4692
  866MPD2    H712719   3.407   0.621  11.374  0.5789 -0.6033 -2.6909
  867MPD2     C12720   0.270   0.272  16.599 -0.7117 -0.2844 -0.8571
  867MPD2    C112721   0.390   0.262  16.673  0.1184  0.4356  0.3506
  867MPD2    C212722   0.451   0.384  16.710 -0.1508  0.3815 -0.0107
  867MPD2    C312723   0.410   0.502  16.649 -0.0185  0.6346  0.1068
  867MPD2    C412724   0.294   0.508  16.575 -0.0290 -0.4475  0.7631
  867MPD2    C512725   0.228   0.397  16.550  0.2032  0.3731 -0.4139
  867MPD2     H12726   0.540   0.384  16.772  0.4863 -0.2812 -0.9212
  867MPD2    H112727   0.257   0.597  16.526  0.7864 -1.3978 -1.5848
  867MPD2    H212728   0.211   0.183  16.582 -0.2032 -0.9619  0.8953
  867MPD2    H312729   0.141   0.405  16.485 -1.4991 -0.3005  1.7986
  867MPD2     N12730   0.477   0.626  16.675  0.1501  0.0688 -0.1359
  867MPD2    H512731   0.440   0.705  16.623 -2.4472 -1.1750 -0.1704
  867MPD2    N112732   0.416   0.139  16.734 -0.0486 -0.3652 -0.5166
  867MPD2    H712733   0.361   0.061  16.699 -1.6516  0.9312 -0.9351
  868MPD2     C12734   2.520   3.997  13.273 -0.0841 -0.2967  0.1653
  868MPD2    C112735   2.476   3.869  13.282  0.3946 -0.1088  1.1903
  868MPD2    C212736   2.400   3.832  13.397 -0.1663  0.0625  0.1676
  868MPD2    C312737   2.375   3.929  13.494  0.1691 -0.2627  0.1048
  868MPD2    C412738   2.407   4.058  13.476  1.1674 -0.2160 -0.3139
  868MPD2    C512739   2.483   4.092  13.359 -0.3218  0.1725  0.4028
  868MPD2     H12740   2.360   3.734  13.421 -2.1035 -0.2717 -4.4248
  868MPD2    H112741   2.390   4.138  13.547 -0.8562 -1.0480  0.1424
  868MPD2    H212742   2.593   4.020  13.197 -0.7498  0.8156 -0.1374
  868MPD2    H312743   2.509   4.195  13.338  0.1216 -0.3126 -1.4057
  868MPD2     N12744   2.306   3.886  13.606  0.0978  0.4656  0.4517
  868MPD2    H512745   2.249   3.803  13.618  1.4986 -0.6227 -0.5213
  868MPD2    N112746   2.518   3.780  13.184  0.3637  0.4794 -0.0223
  868MPD2    H712747   2.591   3.804  13.118 -1.1076  0.4756 -1.6460
  869MPD2     C12748   3.777   2.421   1.940  0.5597 -0.2667 -0.2276
  869MPD2    C112749   3.787   2.298   1.882 -0.7777 -0.1395  0.1781
  869MPD2    C212750   3.705   2.273   1.772 -0.2163 -0.3154  0.0836
  869MPD2    C312751   3.619   2.371   1.719 -0.1166 -0.3122  0.1167
  869MPD2    C412752   3.610   2.491   1.788  0.4045 -0.7426 -0.3417
  869MPD2    C512753   3.691   2.512   1.892  0.3645 -0.5796 -0.4576
  869MPD2     H12754   3.698   2.176   1.723  0.3553  0.3403 -1.2996
  869MPD2    H112755   3.556   2.580   1.760  3.5950  0.9878 -1.0640
  869MPD2    H212756   3.847   2.441   2.021  2.4137  0.6202 -2.0456
  869MPD2    H312757   3.666   2.588   1.966  3.3078  1.4720 -1.6092
  869MPD2     N12758   3.530   2.352   1.605  0.0493  0.4701  0.7985
  869MPD2    H512759   3.457   2.422   1.601  0.3686  0.7610  0.1478
  869MPD2    N112760   3.860   2.200   1.951  0.0723  0.1302  0.2460
  869MPD2    H712761   3.895   2.218   2.045 -1.9055  1.5668  0.6839
  870MPD2     C12762   2.706   0.697   1.805  0.2383  0.4472  0.1683
  870MPD2    C112763   2.821   0.746   1.751  0.9814 -0.0764  0.2534
  870MPD2    C212764   2.810   0.861   1.674  0.6361 -0.4991  0.6953
  870MPD2    C312765   2.692   0.935   1.666 -0.1442 -0.9918 -0.0504
  870MPD2    C412766   2.576   0.887   1.730  0.0382  0.1191  0.1634
  870MPD2    C512767   2.589   0.770   1.797  0.0399  0.2230 -0.8952
  870MPD2     H12768   2.902   0.910   1.646  0.5187 -0.9954 -0.5785
  870MPD2    H112769   2.481   0.938   1.727 -0.3941 -0.6377  1.0397
  870MPD2    H212770   2.702   0.603   1.858 -0.4189  0.5982  0.3885
  870MPD2    H312771   2.498   0.729   1.839  1.3632 -1.8854 -0.1354
  870MPD2     N12772   2.694   1.056   1.593 -0.2149 -0.8934 -0.3592
  870MPD2    H512773   2.783   1.082   1.551 -1.7457  2.2777 -1.5920
  870MPD2    N112774   2.946   0.677   1.773  0.3897 -0.2265  0.5542
  870MPD2    H712775   2.941   0.583   1.811 -0.6558 -0.2532  0.3687
  871MPD2     C12776   3.847   0.674  16.222  1.1171  0.4758 -0.5502
  871MPD2    C112777   3.769   0.599  16.306  1.2670 -0.8850 -0.0860
  871MPD2    C212778   3.735   0.470  16.263  0.0813  0.6135 -0.9341
  871MPD2    C312779   3.786   0.415  16.143 -1.5253  0.1735  0.9650
  871MPD2    C412780   3.851   0.502  16.053 -0.2005 -0.4961 -0.0108
  871MPD2    C512781   3.884   0.624  16.097 -0.0032  0.0924 -0.3669
  871MPD2     H12782   3.694   0.395  16.330 -2.0773  3.1173  0.5323
  871MPD2    H112783   3.888   0.471  15.956 -1.9804  0.6811 -1.0589
  871MPD2    H212784   3.887   0.773  16.243 -1.9998  1.3732  1.2184
  871MPD2    H312785   3.947   0.677  16.028  2.1861  0.4015  1.8944
  871MPD2     N12786   3.764   0.281  16.118 -0.2248  0.1862 -0.0328
  871MPD2    H512787   3.718   0.228  16.192 -1.2618  2.3761  0.8867
  871MPD2    N112788   3.737   0.656  16.431 -0.3904  0.2212  0.3706
  871MPD2    H712789   3.779   0.744  16.458 -0.0114 -0.2081  1.1858
  872MPD2     C12790   4.705   2.940  13.839  0.7757  0.3037 -0.2069
  872MPD2    C112791   0.031   2.815  13.851 -0.2042  0.4315  0.3839
  872MPD2    C212792   4.683   2.717  13.915 -0.6539  0.5141  0.1662
  872MPD2    C312793   4.551   2.748  13.960 -0.2136 -0.0605 -0.3155
  872MPD2    C412794   4.500   2.878  13.941 -1.2635  0.0109 -0.1056
  872MPD2    C512795   4.580   2.973  13.881  0.3513 -0.0421 -0.4476
  872MPD2     H12796   4.711   2.612  13.920 -1.7787  0.1835 -0.3705
  872MPD2    H112797   4.403   2.909  13.977 -0.5726  1.1799  0.7523
  872MPD2    H212798   0.040   3.014  13.787  0.0146  0.8843 -0.2576
  872MPD2    H312799   4.540   3.071  13.859 -1.8657 -0.9271 -0.3699
  872MPD2     N12800   4.471   2.647  14.029  0.3722  0.4938  0.4399
  872MPD2    H512801   4.381   2.686  14.053 -1.3793 -3.3133  0.1113
  872MPD2    N112802   0.156   2.788  13.790  0.2339  0.4979 -0.0791
  872MPD2    H712803   0.202   2.865  13.743  0.0223  0.9989  0.5400
  873MPD2     C12804   2.039   2.725   1.109  0.2831  0.1885  0.1413
  873MPD2    C112805   1.912   2.707   1.146 -0.4980 -0.3627  0.0511
  873MPD2    C212806   1.836   2.609   1.081 -0.5063 -0.2741 -0.3691
  873MPD2    C312807   1.900   2.517   0.996 -0.1536  0.3740  0.2516
  873MPD2    C412808   2.031   2.542   0.952  0.1230 -0.0591 -0.1519
  873MPD2    C512809   2.096   2.647   1.010  0.2050 -0.6500 -0.4472
  873MPD2     H12810   1.730   2.597   1.103  0.0383 -0.7888  2.0193
  873MPD2    H112811   2.068   2.482   0.870 -0.0698 -1.1449  0.5488
  873MPD2    H212812   2.107   2.799   1.150 -2.0867  1.1786  2.2064
  873MPD2    H312813   2.194   2.683   0.979 -0.0522 -0.8537 -1.5054
  873MPD2     N12814   1.830   2.409   0.937 -0.2301 -0.2739 -0.4241
  873MPD2    H512815   1.872   2.373   0.852 -0.8443 -3.4022  0.6240
  873MPD2    N112816   1.848   2.796   1.236 -0.3547  0.7419  0.1041
  873MPD2    H712817   1.909   2.845   1.301 -0.0967  3.5146 -2.2304
  874MPD2     C12818   1.364   3.393  16.817  0.3450  0.0978  0.1967
  874MPD2    C112819   1.434   3.403  16.701 -0.1245  0.1450 -0.4684
  874MPD2    C212820   1.559   3.461  16.702  0.3203  0.5046  0.0191
  874MPD2    C312821   1.620   3.490  16.826  0.6701 -0.0293  0.8207
  874MPD2    C412822   1.544   3.484  16.936  0.5205  0.5793  0.3561
  874MPD2    C512823   1.417   3.429  16.936  0.3829  0.7369  0.0159
  874MPD2     H12824   1.615   3.483  16.611  2.6760  1.5283  1.7102
  874MPD2    H112825   1.587   3.523  17.027  0.6424  2.3739 -0.4761
  874MPD2    H212826   1.264   3.351  16.820 -0.1093  1.0847 -1.1973
  874MPD2    H312827   1.363   3.427  17.030  0.9064  1.0734  0.3226
  874MPD2     N12828   1.760   3.515  16.833 -0.5278 -0.4088 -0.0538
  874MPD2    H512829   1.812   3.526  16.746 -1.2853 -0.1292 -0.4715
  874MPD2    N112830   1.367   3.362  16.586  0.0901 -0.7536 -0.2022
  874MPD2    H712831   1.281   3.316  16.614 -1.2920  1.6878 -0.4421
  875MPD2     C12832   2.980   1.213  14.815  0.0528  0.3194 -0.1159
  875MPD2    C112833   2.847   1.213  14.858  0.3826  0.1866  0.0060
  875MPD2    C212834   2.812   1.241  14.987  0.3034  0.0783 -0.3356
  875MPD2    C312835   2.906   1.276  15.082  0.0620  0.4136 -0.4448
  875MPD2    C412836   3.042   1.274  15.039 -0.1574  0.4812  0.3422
  875MPD2    C512837   3.078   1.241  14.910 -0.3740  0.0524  0.1724
  875MPD2     H12838   2.707   1.251  15.012  0.1052  0.5762 -1.3719
  875MPD2    H112839   3.123   1.288  15.109 -0.7402  1.7351  0.7634
  875MPD2    H212840   3.014   1.191  14.714 -0.0304 -1.3067  0.2096
  875MPD2    H312841   3.183   1.244  14.885 -0.8287  2.9877 -1.4011
  875MPD2     N12842   2.878   1.298  15.218 -0.0711  0.0678 -0.2639
  875MPD2    H512843   2.956   1.333  15.273  0.2844  0.4181 -0.9823
  875MPD2    N112844   2.740   1.179  14.779  0.3531 -0.7899  0.0604
  875MPD2    H712845   2.653   1.175  14.832  0.9124  3.9233  1.3304
  876MPD2     C12846   1.518   2.014  16.433 -0.2122  0.1644  0.1682
  876MPD2    C112847   1.506   1.978  16.301  0.0192  0.3333  0.1319
  876MPD2    C212848   1.491   1.848  16.270 -0.2397  0.2937 -0.1247
  876MPD2    C312849   1.497   1.751  16.360 -0.4118 -0.0381  0.2710
  876MPD2    C412850   1.506   1.791  16.493 -0.1450  0.1976  0.0909
  876MPD2    C512851   1.509   1.924  16.528 -0.1962 -0.0143 -0.1155
  876MPD2     H12852   1.501   1.819  16.166  2.5967  2.6586 -0.4888
  876MPD2    H112853   1.501   1.717  16.572 -1.5475 -1.1899 -1.2966
  876MPD2    H212854   1.533   2.118  16.460 -0.5345  0.6812 -1.6407
  876MPD2    H312855   1.518   1.943  16.635 -1.3490  3.6229 -0.6331
  876MPD2     N12856   1.490   1.612  16.318  0.7892  0.4188  0.2046
  876MPD2    H512857   1.515   1.592  16.222 -0.5499  1.9499 -0.4517
  876MPD2    N112858   1.505   2.083  16.209 -0.0871  0.2735  0.2610
  876MPD2    H712859   1.544   2.171  16.240 -0.0342  0.9905 -1.8456
  877MPD2     C12860   1.925   2.659  15.898  0.8224  0.6635  0.0251
  877MPD2    C112861   1.842   2.614  15.794  0.1072  0.5778 -0.8423
  877MPD2    C212862   1.856   2.675  15.671 -0.1533 -0.0198 -0.4821
  877MPD2    C312863   1.954   2.771  15.643 -0.5281  0.2194 -0.0184
  877MPD2    C412864   2.044   2.803  15.740 -0.5461 -0.3039  0.1362
  877MPD2    C512865   2.021   2.756  15.867 -0.0406  0.4671 -0.0317
  877MPD2     H12866   1.779   2.661  15.596 -2.3644  1.0079  1.6025
  877MPD2    H112867   2.130   2.867  15.727 -1.3103  0.7853  0.4529
  877MPD2    H212868   1.906   2.631  16.001 -0.1773 -0.9077 -0.5875
  877MPD2    H312869   2.083   2.771  15.955  1.1427 -2.1280 -0.4069
  877MPD2     N12870   1.979   2.805  15.509  0.2801 -0.0845  0.3451
  877MPD2    H512871   2.067   2.843  15.477  0.9682 -2.1930 -0.2800
  877MPD2    N112872   1.728   2.527  15.810  0.1526 -0.5868 -0.4517
  877MPD2    H712873   1.673   2.517  15.725  1.5434 -0.4284 -1.3647
  878MPD2     C12874   1.427   1.629  13.402  0.3723 -0.4906  0.3737
  878MPD2    C112875   1.533   1.709  13.356 -0.4079  0.6616 -0.3105
  878MPD2    C212876   1.599   1.802  13.434 -0.3761 -0.3209 -0.1937
  878MPD2    C312877   1.541   1.837  13.552  0.1673  0.1320 -0.5338
  878MPD2    C412878   1.424   1.776  13.594  0.0392 -0.4961 -0.1047
  878MPD2    C512879   1.370   1.675  13.520  0.3214  0.1326  0.4440
  878MPD2     H12880   1.689   1.856  13.404  2.6114 -4.9168  0.5380
  878MPD2    H112881   1.384   1.790  13.694  2.3452 -0.6542  0.8297
  878MPD2    H212882   1.381   1.554  13.339 -0.1093 -0.1163  0.2861
  878MPD2    H312883   1.283   1.624  13.559  0.2724 -0.0690  0.0710
  878MPD2     N12884   1.605   1.927  13.638  0.5463  0.0968 -0.0119
  878MPD2    H512885   1.705   1.941  13.632  0.2390  1.6232 -1.5604
  878MPD2    N112886   1.561   1.688  13.220  0.3994 -0.3414 -0.5664
  878MPD2    H712887   1.495   1.625  13.175 -2.0999  1.2418  0.8419
  879MPD2     C12888   2.338   3.307  17.335  0.0567 -0.1753  0.1834
  879MPD2    C112889   2.282   3.364  17.445 -0.1020  0.6934  0.2460
  879MPD2    C212890   2.150   3.410  17.435 -0.1483 -0.1283  0.2962
  879MPD2    C312891   2.074   3.399  17.321  0.1312 -0.0171 -0.1542
  879MPD2    C412892   2.126   3.343  17.209  0.1422  0.0246 -0.5942
  879MPD2    C512893   2.253   3.289  17.221  0.1180  0.3142  0.5123
  879MPD2     H12894   2.110   3.466  17.518  0.3664 -0.9473  1.1046
  879MPD2    H112895   2.076   3.321  17.115 -1.6799 -0.7606  0.5575
  879MPD2    H212896   2.438   3.266  17.335  0.8801  1.8311 -1.0934
  879MPD2    H312897   2.302   3.238  17.139 -1.8044  0.7854 -0.9327
  879MPD2     N12898   1.938   3.449  17.316  0.1140  0.2968  0.5782
  879MPD2    H512899   1.891   3.464  17.227  0.9887 -0.3971 -0.0007
  879MPD2    N112900   2.359   3.372  17.561 -0.1505  0.1398  0.1419
  879MPD2    H712901   2.456   3.343  17.553 -0.1343 -0.1414  1.2561
  880MPD2     C12902   3.697   0.732   0.455  0.7101  0.0880  0.2008
  880MPD2    C112903   3.571   0.715   0.523 -0.0517  0.5321 -0.5344
  880MPD2    C212904   3.545   0.597   0.581 -0.9733  0.1846 -0.5842
  880MPD2    C312905   3.638   0.492   0.585  0.6575 -0.7242 -0.3031
  880MPD2    C412906   3.754   0.509   0.515  0.5228  0.2702  0.0700
  880MPD2    C512907   3.784   0.629   0.455  0.6594  1.0548  0.2597
  880MPD2     H12908   3.448   0.569   0.619 -0.9081  1.5912  0.6199
  880MPD2    H112909   3.823   0.427   0.503 -1.2811 -1.1565 -0.5954
  880MPD2    H212910   3.731   0.817   0.398 -2.3651  1.5151  0.4638
  880MPD2    H312911   3.880   0.637   0.403  1.8548 -3.4640  1.7856
  880MPD2     N12912   3.607   0.377   0.655 -0.0104  0.4266  0.0548
  880MPD2    H512913   3.537   0.391   0.726  0.5376  2.2908  0.2178
  880MPD2    N112914   3.477   0.819   0.517 -0.3995  0.2412 -0.7004
  880MPD2    H712915   3.500   0.905   0.467 -1.4558  0.3848 -0.9253
  881MPD2     C12916   3.133   1.594   0.014  0.6015 -0.1373  0.3292
  881MPD2    C112917   3.152   1.462  17.670  0.0465  1.1304  0.3226
  881MPD2    C212918   3.162   1.377   0.078 -0.1403  0.6437 -0.1465
  881MPD2    C312919   3.138   1.413   0.207 -0.2631 -0.4867  0.9182
  881MPD2    C412920   3.096   1.537   0.243  0.7994 -0.6531  0.4150
  881MPD2    C512921   3.101   1.628   0.148  0.1698 -0.7522 -0.8960
  881MPD2     H12922   3.198   1.277   0.059 -1.2553  0.4394 -1.2007
  881MPD2    H112923   3.081   1.562   0.348 -3.8193 -1.8420  0.0068
  881MPD2    H212924   3.157   1.678  17.651 -1.0087 -1.6036 -2.2752
  881MPD2    H312925   3.075   1.727   0.183 -1.0890 -1.2423 -0.4786
  881MPD2     N12926   3.163   1.328   0.320 -0.3100 -0.0986 -0.4164
  881MPD2    H512927   3.146   1.379   0.406 -0.2524  1.5045 -1.3623
  881MPD2    N112928   3.208   1.441  17.547  0.3851 -0.2184 -0.2061
  881MPD2    H712929   3.201   1.520  17.483  1.6014 -0.5737 -0.7822
  882MPD2     C12930   1.776   2.527  14.705  0.5364  0.6985 -0.4072
  882MPD2    C112931   1.719   2.636  14.770  0.7300 -0.0712  1.2683
  882MPD2    C212932   1.597   2.687  14.734 -0.5942  0.3146 -0.1778
  882MPD2    C312933   1.529   2.616  14.636  0.0620  0.4084 -0.1272
  882MPD2    C412934   1.584   2.508  14.575  0.3267 -0.8468 -0.1982
  882MPD2    C512935   1.705   2.458  14.605 -0.5389  0.0824  0.0862
  882MPD2     H12936   1.558   2.774  14.787  1.1181  0.6506  0.5296
  882MPD2    H112937   1.528   2.456  14.498 -1.2529 -2.5761  2.1325
  882MPD2    H212938   1.875   2.498  14.736  0.2566  0.5014  0.2982
  882MPD2    H312939   1.748   2.375  14.550  0.5322 -0.5581  1.8808
  882MPD2     N12940   1.397   2.640  14.597  0.2629 -0.6122 -0.4136
  882MPD2    H512941   1.360   2.590  14.516 -0.1417  2.7171 -2.3044
  882MPD2    N112942   1.812   2.703  14.860 -0.7728 -0.0235 -0.4709
  882MPD2    H712943   1.901   2.655  14.872 -0.6817  0.8564  2.2531
  883MPD2     C12944   3.661   2.729  16.492  0.0880  0.0647  0.4129
  883MPD2    C112945   3.676   2.844  16.421  0.0306  0.3477 -0.1202
  883MPD2    C212946   3.780   2.932  16.461  0.1945  0.1702  0.3650
  883MPD2    C312947   3.844   2.915  16.582  0.0576  0.7182  0.6697
  883MPD2    C412948   3.797   2.811  16.659  0.4398  0.6594  0.4702
  883MPD2    C512949   3.715   2.720  16.612 -0.0793  0.1345  0.1897
  883MPD2     H12950   3.799   3.020  16.400 -1.6271  0.4838  0.2403
  883MPD2    H112951   3.846   2.789  16.753  0.1884 -0.3337  0.3660
  883MPD2    H212952   3.579   2.660  16.474 -0.3426  1.2408 -2.2535
  883MPD2    H312953   3.695   2.632  16.671 -2.3342  1.4994  1.4626
  883MPD2     N12954   3.943   3.009  16.618 -0.3002  0.2084 -0.0868
  883MPD2    H512955   3.978   3.076  16.551 -2.6986  2.5650  1.0005
  883MPD2    N112956   3.584   2.884  16.326  0.6345 -0.2568  0.1986
  883MPD2    H712957   3.511   2.816  16.309  0.7887 -0.9894  2.4407
  884MPD2     C12958   0.713   3.737  15.573  0.2363 -0.1845 -0.4541
  884MPD2    C112959   0.761   3.771  15.446  0.3694  0.9138  0.7208
  884MPD2    C212960   0.677   3.803  15.339  0.3770 -0.4240  0.5220
  884MPD2    C312961   0.541   3.816  15.362  0.2967  1.2090  0.3743
  884MPD2    C412962   0.491   3.785  15.486  0.0445  0.1250 -0.8517
  884MPD2    C512963   0.573   3.744  15.587  0.5035  0.3319  0.4796
  884MPD2     H12964   0.714   3.807  15.238  1.0704  1.2426  0.8379
  884MPD2    H112965   0.386   3.776  15.508  0.1279 -1.3484 -1.0362
  884MPD2    H212966   0.781   3.724  15.656 -1.7898  0.2835  1.2752
  884MPD2    H312967   0.521   3.715  15.678  0.0824 -1.5625 -0.3619
  884MPD2     N12968   0.458   3.853  15.246 -0.6121  0.2517 -0.7200
  884MPD2    H512969   0.515   3.869  15.163  0.3394  3.5451  0.5537
  884MPD2    N112970   0.901   3.760  15.420 -0.0980 -0.0783 -0.6790
  884MPD2    H712971   0.936   3.798  15.332 -0.1222 -0.6716 -0.9466
  885MPD2     C12972   3.574   4.216   0.473 -0.2064 -0.6991 -0.0051
  885MPD2    C112973   3.585   4.094   0.412  0.1875  0.8567 -0.1605
  885MPD2    C212974   3.598   4.086   0.274  0.2448  0.3277  0.4718
  885MPD2    C312975   3.596   4.197   0.194  0.0377 -0.0225 -0.1685
  885MPD2    C412976   3.580   4.320   0.260  0.7073  1.1382  0.3381
  885MPD2    C512977   3.571   4.331   0.399  0.1651 -0.3268  0.5493
  885MPD2     H12978   3.620   3.988   0.233 -0.4754 -0.5177  2.0803
  885MPD2    H112979   3.565   4.412   0.206 -3.9292 -0.3984 -1.0301
  885MPD2    H212980   3.569   4.230   0.581 -1.4291  2.0716 -0.4164
  885MPD2    H312981   3.547   4.429   0.436 -1.6917 -1.7044  3.0163
  885MPD2     N12982   3.605   4.182   0.050 -0.4626 -0.0801  0.3588
  885MPD2    H512983   3.633   4.093   0.008 -3.9406  0.4101 -2.9731
  885MPD2    N112984   3.608   3.985   0.500  0.8677 -0.1185 -0.6387
  885MPD2    H712985   3.594   4.013   0.596 -1.0292 -1.4061 -0.5578
  886MPD2     C12986   0.241   2.450  15.230  0.6519  0.2573  0.0298
  886MPD2    C112987   0.382   2.458  15.212 -0.3045  0.7333 -0.3271
  886MPD2    C212988   0.435   2.570  15.151 -0.0358  0.0684 -0.0396
  886MPD2    C312989   0.353   2.673  15.108  0.0351  0.3001 -0.3397
  886MPD2    C412990   0.217   2.666  15.132  0.5973  0.0907 -0.3091
  886MPD2    C512991   0.162   2.555  15.194  0.5741  0.8062 -0.0890
  886MPD2     H12992   0.542   2.568  15.135  0.0372 -0.7981  0.5407
  886MPD2    H112993   0.160   2.756  15.109 -0.0750 -0.4937 -0.9123
  886MPD2    H212994   0.192   2.360  15.266  2.3313 -0.4261  0.5712
  886MPD2    H312995   0.054   2.560  15.195  0.5364  0.1704 -1.0473
  886MPD2     N12996   0.399   2.788  15.043  0.6745 -0.3099 -0.6650
  886MPD2    H512997   0.326   2.847  15.004  0.4368  0.0441  0.3166
  886MPD2    N112998   0.470   2.355  15.254 -0.3685  0.2796 -0.1673
  886MPD2    H712999   0.568   2.381  15.255 -0.6506  1.3077 -0.1787
  887MPD2     C13000   0.970   2.196  15.767  0.3638  0.6271  0.3363
  887MPD2    C113001   0.868   2.254  15.704 -0.1586  0.0969 -0.0951
  887MPD2    C213002   0.787   2.330  15.780  0.3530 -0.0169 -0.4712
  887MPD2    C313003   0.799   2.343  15.918  0.3931  0.2915  0.3392
  887MPD2    C413004   0.894   2.272  15.975  0.2678 -0.6863  0.2018
  887MPD2    C513005   0.983   2.196  15.901  0.5316 -0.0833  0.4531
  887MPD2     H13006   0.695   2.366  15.735  0.7216  1.2835 -0.1762
  887MPD2    H113007   0.906   2.271  16.083 -3.6094 -0.9808  0.6198
  887MPD2    H213008   1.043   2.141  15.710 -1.4166 -1.8125  0.3974
  887MPD2    H313009   1.054   2.127  15.947 -0.1953 -2.2524 -1.6626
  887MPD2     N13010   0.712   2.426  15.983 -0.2195 -0.0987  0.1969
  887MPD2    H513011   0.632   2.457  15.929 -1.8099 -3.3428  0.6855
  887MPD2    N113012   0.826   2.230  15.572 -0.1536 -0.0478  0.2767
  887MPD2    H713013   0.753   2.292  15.537 -0.8179 -0.5645  0.7455
  888MPD2     C13014   2.998   2.224  14.964  0.5518 -0.2042  0.5170
  888MPD2    C113015   2.990   2.302  15.080  0.5511  0.6803  0.6303
  888MPD2    C213016   2.994   2.443  15.068 -0.1684 -0.2651 -0.3339
  888MPD2    C313017   3.005   2.507  14.944  0.2677  0.4711 -0.3368
  888MPD2    C413018   3.014   2.421  14.833  0.7215  0.1356  0.5251
  888MPD2    C513019   3.010   2.283  14.842 -0.2295 -0.1576 -0.2106
  888MPD2     H13020   2.985   2.506  15.156  2.3254 -0.9683  0.4307
  888MPD2    H113021   3.031   2.459  14.734 -0.8789  0.6339  0.4327
  888MPD2    H213022   3.006   2.116  14.967 -2.5883 -0.4543 -0.9779
  888MPD2    H313023   3.033   2.227  14.752 -3.2485 -0.4060 -0.8034
  888MPD2     N13024   3.019   2.647  14.932  0.1862  0.0524 -0.3662
  888MPD2    H513025   3.047   2.685  15.022  0.5422  0.5193 -0.6707
  888MPD2    N113026   2.981   2.247  15.208  0.2737 -0.0179 -0.2438
  888MPD2    H713027   2.984   2.312  15.286 -0.8116  0.4344 -0.5742
  889MPD2     C13028   1.947   1.448  12.833  0.8294  0.8692  0.4525
  889MPD2    C113029   2.030   1.422  12.941  0.4039  0.4728 -0.2770
  889MPD2    C213030   2.123   1.511  12.983 -0.4333  0.2210 -0.1117
  889MPD2    C313031   2.110   1.644  12.969  0.0949 -0.3943  0.1689
  889MPD2    C413032   2.011   1.682  12.877 -0.3208 -0.0337 -0.1912
  889MPD2    C513033   1.944   1.584  12.809 -0.5538  0.2230  0.0717
  889MPD2     H13034   2.196   1.483  13.059  0.4055  0.6072 -0.7743
  889MPD2    H113035   1.997   1.786  12.850  0.4935 -0.4368 -2.1795
  889MPD2    H213036   1.884   1.374  12.784 -0.1359  1.6583  0.4899
  889MPD2    H313037   1.892   1.617  12.719 -0.4524  0.0131 -0.0647
  889MPD2     N13038   2.191   1.739  13.034  0.1086  0.1078  0.0918
  889MPD2    H513039   2.264   1.699  13.093 -1.2606  1.1027  2.4592
  889MPD2    N113040   2.059   1.292  12.980  0.5376  0.1536 -0.0787
  889MPD2    H713041   2.147   1.274  13.027  1.8472  0.2733 -2.4794
  890MPD2     C13042   1.199   3.231  15.099 -0.0567  0.0315  0.5665
  890MPD2    C113043   1.292   3.319  15.144 -0.5126 -0.6093 -0.2220
  890MPD2    C213044   1.308   3.346  15.279 -0.3050  0.7687 -0.6060
  890MPD2    C313045   1.231   3.282  15.371 -0.8156  0.0720 -0.5144
  890MPD2    C413046   1.130   3.203  15.321 -0.0346  0.0672  0.1571
  890MPD2    C513047   1.119   3.176  15.190  0.1559  0.2016 -0.4619
  890MPD2     H13048   1.392   3.401  15.320 -1.4300  0.5820  1.9485
  890MPD2    H113049   1.084   3.135  15.392  1.0234  1.1487  1.8636
  890MPD2    H213050   1.198   3.212  14.993 -2.0497 -0.1363  0.6096
  890MPD2    H313051   1.044   3.104  15.161  0.1339 -0.0370  0.1974
  890MPD2     N13052   1.267   3.299  15.509 -0.0467 -0.1998 -0.5188
  890MPD2    H513053   1.348   3.360  15.519  2.0395 -3.1642  0.7324
  890MPD2    N113054   1.388   3.376  15.054  0.6056  0.4130 -0.1567
  890MPD2    H713055   1.387   3.344  14.958 -2.6798 -0.0120  0.0209
  891MPD2     C13056   4.245   1.654  16.635  0.0047  0.0051 -0.4659
  891MPD2    C113057   4.227   1.794  16.646 -0.2129 -0.0396  0.0726
  891MPD2    C213058   4.319   1.857  16.731 -0.6212  0.3236 -1.1065
  891MPD2    C313059   4.425   1.791  16.790  0.2998 -0.7865  0.4236
  891MPD2    C413060   4.432   1.654  16.785  0.8068  1.2831  0.2230
  891MPD2    C513061   4.335   1.584  16.712  0.2667  0.7629 -0.0811
  891MPD2     H13062   4.318   1.964  16.748  0.4026 -0.4496  3.7267
  891MPD2    H113063   4.510   1.603  16.839 -0.8707 -0.6593  0.8200
  891MPD2    H213064   4.180   1.593  16.573  0.0754 -0.8018  0.2503
  891MPD2    H313065   4.352   1.478  16.697 -0.9389  0.1337  3.1704
  891MPD2     N13066   4.520   1.874  16.860  0.2896  0.1345 -0.2439
  891MPD2    H513067   4.507   1.974  16.872  1.9998  0.4665 -1.0479
  891MPD2    N113068   4.128   1.854  16.568 -0.6108  0.8406  0.1320
  891MPD2    H713069   4.074   1.789  16.511  0.0833  0.9724 -0.6710
  892MPD2     C13070   0.888   3.356  14.326 -0.3310 -0.3541 -0.2029
  892MPD2    C113071   0.796   3.291  14.405  0.2820 -0.1338  0.3888
  892MPD2    C213072   0.817   3.171  14.452 -1.1323 -0.5298  0.1722
  892MPD2    C313073   0.933   3.101  14.411 -0.2308 -0.4136 -0.5872
  892MPD2    C413074   1.031   3.158  14.334 -0.6287  0.2384 -0.4075
  892MPD2    C513075   1.003   3.286  14.290  0.3377  0.6314  0.6830
  892MPD2     H13076   0.738   3.129  14.513 -0.1887 -0.0882  1.6857
  892MPD2    H113077   1.119   3.100  14.310 -0.9792  0.4998 -2.3706
  892MPD2    H213078   0.871   3.449  14.274  1.7527 -0.5267 -1.1712
  892MPD2    H313079   1.083   3.324  14.226  1.5858  2.0983  3.1393
  892MPD2     N13080   0.962   2.970  14.463  0.1576  0.3716  0.2182
  892MPD2    H513081   1.048   2.928  14.428 -0.0097 -1.3975  1.9325
  892MPD2    N113082   0.674   3.354  14.433  0.0071  0.4441  0.3698
  892MPD2    H713083   0.610   3.294  14.484 -0.3881  3.1515  3.0755
  893MPD2     C13084   2.714   0.963   2.117 -0.4353  0.0104  0.0247
  893MPD2    C113085   2.848   0.971   2.066  0.1305 -0.3166  0.0191
  893MPD2    C213086   2.923   0.854   2.069  0.6240  0.3979  0.9224
  893MPD2    C313087   2.878   0.735   2.123 -0.3487 -0.1725  0.4873
  893MPD2    C413088   2.753   0.727   2.172 -0.1259 -0.8428 -0.5068
  893MPD2    C513089   2.668   0.838   2.165  0.2019 -0.5313 -0.1489
  893MPD2     H13090   3.011   0.851   2.005  1.4067 -2.8578  2.1557
  893MPD2    H113091   2.732   0.639   2.232 -3.8301  0.1576 -0.2942
  893MPD2    H213092   2.645   1.046   2.107 -0.7612 -0.3290 -0.5584
  893MPD2    H313093   2.568   0.833   2.206  0.7228 -3.5694  0.7770
  893MPD2     N13094   2.959   0.618   2.133 -0.6116  0.2511  0.1448
  893MPD2    H513095   2.916   0.531   2.161  2.9686 -1.4758  0.2713
  893MPD2    N113096   2.883   1.087   2.004  0.1936 -0.0919  0.0678
  893MPD2    H713097   2.814   1.162   1.999  0.7982  0.3488 -1.4019
  894MPD2     C13098   0.466   4.010   0.862 -0.6504 -0.0473 -0.0586
  894MPD2    C113099   0.550   4.002   0.970 -0.0984 -0.2076 -0.4931
  894MPD2    C213100   0.667   4.070   0.966  0.7739 -0.7082 -0.5279
  894MPD2    C313101   0.712   4.141   0.853 -0.0082 -0.6888  0.0680
  894MPD2    C413102   0.637   4.128   0.735  0.5839 -0.4722 -0.1395
  894MPD2    C513103   0.514   4.073   0.747 -0.0285  0.2176 -0.4092
  894MPD2     H13104   0.714   4.078   1.063  0.0002 -0.3063 -0.1844
  894MPD2    H113105   0.656   4.178   0.640 -2.6303 -0.6544 -0.8775
  894MPD2    H213106   0.374   3.953   0.865 -0.9673  0.4925  0.4650
  894MPD2    H313107   0.449   4.084   0.661 -2.1930  1.6125  1.4227
  894MPD2     N13108   0.832   4.214   0.868  0.1753  0.8283 -0.5441
  894MPD2    H513109   0.866   4.217   0.964  1.4212 -1.6198 -0.9086
  894MPD2    N113110   0.516   3.931   1.091 -0.9225  0.3591 -0.1876
  894MPD2    H713111   0.579   3.943   1.170  1.9816 -0.8980 -2.3171
  895MPD2     C13112   0.256   1.828  13.634  0.3383  0.3675  0.3203
  895MPD2    C113113   0.198   1.832  13.507 -0.9504  0.1182 -0.6422
  895MPD2    C213114   0.230   1.744  13.411 -0.7537 -0.0260 -1.0015
  895MPD2    C313115   0.321   1.643  13.438  0.1166 -0.1493 -0.2364
  895MPD2    C413116   0.393   1.640  13.558 -0.3353  0.0190  0.0519
  895MPD2    C513117   0.357   1.734  13.650  0.0671  1.2383 -0.2062
  895MPD2     H13118   0.173   1.737  13.319 -1.5517  1.1430 -0.5921
  895MPD2    H113119   0.469   1.569  13.587  0.2264  0.0393 -1.3608
  895MPD2    H213120   0.222   1.899  13.709  1.3550 -0.6189  1.7063
  895MPD2    H313121   0.399   1.725  13.750  0.8153  1.3513 -0.5091
  895MPD2     N13122   0.336   1.529  13.362  0.4926  0.0245  0.2373
  895MPD2    H513123   0.400   1.459  13.397 -0.4985 -0.9005  0.2287
  895MPD2    N113124   0.078   1.912  13.465  0.2607 -0.8271 -0.7297
  895MPD2    H713125   0.050   1.897  13.368 -0.8424  0.1743 -0.5552
  896MPD2     C13126   2.343   4.581   1.793 -0.8204  0.2489 -0.3202
  896MPD2    C113127   2.306   4.541   1.666  0.4666  0.2637  0.1133
  896MPD2    C213128   2.181   4.488   1.642  0.5695 -0.0497  0.3618
  896MPD2    C313129   2.086   4.487   1.736 -0.0881 -0.4230  0.3236
  896MPD2    C413130   2.117   4.539   1.859  0.0125  0.2156 -0.1650
  896MPD2    C513131   2.245   4.585   1.887  0.0085  0.1643  0.2220
  896MPD2     H13132   2.152   4.453   1.543  2.1723  1.4021 -0.6314
  896MPD2    H113133   2.040   4.558   1.932 -0.7508  1.2072 -1.2124
  896MPD2    H213134   2.441   4.613   1.827 -0.9236 -0.7594  0.9251
  896MPD2    H313135   2.268   4.620   1.987 -0.3615 -0.5598  0.5583
  896MPD2     N13136   1.958   4.441   1.697  0.4342 -0.2279 -0.4262
  896MPD2    H513137   1.941   4.406   1.603 -2.5217  2.8212 -1.0182
  896MPD2    N113138   2.406   4.551   1.565  0.5309  0.5585  0.2386
  896MPD2    H713139   2.503   4.543   1.597  1.3910 -0.2748 -2.5508
  897MPD2     C13140   3.032   1.153  10.279 -0.8356 -0.2008 -0.0969
  897MPD2    C113141   3.088   1.268  10.329 -0.2279  0.4735 -0.5560
  897MPD2    C213142   3.018   1.316  10.447 -0.0371  0.2954  0.5259
  897MPD2    C313143   2.910   1.253  10.506 -0.4542 -0.1205 -0.0576
  897MPD2    C413144   2.856   1.140  10.438  0.5413 -0.2443  0.1580
  897MPD2    C513145   2.924   1.091  10.335 -0.0980 -0.6061 -0.8556
  897MPD2     H13146   3.057   1.405  10.495 -0.4963  0.4264  0.6565
  897MPD2    H113147   2.766   1.087  10.467  0.9404 -2.1997 -2.1746
  897MPD2    H213148   3.086   1.105  10.198 -1.4840  0.1898 -0.7597
  897MPD2    H313149   2.899   0.996  10.291  1.0594 -2.5332  2.6065
  897MPD2     N13150   2.846   1.307  10.619 -0.2388 -0.3369  0.1404
  897MPD2    H513151   2.901   1.380  10.664  1.6857 -1.6937 -0.0016
  897MPD2    N113152   3.196   1.337  10.269  0.1330  0.4414 -0.0030
  897MPD2    H713153   3.231   1.292  10.184 -1.2272 -1.4978  0.4533
  898MPD2     C13154   0.686   2.585   0.051  0.2733 -0.5194  0.6029
  898MPD2    C113155   0.605   2.638   0.149  0.3171 -0.0388  0.0594
  898MPD2    C213156   0.493   2.713   0.117 -0.2958 -0.1246  0.4840
  898MPD2    C313157   0.443   2.704  17.681 -1.1998  0.5059  0.4592
  898MPD2    C413158   0.520   2.639  17.587  0.1467 -0.5786  0.6733
  898MPD2    C513159   0.644   2.597  17.621  0.1792 -0.0193  0.5476
  898MPD2     H13160   0.436   2.754   0.200  1.9381  2.9824  0.4541
  898MPD2    H113161   0.494   2.659  17.484 -0.4707  2.4193  1.4148
  898MPD2    H213162   0.780   2.535   0.067 -0.4858 -1.7065  1.3903
  898MPD2    H313163   0.705   2.549  17.546  1.4199  0.9934  0.8949
  898MPD2     N13164   0.325   2.771  17.657 -0.2666  0.0856 -0.7166
  898MPD2    H513165   0.290   2.825   0.036  2.0358  0.3351  0.1628
  898MPD2    N113166   0.638   2.621   0.290 -0.1210  0.5404 -0.4666
  898MPD2    H713167   0.570   2.650   0.360 -0.5719 -1.4081 -0.1034
  899MPD2     C13168   0.890   3.060   0.126  0.6307 -0.5671  0.2617
  899MPD2    C113169   0.980   3.146   0.169 -0.2917  0.0527  0.1769
  899MPD2    C213170   1.011   3.145   0.304  0.0767 -0.1267 -0.0435
  899MPD2    C313171   0.954   3.059   0.398 -0.3985  0.0677  0.9049
  899MPD2    C413172   0.859   2.972   0.351 -0.5312  0.2349  0.2963
  899MPD2    C513173   0.824   2.976   0.217 -0.4564 -0.2797  0.0846
  899MPD2     H13174   1.076   3.218   0.352 -0.6084  1.3209 -1.2889
  899MPD2    H113175   0.805   2.903   0.415 -0.0624 -1.4472 -1.1377
  899MPD2    H213176   0.854   3.059   0.023 -0.7813 -1.6511  0.7719
  899MPD2    H313177   0.743   2.911   0.185 -1.1017  1.2231 -1.2792
  899MPD2     N13178   0.986   3.061   0.535  0.2304  1.0200  0.0603
  899MPD2    H513179   0.917   3.017   0.595  1.3307 -2.0659 -0.9009
  899MPD2    N113180   1.020   3.238   0.070  1.1325 -0.9695  0.1874
  899MPD2    H713181   0.990   3.226  17.674 -0.3534  0.5758  0.4611
  900MPD2     C13182   1.282   4.489  12.589 -0.2809 -0.0986  0.2156
  900MPD2    C113183   1.210   4.369  12.574  0.8516 -0.9095  0.2540
  900MPD2    C213184   1.083   4.386  12.522  0.3671  0.4523  0.0917
  900MPD2    C313185   1.028   4.514  12.501  0.0883  0.4937 -0.2646
  900MPD2    C413186   1.106   4.627  12.517  0.3710  0.6820  0.4719
  900MPD2    C513187   1.232   4.613  12.562  0.1617 -0.0862 -0.0330
  900MPD2     H13188   1.016   4.302  12.503  1.8226 -0.0685 -2.6965
  900MPD2    H113189   1.067   0.002  12.495 -1.2376 -0.7028 -2.9337
  900MPD2    H213190   1.384   4.484  12.626  0.9844 -0.7338 -3.3936
  900MPD2    H313191   1.295   4.701  12.571  0.6576 -0.3493 -0.9225
  900MPD2     N13192   0.901   4.519  12.449  0.3410 -0.9527  0.4236
  900MPD2    H513193   0.858   4.430  12.424 -2.8416  0.1786  1.9629
  900MPD2    N113194   1.259   4.238  12.614 -0.1031 -0.5576  0.2187
  900MPD2    H713195   1.347   4.237  12.664 -0.5964  1.0652  1.1129
  901MPD2     C13196   0.932   3.202  12.809 -0.0007  0.6169 -0.2558
  901MPD2    C113197   1.068   3.194  12.826 -0.3416 -0.4325  0.0355
  901MPD2    C213198   1.147   3.299  12.813  1.0955 -0.4878  0.3940
  901MPD2    C313199   1.094   3.430  12.790 -0.1198 -0.0958  0.5230
  901MPD2    C413200   0.961   3.437  12.782 -0.4239  0.3168 -0.2817
  901MPD2    C513201   0.876   3.327  12.792  0.0047  0.3599 -1.1329
  901MPD2     H13202   1.255   3.299  12.828  1.0033 -0.0683  1.0647
  901MPD2    H113203   0.911   3.532  12.771 -1.8820 -0.1705  2.2865
  901MPD2    H213204   0.870   3.113  12.804 -0.1172  0.5845  2.0114
  901MPD2    H313205   0.769   3.341  12.785 -0.2175 -0.4554  0.7344
  901MPD2     N13206   1.172   3.539  12.776  0.0198 -0.1749  0.1337
  901MPD2    H513207   1.261   3.525  12.823 -0.4631 -2.4361  0.3916
  901MPD2    N113208   1.115   3.064  12.841  0.1963  0.0422 -0.6565
  901MPD2    H713209   1.045   2.993  12.822 -0.5912  0.8023 -0.5641
  902MPD2     C13210   4.352   2.389  12.781 -0.7916  0.2320 -0.4016
  902MPD2    C113211   4.456   2.409  12.867 -0.1432 -0.3045 -0.0174
  902MPD2    C213212   4.562   2.315  12.865  0.6284 -0.1269 -0.0674
  902MPD2    C313213   4.557   2.204  12.782 -0.0013 -0.6783  0.0548
  902MPD2    C413214   4.441   2.190  12.706 -0.2025 -0.0978 -0.2301
  902MPD2    C513215   4.341   2.279  12.699 -0.7017 -0.1940 -0.6677
  902MPD2     H13216   4.641   2.329  12.939  3.1297 -2.2453 -2.3194
  902MPD2    H113217   4.429   2.101  12.646  0.1471  0.3267 -0.9203
  902MPD2    H213218   4.256   2.440  12.783 -1.4573 -1.0772  1.3127
  902MPD2    H313219   4.255   2.271  12.633 -1.9473 -0.5342  1.0003
  902MPD2     N13220   4.662   2.107  12.768  0.3760  0.3871 -0.4207
  902MPD2    H513221   4.649   2.036  12.697 -0.7400  1.4422 -1.2608
  902MPD2    N113222   4.444   2.528  12.944 -0.7795 -0.8677 -0.0506
  902MPD2    H713223   4.368   2.594  12.935 -0.2036  0.2009  2.9567
  903MPD2     C13224   4.694   1.444  12.543 -0.5561  1.0337 -0.3833
  903MPD2    C113225   4.689   1.582  12.529 -0.3347 -0.0760  0.0534
  903MPD2    C213226   4.636   1.638  12.411 -0.3316 -0.1695  0.0818
  903MPD2    C313227   4.606   1.553  12.304 -0.1383 -0.2215 -0.4274
  903MPD2    C413228   4.625   1.420  12.317 -0.4461 -0.7527 -0.0827
  903MPD2    C513229   4.661   1.360  12.437 -0.6733 -0.4544 -0.0966
  903MPD2     H13230   4.638   1.746  12.399  1.9144 -0.3065 -0.7275
  903MPD2    H113231   4.620   1.347  12.237 -1.4068 -0.2332 -0.4883
  903MPD2    H213232   4.724   1.387  12.630  1.3883  2.2604 -0.2590
  903MPD2    H313233   4.667   1.253  12.450 -0.9277 -0.2939  1.4373
  903MPD2     N13234   4.557   1.619  12.188 -0.3390 -0.1255 -0.0578
  903MPD2    H513235   4.558   1.720  12.198  0.7961  0.0959 -2.5220
  903MPD2    N113236   0.012   1.674  12.625  0.4254  0.1279  0.2984
  903MPD2    H713237   0.009   1.773  12.601  1.9068  0.7638  2.6718
  904MPD2     C13238   0.360   1.309  13.684  0.0325 -0.6881 -0.7267
  904MPD2    C113239   0.301   1.404  13.768 -0.2760 -1.1951 -0.9316
  904MPD2    C213240   0.357   1.425  13.894 -0.1456 -0.1121 -0.6046
  904MPD2    C313241   0.465   1.351  13.942 -0.7142  0.2026 -0.3320
  904MPD2    C413242   0.517   1.250  13.859  1.0146  0.9409  0.9531
  904MPD2    C513243   0.462   1.229  13.736  0.4220 -0.2891 -0.3703
  904MPD2     H13244   0.323   1.503  13.961  1.8634  0.7445 -0.6149
  904MPD2    H113245   0.606   1.192  13.883 -0.4621 -0.9265  1.9191
  904MPD2    H213246   0.338   1.296  13.579 -2.2035 -1.5930 -0.1586
  904MPD2    H313247   0.508   1.148  13.680  0.7988 -1.2601  1.3426
  904MPD2     N13248   0.515   1.385  14.071 -0.1417  0.0988 -0.1264
  904MPD2    H513249   0.463   1.462  14.112 -2.4300 -0.0779 -2.6746
  904MPD2    N113250   0.179   1.458  13.722  0.1876 -0.0610 -1.0989
  904MPD2    H713251   0.154   1.445  13.625  0.6213  1.4893 -1.4148
  905MPD2     C13252   4.325   1.499  13.143 -0.1073  0.6892 -0.2253
  905MPD2    C113253   4.452   1.506  13.189 -0.1913  0.4151  0.3897
  905MPD2    C213254   4.554   1.446  13.110 -0.0291  0.5838  0.4710
  905MPD2    C313255   4.529   1.359  13.002  0.1480  0.0102 -0.4024
  905MPD2    C413256   4.397   1.359  12.962  0.8735  0.5461  0.0246
  905MPD2    C513257   4.302   1.432  13.033  0.1322  0.1224 -0.2163
  905MPD2     H13258   4.654   1.444  13.151  0.0070  0.6686  0.3846
  905MPD2    H113259   4.364   1.294  12.882  0.5076  0.1750  0.4803
  905MPD2    H213260   4.241   1.553  13.185 -0.3729  0.6591 -0.7210
  905MPD2    H313261   4.199   1.428  12.999  0.1846  3.1067 -0.7191
  905MPD2     N13262   4.610   1.278  12.923 -0.6175 -0.1468  0.4430
  905MPD2    H513263   4.563   1.247  12.839  0.8282  1.4710 -0.9648
  905MPD2    N113264   4.477   1.565  13.321  0.4237 -0.4346 -0.0298
  905MPD2    H713265   4.392   1.591  13.371  0.9340  0.7742  0.2049
  906MPD2     C13266   1.817   1.269  11.487  0.2707 -0.3746 -0.3095
  906MPD2    C113267   1.741   1.177  11.409 -0.3917  0.1428 -0.3825
  906MPD2    C213268   1.699   1.057  11.461  1.0462  0.0247  0.2693
  906MPD2    C313269   1.738   1.021  11.591  0.1200 -0.4823 -0.5290
  906MPD2    C413270   1.803   1.117  11.670 -0.2610  0.0518  0.2427
  906MPD2    C513271   1.843   1.238  11.618  0.1955  0.3185  0.4796
  906MPD2     H13272   1.637   0.993  11.398 -0.6783  1.3135  0.6595
  906MPD2    H113273   1.832   1.092  11.771 -0.5173  1.4385  0.6649
  906MPD2    H213274   1.854   1.366  11.456  0.4266 -0.3725 -0.1162
  906MPD2    H313275   1.909   1.299  11.678  1.7394 -0.5879 -0.2956
  906MPD2     N13276   1.685   0.894  11.639  0.2637  0.3045  0.1078
  906MPD2    H513277   1.636   0.830  11.577  0.2840  1.2314 -0.8582
  906MPD2    N113278   1.706   1.211  11.275  0.5369  0.1550  0.0840
  906MPD2    H713279   1.657   1.137  11.225 -0.7192  1.5174 -0.7025
  907MPD2     C13280   0.468   0.741  15.349  0.4723  0.4535 -0.3190
  907MPD2    C113281   0.502   0.617  15.395 -0.5466 -0.2832 -0.9435
  907MPD2    C213282   0.529   0.593  15.526 -0.1246 -0.2716 -0.4548
  907MPD2    C313283   0.553   0.691  15.615  0.4413  0.0524 -0.6898
  907MPD2    C413284   0.525   0.822  15.575 -0.3690  0.9303  1.0042
  907MPD2    C513285   0.481   0.844  15.443  0.1265 -0.2621  0.5662
  907MPD2     H13286   0.532   0.488  15.554 -0.5661 -0.5989 -1.6290
  907MPD2    H113287   0.545   0.910  15.635 -0.1096  0.8446  1.0481
  907MPD2    H213288   0.432   0.767  15.250 -3.0743 -0.7905  0.6414
  907MPD2    H313289   0.445   0.944  15.425 -0.4394 -0.6217 -0.2930
  907MPD2     N13290   0.609   0.653  15.736 -0.5361  0.2280 -0.4766
  907MPD2    H513291   0.626   0.553  15.745 -0.3872  0.2171 -0.8445
  907MPD2    N113292   0.519   0.502  15.311 -0.1763  0.0166 -0.2632
  907MPD2    H713293   0.541   0.408  15.344 -1.6079 -0.1380  0.2671
  908MPD2     C13294   3.482   1.088   9.531 -0.1815 -0.1076 -0.0305
  908MPD2    C113295   3.361   1.132   9.585  0.4573  0.2328 -0.0125
  908MPD2    C213296   3.343   1.234   9.675  0.1402 -0.4425 -0.6324
  908MPD2    C313297   3.466   1.284   9.733  0.3932  0.7294 -0.2231
  908MPD2    C413298   3.590   1.236   9.695 -1.1082  0.1638  0.5266
  908MPD2    C513299   3.598   1.139   9.595 -0.1146 -0.7761 -0.7834
  908MPD2     H13300   3.247   1.263   9.716 -0.0419 -0.7184 -0.8646
  908MPD2    H113301   3.681   1.280   9.733 -0.4723  1.8929 -2.9901
  908MPD2    H213302   3.487   1.020   9.447 -0.3723  0.5905 -0.6042
  908MPD2    H313303   3.689   1.136   9.536  0.5344 -1.3174  0.2551
  908MPD2     N13304   3.454   1.368   9.846 -0.1826 -0.3998 -0.6009
  908MPD2    H513305   3.359   1.389   9.875  0.4096 -0.6790  1.5551
  908MPD2    N113306   3.244   1.068   9.542  0.4083 -0.0071 -0.3618
  908MPD2    H713307   3.169   1.116   9.590 -1.2194 -1.4173 -1.5040
  909MPD2     C13308   3.481   3.914  12.745 -0.3600  0.1927  0.3368
  909MPD2    C113309   3.466   3.986  12.632 -0.6640  0.8096  0.3497
  909MPD2    C213310   3.382   4.100  12.646 -0.3795 -0.0611 -0.0750
  909MPD2    C313311   3.326   4.138  12.764 -0.7346 -0.4183  1.1478
  909MPD2    C413312   3.346   4.062  12.875 -0.2703  0.2138  0.0123
  909MPD2    C513313   3.424   3.949  12.864 -0.3047  0.7328  0.5907
  909MPD2     H13314   3.363   4.164  12.561  0.5881  0.2031 -0.0935
  909MPD2    H113315   3.293   4.088  12.966  0.4841  0.9936  0.2244
  909MPD2    H213316   3.541   3.824  12.751  1.1502  0.9448 -3.4763
  909MPD2    H313317   3.452   3.893  12.952  1.1166 -2.0415 -1.5894
  909MPD2     N13318   3.244   4.250  12.758 -0.3160 -0.7655 -0.0025
  909MPD2    H513319   3.238   4.299  12.669  1.6570  0.7792  0.7123
  909MPD2    N113320   3.527   3.963  12.506  0.5710 -0.3107  0.3489
  909MPD2    H713321   3.508   4.026  12.429  0.9181 -0.7918 -0.1341
  910MPD2     C13322   0.045   1.503  16.198 -0.1415  0.0856 -0.3160
  910MPD2    C113323   0.068   1.429  16.089 -0.3940  0.4062 -0.2027
  910MPD2    C213324   0.012   1.466  15.965  0.2929  0.3598 -0.5603
  910MPD2    C313325   4.648   1.571  15.958  0.1002  0.0320  0.0033
  910MPD2    C413326   4.621   1.636  16.076  0.1048  0.0443  0.1648
  910MPD2    C513327   4.683   1.611  16.193 -0.1806 -0.0087  0.5289
  910MPD2     H13328   0.037   1.407  15.878 -1.0689 -0.4378 -0.4143
  910MPD2    H113329   4.548   1.715  16.086 -0.5606 -0.5513  0.0598
  910MPD2    H213330   0.096   1.496  16.293 -0.3717 -1.0846 -0.2846
  910MPD2    H313331   4.667   1.673  16.280 -1.3905  1.8140 -0.9959
  910MPD2     N13332   4.580   1.616  15.841  0.3171  0.4103  0.1432
  910MPD2    H513333   4.512   1.691  15.853 -0.6974 -0.5099  0.1457
  910MPD2    N113334   0.138   1.304  16.094  0.0693  0.0475  0.4794
  910MPD2    H713335   0.143   1.256  16.005 -1.0608 -0.0466  0.4632
  911MPD2     C13336   2.506   1.840  16.453  0.5138 -0.4357  0.0570
  911MPD2    C113337   2.582   1.950  16.483 -0.0945  0.1493 -0.0274
  911MPD2    C213338   2.562   2.076  16.428 -0.3511  0.1000  0.6327
  911MPD2    C313339   2.463   2.089  16.334 -0.3707  0.4271  0.6534
  911MPD2    C413340   2.393   1.975  16.297 -0.7941  0.1209  0.1490
  911MPD2    C513341   2.401   1.853  16.366 -0.2487 -0.7638  0.7723
  911MPD2     H13342   2.621   2.164  16.454  0.3123 -0.0339 -0.4305
  911MPD2    H113343   2.323   1.968  16.214 -1.4158 -0.9979  0.7758
  911MPD2    H213344   2.524   1.745  16.501  0.4573 -0.0448  0.8536
  911MPD2    H313345   2.350   1.762  16.337  2.1602 -1.6410 -0.6911
  911MPD2     N13346   2.438   2.199  16.252  0.3457 -0.0284 -0.3662
  911MPD2    H513347   2.368   2.186  16.180  0.4769  1.8264 -0.8321
  911MPD2    N113348   2.700   1.926  16.553 -0.4472 -0.1952  0.5927
  911MPD2    H713349   2.728   1.834  16.585  2.0489  0.6192  0.7447
  912MPD2     C13350   2.564   1.935  15.851  0.1715  0.7980  0.0392
  912MPD2    C113351   2.441   1.977  15.896  0.0254  1.1913 -0.0449
  912MPD2    C213352   2.358   1.882  15.954  0.7032 -0.5293  0.3800
  912MPD2    C313353   2.398   1.750  15.966  0.3901  0.2109 -0.6785
  912MPD2    C413354   2.518   1.711  15.906  0.6882 -0.2929 -0.2387
  912MPD2    C513355   2.590   1.800  15.844 -0.2962  0.5816  0.3975
  912MPD2     H13356   2.268   1.907  16.008  0.2077 -0.3162 -0.5428
  912MPD2    H113357   2.552   1.609  15.914 -0.7069 -0.7527 -0.1015
  912MPD2    H213358   2.628   2.014  15.813  0.8239 -0.5044 -1.5904
  912MPD2    H313359   2.688   1.764  15.817 -1.6317 -0.7339 -2.7097
  912MPD2     N13360   2.323   1.649  16.033  0.4337 -0.3293 -0.1263
  912MPD2    H513361   2.232   1.683  16.064  0.9808  1.0991 -0.1123
  912MPD2    N113362   2.407   2.116  15.882 -0.5817  0.2383  0.6996
  912MPD2    H713363   2.473   2.170  15.826 -2.5507  3.5577  1.5729
  913MPD2     C13364   3.492   2.562  11.035 -0.2959  0.4435  0.3375
  913MPD2    C113365   3.489   2.694  10.983  0.6645  0.3575 -0.0148
  913MPD2    C213366   3.516   2.715  10.848 -0.0588 -0.6621 -0.2082
  913MPD2    C313367   3.549   2.604  10.776 -0.8881  0.2541  0.1551
  913MPD2    C413368   3.565   2.479  10.833  0.5277 -0.1156  0.0295
  913MPD2    C513369   3.536   2.459  10.962 -0.3560  0.6659  0.1753
  913MPD2     H13370   3.509   2.814  10.804  0.5671 -1.5819 -2.3770
  913MPD2    H113371   3.610   2.392  10.786 -1.8771 -0.9132 -0.8336
  913MPD2    H213372   3.478   2.540  11.140  2.9864  2.3044  1.1621
  913MPD2    H313373   3.546   2.363  11.011  0.3951 -0.9164 -3.0880
  913MPD2     N13374   3.576   2.625  10.642  0.8028 -0.0246 -0.1720
  913MPD2    H513375   3.540   2.712  10.604  2.2190  0.1076 -1.2419
  913MPD2    N113376   3.462   2.797  11.066  0.0026  0.2181 -0.4183
  913MPD2    H713377   3.432   2.770  11.159  0.7086  2.9513  0.5980
  914MPD2     C13378   0.902   2.536  12.232 -0.1265 -0.1102 -0.1699
  914MPD2    C113379   0.894   2.668  12.275 -0.0877  0.1242  0.0880
  914MPD2    C213380   0.968   2.704  12.386 -0.2174 -0.2166 -1.3276
  914MPD2    C313381   1.041   2.606  12.450 -0.1436 -0.1678 -0.5704
  914MPD2    C413382   1.038   2.473  12.425  0.3041 -0.3746  0.1616
  914MPD2    C513383   0.972   2.441  12.309  0.7111 -0.9693 -0.3048
  914MPD2     H13384   0.963   2.807  12.418  0.7490  0.2697 -2.7675
  914MPD2    H113385   1.091   2.393  12.476  0.7819 -1.1782 -1.5904
  914MPD2    H213386   0.843   2.499  12.148  2.2629  0.8699 -2.2888
  914MPD2    H313387   0.958   2.338  12.280 -1.6522 -0.9000  0.6417
  914MPD2     N13388   1.106   2.656  12.560  0.1114 -0.1385 -0.0216
  914MPD2    H513389   1.090   2.756  12.574  0.7144  0.0965 -1.0047
  914MPD2    N113390   0.821   2.772  12.206  0.5560 -0.2509  0.3298
  914MPD2    H713391   0.826   2.867  12.241 -1.3906  0.3755 -1.0496
  915MPD2     C13392   4.163   3.715  15.727  0.6423  0.5869  0.9723
  915MPD2    C113393   4.061   3.736  15.638 -0.3095  0.2435  0.0213
  915MPD2    C213394   3.937   3.772  15.694  0.9421 -0.2702  0.7851
  915MPD2    C313395   3.915   3.768  15.828 -0.0332  0.4387  0.3686
  915MPD2    C413396   4.021   3.738  15.908  0.3826  0.5764 -0.5112
  915MPD2    C513397   4.145   3.720  15.859  0.3859 -0.0976  0.0421
  915MPD2     H13398   3.853   3.781  15.627 -0.3413 -1.4505  2.2346
  915MPD2    H113399   4.019   3.750  16.016 -0.8862 -0.4797 -0.4153
  915MPD2    H213400   4.267   3.702  15.699 -0.0307  0.6610 -1.5287
  915MPD2    H313401   4.228   3.699  15.925  0.0881  1.2975  0.8723
  915MPD2     N13402   3.786   3.792  15.879  0.1234 -0.5516  0.1476
  915MPD2    H513403   3.706   3.777  15.818  0.3370 -0.8306 -0.0701
  915MPD2    N113404   4.081   3.727  15.497  0.0087 -0.4870  0.4829
  915MPD2    H713405   4.172   3.694  15.467 -0.3964 -0.2527 -0.9799
  916MPD2     C13406   1.955   1.441  15.955 -0.0461 -0.3398 -0.2030
  916MPD2    C113407   1.920   1.316  15.995 -0.1730 -0.4485  0.2891
  916MPD2    C213408   1.979   1.203  15.939  0.0381 -0.6716  0.1310
  916MPD2    C313409   2.070   1.224  15.836  0.3647 -0.2306 -0.9483
  916MPD2    C413410   2.092   1.354  15.794  0.4674  0.2733  0.0142
  916MPD2    C513411   2.032   1.462  15.850 -0.8216 -0.8061 -0.0102
  916MPD2     H13412   1.958   1.102  15.972  1.0112 -0.5942  0.9686
  916MPD2    H113413   2.127   1.373  15.693 -0.2140  1.1822 -0.0447
  916MPD2    H213414   1.891   1.515  16.003  1.0578  0.8535 -0.5894
  916MPD2    H313415   2.053   1.560  15.808  0.2454 -1.0492 -0.0431
  916MPD2     N13416   2.113   1.114  15.769 -0.3347  0.4461 -0.1578
  916MPD2    H513417   2.084   1.020  15.797  2.1117 -0.3490 -0.2836
  916MPD2    N113418   1.811   1.312  16.087  0.0581 -0.7010  0.2418
  916MPD2    H713419   1.761   1.400  16.095 -1.6602 -1.8730  2.3709
  917MPD2     C13420   2.769   3.197  11.472  0.0509 -0.5284  0.4840
  917MPD2    C113421   2.731   3.320  11.413 -0.3320  0.0234  0.3167
  917MPD2    C213422   2.814   3.360  11.308  0.5610  0.0670 -0.8600
  917MPD2    C313423   2.935   3.297  11.271 -0.2915 -0.3575  0.1635
  917MPD2    C413424   2.960   3.176  11.328 -0.1335 -0.9783  0.0035
  917MPD2    C513425   2.884   3.133  11.437 -0.2679 -0.7144 -0.6178
  917MPD2     H13426   2.781   3.446  11.251 -0.0173 -0.3731 -1.1852
  917MPD2    H113427   3.048   3.118  11.302  0.3433  0.5014 -1.7124
  917MPD2    H213428   2.712   3.160  11.556  0.1586 -0.0756  0.7551
  917MPD2    H313429   2.898   3.037  11.485  1.4655  0.4611  1.2355
  917MPD2     N13430   3.008   3.365  11.176 -0.0308  0.3258  0.6325
  917MPD2    H513431   2.992   3.462  11.151  2.5039  0.2980 -1.1400
  917MPD2    N113432   2.617   3.392  11.465  0.1786  0.1601 -0.1776
  917MPD2    H713433   2.554   3.345  11.530  0.3162  0.6176  0.2902
  918MPD2     C13434   2.621   4.071  12.110 -0.9959 -0.0223  0.5204
  918MPD2    C113435   2.717   3.976  12.072 -0.1796  0.7796 -0.2161
  918MPD2    C213436   2.681   3.877  11.989  0.8830 -0.0044 -0.9550
  918MPD2    C313437   2.545   3.867  11.952  0.2519  0.3984  0.2377
  918MPD2    C413438   2.451   3.959  12.002  0.0147 -0.1160  0.0293
  918MPD2    C513439   2.488   4.071  12.070 -0.0194  0.0188 -0.0337
  918MPD2     H13440   2.757   3.810  11.951  4.8236  2.9365  1.7560
  918MPD2    H113441   2.350   3.959  11.961  0.6304  0.5753 -1.5239
  918MPD2    H213442   2.651   4.151  12.176  1.6425 -2.4943  2.3301
  918MPD2    H313443   2.419   4.153  12.089  0.4098  0.0969  1.1773
  918MPD2     N13444   2.513   3.780  11.844 -0.0035 -0.0105  0.4590
  918MPD2    H513445   2.590   3.749  11.786 -0.6349 -0.5255 -0.1029
  918MPD2    N113446   2.856   3.987  12.109  0.0531  0.2506 -0.4319
  918MPD2    H713447   2.917   3.922  12.060 -2.1262 -1.0011 -1.4696
  919MPD2     C13448   3.041   2.792  11.340 -0.0321  0.1116 -0.2925
  919MPD2    C113449   3.022   2.655  11.366  0.7993  0.0412 -0.0586
  919MPD2    C213450   3.053   2.577  11.263 -0.4163  0.2173 -0.3874
  919MPD2    C313451   3.111   2.613  11.142  0.6762 -0.6293  0.1059
  919MPD2    C413452   3.118   2.745  11.110 -0.2620 -0.6058  0.7643
  919MPD2    C513453   3.069   2.827  11.207 -0.7297  0.3068  0.0199
  919MPD2     H13454   3.031   2.472  11.284  1.6670 -0.3138 -0.9288
  919MPD2    H113455   3.167   2.788  11.023 -0.4525 -2.5961 -0.3212
  919MPD2    H213456   3.016   2.869  11.411  0.2215 -0.1170  0.0470
  919MPD2    H313457   3.077   2.932  11.181  0.1849  0.3129  0.3441
  919MPD2     N13458   3.158   2.521  11.043  0.1421  0.4528  0.3435
  919MPD2    H513459   3.194   2.558  10.956  1.6634 -0.9485  0.3687
  919MPD2    N113460   2.992   2.592  11.485  0.5271  0.0037  0.3493
  919MPD2    H713461   3.022   2.495  11.494  0.4994  0.0266  0.6946
  920MPD2     C13462   3.033   2.387  10.139 -0.5198  0.9097 -0.0422
  920MPD2    C113463   2.968   2.287  10.202  1.1908  0.2052 -0.5065
  920MPD2    C213464   2.994   2.249  10.335 -0.3025 -0.7025  0.1674
  920MPD2    C313465   3.099   2.314  10.399  0.1708 -0.3611  0.0275
  920MPD2    C413466   3.169   2.403  10.331 -0.8455 -0.2307  0.3337
  920MPD2    C513467   3.139   2.437  10.201 -0.0026 -0.5053  0.1539
  920MPD2     H13468   2.941   2.172  10.391  2.3770 -0.1608  3.4387
  920MPD2    H113469   3.264   2.439  10.368 -1.7632  0.9986  1.4771
  920MPD2    H213470   3.011   2.425  10.040 -2.2770 -0.0270 -0.0068
  920MPD2    H313471   3.208   2.502  10.149  1.4432 -0.5550  2.0256
  920MPD2     N13472   3.143   2.272  10.531  0.1916  0.0542  0.0094
  920MPD2    H513473   3.088   2.192  10.560  3.0290 -2.0081 -0.3721
  920MPD2    N113474   2.861   2.213  10.151  0.8034  0.3813  0.2144
  920MPD2    H713475   2.808   2.158  10.218 -0.7155 -0.5604 -1.7860
  921MPD2     C13476   3.551   2.338  16.870  0.2187 -0.1385 -0.3379
  921MPD2    C113477   3.544   2.260  16.755  0.1074  0.6365  0.0578
  921MPD2    C213478   3.434   2.182  16.742 -0.4669 -0.2491 -0.3240
  921MPD2    C313479   3.346   2.171  16.850 -0.3291 -0.3245  0.3911
  921MPD2    C413480   3.346   2.265  16.951 -0.2196 -0.3924  0.4278
  921MPD2    C513481   3.447   2.354  16.956 -0.8417  0.0628 -0.3201
  921MPD2     H13482   3.423   2.120  16.655  0.2150  0.0756 -0.6379
  921MPD2    H113483   3.269   2.271  17.027  0.0590  0.8122  0.6110
  921MPD2    H213484   3.638   2.403  16.878  2.1933 -2.5495 -2.0484
  921MPD2    H313485   3.444   2.426  17.038  0.0089  0.2125 -0.4163
  921MPD2     N13486   3.230   2.088  16.842 -0.5155 -0.1082  0.7125
  921MPD2    H513487   3.159   2.092  16.914 -0.2139  3.3792  0.8392
  921MPD2    N113488   3.660   2.263  16.671 -0.4627 -0.0168 -0.7416
  921MPD2    H713489   3.744   2.314  16.699  0.3740 -1.9172  0.1643
  922MPD2     C13490   4.505   4.648  16.733  0.1976  0.2482  0.3283
  922MPD2    C113491   4.472   4.701  16.855 -0.0385  0.1006 -0.4339
  922MPD2    C213492   4.363   4.651  16.932 -0.2685  0.3173  0.7582
  922MPD2    C313493   4.274   4.559  16.876 -0.1676 -0.1431 -0.0180
  922MPD2    C413494   4.302   4.516  16.750  0.1340 -1.0189 -0.5033
  922MPD2    C513495   4.415   4.551  16.681 -0.0867 -0.0305  0.1117
  922MPD2     H13496   4.353   4.709  17.022 -1.3468  1.1864  0.0820
  922MPD2    H113497   4.255   4.432  16.700  2.2062 -2.7752  0.5039
  922MPD2    H213498   4.579   4.690  16.666  0.1890  0.1582  0.2629
  922MPD2    H313499   4.422   4.508  16.582 -0.6798  2.9951 -1.2564
  922MPD2     N13500   4.157   4.518  16.947  0.1241 -0.7228 -0.1523
  922MPD2    H513501   4.150   4.542  17.046  3.2620 -2.7955  0.5430
  922MPD2    N113502   4.542   0.087  16.910  0.0221 -0.2621 -0.1357
  922MPD2    H713503   4.513   0.123  17.000  1.3754  0.9881 -0.1912
  923MPD2     C13504   1.692   0.785   9.596  0.4121 -0.4627 -0.5054
  923MPD2    C113505   1.564   0.844   9.606  0.1109  0.2459 -0.6719
  923MPD2    C213506   1.556   0.935   9.712 -0.0638 -0.4311 -0.8194
  923MPD2    C313507   1.658   0.969   9.792 -0.4706  0.6604 -0.0034
  923MPD2    C413508   1.772   0.899   9.788 -0.3972 -0.2613 -0.0408
  923MPD2    C513509   1.791   0.809   9.688  0.8992 -0.5249  0.0229
  923MPD2     H13510   1.458   0.975   9.737 -0.2830 -0.0172 -2.2855
  923MPD2    H113511   1.854   0.933   9.850 -0.6176  0.9601 -0.4225
  923MPD2    H213512   1.706   0.714   9.515  0.5800 -0.7320 -0.2389
  923MPD2    H313513   1.889   0.764   9.678  0.4765 -1.5638  0.5928
  923MPD2     N13514   1.644   1.072   9.892  0.3338 -0.1345 -0.4606
  923MPD2    H513515   1.712   1.075   9.966  1.2371 -1.4214 -1.2459
  923MPD2    N113516   1.468   0.819   9.500 -0.5147  0.3759 -0.1009
  923MPD2    H713517   1.495   0.756   9.425  0.5794  1.6606 -0.8069
  924MPD2     C13518   0.879   0.074  15.654  0.4892 -0.1353  0.5484
  924MPD2    C113519   0.816   0.091  15.774 -0.2421 -0.9302  0.6544
  924MPD2    C213520   0.857   0.197  15.854  0.3905  0.6450 -0.3057
  924MPD2    C313521   0.957   0.288  15.811  1.1375  0.2322  1.0674
  924MPD2    C413522   1.023   0.260  15.692 -0.2008 -0.2471 -0.6310
  924MPD2    C513523   0.988   0.151  15.623 -0.0144 -0.4929 -0.2556
  924MPD2     H13524   0.810   0.220  15.949  2.1405  1.0221  0.4639
  924MPD2    H113525   1.103   0.322  15.653 -1.6223  1.7744 -0.3358
  924MPD2    H213526   0.843   0.003  15.580  1.4873 -0.3707  0.2849
  924MPD2    H313527   1.051   0.114  15.542  3.0235  0.5949  1.6323
  924MPD2     N13528   0.987   0.412  15.880 -0.0915  0.7956 -0.5335
  924MPD2    H513529   1.040   0.479  15.826  1.6028 -2.0880 -2.4782
  924MPD2    N113530   0.716   4.722  15.804 -0.0569 -0.4370 -0.3588
  924MPD2    H713531   0.666   4.660  15.742 -0.4948  0.4989 -0.9437
  925MPD2     C13532   4.563   2.434  14.813  0.1578  0.1296  0.6068
  925MPD2    C113533   4.437   2.472  14.777  0.6975 -0.2114  0.3317
  925MPD2    C213534   4.347   2.522  14.869  0.2175  0.2308 -0.2392
  925MPD2    C313535   4.380   2.530  15.005  0.4617  0.8515 -0.6028
  925MPD2    C413536   4.513   2.503  15.044  0.2547 -0.3109 -0.4737
  925MPD2    C513537   4.598   2.452  14.948  0.4776  0.3724  0.9412
  925MPD2     H13538   4.249   2.542  14.827 -0.6569 -0.8520  1.2988
  925MPD2    H113539   4.555   2.514  15.143 -0.2163 -1.9239 -0.0967
  925MPD2    H213540   4.630   2.384  14.744  0.6998  0.3648  0.9637
  925MPD2    H313541   4.692   2.421  14.992  1.8877 -1.1136 -3.0393
  925MPD2     N13542   4.281   2.553  15.108 -0.1839  0.8347  0.3172
  925MPD2    H513543   4.320   2.544  15.201 -1.9668 -2.5097  0.7128
  925MPD2    N113544   4.392   2.474  14.642  0.4613  0.0035 -0.2757
  925MPD2    H713545   4.301   2.511  14.616 -0.2869 -1.8053 -0.2537
  926MPD2     C13546   3.405   1.069  13.374  0.1801  0.5366 -0.6533
  926MPD2    C113547   3.298   1.129  13.302 -0.2754  0.6065 -0.1652
  926MPD2    C213548   3.331   1.189  13.182 -1.2845 -0.0765 -0.1298
  926MPD2    C313549   3.455   1.179  13.119 -0.3566  0.2444  0.1054
  926MPD2    C413550   3.561   1.127  13.189  0.0601 -0.6356  0.6578
  926MPD2    C513551   3.531   1.069  13.312 -0.1239 -0.0690 -0.3350
  926MPD2     H13552   3.253   1.248  13.138  1.2883  2.9660 -0.6037
  926MPD2    H113553   3.655   1.112  13.136 -0.9545 -2.0026 -0.7331
  926MPD2    H213554   3.396   1.026  13.473  0.5940  0.6505 -0.5649
  926MPD2    H313555   3.617   1.016  13.352  0.3525  0.6176 -0.4509
  926MPD2     N13556   3.488   1.226  12.995  0.2881  0.2844  0.7686
  926MPD2    H513557   3.588   1.232  12.976  0.4884 -0.8927  1.4375
  926MPD2    N113558   3.170   1.157  13.363  0.0725 -0.0421  0.5085
  926MPD2    H713559   3.108   1.213  13.306 -0.4753 -2.1993 -1.0182
  927MPD2     C13560   3.071   4.181   0.279  0.1377 -0.6014  0.3234
  927MPD2    C113561   3.083   4.070   0.359 -0.8782 -0.4660  0.4009
  927MPD2    C213562   3.176   3.978   0.324 -0.3137 -0.5988 -0.5782
  927MPD2    C313563   3.252   3.987   0.208 -0.3348 -0.3359  0.2772
  927MPD2    C413564   3.238   4.106   0.130 -0.2298  0.7579 -0.5780
  927MPD2    C513565   3.151   4.200   0.173  0.2176  0.1952  0.2299
  927MPD2     H13566   3.196   3.884   0.375  0.0536  0.3467  1.0121
  927MPD2    H113567   3.284   4.128   0.034 -1.8109  0.4785 -1.4037
  927MPD2    H213568   3.002   4.258   0.313  1.0956  0.5954 -0.4413
  927MPD2    H313569   3.130   4.287   0.111 -0.9717 -2.9812 -3.8003
  927MPD2     N13570   3.340   3.884   0.175  0.5112 -0.0062  0.2360
  927MPD2    H513571   3.373   3.825   0.252  0.1850 -2.3478 -1.4153
  927MPD2    N113572   2.988   4.050   0.463 -0.0305 -0.0324  0.6339
  927MPD2    H713573   2.931   4.129   0.492  0.0367  0.7653 -1.3962
  928MPD2     C13574   0.308   2.254   0.453  0.9852 -0.4134  0.2883
  928MPD2    C113575   0.394   2.213   0.553  0.0170  0.0404 -0.3876
  928MPD2    C213576   0.530   2.195   0.513 -0.0312  0.3533 -0.6730
  928MPD2    C313577   0.574   2.227   0.388 -0.5280 -0.2624 -0.9421
  928MPD2    C413578   0.485   2.284   0.299  0.2114 -0.6802 -0.5868
  928MPD2    C513579   0.351   2.289   0.328  0.2073 -0.4846  0.2929
  928MPD2     H13580   0.595   2.166   0.596 -0.4823  1.0908 -0.0556
  928MPD2    H113581   0.524   2.319   0.204  1.3575 -0.9781 -0.2226
  928MPD2    H213582   0.201   2.250   0.472  0.4797  1.3062 -2.2198
  928MPD2    H313583   0.275   2.310   0.254  0.6773  2.0504  0.5510
  928MPD2     N13584   0.707   2.230   0.352 -0.2321  0.3881  0.3578
  928MPD2    H513585   0.719   2.255   0.254 -0.2499 -1.6340 -0.1501
  928MPD2    N113586   0.342   2.187   0.688 -0.3940 -0.0369 -0.2178
  928MPD2    H713587   0.242   2.198   0.701 -0.7966 -2.8426 -0.9427
  929MPD2     C13588   1.142   1.234  10.642 -0.1851 -0.4294  0.4040
  929MPD2    C113589   1.114   1.100  10.649 -0.7246  0.3817 -0.2597
  929MPD2    C213590   1.062   1.049  10.538 -0.1451  0.5459 -0.1983
  929MPD2    C313591   1.027   1.130  10.425  0.9429 -0.3352  0.1370
  929MPD2    C413592   1.046   1.267  10.427  0.7742 -0.4297 -0.1350
  929MPD2    C513593   1.108   1.320  10.539 -0.2579  0.3655  0.4191
  929MPD2     H13594   1.015   0.951  10.543  3.1166 -1.1753 -3.2612
  929MPD2    H113595   1.018   1.334  10.346 -3.2234  0.3214  1.8327
  929MPD2    H213596   1.194   1.284  10.723  0.1884 -1.8060  1.0282
  929MPD2    H313597   1.129   1.427  10.533 -1.3207  0.4956 -0.7766
  929MPD2     N13598   0.973   1.078  10.310 -0.6373 -0.4454 -0.1269
  929MPD2    H513599   0.929   1.143  10.245 -1.8187 -1.7905 -0.6760
  929MPD2    N113600   1.158   1.030  10.762  0.3760  0.7132 -0.0893
  929MPD2    H713601   1.203   1.089  10.831  2.2872  1.5004 -2.0010
  930MPD2     C13602   2.630   3.614  14.200  0.2002 -0.2619 -0.0877
  930MPD2    C113603   2.729   3.710  14.181 -0.8160 -0.3225  0.5488
  930MPD2    C213604   2.732   3.771  14.058 -0.1463 -0.4627 -0.5378
  930MPD2    C313605   2.640   3.743  13.955  0.2088 -0.5842 -0.0877
  930MPD2    C413606   2.534   3.655  13.982 -0.0398 -0.2251 -0.6947
  930MPD2    C513607   2.533   3.598  14.107 -0.2808 -0.2641 -0.4070
  930MPD2     H13608   2.808   3.843  14.027 -1.7422  1.9235  1.0556
  930MPD2    H113609   2.454   3.632  13.913  0.4353 -0.9079 -1.0233
  930MPD2    H213610   2.617   3.560  14.294 -1.6893  2.6425  1.3144
  930MPD2    H313611   2.444   3.539  14.123  0.4674 -1.0356  0.8396
  930MPD2     N13612   2.670   3.795  13.826 -0.0908 -0.2278  0.8342
  930MPD2    H513613   2.744   3.864  13.819  1.0023 -1.4913 -0.0663
  930MPD2    N113614   2.828   3.721  14.283 -0.1071  0.4775 -0.3301
  930MPD2    H713615   2.824   3.661  14.364 -0.9708 -1.8580 -2.1215
  931MPD2     C13616   3.192   3.636   1.100 -0.2204 -0.1582  0.1017
  931MPD2    C113617   3.054   3.633   1.093 -0.2941  0.3319  0.3075
  931MPD2    C213618   2.985   3.529   1.157  0.6647 -0.4053 -0.5491
  931MPD2    C313619   3.050   3.440   1.243 -0.4891 -0.5351  1.0730
  931MPD2    C413620   3.189   3.430   1.237  0.1365 -0.6416 -0.5630
  931MPD2    C513621   3.253   3.528   1.166 -0.0027  0.2186  0.4264
  931MPD2     H13622   2.877   3.531   1.148  0.5921  1.9660  0.7382
  931MPD2    H113623   3.239   3.357   1.299  2.5206  3.3136  2.1851
  931MPD2    H213624   3.242   3.712   1.041 -1.8125 -0.4411 -1.6211
  931MPD2    H313625   3.360   3.513   1.170 -0.1150 -0.8658 -0.8136
  931MPD2     N13626   2.974   3.353   1.331  0.0671  0.2715 -0.2032
  931MPD2    H513627   3.024   3.289   1.392 -2.1571 -1.4302 -0.1566
  931MPD2    N113628   2.998   3.729   1.006 -0.4792 -0.4305 -0.1133
  931MPD2    H713629   3.064   3.801   0.978  1.0411 -1.4981  0.7077
  932MPD2     C13630   0.109   1.361  11.460  0.4964 -0.9116  0.6398
  932MPD2    C113631   0.126   1.498  11.455  0.6023 -0.1422 -0.1168
  932MPD2    C213632   0.222   1.563  11.533  0.3237  0.4215  0.0820
  932MPD2    C313633   0.314   1.491  11.611  0.1374  0.4781 -0.4193
  932MPD2    C413634   0.308   1.355  11.598  0.4242 -0.5384  0.0682
  932MPD2    C513635   0.207   1.292  11.525  0.3916  0.5342  0.7899
  932MPD2     H13636   0.229   1.671  11.524  0.8066  0.4079  0.2722
  932MPD2    H113637   0.374   1.296  11.660  0.5744  0.6521  1.0446
  932MPD2    H213638   0.031   1.303  11.412  0.5491  0.8201 -1.4908
  932MPD2    H313639   0.206   1.184  11.537 -0.1394  0.6722  1.9668
  932MPD2     N13640   0.409   1.553  11.700 -0.4061  0.4422 -0.5492
  932MPD2    H513641   0.491   1.501  11.730 -0.7194 -0.1226 -0.6753
  932MPD2    N113642   0.041   1.576  11.373 -0.1931  0.0462 -0.3159
  932MPD2    H713643   0.063   1.675  11.372  0.1561 -0.0192  2.2073
  933MPD2     C13644   4.485   1.905   0.867 -0.6062  0.2810  0.3862
  933MPD2    C113645   4.527   1.979   0.972  0.0326 -0.2692  0.1976
  933MPD2    C213646   4.443   2.013   1.079  0.0470 -0.5032  0.1005
  933MPD2    C313647   4.311   1.977   1.073 -0.1523  0.4667  0.5233
  933MPD2    C413648   4.263   1.909   0.963  0.4520  0.3012  0.0452
  933MPD2    C513649   4.352   1.869   0.863 -1.0091  0.4190  0.5688
  933MPD2     H13650   4.467   2.059   1.174 -1.6207 -1.2929  0.8927
  933MPD2    H113651   4.160   1.878   0.954  0.6552 -0.6101  0.8482
  933MPD2    H213652   4.540   1.887   0.776 -0.8888  1.0073  0.0681
  933MPD2    H313653   4.314   1.819   0.775  0.8116 -2.2593  1.3228
  933MPD2     N13654   4.231   2.009   1.183  0.5255 -0.2483 -0.3171
  933MPD2    H513655   4.276   2.061   1.257 -2.6324 -0.8825  2.0860
  933MPD2    N113656   4.664   2.011   0.970 -0.9206  0.0335  0.4137
  933MPD2    H713657   4.715   1.973   0.891 -1.6900  1.9522 -1.0206
  934MPD2     C13658   1.513   4.519   2.451 -0.5463  0.2000 -0.4496
  934MPD2    C113659   1.628   4.453   2.412  0.4325  0.9460  0.3657
  934MPD2    C213660   1.629   4.393   2.288 -0.2904 -0.2504 -0.0722
  934MPD2    C313661   1.514   4.391   2.207  0.9944  0.2800  0.0698
  934MPD2    C413662   1.399   4.464   2.243  0.0162  0.6083 -0.0591
  934MPD2    C513663   1.403   4.520   2.366 -0.1434  1.1182  0.1364
  934MPD2     H13664   1.717   4.336   2.260 -0.6463 -1.4534  1.2476
  934MPD2    H113665   1.310   4.481   2.184 -0.6772 -2.5335  0.0925
  934MPD2    H213666   1.511   4.579   2.541  1.2797 -1.0292  0.4288
  934MPD2    H313667   1.317   4.577   2.400 -0.6661 -0.4801  1.5165
  934MPD2     N13668   1.497   4.325   2.086  0.6543 -0.8433  0.3387
  934MPD2    H513669   1.416   4.346   2.029 -0.1443  0.1289  1.8596
  934MPD2    N113670   1.740   4.442   2.494 -0.9934  0.6984 -0.3017
  934MPD2    H713671   1.821   4.395   2.455  0.6810  3.1854  0.1715
  935MPD2     C13672   2.074   3.571   1.760 -0.3596  0.5570  0.6287
  935MPD2    C113673   1.978   3.580   1.662 -0.1057  0.6064 -0.2475
  935MPD2    C213674   1.881   3.675   1.682  0.3415 -0.2871  0.8088
  935MPD2    C313675   1.878   3.765   1.783 -0.0833  0.2588  0.0344
  935MPD2    C413676   1.982   3.759   1.870  0.6324  0.1505  0.5608
  935MPD2    C513677   2.072   3.661   1.862  0.3436 -1.4382 -0.4945
  935MPD2     H13678   1.799   3.670   1.611 -1.4169 -1.5868  2.9074
  935MPD2    H113679   1.988   3.834   1.948 -0.2721  1.5502 -0.7073
  935MPD2    H213680   2.160   3.505   1.750 -0.3148  0.7888 -0.5152
  935MPD2    H313681   2.151   3.664   1.937  0.6216  1.8083 -0.9010
  935MPD2     N13682   1.777   3.860   1.802  0.5377  0.2543 -0.3019
  935MPD2    H513683   1.782   3.919   1.885  1.8280  1.8620 -1.5408
  935MPD2    N113684   1.961   3.488   1.557  0.0848  0.5462  0.0953
  935MPD2    H713685   1.880   3.496   1.496  0.7871  0.3185 -0.8681
  936MPD2     C13686   0.117   1.032  12.390 -0.4410 -0.0753  0.5639
  936MPD2    C113687   0.120   1.089  12.515 -0.1023  0.2695  0.1237
  936MPD2    C213688   0.207   1.198  12.540 -1.0037  0.4359 -0.0669
  936MPD2    C313689   0.290   1.240  12.445 -0.8553 -0.0578  0.6533
  936MPD2    C413690   0.291   1.178  12.325  0.6086 -0.8365  0.3490
  936MPD2    C513691   0.209   1.077  12.299  0.8116 -0.1921 -0.2290
  936MPD2     H13692   0.209   1.236  12.642  4.1136 -0.5950  0.2339
  936MPD2    H113693   0.368   1.215  12.258 -0.7043  1.5972  0.1932
  936MPD2    H213694   0.079   0.931  12.381 -1.8852  0.3566  1.8001
  936MPD2    H313695   0.213   1.009  12.215  3.1299  0.1667 -0.4267
  936MPD2     N13696   0.385   1.338  12.478 -0.4010 -0.9558 -0.3947
  936MPD2    H513697   0.392   1.352  12.578  0.8910 -0.0138 -0.6006
  936MPD2    N113698   0.060   1.029  12.631 -0.0163 -0.1365  0.0948
  936MPD2    H713699   0.081   1.072  12.721  2.2996 -2.9360  0.8853
  937MPD2     C13700   3.103   1.973  11.670  0.5900  0.0406 -0.2107
  937MPD2    C113701   3.184   2.078  11.638  0.1702 -0.2067 -0.5073
  937MPD2    C213702   3.267   2.064  11.526  0.0359  0.0648 -0.0341
  937MPD2    C313703   3.305   1.941  11.488  0.0335 -0.3900 -0.0632
  937MPD2    C413704   3.234   1.831  11.538  0.6665  0.3008  0.7280
  937MPD2    C513705   3.134   1.849  11.624 -0.7572 -0.3807  0.4410
  937MPD2     H13706   3.316   2.155  11.492 -1.2511 -0.2207 -2.6865
  937MPD2    H113707   3.256   1.728  11.513  0.3577  0.1851  0.9342
  937MPD2    H213708   3.023   1.991  11.742 -0.4261  1.5785 -1.7244
  937MPD2    H313709   3.078   1.762  11.655  1.8912 -1.5831  1.8643
  937MPD2     N13710   3.399   1.929  11.387 -0.3672 -0.1230 -0.2741
  937MPD2    H513711   3.433   2.015  11.347  1.0229 -0.1274  0.8897
  937MPD2    N113712   3.149   2.211  11.681  0.1895  0.2842  0.1069
  937MPD2    H713713   3.170   2.292  11.624  0.7086  0.4736  0.5624
  938MPD2     C13714   0.893   3.914   0.644 -0.1179 -0.2135  0.1959
  938MPD2    C113715   1.018   3.936   0.714 -0.2270 -0.3234 -0.1685
  938MPD2    C213716   1.032   3.885   0.841 -0.4325 -0.2155 -0.5245
  938MPD2    C313717   0.937   3.797   0.891 -0.0745 -0.0649  0.3723
  938MPD2    C413718   0.812   3.772   0.827  0.0157 -0.1760  1.1452
  938MPD2    C513719   0.795   3.841   0.710  0.0170  0.2971  0.3797
  938MPD2     H13720   1.125   3.894   0.897  0.0176 -0.9418 -1.1497
  938MPD2    H113721   0.731   3.723   0.880 -1.5895  0.6364 -0.5780
  938MPD2    H213722   0.869   3.967   0.553 -0.8645  0.0070  0.5235
  938MPD2    H313723   0.694   3.823   0.675  0.0738  1.9553 -0.5928
  938MPD2     N13724   0.952   3.770   1.028 -0.6559  0.2884  0.2744
  938MPD2    H513725   1.011   3.827   1.089 -1.3238  1.1589  0.1005
  938MPD2    N113726   1.121   4.024   0.678 -0.3669 -0.0672  0.7291
  938MPD2    H713727   1.191   4.059   0.742 -0.6039 -0.0087  0.9567
  939MPD2     C13728   1.849   0.054   1.506  0.2435 -0.5190  0.4000
  939MPD2    C113729   1.777   0.132   1.417  0.8672 -0.6943  0.2668
  939MPD2    C213730   1.786   0.119   1.279  0.1901 -0.2052 -0.2297
  939MPD2    C313731   1.883   0.044   1.219  0.4271 -0.1597 -0.3491
  939MPD2    C413732   1.959   4.695   1.306  0.1736  0.0236 -0.0022
  939MPD2    C513733   1.943   4.693   1.447  0.5207  0.0023  0.7921
  939MPD2     H13734   1.722   0.170   1.208  0.4075 -0.9450 -0.9502
  939MPD2    H113735   2.039   4.633   1.267 -0.1740 -0.9597  0.8300
  939MPD2    H213736   1.837   0.062   1.614  0.0110 -2.7957  0.5368
  939MPD2    H313737   2.006   4.634   1.513 -0.4493 -1.8508  0.0403
  939MPD2     N13738   1.905   0.044   1.081 -0.0354  0.1338 -0.2252
  939MPD2    H513739   1.846   0.102   1.021  1.7061  1.8714 -0.2680
  939MPD2    N113740   1.683   0.212   1.482  0.2593  0.2210  0.0180
  939MPD2    H713741   1.669   0.202   1.583 -1.2050 -3.8132 -0.5758
  940MPD2     C13742   1.277   0.353  13.639 -0.1912 -0.8227  0.2735
  940MPD2    C113743   1.312   0.480  13.686 -0.0011 -0.1319  0.1402
  940MPD2    C213744   1.304   0.584  13.592  0.7677 -0.4071 -0.1077
  940MPD2    C313745   1.254   0.573  13.464  0.5728  0.3291 -0.0580
  940MPD2    C413746   1.200   0.448  13.427  0.1079  0.2163  0.3603
  940MPD2    C513747   1.218   0.344  13.514 -0.0934  0.1646 -0.4835
  940MPD2     H13748   1.351   0.677  13.620  0.4325 -0.7594  1.6025
  940MPD2    H113749   1.158   0.424  13.330  0.6024  3.4283 -0.6589
  940MPD2    H213750   1.292   0.262  13.695  3.3714 -0.0788  0.5110
  940MPD2    H313751   1.175   0.250  13.481  0.2849 -0.5028  0.9239
  940MPD2     N13752   1.238   0.670  13.367  0.4965  0.1166  0.1246
  940MPD2    H513753   1.178   0.647  13.288 -0.1649 -1.2032  1.0005
  940MPD2    N113754   1.373   0.519  13.805 -0.2285 -0.1028  0.0266
  940MPD2    H713755   1.394   0.619  13.811  2.2068 -0.4332 -2.9786
  941MPD2     C13756   0.706   4.080   9.823 -0.9123  0.6109 -0.1507
  941MPD2    C113757   0.636   4.078   9.940  0.2713 -0.5874  0.0592
  941MPD2    C213758   0.528   3.991   9.946  0.2380  0.5116 -0.2264
  941MPD2    C313759   0.501   3.897   9.848 -0.0900 -0.5029 -0.2437
  941MPD2    C413760   0.569   3.911   9.734 -0.2141 -0.0277  0.1275
  941MPD2    C513761   0.672   4.002   9.717  0.1948  0.9114 -0.0617
  941MPD2     H13762   0.469   3.994  10.037 -0.1212 -0.8487 -0.4161
  941MPD2    H113763   0.553   3.840   9.653  0.8318  0.6039 -0.6316
  941MPD2    H213764   0.791   4.145   9.808 -0.4484 -0.2412 -1.2270
  941MPD2    H313765   0.726   4.006   9.623  1.2448 -0.8138  0.4784
  941MPD2     N13766   0.400   3.795   9.857 -0.5194 -0.0375 -0.2257
  941MPD2    H513767   0.396   3.740   9.772 -1.8904 -0.4497  0.1031
  941MPD2    N113768   0.678   4.161  10.049  0.3286 -0.1426 -0.4293
  941MPD2    H713769   0.618   4.155  10.131 -2.2733  1.4300 -2.2161
  942MPD2     C13770   1.786   3.839   8.891 -0.3072 -0.0364 -0.6585
  942MPD2    C113771   1.665   3.909   8.877 -0.3990  0.9401 -0.3637
  942MPD2    C213772   1.653   4.031   8.948 -0.3592  0.2789 -0.3310
  942MPD2    C313773   1.755   4.084   9.026  0.8151 -0.0335 -0.3003
  942MPD2    C413774   1.871   4.005   9.032 -0.1986  0.4006  0.3730
  942MPD2    C513775   1.890   3.892   8.961 -0.2595 -0.2781 -0.0528
  942MPD2     H13776   1.570   4.094   8.917 -1.2710 -0.4350  0.6697
  942MPD2    H113777   1.951   4.037   9.097  0.9416 -1.9971  0.1225
  942MPD2    H213778   1.817   3.747   8.842  1.2437  1.2205 -2.0319
  942MPD2    H313779   1.983   3.836   8.955  0.3954  0.6970  0.9832
  942MPD2     N13780   1.762   4.206   9.099  0.3682  0.6915  0.5522
  942MPD2    H513781   1.849   4.241   9.137  1.0156  1.4407 -1.6241
  942MPD2    N113782   1.553   3.874   8.794  0.6003  0.7484  0.6743
  942MPD2    H713783   1.469   3.931   8.795  0.2815  0.2598  1.9479
  943MPD2     C13784   4.672   3.633   9.538  0.0959 -0.5358 -0.2052
  943MPD2    C113785   4.605   3.623   9.656 -0.4014 -0.2989  0.3550
  943MPD2    C213786   4.586   3.741   9.735 -0.2879  0.2393 -0.7340
  943MPD2    C313787   4.614   3.869   9.678 -0.1663  0.1422  0.4290
  943MPD2    C413788   4.683   3.868   9.558  0.5854  0.0437  0.5011
  943MPD2    C513789   4.714   3.751   9.497  0.5406 -0.3283  0.1847
  943MPD2     H13790   4.527   3.740   9.826  0.8234  1.1814  0.0061
  943MPD2    H113791   4.712   3.951   9.495  0.4493 -1.7831 -1.9719
  943MPD2    H213792   4.698   3.544   9.481 -0.6719 -0.1009 -1.2422
  943MPD2    H313793   0.047   3.757   9.405 -0.6875 -1.4491 -0.6545
  943MPD2     N13794   4.574   3.994   9.723  0.1145  0.2883  0.1569
  943MPD2    H513795   4.601   4.074   9.667  0.8782 -0.7798 -1.0050
  943MPD2    N113796   4.564   3.496   9.698 -0.0984  0.0703  0.4323
  943MPD2    H713797   4.599   3.420   9.641  1.3117 -0.6690  2.2769
  944MPD2     C13798   3.718   2.727  11.349  0.2939  0.3209 -0.7334
  944MPD2    C113799   3.795   2.794  11.260  1.1265 -0.1379  0.1185
  944MPD2    C213800   3.806   2.929  11.277 -0.0352 -0.9565 -0.5223
  944MPD2    C313801   3.738   2.986  11.385 -0.2358  0.4570  1.0493
  944MPD2    C413802   3.664   2.918  11.479 -0.6378  0.1081 -1.3199
  944MPD2    C513803   3.652   2.782  11.450  0.9625 -0.8774  0.2902
  944MPD2     H13804   3.858   2.997  11.211  0.1157 -2.6178 -2.0919
  944MPD2    H113805   3.613   2.964  11.563 -1.0732 -0.8879 -1.0377
  944MPD2    H213806   3.703   2.620  11.341 -0.5108  0.3338  0.5702
  944MPD2    H313807   3.583   2.722  11.507  0.5912 -0.2044  0.5459
  944MPD2     N13808   3.752   3.126  11.390 -0.3694  0.0184 -0.0768
  944MPD2    H513809   3.817   3.166  11.323 -1.0916  1.9276  0.3615
  944MPD2    N113810   3.854   2.721  11.154  0.4517  0.2819  0.2236
  944MPD2    H713811   3.850   2.620  11.162  0.2036  0.2381 -0.3989
    1TCq1    O113812   0.870   4.653  13.918  0.3316  0.1920  0.2030
    1TCq1    C113813   0.918   0.003  13.815 -0.5402 -0.4447 -0.1690
    1TCq1    O213814   0.852   0.062  13.738 -1.1248  0.1939 -0.3265
    1TCq1    C213815   1.062   4.707  13.807  0.4533  0.3407  0.4332
    1TCq1    C313816   1.116   4.707  13.680  0.3467 -0.0306 -0.0866
    1TCq1    C413817   1.249   4.716  13.673 -0.4748  0.1228 -0.1610
    1TCq1    C513818   1.325   0.022  13.781 -0.3408  0.3070  0.4594
    1TCq1    C613819   1.268   0.022  13.903 -0.6047 -0.2602  0.4956
    1TCq1    C713820   1.134   4.723  13.921  0.3291  0.2932  0.5474
    1TCq1    C813821   1.343   4.711  14.015 -0.9981 -0.0364 -0.8025
    1TCq1    O413822   1.290   4.648  14.110  0.1398 -0.0461 -0.0531
    1TCq1    C913823   1.316   4.694  13.543  0.7779  0.5031 -0.0042
    1TCq1    O513824   1.246   4.686  13.439  0.3487  0.4094  0.2176
    1TCq1    O613825   1.430   4.642  13.559 -0.5352 -0.3619 -0.0301
    1TCq1    H113826   0.941   4.616  13.975  0.3607 -1.8200 -1.1052
    1TCq1    H213827   1.055   4.668  13.599  0.4813 -2.1587  0.8369
    1TCq1    H313828   1.429   0.044  13.766  0.3568 -2.4386  1.1924
    1TCq1    H413829   1.090   4.710  14.020  1.9822  0.9034  1.3688
    2MPD2     C13830   1.697   0.047  14.364  0.2404  0.0099 -0.4873
    2MPD2    C113831   1.687   0.164  14.300 -0.3048  1.1047 -0.0850
    2MPD2    C213832   1.610   0.171  14.186  0.0564  0.0017  0.1821
    2MPD2    C313833   1.543   0.058  14.138 -0.0090 -0.6022  0.9397
    2MPD2    C413834   1.552   4.661  14.204 -1.1897  0.6126  0.9549
    2MPD2    C513835   1.633   4.657  14.317 -0.0316  0.1138  0.1770
    2MPD2     H13836   1.599   0.261  14.127  0.7182  0.7501  1.1872
    2MPD2    H113837   1.499   4.572  14.171 -0.4230  0.4859  0.0709
    2MPD2    H213838   1.756   0.039  14.454 -0.3699 -0.9560 -0.1693
    2MPD2    H313839   1.646   4.562  14.368  0.3549  0.8521  1.4426
    2MPD2     N13840   1.452   0.067  14.031 -0.5198  0.0334  0.2729
    2MPD2    H513841   1.451   0.154  13.979  2.4857  1.3645  2.4313
    2MPD2    N113842   1.745   0.273  14.358 -0.3993  0.0921  0.0308
    2MPD2    H713843   1.767   0.271  14.457  1.7253  1.1399 -0.4134
    3TMC2    C113844   1.784   0.502  14.397  0.1719 -0.4573 -1.1794
    3TMC2    C213845   1.717   0.492  14.512 -0.2366  0.1333 -0.5931
    3TMC2    C313846   1.718   0.590  14.607 -0.1808  0.6646 -0.9281
    3TMC2    C413847   1.839   0.617  14.355  0.1133 -0.1006  0.2992
    3TMC2    C513848   1.850   0.711  14.450  0.2850 -0.2468  0.3469
    3TMC2    C613849   1.804   0.699  14.582  0.2680 -0.1685  0.3023
    3TMC2     C13850   1.772   0.396  14.301  0.6562  0.1223  0.4657
    3TMC2     O13851   1.798   0.419  14.184 -0.1006  0.1376  0.7022
    3TMC2     H13852   1.672   0.396  14.535  0.3763 -0.0844 -0.3081
    3TMC2    H113853   1.876   0.636  14.255  1.9695  1.0353  1.1888
    3TMC2    H213854   1.808   0.784  14.649 -0.7351 -1.2837  1.7704
    3TMC2    C713855   1.941   0.817  14.437  0.9201 -0.1758  0.1401
    3TMC2    C813856   1.682   0.551  14.739 -0.1989 -0.2989 -0.1071
    3TMC2    O113857   2.018   0.842  14.529 -0.0727  0.3539 -0.2362
    3TMC2    O213858   1.666   0.638  14.825  0.7029 -0.0611 -0.4500
    3TMC2    O513859   1.782   0.461  14.765 -0.5227 -0.1053  0.2753
    3TMC2    H513860   1.791   0.391  14.696 -0.0293  0.2545 -0.0223
    4MPD2     C13861   1.338   1.675  14.032 -1.2999 -0.0917 -0.7949
    4MPD2    C113862   1.309   1.597  13.924  0.3504  0.2947 -0.1011
    4MPD2    C213863   1.414   1.536  13.854 -0.3168  0.0901 -0.4987
    4MPD2    C313864   1.542   1.568  13.878 -0.5115  0.1750 -0.0960
    4MPD2    C413865   1.575   1.646  13.986  0.2091  1.0362 -0.5594
    4MPD2    C513866   1.473   1.707  14.061 -0.3324 -0.0764 -0.2214
    4MPD2     H13867   1.394   1.469  13.771  1.2077  0.7544 -1.4187
    4MPD2    H113868   1.678   1.666  14.014  0.2954  1.1241 -0.9452
    4MPD2    H213869   1.259   1.736  14.073  0.6430  0.5486  1.9790
    4MPD2    H313870   1.495   1.770  14.147 -1.2355 -0.7267  0.4938
    4MPD2     N13871   1.642   1.507  13.797  0.0506  0.1217 -0.5847
    4MPD2    H513872   1.622   1.430  13.735  1.9821  0.3080 -1.4408
    4MPD2    N113873   1.175   1.597  13.890  0.1467  0.2069  0.6092
    4MPD2    H713874   1.111   1.653  13.946 -1.0943 -0.2109 -0.3841
    5TCq2    C113875   1.767   1.562  13.780 -0.3688  0.0324  0.6607
    5TCq2    O213876   1.805   1.681  13.804  0.4141 -0.4459  0.2468
    5TCq2    C213877   1.863   1.472  13.730  0.5226  0.4882 -1.0816
    5TCq2    C313878   1.978   1.518  13.681  0.0762  0.1710 -0.0224
    5TCq2    C413879   2.082   1.433  13.669  0.2638 -0.4965 -0.0944
    5TCq2    C513880   2.066   1.307  13.726  0.7006  0.3054 -0.2565
    5TCq2    C613881   1.944   1.262  13.776 -0.1434  0.6576 -0.2282
    5TCq2    C713882   1.835   1.339  13.764 -0.5286 -0.0307  0.5584
    5TCq2    C813883   1.954   1.161  13.879  0.7898 -0.0005 -0.0736
    5TCq2    O413884   1.852   1.102  13.907 -0.1242  0.4047  0.2555
    5TCq2    C913885   2.208   1.488  13.635  0.0634  0.4889 -0.0058
    5TCq2    O513886   2.299   1.415  13.667 -0.1019  0.4035 -0.6402
    5TCq2    O613887   2.213   1.604  13.582  0.4132 -0.4633  0.1366
    5TCq2    H213888   1.992   1.619  13.645 -1.1418  0.2558 -0.2548
    5TCq2    H313889   2.154   1.243  13.732 -1.1337 -1.9366  2.6287
    5TCq2    H413890   1.745   1.301  13.813 -0.3449 -0.7608  0.3381
    6MPD1     C13891   4.670   3.030  13.429  0.0685  0.6140 -0.2292
    6MPD1    C113892   0.043   2.980  13.358  0.3000 -0.1528 -0.1715
    6MPD1    C213893   0.090   2.848  13.361 -0.8486  0.2299  0.1889
    6MPD1    C313894   0.033   2.765  13.458 -0.1321  0.2364 -0.0120
    6MPD1    C413895   4.656   2.818  13.539 -0.1155 -0.5515 -0.0636
    6MPD1    C513896   4.613   2.945  13.517  0.4251 -0.4583  0.4546
    6MPD1     H13897   0.175   2.818  13.302 -0.5804  2.7657 -0.7386
    6MPD1    H113898   4.604   2.760  13.614  0.2703 -1.9713 -0.8832
    6MPD1    H213899   4.652   3.137  13.429 -1.4302  0.3596  1.5490
    6MPD1    H313900   4.530   2.984  13.575  1.2809  0.0890  1.3051
    6MPD1     N13901   0.081   2.631  13.476 -0.6542 -0.3157 -0.1615
    6MPD1    H513902   0.034   2.584  13.554  3.0191 -0.0676  2.1763
    6MPD1    N113903   0.095   3.053  13.245 -0.4685 -0.2779  0.4202
    6MPD1    H613904   0.065   3.150  13.246 -0.8054 -0.3599 -1.4601
    6MPD1    H713905   0.196   3.046  13.249 -0.5875 -2.4604 -0.1713
    7MPD2     C13906   0.374   2.087  13.977  0.1907  0.2642  0.5786
    7MPD2    C113907   0.432   2.077  13.854 -0.8911  0.1238  0.8016
    7MPD2    C213908   0.529   1.983  13.836  0.0402 -0.0851 -0.0013
    7MPD2    C313909   0.565   1.897  13.941 -1.0152 -0.4379 -0.4252
    7MPD2    C413910   0.515   1.909  14.065 -0.2889 -0.6569  0.5574
    7MPD2    C513911   0.419   2.007  14.081  0.0120 -0.3238  0.3171
    7MPD2     H13912   0.564   1.964  13.735  1.7437 -2.1634  0.9819
    7MPD2    H113913   0.550   1.851  14.149  2.6250  0.5673  0.1722
    7MPD2    H213914   0.308   2.170  14.001  0.0443  0.7049 -1.3561
    7MPD2    H313915   0.380   2.021  14.182  0.2883 -2.9425  0.7866
    7MPD2     N13916   0.642   1.795  13.896  0.2120  0.0318  0.1468
    7MPD2    H513917   0.665   1.791  13.797 -0.7604 -2.4220  0.0119
    7MPD2    N113918   0.394   2.154  13.744  0.3457 -0.1834  0.0304
    7MPD2    H713919   0.456   2.149  13.664  0.8892  1.3037  0.3615
    8TMC3    C113920   0.755   1.600  13.877  0.0781 -0.1824  0.7596
    8TMC3    C213921   0.892   1.575  13.895 -0.5512 -0.1801  0.4857
    8TMC3    C313922   0.966   1.551  13.780 -0.0804 -0.2019  0.1713
    8TMC3    C413923   0.700   1.602  13.756  0.4540  0.1470 -0.1981
    8TMC3    C513924   0.772   1.587  13.645 -0.5661  0.2417  0.1766
    8TMC3    C613925   0.903   1.554  13.654  0.0958 -0.2682  0.2514
    8TMC3     C13926   0.697   1.699  13.967  0.0332 -0.1627 -0.0836
    8TMC3     O13927   0.713   1.683  14.090 -0.5192  0.6236  0.7020
    8TMC3     H13928   0.944   1.595  13.988 -0.6754 -1.4927  0.8282
    8TMC3    H113929   0.594   1.617  13.740 -0.0081 -2.6788  0.2024
    8TMC3    H213930   0.957   1.550  13.560  0.3515 -1.7387  0.4666
    8TMC3    C713931   0.746   1.704  13.564  0.0800 -0.3814 -0.0863
    8TMC3    C813932   1.110   1.525  13.790 -0.3256  0.1761  0.4076
    8TMC3    O113933   0.723   1.807  13.624  0.4560  0.6139 -0.0731
    8TMC3    O213934   1.162   1.458  13.701  0.1445 -0.2380 -0.2322
    9TMC3    C113935   0.207   2.423  13.436  0.1632  0.5154  0.2129
    9TMC3    C213936   0.246   2.346  13.331  0.2498  0.3531  0.0492
    9TMC3    C313937   0.299   2.217  13.366  0.7385 -0.0964  0.0023
    9TMC3    C413938   0.209   2.394  13.569 -0.5702  0.0558 -0.5025
    9TMC3    C513939   0.264   2.277  13.596  0.0792  0.1134  0.3026
    9TMC3    C613940   0.306   2.184  13.502 -0.0513 -0.0660  0.4650
    9TMC3     C13941   0.164   2.556  13.390  0.1805  0.0088 -0.3479
    9TMC3     O13942   0.214   2.595  13.284 -0.5269 -0.4662 -0.2234
    9TMC3     H13943   0.240   2.368  13.225  1.4432 -3.0568 -0.7482
    9TMC3    H113944   0.183   2.468  13.644 -3.1688 -0.8730 -0.4756
    9TMC3    H213945   0.337   2.088  13.541  2.7574  0.8782  0.5054
    9TMC3    C713946   0.277   2.229  13.725  0.2511  0.1500  0.1065
    9TMC3    C813947   0.353   2.136  13.264  0.2146  0.5263  0.4267
    9TMC3    O113948   0.183   2.253  13.796  0.1008 -0.2324 -0.9643
    9TMC3    O213949   0.328   2.137  13.146 -0.4117  0.2842  0.3078
   10MPD2     C13950   0.617   1.697  13.217 -0.0132 -0.6301 -0.5618
   10MPD2    C113951   0.653   1.751  13.340 -0.9423  0.5249 -0.2129
   10MPD2    C213952   0.602   1.879  13.373  0.1344 -0.4420  0.1618
   10MPD2    C313953   0.513   1.943  13.284 -0.4701  0.9543 -0.1762
   10MPD2    C413954   0.485   1.887  13.160 -0.5013 -0.1683 -0.1758
   10MPD2    C513955   0.547   1.769  13.121  0.3661  0.5131  0.2824
   10MPD2     H13956   0.624   1.931  13.466  1.9150 -0.5152 -0.2222
   10MPD2    H113957   0.417   1.936  13.092 -2.0100  0.5485  1.8614
   10MPD2    H213958   0.649   1.602  13.176  0.1264 -0.5647 -0.6038
   10MPD2    H313959   0.525   1.731  13.022  2.0224 -1.7605  0.7838
   10MPD2     N13960   0.454   2.064  13.327 -0.1740  0.0681  0.0978
   10MPD2    H513961   0.480   2.096  13.420 -0.8651  2.6713 -0.6038
   10MPD2    N113962   0.724   1.676  13.432  0.0774 -0.2533 -0.5813
   10MPD2    H713963   0.752   1.586  13.394 -0.5836 -0.8119  0.2544
   11MPD2     C13964   2.109   1.052  14.347  0.0995  0.3220  0.2992
   11MPD2    C113965   2.030   0.975  14.262 -0.2379 -0.2222 -0.3772
   11MPD2    C213966   2.026   1.021  14.131 -0.2329 -0.4829  0.7319
   11MPD2    C313967   2.097   1.124  14.080  0.1003  0.8864  0.0973
   11MPD2    C413968   2.185   1.183  14.165 -0.1075  1.1196 -0.4030
   11MPD2    C513969   2.184   1.156  14.298  0.0604  0.3827 -0.5798
   11MPD2     H13970   1.951   0.971  14.071 -0.7166 -0.7979  1.5871
   11MPD2    H113971   2.253   1.262  14.135  0.2928  2.1384  3.1806
   11MPD2    H213972   2.108   1.034  14.454  2.3725 -0.2967  0.2137
   11MPD2    H313973   2.247   1.217  14.362  0.9584 -0.6430 -0.4776
   11MPD2     N13974   2.070   1.184  13.957 -0.3514  0.3357  0.3098
   11MPD2    H513975   2.137   1.257  13.935  0.5530 -0.5112  0.2433
   11MPD2    N113976   1.938   0.873  14.308  0.5771 -0.4889  0.7274
   11MPD2    H713977   1.863   0.842  14.247 -0.4345  1.3407  1.0418
    1MPD1     C13978   3.435   3.081  17.097 -0.0388  0.1790  0.3816
    1MPD1    C113979   3.506   3.093  17.212 -0.4036 -0.0584 -0.0825
    1MPD1    C213980   3.640   3.057  17.231 -0.0877 -0.8616 -0.7297
    1MPD1    C313981   3.715   3.031  17.115 -0.2008  0.4332  0.7706
    1MPD1    C413982   3.645   3.017  16.992 -0.2237  0.0090  0.2746
    1MPD1    C513983   3.511   3.046  16.985 -0.1451  0.8093 -0.4541
    1MPD1     H13984   3.692   3.065  17.326 -1.7582 -2.2946  0.2990
    1MPD1    H113985   3.698   2.983  16.903 -3.4636  0.7019 -1.9272
    1MPD1    H213986   3.330   3.107  17.101  0.5755  2.6350  0.5790
    1MPD1    H313987   3.451   3.033  16.895 -0.8138 -0.1375  0.1284
    1MPD1     N13988   3.857   3.005  17.107 -0.4694  0.1948  0.1780
    1MPD1    H513989   3.895   2.964  17.022 -1.5426 -0.1468 -0.1427
    1MPD1    N113990   3.439   3.098  17.332  0.1737 -0.3141  0.2420
    1MPD1    H613991   3.485   3.166  17.393  0.5035 -1.5551  1.3643
    1MPD1    H713992   3.350   3.143  17.308 -0.0829 -0.2608  1.2748
    2MPD1     C13993   4.528   3.591  17.554 -0.0983  0.0004  0.3984
    2MPD1    C113994   4.416   3.631  17.485  0.1007 -0.2280  0.4379
    2MPD1    C213995   4.360   3.539  17.393  0.4109  0.3671  0.4623
    2MPD1    C313996   4.408   3.406  17.384  0.2095 -0.4360  0.2158
    2MPD1    C413997   4.522   3.370  17.459 -0.9186 -0.2727  0.0715
    2MPD1    C513998   4.575   3.459  17.540  0.0340 -0.8092  0.0462
    2MPD1     H13999   4.288   3.554  17.314  0.4573 -0.5592  0.2392
    2MPD1    H114000   4.573   3.275  17.464  2.8824  1.5869 -2.7486
    2MPD1    H214001   4.561   3.660  17.632  0.0957  0.5495 -0.1665
    2MPD1    H314002   4.653   3.427  17.609  1.8835 -0.0119 -1.6825
    2MPD1     N14003   4.344   3.317  17.301  0.3359  0.0612 -0.1383
    2MPD1    H514004   4.258   3.349  17.258  0.3215 -0.6899 -0.6633
    2MPD1    N114005   4.378   3.764  17.495  0.0216 -0.0142  0.1572
    2MPD1    H614006   4.278   3.774  17.480 -0.0422  1.4303  1.5968
    2MPD1    H714007   4.407   3.797  17.587  0.4093  0.2884 -0.0741
    3TMC3    C114008   4.301   3.117  17.209  0.1942  0.3099  0.0967
    3TMC3    C214009   4.348   3.025  17.119  0.0907  0.0568  0.3474
    3TMC3    C314010   4.261   2.933  17.067 -0.1830 -0.1920  0.0072
    3TMC3    C414011   4.165   3.131  17.240  0.5093  0.1209 -0.3463
    3TMC3    C514012   4.079   3.036  17.181  0.1611 -0.2238  0.2000
    3TMC3    C614013   4.126   2.941  17.091  0.5252 -0.1089 -0.7471
    3TMC3     C14014   4.388   3.194  17.283 -0.1756  1.0934  0.2197
    3TMC3     O14015   4.490   3.136  17.316 -0.3231  0.0974 -0.2398
    3TMC3     H14016   4.452   3.025  17.090 -0.5885  0.9905 -2.0790
    3TMC3    H114017   4.135   3.198  17.320  0.0771  1.8760 -1.9833
    3TMC3    H214018   4.057   2.865  17.056  2.4740 -0.8140 -3.0128
    3TMC3    C714019   3.939   3.048  17.210 -0.4872 -0.0992 -0.4273
    3TMC3    C814020   4.316   2.832  16.988  0.4148  0.4515  0.8497
    3TMC3    O114021   3.916   3.124  17.299  0.6630  0.4369  0.1845
    3TMC3    O214022   4.437   2.812  16.997 -0.3903 -0.4840  1.0214
    4MPD1     C14023   4.302   2.602  16.510  0.7826 -0.7485  0.1108
    4MPD1    C114024   4.178   2.653  16.536  0.3147  0.0146 -0.1526
    4MPD1    C214025   4.167   2.717  16.659  0.2414 -0.2036 -0.1349
    4MPD1    C314026   4.265   2.740  16.756 -0.1150 -0.0967 -0.1258
    4MPD1    C414027   4.389   2.697  16.719  0.0480 -0.4870  0.5381
    4MPD1    C514028   4.404   2.633  16.596  0.5829  0.3224  0.3093
    4MPD1     H14029   4.069   2.760  16.675  0.6764 -0.3710  2.9479
    4MPD1    H114030   4.473   2.712  16.786 -0.0059 -2.5983  1.0803
    4MPD1    H214031   4.324   2.545  16.419 -1.9456 -0.9099 -0.4315
    4MPD1    H314032   4.505   2.597  16.580  0.0732  0.0315 -2.2771
    4MPD1     N14033   4.232   2.805  16.877  0.1824  0.9206  0.4435
    4MPD1    H514034   4.140   2.847  16.883 -0.9822 -1.7147  1.4229
    4MPD1    N114035   4.073   2.616  16.461  0.2973  0.0374  0.3841
    4MPD1    H614036   4.099   2.600  16.364 -0.2391  1.2555  0.0462
    4MPD1    H714037   3.988   2.671  16.469  0.8795  1.0583 -0.5029
    1TCq1    O114038   0.865   1.182  12.400  0.1927 -0.1318 -0.2200
    1TCq1    C114039   0.853   1.133  12.274  0.2557  0.0609  0.2520
    1TCq1    O214040   0.764   1.056  12.236 -0.3506 -0.2525  0.1621
    1TCq1    C214041   0.956   1.195  12.184 -0.2280  0.1396  0.2279
    1TCq1    C314042   0.937   1.182  12.053  1.1006  0.2284 -0.5071
    1TCq1    C414043   1.031   1.231  11.975 -0.8248 -0.4818  0.5354
    1TCq1    C514044   1.144   1.283  12.025 -0.3333 -0.0638 -0.2153
    1TCq1    C614045   1.165   1.300  12.161 -0.3060 -0.3860 -0.4906
    1TCq1    C714046   1.068   1.251  12.243 -0.3467  0.1190  0.2025
    1TCq1    C814047   1.285   1.363  12.225 -0.5509  0.9692  0.1139
    1TCq1    O414048   1.318   1.341  12.346  0.3547 -0.1015 -0.0745
    1TCq1    C914049   0.988   1.263  11.837  0.3295 -0.3629 -0.2455
    1TCq1    O514050   0.864   1.242  11.810  0.1737  0.0973 -0.2992
    1TCq1    O614051   1.072   1.328  11.767  0.1430  0.0229 -0.3593
    1TCq1    H114052   0.921   1.261  12.410 -0.9290  1.0080 -3.0826
    1TCq1    H214053   0.839   1.150  12.018  1.3568 -0.4777 -0.5771
    1TCq1    H314054   1.225   1.309  11.957 -1.4129  2.2450 -0.6204
    1TCq1    H414055   1.089   1.246  12.349  0.9410 -2.8170 -0.1893
    2MPD1     C14056   1.595   1.763  12.218 -0.4416  0.5939  0.1305
    2MPD1    C114057   1.587   1.707  12.090  0.0690 -0.4485 -0.5175
    2MPD1    C214058   1.511   1.595  12.063 -0.4284  0.9147 -0.0483
    2MPD1    C314059   1.435   1.545  12.166 -0.3581 -0.5671  0.1831
    2MPD1    C414060   1.440   1.602  12.289  0.2870 -0.0577 -0.4791
    2MPD1    C514061   1.528   1.699  12.322 -0.3382 -0.1995  0.2111
    2MPD1     H14062   1.511   1.547  11.966  2.8103 -0.2538  0.5254
    2MPD1    H114063   1.368   1.571  12.364  0.6177 -1.1918 -0.6223
    2MPD1    H214064   1.638   1.860  12.240  1.6449 -0.5861  1.1864
    2MPD1    H314065   1.539   1.735  12.423  0.8468  0.0666 -0.0214
    2MPD1     N14066   1.353   1.434  12.134  0.7791  0.2341 -0.4761
    2MPD1    H514067   1.336   1.415  12.036 -1.4910  1.8436 -0.4078
    2MPD1    N114068   1.644   1.782  11.986 -0.2468 -0.0157  0.1340
    2MPD1    H614069   1.725   1.833  12.022 -0.3544  0.0839  0.2318
    2MPD1    H714070   1.678   1.726  11.908  2.1058  1.9085 -0.2321
    1TCq1    O114071   2.739   3.903   1.331  0.4685 -0.4054  0.7264
    1TCq1    C114072   2.793   3.995   1.250  0.6533 -0.7004  0.6234
    1TCq1    O214073   2.734   4.077   1.179  0.2500  0.2463 -0.7629
    1TCq1    C214074   2.939   3.973   1.252  0.0470 -0.1526 -0.0695
    1TCq1    C314075   3.012   4.030   1.154  0.7084  0.4797  0.2144
    1TCq1    C414076   3.148   4.016   1.158  0.1743  0.1488 -0.0286
    1TCq1    C514077   3.192   3.927   1.243  0.6588 -0.1340  0.1432
    1TCq1    C614078   3.119   3.880   1.351  0.6047 -0.2245  0.0016
    1TCq1    C714079   2.984   3.909   1.363  0.2122  0.1889 -0.1910
    1TCq1    C814080   3.181   3.798   1.453  0.1982 -0.4443  0.3110
    1TCq1    O414081   3.302   3.822   1.474  0.1823 -0.4292 -0.7514
    1TCq1    C914082   3.210   4.018   1.026 -0.7555 -0.0349  0.3180
    1TCq1    O514083   3.204   3.920   0.953  0.3961  0.3608 -0.3507
    1TCq1    O614084   3.284   4.117   1.013 -0.3574 -0.1942  1.2167
    1TCq1    H114085   2.797   3.831   1.364  1.7407  0.2137 -0.1332
    1TCq1    H214086   2.958   4.070   1.069 -1.2171  0.6763  1.5027
    1TCq1    H314087   3.297   3.901   1.240  1.0748  1.2955  2.2488
    1TCq1    H414088   2.926   3.900   1.455  1.8552  1.3526  0.9472
    2MPD1     C14089   3.255   3.400   1.758  0.2249 -0.0935 -0.1152
    2MPD1    C114090   3.130   3.394   1.711  0.4704  0.4158  0.1090
    2MPD1    C214091   3.088   3.499   1.625  0.2132 -0.6270 -0.2687
    2MPD1    C314092   3.160   3.611   1.605  0.2054 -0.0767  0.5016
    2MPD1    C414093   3.275   3.624   1.671  0.1062  0.2043  0.2298
    2MPD1    C514094   3.326   3.516   1.738  0.0298  0.5694 -0.1234
    2MPD1     H14095   3.000   3.493   1.561  0.1648 -3.1670  0.0325
    2MPD1    H114096   3.338   3.712   1.663 -1.5151  1.3845  0.4093
    2MPD1    H214097   3.305   3.321   1.812  0.5861  0.1000 -0.1725
    2MPD1    H314098   3.430   3.517   1.768  0.1278  0.1419 -0.4513
    2MPD1     N14099   3.106   3.702   1.512  0.3871  0.4572  0.5921
    2MPD1    H514100   3.011   3.686   1.479  0.7656 -1.4021  0.4178
    2MPD1    N114101   3.062   3.273   1.720  0.1450 -0.4207  0.0024
    2MPD1    H614102   3.086   3.230   1.809  2.2364 -0.2805 -0.4898
    2MPD1    H714103   2.961   3.290   1.726  0.2919  0.7012 -0.6164
    1MPD1     C14104   1.449   2.245  11.605  0.4863  0.2853  0.5721
    1MPD1    C114105   1.532   2.278  11.495 -0.1808 -0.9871  0.1328
    1MPD1    C214106   1.663   2.272  11.506 -0.3879 -0.2023 -0.1774
    1MPD1    C314107   1.720   2.239  11.623 -0.1076  0.4954  0.9707
    1MPD1    C414108   1.647   2.232  11.735  0.5263 -0.3211 -0.0954
    1MPD1    C514109   1.512   2.230  11.726 -0.0723 -0.3405  0.2299
    1MPD1     H14110   1.724   2.269  11.416 -2.3709  0.1620 -1.5143
    1MPD1    H114111   1.683   2.193  11.829 -0.8358 -0.3889  0.3948
    1MPD1    H214112   1.342   2.253  11.594  0.4094 -0.8510  0.5144
    1MPD1    H314113   1.468   2.185  11.814 -2.0574  0.8189 -0.1859
    1MPD1     N14114   1.864   2.222  11.624 -0.0373  0.1334 -0.1257
    1MPD1    H514115   1.910   2.252  11.539  1.8138 -2.1905  0.0821
    1MPD1    N114116   1.461   2.286  11.371 -0.0168  0.3308 -0.3064
    1MPD1    H614117   1.363   2.312  11.380  0.0927 -0.3122  2.8508
    1MPD1    H714118   1.502   2.340  11.295 -0.8476 -1.3313 -1.9302
    2MPD1     C14119   1.693   2.094  11.025  0.5136  0.2966  0.1350
    2MPD1    C114120   1.652   2.045  10.897  0.1382  0.3308 -0.1713
    2MPD1    C214121   1.747   2.004  10.805  0.2568  0.3191 -0.4782
    2MPD1    C314122   1.879   2.047  10.821 -0.4595  0.2909  0.2111
    2MPD1    C414123   1.911   2.114  10.933 -0.3275  0.4954 -0.1482
    2MPD1    C514124   1.824   2.137  11.033  0.4994 -0.5510 -0.0638
    2MPD1     H14125   1.711   1.951  10.718  0.4541  1.7987 -1.4779
    2MPD1    H114126   2.011   2.156  10.932  0.1123 -0.6024 -1.9971
    2MPD1    H214127   1.621   2.121  11.101  0.9853 -2.1130  1.4602
    2MPD1    H314128   1.851   2.202  11.114  1.0426  1.8988 -2.2283
    2MPD1     N14129   1.981   2.019  10.733 -0.7420 -0.8050  0.0727
    2MPD1    H514130   2.067   2.065  10.760 -0.7699 -0.0383 -1.1565
    2MPD1    N114131   1.518   2.010  10.881 -0.2734 -1.0566  0.9866
    2MPD1    H614132   1.457   2.084  10.913  0.7803  0.7163 -1.0825
    2MPD1    H714133   1.499   1.985  10.785 -0.7771 -0.4147  0.9205
    3MPD1     C14134   1.975   1.874   9.743 -0.3353  0.1408  0.7378
    3MPD1    C114135   1.896   1.936   9.839 -0.6567 -0.1912  0.1328
    3MPD1    C214136   1.937   1.922   9.971  0.5877 -0.5460  0.0058
    3MPD1    C314137   2.053   1.861  10.016  0.0445 -0.1615 -0.2099
    3MPD1    C414138   2.127   1.801   9.919 -0.1189  0.0434 -0.4781
    3MPD1    C514139   2.094   1.813   9.788  0.9462  0.1446 -0.6150
    3MPD1     H14140   1.876   1.970  10.047  1.6531  1.4688 -0.4049
    3MPD1    H114141   2.212   1.742   9.950 -0.1131 -0.3433 -1.2251
    3MPD1    H214142   1.949   1.867   9.638 -0.6403 -2.6754  1.0031
    3MPD1    H314143   2.157   1.754   9.722  1.9566  0.4648  0.0592
    3MPD1     N14144   2.080   1.851  10.157 -0.1931  0.5468  0.2288
    3MPD1    H514145   2.021   1.912  10.212  0.3866 -0.4963  2.0102
    3MPD1    N114146   1.771   1.984   9.815 -0.4083 -0.5321 -0.2975
    3MPD1    H614147   1.764   2.015   9.718  0.4872 -0.0775 -0.2154
    3MPD1    H714148   1.756   2.065   9.874  1.9104  1.0174 -1.8281
    4MPD2     C14149   2.448   2.620  11.376 -0.0961 -0.1059 -0.3520
    4MPD2    C114150   2.483   2.511  11.454 -0.3292 -0.6701 -0.9567
    4MPD2    C214151   2.592   2.439  11.429 -0.3029 -0.5895  0.2988
    4MPD2    C314152   2.673   2.473  11.323  0.5015  0.3105 -0.4427
    4MPD2    C414153   2.633   2.575  11.242  0.1653  0.2032  0.0111
    4MPD2    C514154   2.526   2.654  11.274 -0.2984  0.6446  0.8555
    4MPD2     H14155   2.608   2.346  11.482  1.3644 -1.0352 -0.9728
    4MPD2    H114156   2.694   2.612  11.161 -1.6176 -0.5571 -1.6632
    4MPD2    H214157   2.363   2.687  11.388 -1.8866 -2.3744 -0.3767
    4MPD2    H314158   2.499   2.743  11.218 -0.3259  0.1491  0.0755
    4MPD2     N14159   2.770   2.387  11.274  0.6417 -1.0783  0.0234
    4MPD2    H514160   2.790   2.375  11.175  0.5841  1.2654 -0.2722
    4MPD2    N114161   2.397   2.450  11.541 -0.2057 -0.2199 -0.1589
    4MPD2    H714162   2.436   2.362  11.572  1.9025  0.8933  0.3720
    5TMC3    C114163   2.231   2.398  11.690 -0.4638  0.0332 -0.4583
    5TMC3    C214164   2.100   2.359  11.685 -0.6767 -0.3351  0.3269
    5TMC3    C314165   2.078   2.227  11.710 -0.1084 -0.0501 -0.2804
    5TMC3    C414166   2.329   2.311  11.743 -1.0237 -0.2137  0.0931
    5TMC3    C514167   2.302   2.179  11.765 -0.2526 -0.0688 -0.3121
    5TMC3    C614168   2.168   2.139  11.760 -0.5726  0.1488  0.0228
    5TMC3     C14169   2.270   2.492  11.587 -0.6356  0.2404  0.3183
    5TMC3     O14170   2.194   2.579  11.547  0.1295  0.4051 -0.3565
    5TMC3     H14171   2.025   2.426  11.644  2.3261  3.1114  0.4111
    5TMC3    H114172   2.432   2.343  11.759 -1.0330  0.4825 -1.1960
    5TMC3    H214173   2.131   2.040  11.784  0.7684  0.0654  1.7461
    5TMC3    C714174   2.402   2.095  11.693  0.0058  0.8360 -0.8284
    5TMC3    C814175   1.941   2.195  11.732  0.3975  0.2320 -0.2898
    5TMC3    O114176   2.500   2.156  11.650  0.4673  0.4442 -0.5837
    5TMC3    O214177   1.914   2.146  11.839  0.3964 -0.1015  0.3581
    6TMC3    C114178   2.098   1.921  10.564 -0.5024  0.2050 -0.2012
    6TMC3    C214179   2.089   1.873  10.435  0.5151 -0.0174 -0.8068
    6TMC3    C314180   2.197   1.828  10.367  0.0105  0.6699  0.0364
    6TMC3    C414181   2.223   1.910  10.625  0.2894 -1.0940  0.6773
    6TMC3    C514182   2.332   1.867  10.556 -0.3223  0.2451 -0.1780
    6TMC3    C614183   2.328   1.831  10.422  0.8571 -0.2768  0.1127
    6TMC3     C14184   1.977   1.920  10.636 -0.8811  0.5793  0.0846
    6TMC3     O14185   1.878   1.860  10.599  0.2164  0.4749 -0.6887
    6TMC3     H14186   1.992   1.847  10.395  0.2358 -1.6897  0.9388
    6TMC3    H114187   2.231   1.920  10.732 -1.5143 -1.0594  0.8130
    6TMC3    H214188   2.416   1.812  10.362  0.7477  0.1713 -0.1859
    6TMC3    C714189   2.455   1.883  10.623  0.0924 -0.5720  0.1727
    6TMC3    C814190   2.193   1.797  10.220 -0.7241  0.1722 -0.6026
    6TMC3    O114191   2.467   1.956  10.721  0.2314  0.5422 -0.1843
    6TMC3    O214192   2.293   1.751  10.173  0.4359 -0.4755  0.3529
    7MPD2     C14193   2.516   1.731  11.354  0.1772  0.2335  0.4344
    7MPD2    C114194   2.593   1.821  11.418 -0.5227  0.1518  0.0767
    7MPD2    C214195   2.540   1.900  11.521  0.6856  0.0057 -0.1774
    7MPD2    C314196   2.412   1.888  11.567 -0.0856 -0.7201  0.0043
    7MPD2    C414197   2.341   1.777  11.511 -0.1039  0.7126  0.3217
    7MPD2    C514198   2.388   1.711  11.401 -0.6921 -0.2287  0.0075
    7MPD2     H14199   2.608   1.972  11.565 -1.6501  2.3146 -0.3624
    7MPD2    H114200   2.235   1.774  11.532 -0.3589  1.5258 -0.8419
    7MPD2    H214201   2.550   1.677  11.266 -0.8339 -1.2669  0.9619
    7MPD2    H314202   2.329   1.635  11.351  0.1388 -0.4664 -0.6191
    7MPD2     N14203   2.352   1.973  11.657  0.3743  0.0001 -0.5323
    7MPD2    H514204   2.257   1.955  11.689 -0.0964  1.5007 -1.1104
    7MPD2    N114205   2.717   1.841  11.351 -0.4682  0.8399 -0.2441
    7MPD2    H714206   2.724   1.796  11.260  0.1485  0.2119  0.1136
    8TMC3    C114207   2.919   1.954  11.313  0.1910 -0.6271 -0.6196
    8TMC3    C214208   2.897   1.931  11.177 -0.5206 -1.0830  0.3499
    8TMC3    C314209   2.858   2.032  11.103  0.3153 -0.1277  0.3032
    8TMC3    C414210   2.949   2.082  11.352 -0.3684  0.0590 -0.7093
    8TMC3    C514211   2.889   2.179  11.276  0.1713 -0.2766 -0.1688
    8TMC3    C614212   2.832   2.154  11.156 -0.7239 -0.3713  0.2712
    8TMC3     C14213   2.825   1.909  11.417  0.7355 -0.9543 -0.3951
    8TMC3     O14214   2.824   1.964  11.525 -0.4318 -0.0594 -0.3305
    8TMC3     H14215   2.881   1.829  11.145  0.0005 -0.7832 -0.8559
    8TMC3    H114216   2.984   2.120  11.448  1.3305 -0.3310 -1.1652
    8TMC3    H214217   2.784   2.231  11.097 -2.1412 -0.3279  1.4833
    8TMC3    C714218   2.838   2.293  11.357 -0.5351 -0.3729  0.0613
    8TMC3    C814219   2.850   2.019  10.957  0.0185 -0.4648  0.1745
    8TMC3    O114220   2.826   2.278  11.478  0.1036 -0.0682 -0.3025
    8TMC3    O214221   2.788   2.110  10.902  0.2555 -0.4101  0.0229
    9MPD2     C14222   2.922   1.723  10.740  0.7674  0.0249 -0.1652
    9MPD2    C114223   2.858   1.833  10.784  0.0544  0.3622  0.7062
    9MPD2    C214224   2.731   1.865  10.725 -0.8746  0.2080 -0.4025
    9MPD2    C314225   2.681   1.790  10.623 -1.0770 -0.2651 -0.4242
    9MPD2    C414226   2.769   1.705  10.564  0.5801  0.2484 -0.0137
    9MPD2    C514227   2.873   1.650  10.639 -0.7736 -0.4827  0.7293
    9MPD2     H14228   2.675   1.948  10.768  0.9724  0.5730  1.2784
    9MPD2    H114229   2.733   1.655  10.475 -0.0856  0.8967 -0.1109
    9MPD2    H214230   3.012   1.689  10.789  0.4742 -0.8411 -0.2227
    9MPD2    H314231   2.947   1.594  10.584 -0.3832  0.1049  0.6543
    9MPD2     N14232   2.546   1.797  10.577  0.3742  0.0311  0.3398
    9MPD2    H514233   2.518   1.724  10.512 -1.1170  0.7374  0.1994
    9MPD2    N114234   2.901   1.892  10.907 -0.4672  0.6095  0.1154
    9MPD2    H714235   2.966   1.850  10.973 -0.0852  0.1964 -0.5325
    1MPD1     C14236   2.276   1.838  17.305 -0.0206 -0.2043  0.8365
    1MPD1    C114237   2.138   1.836  17.336  0.4658 -0.2038 -0.7766
    1MPD1    C214238   2.055   1.746  17.277 -0.5073 -0.2243  0.2454
    1MPD1    C314239   2.100   1.647  17.193 -0.8435 -0.1453  0.1135
    1MPD1    C414240   2.237   1.647  17.161 -0.0775 -0.4839  0.1602
    1MPD1    C514241   2.322   1.741  17.222  0.2399  0.4114 -0.4479
    1MPD1     H14242   1.953   1.743  17.314 -0.1059  1.7355  1.5143
    1MPD1    H114243   2.284   1.573  17.098 -0.3546 -2.7542  2.6536
    1MPD1    H214244   2.344   1.913  17.344  0.7046  0.2003 -1.1682
    1MPD1    H314245   2.429   1.732  17.204  0.3406  2.8690 -1.0764
    1MPD1     N14246   2.013   1.556  17.127 -0.1365 -0.5991  0.4599
    1MPD1    H514247   2.064   1.490  17.069  2.4741  1.2536  0.7140
    1MPD1    N114248   2.091   1.936  17.422 -0.1822 -0.1226  0.9410
    1MPD1    H614249   2.006   1.913  17.473  0.1854 -2.6256  0.4461
    1MPD1    H714250   2.161   1.962  17.490 -0.7449 -0.0311  1.4806
    2MPD1     C14251   1.766   0.641  16.765  0.2650 -0.6320 -0.0902
    2MPD1    C114252   1.653   0.683  16.839 -1.1208 -0.7111  0.3793
    2MPD1    C214253   1.644   0.813  16.880  0.5853 -0.3377 -0.6254
    2MPD1    C314254   1.745   0.901  16.848  1.0031 -0.2334 -0.8552
    2MPD1    C414255   1.844   0.870  16.754  0.3844 -0.2547  0.1911
    2MPD1    C514256   1.849   0.739  16.707  0.0350  0.3913 -0.1111
    2MPD1     H14257   1.563   0.840  16.948  0.3554  0.8727 -1.3884
    2MPD1    H114258   1.913   0.944  16.717 -0.6228  1.1882  1.1746
    2MPD1    H214259   1.782   0.545  16.718 -0.7115 -1.0978  0.5407
    2MPD1    H314260   1.921   0.707  16.633 -0.5443 -1.0552 -0.0629
    2MPD1     N14261   1.737   1.030  16.911 -0.5192 -0.0484  0.4454
    2MPD1    H514262   1.648   1.050  16.956 -1.6187  1.1276 -2.2435
    2MPD1    N114263   1.571   0.581  16.893 -0.9635  0.0215 -0.1998
    2MPD1    H614264   1.482   0.602  16.936 -1.2758  0.8743 -1.2639
    2MPD1    H714265   1.560   0.494  16.840 -2.8246 -0.3736  0.8599
    3TCq2    C114266   1.831   1.125  16.912  0.4899  0.5044 -0.0006
    3TCq2    O214267   1.949   1.116  16.869 -0.1183  0.3349 -0.1925
    3TCq2    C214268   1.778   1.258  16.943 -0.1670 -0.1489  0.0358
    3TCq2    C314269   1.646   1.280  16.917 -0.0017 -0.5485 -0.7383
    3TCq2    C414270   1.591   1.402  16.948  0.5108 -0.3016 -0.1049
    3TCq2    C514271   1.664   1.497  17.017 -1.1763  0.0207  0.7541
    3TCq2    C614272   1.802   1.471  17.031  0.1229  0.1885 -0.2673
    3TCq2    C714273   1.861   1.356  16.985 -0.0746  0.6580  0.4519
    3TCq2    C814274   1.878   1.573  17.114  0.3484  0.7016 -0.1557
    3TCq2    O414275   1.820   1.674  17.149 -0.0177  0.1799  0.0539
    3TCq2    C914276   1.448   1.419  16.924  0.0398  0.2757 -0.1828
    3TCq2    O514277   1.393   1.319  16.881 -0.3232 -0.8645 -1.0240
    3TCq2    O614278   1.394   1.531  16.958  0.8119 -0.1531 -0.3948
    3TCq2    H214279   1.580   1.197  16.893 -1.6037  1.3206 -2.7514
    3TCq2    H314280   1.622   1.590  17.053 -1.2369  0.2440  0.1064
    3TCq2    H414281   1.963   1.332  17.012 -0.1803  1.0609  1.2200
    1TCq1    O114282   3.934   0.016  12.710  0.5770 -0.3204  0.0939
    1TCq1    C114283   3.921   4.709  12.841 -0.8982 -0.2196 -0.2108
    1TCq1    O214284   3.863   0.049  12.926 -0.0075 -0.3012 -0.1327
    1TCq1    C214285   3.964   4.571  12.848  0.3141 -0.0387  0.6154
    1TCq1    C314286   3.921   4.500  12.951 -0.1368  0.0413  0.6180
    1TCq1    C414287   3.956   4.367  12.957  0.0341  0.3703  0.0325
    1TCq1    C514288   4.047   4.314  12.871 -0.0130 -0.6128  0.2058
    1TCq1    C614289   4.089   4.393  12.769 -0.2347 -1.1029 -0.4758
    1TCq1    C714290   4.041   4.514  12.751  0.7552  0.2895  0.1701
    1TCq1    C814291   4.201   4.349  12.693  0.0451  0.0024  0.1737
    1TCq1    O414292   4.223   4.232  12.669 -0.1336 -0.2867  0.6059
    1TCq1    C914293   3.921   4.291  13.069  0.0056  0.3427  0.3364
    1TCq1    O514294   3.932   4.167  13.062  0.2430  0.3579  0.0420
    1TCq1    O614295   3.853   4.356  13.156 -0.3668  0.5005  0.3079
    1TCq1    H114296   3.930   4.661  12.652  0.5996 -0.4394  0.2568
    1TCq1    H214297   3.861   4.543  13.030  0.3212 -0.4571  1.2391
    1TCq1    H314298   4.080   4.212  12.887 -1.3907 -1.1929 -0.5987
    1TCq1    H414299   4.091   4.569  12.672  0.3331 -1.9758 -1.7076
    2MPD2     C14300   4.450   4.383  12.531  0.1517  0.0063 -0.1454
    2MPD2    C114301   4.413   4.468  12.633 -0.1665  0.4198 -0.3467
    2MPD2    C214302   4.497   4.569  12.669 -0.6746  0.4648 -0.4287
    2MPD2    C314303   4.618   4.584  12.602 -0.3522  0.2018 -0.4199
    2MPD2    C414304   4.662   4.497  12.506 -0.0517 -0.0949  0.4433
    2MPD2    C514305   4.581   4.387  12.480  0.0119 -0.7212  0.3991
    2MPD2     H14306   4.466   4.636  12.748 -0.7895  1.6852 -1.4936
    2MPD2    H114307   0.028   4.500  12.447 -0.0755 -0.3079  0.3959
    2MPD2    H214308   4.393   4.297  12.500  1.4721 -0.9923  0.1830
    2MPD2    H314309   4.611   4.313  12.407  1.8860  1.6722 -1.2669
    2MPD2     N14310   4.698   4.692  12.643  0.3874  0.0017  0.2641
    2MPD2    H514311   4.679   0.020  12.728 -0.2463 -0.9258  0.6877
    2MPD2    N114312   4.290   4.452  12.702  0.8661 -0.0299 -0.4087
    2MPD2    H714313   4.261   4.536  12.750 -1.0462 -0.7985 -0.2345
    3TCq1    O114314   0.428   0.488  12.620  0.1044  0.1891  0.5770
    3TCq1    C114315   0.394   0.363  12.568 -0.0044  0.1032 -0.3572
    3TCq1    O214316   0.421   0.322  12.455  0.2209  0.1806  0.4094
    3TCq1    C214317   0.293   0.294  12.649 -0.1014 -0.2670 -0.2930
    3TCq1    C314318   0.306   0.286  12.781 -0.3702  0.2597  0.4696
    3TCq1    C414319   0.240   0.184  12.847 -0.3095 -0.7403 -0.1554
    3TCq1    C514320   0.158   0.101  12.775 -0.5238  0.0514 -0.0602
    3TCq1    C614321   0.160   0.109  12.639  0.3468  0.0564  0.1931
    3TCq1    C714322   0.221   0.208  12.573 -0.6141 -0.3546 -0.1670
    3TCq1    C814323   0.074   0.016  12.568  0.0607 -0.6682 -0.0674
    3TCq1    O414324   0.098   0.006  12.450  0.2695 -0.0651 -0.0505
    3TCq1    C914325   0.272   0.167  12.985  0.2342  0.4512  0.6206
    3TCq1    O514326   0.348   0.251  13.041 -0.0269 -0.0350 -0.1605
    3TCq1    O614327   0.239   0.057  13.034  0.5632 -0.6062 -0.0711
    3TCq1    H114328   0.370   0.516  12.694 -1.2198  3.1423 -1.5932
    3TCq1    H214329   0.376   0.344  12.839 -1.5125  0.1912  1.9142
    3TCq1    H314330   0.107   0.025  12.833 -1.5928  0.1291 -0.8869
    3TCq1    H414331   0.206   0.238  12.470 -0.6706 -2.2994 -0.7231
    1MPD2     C14332   0.114   1.511  14.733 -0.2524 -0.6341  0.5467
    1MPD2    C114333   0.019   1.577  14.661 -0.0684 -0.0797  0.4233
    1MPD2    C214334   4.631   1.634  14.721  0.2197 -0.5815  0.0113
    1MPD2    C314335   4.627   1.645  14.859 -0.1208  0.1191 -0.0073
    1MPD2    C414336   4.723   1.580  14.932  0.6922  0.5146 -0.0500
    1MPD2    C514337   0.107   1.517  14.872  0.3043 -0.3013 -0.3139
    1MPD2     H14338   4.547   1.673  14.665  2.2884 -0.1593 -2.8502
    1MPD2    H114339   4.710   1.579  15.040 -0.0070 -2.0995 -0.1679
    1MPD2    H214340   0.200   1.472  14.679  0.3629 -0.8342  1.6749
    1MPD2    H314341   0.180   1.462  14.930 -0.4372 -1.4774 -0.4971
    1MPD2     N14342   4.512   1.699  14.924  0.1087 -0.5916  0.2972
    1MPD2    H514343   4.517   1.710  15.025 -1.2641 -0.0252  0.3045
    1MPD2    N114344   0.045   1.583  14.526 -0.1465 -0.2265  0.2756
    1MPD2    H714345   0.130   1.536  14.497 -1.1816 -0.7893 -1.8911
    2TMC3    C114346   4.723   1.645  14.294 -0.1870 -0.3036 -0.1265
    2TMC3    C214347   4.620   1.703  14.226  0.5256 -0.7867  0.2977
    2TMC3    C314348   4.540   1.623  14.144  0.2567 -0.3287 -0.2311
    2TMC3    C414349   0.039   1.519  14.273  0.4751  0.3328 -0.4624
    2TMC3    C514350   4.695   1.446  14.177 -0.1340 -0.2276 -0.5982
    2TMC3    C614351   4.584   1.498  14.114  1.1498 -0.0252 -0.6937
    2TMC3     C14352   4.704   1.670  14.435 -0.0020  0.0213  0.0137
    2TMC3     O14353   4.604   1.742  14.454  0.2739 -0.5573  0.3647
    2TMC3     H14354   4.597   1.806  14.251 -2.3056 -1.1575 -0.8007
    2TMC3    H114355   0.139   1.488  14.301  0.3696  0.5054  0.1070
    2TMC3    H214356   4.519   1.444  14.046  0.1754 -1.6733  1.5316
    2TMC3    C714357   0.032   1.338  14.105  0.0906  0.1742 -0.3188
    2TMC3    C814358   4.401   1.630  14.164  0.8623 -0.1062 -0.3263
    2TMC3    O114359   4.720   1.324  13.990 -0.1726  0.4287  0.0209
    2TMC3    O214360   4.333   1.551  14.099 -0.0988 -1.1668 -0.0439
    3TCq1    O114361   0.945   0.570  14.356  0.4203 -0.3250  0.4109
    3TCq1    C114362   0.843   0.507  14.416  0.8079  0.2255  0.0378
    3TCq1    O214363   0.851   0.397  14.468  0.3110  0.3664  0.0742
    3TCq1    C214364   0.754   0.611  14.452  0.6944 -0.2390  0.2570
    3TCq1    C314365   0.729   0.635  14.586 -0.2780 -0.2154 -0.3837
    3TCq1    C414366   0.634   0.734  14.606 -0.4914 -0.3146 -0.4058
    3TCq1    C514367   0.587   0.815  14.512  0.1591  0.4967 -0.2086
    3TCq1    C614368   0.629   0.800  14.381  0.2027 -0.5828  1.1994
    3TCq1    C714369   0.712   0.691  14.352  0.4862  0.3750  0.0759
    3TCq1    C814370   0.542   0.849  14.271  0.0520 -0.1253  0.2542
    3TCq1    O414371   0.559   0.796  14.161  0.1044 -0.6342  0.5191
    3TCq1    C914372   0.589   0.752  14.743 -0.0431  0.3062  0.9678
    3TCq1    O514373   0.504   0.842  14.767  0.1266  0.4223  0.4104
    3TCq1    O614374   0.626   0.668  14.827 -0.6279 -0.2420 -0.1215
    3TCq1    H114375   0.938   0.665  14.334 -3.0979 -0.2949  1.6891
    3TCq1    H214376   0.784   0.569  14.652 -0.9875  2.7283  3.1590
    3TCq1    H314377   0.513   0.890  14.536 -0.5175 -0.4723  0.7631
    3TCq1    H414378   0.744   0.667  14.252 -0.0303  0.0487 -0.0091
    4MPD2     C14379   0.369   0.974  14.063 -0.0595  0.2233 -0.1440
    4MPD2    C114380   0.386   1.022  14.192 -0.4738 -0.0668  0.6289
    4MPD2    C214381   0.305   1.127  14.227  0.3352 -0.1381 -0.6448
    4MPD2    C314382   0.210   1.180  14.137 -0.8437  0.0395  0.6490
    4MPD2    C414383   0.203   1.127  14.014 -0.3352 -0.8671  0.1385
    4MPD2    C514384   0.272   1.017  13.980 -0.9045 -0.4587 -0.3631
    4MPD2     H14385   0.304   1.149  14.333  0.9586 -1.5253 -0.3348
    4MPD2    H114386   0.130   1.155  13.939  1.7325  0.2634 -1.4466
    4MPD2    H214387   0.423   0.893  14.014  0.2288 -0.7294  1.7375
    4MPD2    H314388   0.257   0.974  13.881 -0.7308 -2.2141  0.3683
    4MPD2     N14389   0.126   1.277  14.182 -0.1355  0.2873 -0.3023
    4MPD2    H514390   0.129   1.289  14.283  1.4858 -1.5427 -0.1315
    4MPD2    N114391   0.460   0.957  14.292 -0.2741  0.6408  0.5925
    4MPD2    H714392   0.452   1.001  14.383  1.1400  2.4459 -0.1375
    5TMC2    C114393   4.083   1.820  14.899 -0.6076 -0.2615  0.4852
    5TMC2    C214394   4.043   1.735  14.999 -0.4193 -0.0471  0.2293
    5TMC2    C314395   4.142   1.685  15.079 -0.0334  0.2410 -0.8860
    5TMC2    C414396   4.210   1.877  14.890  0.9844 -0.1575 -0.2236
    5TMC2    C514397   4.306   1.809  14.957  0.3227 -0.4578 -0.1240
    5TMC2    C614398   4.272   1.716  15.054  0.1164  0.3894  0.0941
    5TMC2     C14399   4.023   1.804  14.768  0.1321 -0.2919  0.1554
    5TMC2     O14400   3.903   1.828  14.758  0.2726  0.5270 -0.4864
    5TMC2     H14401   3.938   1.710  15.014  0.3551 -1.6138  2.9979
    5TMC2    H114402   4.236   1.944  14.809  0.1601 -2.0462 -2.0541
    5TMC2    H214403   4.355   1.664  15.101 -1.3229 -1.8614  0.1599
    5TMC2    C714404   4.408   1.765  14.867  1.0902  0.2555  0.9214
    5TMC2    C814405   4.128   1.545  15.123 -0.1347 -0.5530 -0.1527
    5TMC2    O114406   4.383   1.794  14.749  0.1081 -0.2067 -0.7864
    5TMC2    O214407   4.114   1.457  15.041 -0.1885  0.1897  0.5536
    5TMC2    O514408   4.211   1.539  15.228 -0.0724  0.3507 -0.2946
    5TMC2    H514409   4.194   1.616  15.286 -0.4033 -0.3112  0.4830
    6MPD2     C14410   4.115   1.655  14.279  0.1201  0.2498 -0.2880
    6MPD2    C114411   4.233   1.698  14.334  0.1163 -0.1783 -0.4840
    6MPD2    C214412   4.224   1.758  14.456  0.4679 -0.0282 -0.0056
    6MPD2    C314413   4.109   1.765  14.535  0.5588 -0.0250  0.4494
    6MPD2    C414414   3.995   1.710  14.479  0.4134 -0.3407  0.0261
    6MPD2    C514415   4.002   1.659  14.352 -0.4018 -0.7000  0.6638
    6MPD2     H14416   4.321   1.791  14.493  0.0045  0.4062  0.8043
    6MPD2    H114417   3.905   1.712  14.540  0.3864 -1.3046  0.0249
    6MPD2    H214418   4.115   1.604  14.183  2.4074 -0.7175  0.2050
    6MPD2    H314419   3.912   1.615  14.309 -0.4399  0.0392 -0.0180
    6MPD2     N14420   4.117   1.811  14.668 -0.0458 -0.9380 -0.8770
    6MPD2    H514421   4.217   1.808  14.688 -0.7242 -1.7056  2.3386
    6MPD2    N114422   4.361   1.687  14.283 -0.0565  0.5082 -0.2099
    6MPD2    H714423   4.432   1.724  14.346 -1.7427  1.4041  1.1622
  945NH3     N114424   4.124   1.963   8.500  0.4330  0.0421  0.1699
  945NH3     H214425   4.222   1.949   8.521  0.1182  0.2768  1.8442
  945NH3     H314426   4.117   2.064   8.509 -1.0649 -0.2833  2.6474
  945NH3     H414427   4.125   1.945   8.401  1.0082  0.9275  0.0133
  946SOD     NA14428   1.718   1.467  14.604  0.4572 -0.1087 -0.2943
  947SOD     NA14429   1.051   4.679  13.347  0.1372  0.1245 -0.1134
  948SOD     NA14430   2.690   1.720   3.464  0.0944  0.7412  0.3929
  949SOD     NA14431   2.269   1.266  17.568  0.0277 -0.2022  1.0438
  950SOD     NA14432   2.276   3.708   1.392 -0.3582  0.0758  0.0446
  951SOD     NA14433   1.945   0.382  14.949  0.4267  0.0760 -0.6071
  952SOD     NA14434   3.735   4.152  14.387 -0.1559 -0.3289 -0.0227
  953SOD     NA14435   4.275   3.815  11.036 -0.2514  0.0738 -0.0910
  954SOD     NA14436   3.025   3.810  13.056  0.5836 -0.1429  0.9734
  955SOD     NA14437   0.429   0.228  12.262 -0.2232 -0.1283 -0.5368
  956SOD     NA14438   0.059   3.106   9.552 -0.0752  0.4227  0.1766
  957SOD     NA14439   4.028   4.384   9.491  0.1081  0.3696 -0.3353
  958SOD     NA14440   0.408   0.226  11.939 -0.2805  0.6565 -0.2699
  959SOD     NA14441   0.528   0.773  14.985 -0.1950  0.0123  0.2571
  960SOD     NA14442   1.094   2.583  13.416 -0.2453 -0.0962 -0.4230
  961SOD     NA14443   4.000   0.198  10.698 -0.0781 -0.7236  0.0669
  962SOD     NA14444   2.483   0.369   4.909  0.0785  0.4252 -0.2077
  963SOD     NA14445   4.045   3.136   6.564 -0.4584  0.0315  0.1755
  964SOD     NA14446   0.792   1.378  11.658 -0.0344  0.1744 -0.0870
  965SOD     NA14447   0.216   0.391   0.391 -0.2240 -0.2523 -0.6922
  966SOD     NA14448   3.754   4.127  13.217  0.2687 -0.1091 -0.1155
  967SOD     NA14449   0.951   4.543   0.215  0.0515 -0.0897  0.3458
  968SOD     NA14450   1.322   0.223  14.555 -0.1172  0.2783  0.4171
  969SOD     NA14451   2.629   1.306  16.051  0.2103  0.4894  0.7827
  970SOD     NA14452   1.868   1.030   0.880  0.5812  0.3098 -0.3834
  971SOD     NA14453   1.609   4.672  13.411 -0.0360 -0.3299  0.5306
  972SOD     NA14454   1.952   3.608   9.691  0.2299 -0.7633 -0.1539
  973SOD     NA14455   2.725   1.995   9.480 -0.3243  0.2028 -0.0140
  974SOD     NA14456   1.593   2.805  13.291 -0.3366 -0.8540  0.2895
  975SOD     NA14457   3.309   4.027   2.831 -0.4192 -0.0284  0.1785
  976SOD     NA14458   1.744   4.393   8.051  0.1484 -0.3477  0.5178
  977SOD     NA14459   0.315   0.860   6.934  0.3786  0.1167 -0.4193
  978SOD     NA14460   0.239   4.408  10.452  0.7993 -0.0860  0.1116
  979SOD     NA14461   2.455   4.522  14.229 -0.2145  0.0152 -0.0493
  980SOD     NA14462   1.382   0.440  15.099  0.2847 -0.0638  0.1751
  981SOD     NA14463   4.708   3.731  11.116  0.0071 -0.2401  0.0419
  982SOD     NA14464   1.866   3.961   1.480 -0.5503 -0.3942  0.1973
  983SOD     NA14465   0.902   1.975   2.029  0.0663  0.0532  0.5421
  984SOD     NA14466   1.551   0.483   5.900  0.8139  0.1855 -0.2189
  985SOD     NA14467   4.051   3.097  11.051 -0.3349 -0.5532  0.1526
  986SOD     NA14468   1.224   0.027   0.280  0.2293 -0.2062  0.1424
  987SOD     NA14469   0.959   0.235  12.361  0.1975 -0.0276  0.3123
  988SOD     NA14470   0.072   0.044  13.209  0.0783  0.1767 -0.6298
  989SOD     NA14471   4.165   2.052   7.827  0.2520  0.2815 -0.1687
  990SOD     NA14472   2.226   2.420   8.886 -0.0547  0.1372  0.1636
  991SOD     NA14473   0.738   0.230  12.081  0.4765  0.0920  0.1926
  992SOD     NA14474   1.709   0.944  15.937 -0.9256 -0.2368 -1.0931
  993SOD     NA14475   0.359   3.866  10.742 -0.2151  0.4707 -0.5924
  994SOD     NA14476   3.103   0.388   9.564 -0.6364  0.3891  0.4107
  995SOD     NA14477   4.367   1.154  14.903  0.1169 -0.4348  0.5351
  996SOD     NA14478   4.310   3.942  11.296  0.4459  0.2827  0.5026
  997SOD     NA14479   0.584   3.729   2.761  0.6203  0.1116 -0.7675
  998SOD     NA14480   3.067   0.784   8.338 -0.4449 -0.4702 -0.0266
  999SOD     NA14481   3.230   2.955   1.074 -0.1661  0.2869 -0.0834
 1000SOD     NA14482   3.324   2.984   2.418  0.4982 -0.2779  0.1847
 1001SOD     NA14483   1.100   1.529  11.729 -0.0326 -0.4385  0.5508
 1002SOD     NA14484   2.510   0.502  13.247 -0.2771  0.5331  0.1470
 1003SOD     NA14485   0.264   4.662  11.882  0.8991 -0.3120  0.0353
 1004SOD     NA14486   1.960   3.489  13.226 -0.0572 -0.4323  0.6108
 1005SOD     NA14487   1.532   0.988  13.582  0.2132 -0.1717 -0.2119
 1006SOD     NA14488   4.624   1.306  11.932 -0.2190  0.5055  0.4802
 1007SOD     NA14489   1.400   4.052  17.176  0.4301  0.4296 -0.0144
 1008SOD     NA14490   4.071   2.770  15.999 -0.5247  0.0260 -0.5070
 1009SOD     NA14491   1.197   1.410  16.901 -0.1866 -0.1558 -0.3496
 1010SOD     NA14492   0.096   2.216   9.329  0.1476  0.4103  0.0999
 1011SOD     NA14493   2.508   4.252  11.605 -0.0739 -0.1365  0.3878
 1012SOL     OW14494   1.987   2.184   7.019  0.0288  0.5413 -0.5882
 1012SOL    HW114495   2.012   2.142   6.936  0.9123 -2.3882  1.1260
 1012SOL    HW214496   2.074   2.211   7.050 -0.6324  1.3241  0.5569
 1013SOL     OW14497   0.482   1.831   4.911 -0.1299 -0.7393  1.0297
 1013SOL    HW114498   0.550   1.891   4.880 -0.9849 -0.6047 -0.5670
 1013SOL    HW214499   0.466   1.784   4.829  1.2899  1.6112 -0.6372
 1014SOL     OW14500   2.757   2.081  11.767  0.3306 -0.7135  0.0158
 1014SOL    HW114501   2.697   2.146  11.731  0.9742  0.1830  0.5615
 1014SOL    HW214502   2.794   2.054  11.683 -0.9603 -1.9941 -0.1373
 1015SOL     OW14503   0.331   1.902   3.808 -0.3587  0.2069  0.6400
 1015SOL    HW114504   0.388   1.977   3.821 -1.6723  1.0961  1.2887
 1015SOL    HW214505   0.322   1.885   3.714  0.9116 -1.2853  0.7778
 1016SOL     OW14506   1.776   3.331  12.831 -0.3581  0.2303  0.1632
 1016SOL    HW114507   1.802   3.414  12.871  0.6203 -0.4249  0.9002
 1016SOL    HW214508   1.828   3.275  12.888  0.2092 -0.7528 -1.3426
 1017SOL     OW14509   2.394   4.447   8.107  0.3296  0.5932 -0.2866
 1017SOL    HW114510   2.316   4.392   8.110  0.5612  0.2128 -1.3587
 1017SOL    HW214511   2.440   4.411   8.031 -0.2780  2.5438 -1.5875
 1018SOL     OW14512   0.824   1.864   4.569 -0.6892 -0.0028  0.8647
 1018SOL    HW114513   0.807   1.941   4.515  2.2490  0.1169  0.1212
 1018SOL    HW214514   0.780   1.791   4.527  1.3889 -0.3421 -0.7028
 1019SOL     OW14515   3.165   1.163   4.568  0.2942 -0.6255 -0.3957
 1019SOL    HW114516   3.165   1.258   4.582  0.4084 -0.0936 -4.2342
 1019SOL    HW214517   3.239   1.151   4.509  3.6502 -1.2951  3.9503
 1020SOL     OW14518   1.975   0.362   8.123 -0.1614  0.2803 -0.4251
 1020SOL    HW114519   1.994   0.295   8.057 -1.5558 -1.0088  0.5034
 1020SOL    HW214520   1.951   0.428   8.058  0.9273  0.8789 -0.2348
 1021SOL     OW14521   2.335   4.375   6.159  0.6118  0.0309  0.4484
 1021SOL    HW114522   2.280   4.405   6.087  0.6298 -2.2971 -0.5239
 1021SOL    HW214523   2.320   4.281   6.170  1.5037 -0.1955 -0.3052
 1022SOL     OW14524   0.636   4.341  15.643 -0.2217  0.0581 -0.1971
 1022SOL    HW114525   0.616   4.396  15.567  0.1985 -0.8337 -0.9488
 1022SOL    HW214526   0.592   4.263  15.611  1.5082 -0.5114 -1.2064
 1023SOL     OW14527   4.438   4.176   9.324 -0.2177  0.2227 -0.2425
 1023SOL    HW114528   4.532   4.192   9.331 -0.1559  1.5063 -3.9372
 1023SOL    HW214529   4.426   4.084   9.300  0.4829 -0.4149  1.9131
 1024SOL     OW14530   2.734   2.849   8.396  0.0787  0.2023  0.3040
 1024SOL    HW114531   2.746   2.758   8.421  0.0473 -0.9124 -3.6185
 1024SOL    HW214532   2.798   2.905   8.439  0.4612  1.5058 -1.9518
 1025SOL     OW14533   2.812   2.782   5.865  0.2017  0.3197  0.1498
 1025SOL    HW114534   2.833   2.873   5.842  0.4560 -0.7351 -3.7284
 1025SOL    HW214535   2.716   2.786   5.858  0.4163  1.2854 -2.4989
 1026SOL     OW14536   0.183   3.240   1.177  0.0781  0.1197  0.1886
 1026SOL    HW114537   0.087   3.238   1.186  0.0411 -1.9610 -0.7071
 1026SOL    HW214538   0.200   3.329   1.146  2.4745  0.0359  1.3384
 1027SOL     OW14539   0.787   1.944   5.596 -0.2085 -0.3098 -0.3201
 1027SOL    HW114540   0.711   2.002   5.597 -0.3262 -0.3903 -3.8348
 1027SOL    HW214541   0.858   2.008   5.592 -0.1139 -0.4353 -0.6664
 1028SOL     OW14542   4.452   0.798   3.943  0.0840  0.1067 -0.1841
 1028SOL    HW114543   4.364   0.822   3.971 -0.2151 -1.3558  0.1248
 1028SOL    HW214544   4.467   0.848   3.862 -0.7488  0.8010  0.0865
 1029SOL     OW14545   0.564   3.755   5.647  0.1320 -0.4025 -0.2321
 1029SOL    HW114546   0.608   3.815   5.708  0.3764 -0.2994 -0.5122
 1029SOL    HW214547   0.486   3.732   5.698  0.6299 -1.2532  0.1495
 1030SOL     OW14548   3.126   2.918  16.720  0.0143 -0.5847 -0.7872
 1030SOL    HW114549   3.064   2.960  16.780  0.4521  1.5847 -1.8234
 1030SOL    HW214550   3.059   2.884  16.660 -2.1487  0.7688  0.8393
 1031SOL     OW14551   4.104   2.181   3.409 -0.2419 -0.4670  0.0698
 1031SOL    HW114552   4.071   2.140   3.329  1.3653 -3.4032  0.8911
 1031SOL    HW214553   4.085   2.114   3.474 -1.8879 -0.2416 -0.1742
 1032SOL     OW14554   2.666   3.138   5.902 -0.1250 -0.8775 -0.5734
 1032SOL    HW114555   2.695   3.164   5.814 -0.1233 -0.2654 -0.3961
 1032SOL    HW214556   2.743   3.103   5.947  0.5818  0.1959 -0.9239
 1033SOL     OW14557   2.101   1.491   7.688 -0.1208  0.3700  0.3702
 1033SOL    HW114558   2.195   1.480   7.684 -0.2214 -0.1936 -0.4627
 1033SOL    HW214559   2.086   1.407   7.645  0.2280 -0.2010  1.3890
 1034SOL     OW14560   2.129   0.904   3.857 -0.5227 -0.3505 -0.0840
 1034SOL    HW114561   2.082   0.827   3.823  1.4362 -1.7352  0.3727
 1034SOL    HW214562   2.123   0.882   3.950 -0.0388 -1.4264 -0.3016
 1035SOL     OW14563   4.128   0.681   2.901  0.1507  0.5928 -0.3268
 1035SOL    HW114564   4.187   0.644   2.835  2.2479  0.5317  1.5530
 1035SOL    HW214565   4.053   0.621   2.905 -1.0691  2.2899  2.5276
 1036SOL     OW14566   4.679   4.213  10.891 -0.0973 -0.4733 -0.5802
 1036SOL    HW114567   4.687   4.251  10.978 -0.2222 -0.7547 -0.4450
 1036SOL    HW214568   4.598   4.162  10.893 -0.5135  0.2048 -0.2219
 1037SOL     OW14569   2.477   2.186   0.617  0.5277  0.2341  0.5567
 1037SOL    HW114570   2.406   2.234   0.660  0.2247  1.0062 -0.8096
 1037SOL    HW214571   2.530   2.162   0.693 -0.8101 -3.5920  0.2735
 1038SOL     OW14572   1.200   0.340  15.430 -0.1583 -0.0944  0.2301
 1038SOL    HW114573   1.216   0.427  15.394  0.5157 -0.7813 -1.1092
 1038SOL    HW214574   1.116   0.311  15.395 -0.8950 -0.7789  2.5438
 1039SOL     OW14575   4.680   4.173   1.731 -0.5069 -0.0783  0.3189
 1039SOL    HW114576   4.604   4.182   1.789 -0.2591  0.1697  0.5998
 1039SOL    HW214577   4.635   4.135   1.655  0.5239  0.6642 -0.6813
 1040SOL     OW14578   4.188   0.590   3.834  0.3076  0.1097  0.0960
 1040SOL    HW114579   4.221   0.617   3.748  3.3437  1.1088  1.5972
 1040SOL    HW214580   4.178   0.669   3.886 -4.5215 -0.6153  0.2678
 1041SOL     OW14581   4.628   3.409   7.205  0.1968 -0.4643 -0.0163
 1041SOL    HW114582   4.618   3.488   7.152 -4.7764 -0.0903  1.4178
 1041SOL    HW214583   4.581   3.347   7.149  1.9666 -3.4344  1.7663
 1042SOL     OW14584   4.387   0.937  14.179 -0.1163  0.2389 -0.4035
 1042SOL    HW114585   4.455   0.892  14.129 -1.9639 -0.7949 -1.9989
 1042SOL    HW214586   4.310   0.930  14.122  0.7907 -0.6483 -1.5335
 1043SOL     OW14587   4.578   2.282   3.474 -0.2666 -0.2154 -0.0778
 1043SOL    HW114588   4.533   2.364   3.453 -1.4800 -1.4626 -2.3209
 1043SOL    HW214589   4.539   2.232   3.403 -1.2803  0.7177 -0.1681
 1044SOL     OW14590   2.385   2.666  11.952  0.1542  0.0004 -0.4060
 1044SOL    HW114591   2.470   2.628  11.930 -0.2882 -0.9051 -0.5252
 1044SOL    HW214592   2.378   2.649  12.045  0.9919 -1.2830 -0.5741
 1045SOL     OW14593   3.746   3.094   5.290  0.0016  0.3877 -0.7366
 1045SOL    HW114594   3.772   3.160   5.353 -1.1327  1.8455 -1.8105
 1045SOL    HW214595   3.708   3.154   5.226  0.2445 -1.0018 -2.2150
 1046SOL     OW14596   2.715   0.462   8.741 -0.0342  0.1955 -0.0212
 1046SOL    HW114597   2.706   0.388   8.682 -1.8368  0.3233  0.0761
 1046SOL    HW214598   2.717   0.536   8.680 -0.0853 -1.5577 -2.1217
 1047SOL     OW14599   3.247   2.751   1.935 -0.5743 -0.3675 -0.0776
 1047SOL    HW114600   3.173   2.770   1.993  0.5122  1.3554  0.7613
 1047SOL    HW214601   3.211   2.774   1.849 -1.0027 -0.7550 -0.0038
 1048SOL     OW14602   4.136   1.554   4.830  0.1572 -0.4097  0.1220
 1048SOL    HW114603   4.089   1.495   4.889  1.9995 -0.7316  1.2468
 1048SOL    HW214604   4.061   1.606   4.800 -0.6531 -1.3430  0.5091
 1049SOL     OW14605   2.903   0.583   4.238 -0.4684 -0.3946  0.0326
 1049SOL    HW114606   2.905   0.585   4.333 -0.1085 -1.5918  0.0518
 1049SOL    HW214607   2.809   0.587   4.223 -0.3304  1.2006 -0.3999
 1050SOL     OW14608   0.859   2.218  17.005 -0.2675  0.1628  0.2045
 1050SOL    HW114609   0.812   2.175  17.077 -0.5416 -0.1850 -0.1815
 1050SOL    HW214610   0.915   2.145  16.979  0.7593  0.6261  1.0952
 1051SOL     OW14611   1.715   0.705  15.393  0.4637  0.0494 -0.3613
 1051SOL    HW114612   1.693   0.782  15.446  0.3176  0.3431 -0.8473
 1051SOL    HW214613   1.791   0.671  15.440 -1.5561 -3.2206  0.5388
 1052SOL     OW14614   2.596   4.592   8.229 -0.2781  0.0229 -0.3510
 1052SOL    HW114615   2.528   4.543   8.183 -0.0051  0.1167 -0.8631
 1052SOL    HW214616   2.601   4.666   8.168 -0.6183 -0.8504 -1.4485
 1053SOL     OW14617   2.072   2.258  13.198  0.5520  0.2945 -0.5127
 1053SOL    HW114618   2.063   2.166  13.219  1.8279  0.4160  0.5725
 1053SOL    HW214619   2.094   2.290  13.286 -0.5913  0.2617 -0.2176
 1054SOL     OW14620   1.685   3.669   5.867  0.2440 -0.0028  0.3487
 1054SOL    HW114621   1.669   3.584   5.826 -0.1922  0.2837 -0.0664
 1054SOL    HW214622   1.654   3.722   5.793 -1.8126 -0.6912  0.7298
 1055SOL     OW14623   0.073   1.106  14.786  0.0040 -0.3693 -0.4430
 1055SOL    HW114624   0.147   1.046  14.775 -0.6911 -1.3467  0.2950
 1055SOL    HW214625   0.106   1.196  14.786 -0.3823 -0.2245 -1.6425
 1056SOL     OW14626   4.264   0.561   9.215  0.1919 -0.2235  0.2321
 1056SOL    HW114627   4.201   0.621   9.175  0.1201 -0.4973 -0.0633
 1056SOL    HW214628   4.345   0.610   9.233 -0.1006  0.0306  0.8454
 1057SOL     OW14629   2.554   0.190   1.476 -0.0322  0.0582 -0.0056
 1057SOL    HW114630   2.634   0.233   1.503  0.0217  0.0165 -0.0982
 1057SOL    HW214631   2.514   0.167   1.560 -0.7981 -0.7373 -0.5775
 1058SOL     OW14632   1.705   1.373   8.987 -0.4569  0.0820  0.0026
 1058SOL    HW114633   1.680   1.281   8.991 -1.2026  0.4334  3.3683
 1058SOL    HW214634   1.751   1.365   8.903 -0.4820  2.5609 -0.2551
 1059SOL     OW14635   3.347   2.268   6.410 -0.6694 -0.5740 -0.1892
 1059SOL    HW114636   3.386   2.198   6.463  0.6992  1.1452  1.0580
 1059SOL    HW214637   3.351   2.344   6.469 -1.5576  0.3236 -1.2821
 1060SOL     OW14638   2.567   1.463  17.048  0.1663  0.5475 -0.0679
 1060SOL    HW114639   2.513   1.414  16.985  0.0436  0.1501  0.3392
 1060SOL    HW214640   2.585   1.538  16.992  0.9988  1.4355  1.4133
 1061SOL     OW14641   2.817   3.530  14.512 -0.2208 -0.5550 -0.4770
 1061SOL    HW114642   2.740   3.474  14.515 -1.7547  1.5276 -1.4331
 1061SOL    HW214643   2.864   3.506  14.592 -0.0226 -0.5621 -0.5932
 1062SOL     OW14644   1.908   4.635  11.235 -0.4055 -0.6906 -0.2717
 1062SOL    HW114645   1.864   4.705  11.186 -0.6164 -1.3861 -1.0758
 1062SOL    HW214646   1.851   4.561  11.216 -1.7833 -0.7607  4.2028
 1063SOL     OW14647   1.429   0.588   2.055  0.0729  0.7503 -0.1226
 1063SOL    HW114648   1.360   0.543   2.007  0.7902  0.8371 -1.2385
 1063SOL    HW214649   1.458   0.648   1.986 -0.9483 -0.0525 -1.2415
 1064SOL     OW14650   0.825   0.703   7.864  0.4022 -0.0061 -0.3988
 1064SOL    HW114651   0.799   0.637   7.929 -0.3705  0.3459 -0.3417
 1064SOL    HW214652   0.808   0.787   7.906  0.9503 -0.1824  0.1740
 1065SOL     OW14653   3.205   3.955   5.101 -0.3594  0.2375  0.1496
 1065SOL    HW114654   3.192   4.033   5.154  1.6851  1.2990 -0.8929
 1065SOL    HW214655   3.264   3.898   5.150  0.1944 -0.9775 -1.9104
 1066SOL     OW14656   0.967   4.476  16.481  0.1699 -0.0174 -0.0184
 1066SOL    HW114657   1.053   4.434  16.483  1.2200  2.1429 -0.1873
 1066SOL    HW214658   0.985   4.569  16.470  1.3206 -0.2965 -0.4907
 1067SOL     OW14659   2.329   1.244   6.283  0.0464  0.1603  0.4918
 1067SOL    HW114660   2.253   1.298   6.258  2.3172  2.1855 -1.9916
 1067SOL    HW214661   2.326   1.174   6.217  0.1349 -0.2353  0.9099
 1068SOL     OW14662   3.483   3.478  11.950 -0.7889  0.0233 -0.6151
 1068SOL    HW114663   3.563   3.499  11.998  0.1758 -1.8385 -1.3751
 1068SOL    HW214664   3.494   3.528  11.869 -2.0424  3.9186  1.6360
 1069SOL     OW14665   4.344   3.705  15.426 -0.0740  0.2400  0.6336
 1069SOL    HW114666   4.338   3.750  15.341 -1.8956  0.7294  1.0172
 1069SOL    HW214667   4.435   3.701  15.454  0.0753 -1.7451 -0.1202
 1070SOL     OW14668   0.539   0.183  11.756 -0.0560  0.4750  0.3080
 1070SOL    HW114669   0.515   0.134  11.677  0.4293 -0.3111  0.6571
 1070SOL    HW214670   0.634   0.186  11.746  0.0058 -0.7810  0.5710
 1071SOL     OW14671   1.624   0.468  16.086 -0.1638  0.4519  0.1760
 1071SOL    HW114672   1.686   0.407  16.127  0.4916 -1.0072 -3.0133
 1071SOL    HW214673   1.540   0.424  16.077 -0.8736  1.5019  1.6776
 1072SOL     OW14674   3.808   3.777   3.690  0.4026  0.3771  0.0376
 1072SOL    HW114675   3.871   3.709   3.666  0.1114  0.0608  0.1628
 1072SOL    HW214676   3.769   3.739   3.769  0.3508 -1.0695 -0.6824
 1073SOL     OW14677   1.115   3.673   6.535 -0.7226 -0.3873  0.7076
 1073SOL    HW114678   1.101   3.610   6.605  0.9323 -1.2728  0.2444
 1073SOL    HW214679   1.108   3.628   6.451 -0.0241  0.9273 -0.0584
 1074SOL     OW14680   2.028   3.131  14.692  0.1024 -0.3904 -0.0950
 1074SOL    HW114681   1.980   3.203  14.650 -0.0081 -1.1687 -1.3023
 1074SOL    HW214682   2.033   3.152  14.785 -0.1060  4.2209 -1.1133
 1075SOL     OW14683   4.067   2.151   7.630  0.7926 -0.3274  0.7946
 1075SOL    HW114684   4.046   2.242   7.654 -0.4434  0.0754 -1.8523
 1075SOL    HW214685   4.107   2.158   7.544  0.4447 -0.9671  0.5809
 1076SOL     OW14686   0.297   1.632  10.069 -0.3112  0.1793 -0.1228
 1076SOL    HW114687   0.297   1.550  10.018  0.4160 -1.1208  1.9535
 1076SOL    HW214688   0.221   1.679  10.036  0.4920  1.9823  0.6286
 1077SOL     OW14689   4.022   1.002   9.428  0.7026  0.0312  0.8955
 1077SOL    HW114690   4.018   0.947   9.506  0.5541 -0.1426  0.7642
 1077SOL    HW214691   4.109   1.042   9.434  0.3179  0.8725  0.8247
 1078SOL     OW14692   2.166   1.726   7.890  0.5445 -0.2087  0.1011
 1078SOL    HW114693   2.092   1.778   7.859  0.4255  1.2216  2.7183
 1078SOL    HW214694   2.238   1.737   7.828 -0.3322 -1.2425 -1.0945
 1079SOL     OW14695   0.866   1.084   2.479 -0.3791  0.1768  0.0694
 1079SOL    HW114696   0.824   1.007   2.517 -0.1274 -0.6084 -1.2369
 1079SOL    HW214697   0.879   1.136   2.558  0.1553 -1.7372  1.2204
 1080SOL     OW14698   1.087   0.543  12.047  0.0187 -0.4734  0.2685
 1080SOL    HW114699   1.049   0.469  12.001  0.6338 -0.5809 -0.0699
 1080SOL    HW214700   1.182   0.536  12.040 -0.1912 -1.9981 -1.0387
 1081SOL     OW14701   4.385   0.259  11.902 -0.7674  0.4505  0.6033
 1081SOL    HW114702   4.325   0.274  11.829  0.5285 -1.6353 -0.8622
 1081SOL    HW214703   4.400   0.166  11.889  1.2970  0.7650  0.7672
 1082SOL     OW14704   4.186   0.760   8.960 -0.1354 -0.7997 -0.5101
 1082SOL    HW114705   4.250   0.711   8.907 -0.2337 -0.9705 -0.4703
 1082SOL    HW214706   4.102   0.752   8.914 -0.8940  0.1142  0.7083
 1083SOL     OW14707   1.606   2.961   6.677 -0.3168 -0.1398 -0.2962
 1083SOL    HW114708   1.583   2.924   6.592  0.0312 -0.3706 -0.2886
 1083SOL    HW214709   1.691   2.920   6.695 -1.5171 -2.2545  0.6360
 1084SOL     OW14710   3.333   1.410   3.704 -0.1693 -0.6904  0.4363
 1084SOL    HW114711   3.397   1.437   3.638 -1.6191  1.1220 -0.2532
 1084SOL    HW214712   3.297   1.329   3.669 -1.2813 -0.0498  0.0734
 1085SOL     OW14713   0.632   0.327  14.039 -0.8025  0.6144  0.2667
 1085SOL    HW114714   0.598   0.417  14.037  1.5850  1.5470  1.6495
 1085SOL    HW214715   0.544   0.289  14.032 -0.9837  1.4078 -1.8274
 1086SOL     OW14716   0.313   3.743   7.056  0.2919 -0.3113 -0.5166
 1086SOL    HW114717   0.287   3.698   7.137 -0.2612  1.6558  0.4041
 1086SOL    HW214718   0.357   3.666   7.019 -1.6976 -1.0916 -1.2797
 1087SOL     OW14719   0.006   2.976   4.589  0.3600 -0.6043 -0.1393
 1087SOL    HW114720   4.690   2.969   4.503 -0.0036  1.2901 -0.1238
 1087SOL    HW214721   4.656   2.983   4.649  1.1887  1.6550  0.6292
 1088SOL     OW14722   2.538   1.557   1.704 -0.3068  0.6443  0.2332
 1088SOL    HW114723   2.634   1.553   1.705 -0.2920  0.7856 -0.5479
 1088SOL    HW214724   2.518   1.646   1.733 -2.3972  0.1320  0.3024
 1089SOL     OW14725   0.451   1.486   9.814  0.0742  0.7838  0.6275
 1089SOL    HW114726   0.472   1.393   9.803 -2.0810  0.2881  0.5619
 1089SOL    HW214727   0.528   1.510   9.865 -0.1123 -0.3117  1.4199
 1090SOL     OW14728   4.269   0.663  17.674  0.3997 -0.3555 -0.1129
 1090SOL    HW114729   4.265   0.597  17.604 -1.3436  1.9958 -2.1968
 1090SOL    HW214730   4.319   0.732  17.630  0.6024 -1.0495 -0.9627
 1091SOL     OW14731   0.029   0.144   3.397  0.2945  0.0883  0.0650
 1091SOL    HW114732   0.055   0.053   3.383 -0.2549  0.4687 -3.6433
 1091SOL    HW214733   0.017   0.143   3.492 -1.9082 -3.4403 -0.2631
 1092SOL     OW14734   1.194   3.740   7.970  0.1841 -0.4428 -0.2472
 1092SOL    HW114735   1.282   3.718   7.939 -0.0717 -0.4050 -1.0011
 1092SOL    HW214736   1.197   3.695   8.055 -1.7615  3.2004  1.7374
 1093SOL     OW14737   1.564   1.387  15.780 -0.8844 -0.2576 -0.1466
 1093SOL    HW114738   1.558   1.467  15.832 -1.0053  0.5634 -1.4296
 1093SOL    HW214739   1.562   1.416  15.689 -0.7779  2.3473  0.6668
 1094SOL     OW14740   2.194   3.727   2.562 -0.3029  0.0872 -0.3182
 1094SOL    HW114741   2.253   3.730   2.486 -0.4808  0.9055 -0.4294
 1094SOL    HW214742   2.177   3.633   2.570 -4.8959  1.0409  0.5246
 1095SOL     OW14743   3.879   4.413   3.831 -0.1903 -0.0894  0.3126
 1095SOL    HW114744   3.895   4.351   3.761  0.9398  1.7047 -1.0220
 1095SOL    HW214745   3.819   4.472   3.785  0.4623 -0.9557 -1.6031
 1096SOL     OW14746   4.327   1.959   7.365 -0.6692 -0.0694  0.0126
 1096SOL    HW114747   4.345   1.878   7.317  0.7679 -0.1328  0.6417
 1096SOL    HW214748   4.237   1.954   7.396 -0.7498  2.5690  0.2227
 1097SOL     OW14749   0.336   1.283   5.682  0.1039 -0.2694 -1.0279
 1097SOL    HW114750   0.251   1.280   5.638 -0.1905 -0.3400 -0.4632
 1097SOL    HW214751   0.374   1.366   5.654 -0.3765 -0.3945 -2.0277
 1098SOL     OW14752   0.461   3.455   2.642  0.1027 -0.1698 -0.1421
 1098SOL    HW114753   0.492   3.418   2.560 -0.8199 -0.1439 -0.5034
 1098SOL    HW214754   0.366   3.461   2.632  0.0167 -1.1141  0.1070
 1099SOL     OW14755   1.285   1.201   2.710  0.7775 -0.2141  0.3268
 1099SOL    HW114756   1.325   1.130   2.660 -0.3201 -0.5649 -0.0415
 1099SOL    HW214757   1.286   1.270   2.644 -1.8470 -1.2745 -0.7948
 1100SOL     OW14758   0.430   3.537   8.393  0.8192 -0.3017 -0.0250
 1100SOL    HW114759   0.433   3.447   8.426 -1.0581  0.1014  1.2059
 1100SOL    HW214760   0.359   3.523   8.330  2.1448 -0.6884 -1.4566
 1101SOL     OW14761   4.538   4.092   6.040  0.2230 -0.1486  0.5968
 1101SOL    HW114762   4.471   4.114   5.975  1.1117  0.9374  0.0520
 1101SOL    HW214763   4.481   4.063   6.111 -1.4257 -0.6135 -0.9156
 1102SOL     OW14764   2.179   0.618  16.928  0.3324  0.6872  0.2104
 1102SOL    HW114765   2.242   0.582  16.991 -0.1073  0.0719  0.3010
 1102SOL    HW214766   2.161   0.538  16.878 -0.2429  0.4526  0.7920
 1103SOL     OW14767   4.076   0.989  10.378  0.3337  0.3622  0.3154
 1103SOL    HW114768   4.006   0.951  10.324 -0.5329  1.0942  0.9194
 1103SOL    HW214769   4.062   1.083  10.369  2.9331  0.9662  2.5927
 1104SOL     OW14770   1.532   2.375   2.932 -0.3134  0.2005  0.0747
 1104SOL    HW114771   1.486   2.376   2.848  1.2539 -1.5360 -0.8079
 1104SOL    HW214772   1.625   2.370   2.908  0.5555 -0.0191  3.4410
 1105SOL     OW14773   1.822   0.234   1.842 -0.8477  0.2132 -0.4548
 1105SOL    HW114774   1.769   0.241   1.922 -0.8694 -0.3155 -0.4191
 1105SOL    HW214775   1.816   0.324   1.811  2.1334  0.7276  0.5072
 1106SOL     OW14776   4.034   0.174  15.295  0.3652 -0.1247  0.2973
 1106SOL    HW114777   4.093   0.240  15.331  1.3857 -1.3017  0.7612
 1106SOL    HW214778   4.096   0.118  15.248 -1.5554  0.4252 -2.9241
 1107SOL     OW14779   0.243   0.562   5.835  0.1245 -0.2943 -0.7028
 1107SOL    HW114780   0.329   0.523   5.845 -0.3083 -1.2474 -0.7044
 1107SOL    HW214781   0.205   0.498   5.775 -0.4353 -0.8767  0.2543
 1108SOL     OW14782   1.016   3.060  14.824  0.2690  0.0657  0.1409
 1108SOL    HW114783   1.010   3.142  14.774 -2.4440 -0.0531  0.2967
 1108SOL    HW214784   0.958   3.082  14.897 -0.2698 -2.1316  0.3605
 1109SOL     OW14785   2.424   0.271   4.183 -0.4043  0.7348 -0.1034
 1109SOL    HW114786   2.435   0.341   4.118  1.5015  1.7470  1.3216
 1109SOL    HW214787   2.499   0.219   4.156 -0.9234  0.3424 -0.8030
 1110SOL     OW14788   2.402   3.823   3.600 -0.8912 -0.1537 -0.3933
 1110SOL    HW114789   2.331   3.864   3.551 -0.4781 -1.3520 -2.0083
 1110SOL    HW214790   2.435   3.893   3.655  0.0963 -0.4540 -0.6117
 1111SOL     OW14791   3.992   4.163   4.278 -0.8009 -0.4271 -0.4988
 1111SOL    HW114792   3.938   4.093   4.242  0.0403 -1.9741  1.2950
 1111SOL    HW214793   4.009   4.202   4.192 -1.2116  0.4516 -0.1827
 1112SOL     OW14794   1.769   3.463   2.526  0.2998 -0.2802 -0.8970
 1112SOL    HW114795   1.720   3.457   2.444  0.4554  1.3239 -1.1072
 1112SOL    HW214796   1.826   3.536   2.502  1.9129 -0.8611  1.0698
 1113SOL     OW14797   1.397   4.620   0.218  0.2847 -0.0045 -0.1150
 1113SOL    HW114798   1.391   4.528   0.194  1.0031 -0.4169  1.2982
 1113SOL    HW214799   1.477   4.638   0.169 -0.5625 -0.1744 -1.5604
 1114SOL     OW14800   4.242   1.440   0.673 -0.4159 -0.2339 -0.0605
 1114SOL    HW114801   4.211   1.461   0.761 -1.3019 -2.5666  0.1906
 1114SOL    HW214802   4.169   1.381   0.651 -0.3403 -1.0373  1.8103
 1115SOL     OW14803   3.105   0.707  16.171 -0.3961 -0.4306 -0.3520
 1115SOL    HW114804   3.131   0.783  16.120  0.7052 -2.0249 -2.1371
 1115SOL    HW214805   3.131   0.730  16.261  0.9876 -0.9393 -0.6152
 1116SOL     OW14806   3.524   3.910   4.117  0.1603 -0.5106  0.0405
 1116SOL    HW114807   3.457   3.897   4.185  1.8325 -0.5373  1.6668
 1116SOL    HW214808   3.484   3.905   4.030 -1.3677 -1.3167  0.7829
 1117SOL     OW14809   4.256   2.661   6.401  0.5248 -0.3104  0.1893
 1117SOL    HW114810   4.334   2.668   6.456  0.8420  1.0514 -0.4324
 1117SOL    HW214811   4.225   2.573   6.424 -0.3682  0.1532  0.7532
 1118SOL     OW14812   0.060   1.692   0.578 -0.0323 -0.1254  0.3786
 1118SOL    HW114813   0.070   1.729   0.490  2.9742  1.0190  1.2006
 1118SOL    HW214814   0.013   1.613   0.555  1.2726 -0.9791  0.6508
 1119SOL     OW14815   1.455   2.581  16.259  1.1674 -0.0518  0.6561
 1119SOL    HW114816   1.469   2.659  16.313  0.0108  0.8166 -0.2923
 1119SOL    HW214817   1.361   2.574  16.275  0.9171 -0.7733 -1.1287
 1120SOL     OW14818   2.018   0.381   1.357 -0.2090  0.1063  0.0088
 1120SOL    HW114819   2.048   0.412   1.442 -0.1295 -0.2007  0.0921
 1120SOL    HW214820   2.094   0.336   1.319 -0.0790 -0.5046  1.0076
 1121SOL     OW14821   1.966   2.363  14.212  0.1778 -0.1294  0.5112
 1121SOL    HW114822   2.012   2.346  14.293  1.1401  1.5735  0.3034
 1121SOL    HW214823   2.008   2.291  14.164 -1.0260 -0.3146 -0.2866
 1122SOL     OW14824   1.674   1.411   0.524  0.5094 -0.1301 -0.2954
 1122SOL    HW114825   1.595   1.403   0.471 -0.4839 -2.9056  1.6379
 1122SOL    HW214826   1.735   1.370   0.463  0.6048  0.3828 -0.5515
 1123SOL     OW14827   4.058   2.123   9.355  0.3307  0.3969  0.1380
 1123SOL    HW114828   4.127   2.147   9.294 -0.3762 -3.5274 -2.2250
 1123SOL    HW214829   4.054   2.196   9.416  0.8165 -0.2654  0.9680
 1124SOL     OW14830   0.845   3.220   3.387  0.9199 -0.8698 -0.3189
 1124SOL    HW114831   0.860   3.314   3.380 -0.3302 -0.7911 -1.8970
 1124SOL    HW214832   0.783   3.221   3.460  1.4305 -1.0786  0.1101
 1125SOL     OW14833   3.110   3.961   8.499  0.1871  0.3848 -0.3410
 1125SOL    HW114834   3.073   4.007   8.424  0.5868  0.8655 -0.2472
 1125SOL    HW214835   3.175   4.027   8.524  0.2087 -0.3614  1.5880
 1126SOL     OW14836   3.739   0.257   7.906 -0.1686 -0.4151  0.8744
 1126SOL    HW114837   3.687   0.192   7.955 -2.2696  0.1399 -0.6256
 1126SOL    HW214838   3.690   0.333   7.937 -0.1163 -0.1493  0.2840
 1127SOL     OW14839   3.339   1.015   5.716  0.9083  0.2177 -0.0720
 1127SOL    HW114840   3.323   1.037   5.808 -0.4974  0.7327 -0.4345
 1127SOL    HW214841   3.376   1.099   5.687 -0.4350  1.1763  0.9918
 1128SOL     OW14842   3.003   1.763   3.969  0.0121 -0.2686  0.3627
 1128SOL    HW114843   3.082   1.713   3.949  0.9802  0.5043  2.2532
 1128SOL    HW214844   3.037   1.852   3.966 -0.8827  0.0225 -1.4254
 1129SOL     OW14845   2.337   2.913   0.960  0.3233  0.0437 -0.2385
 1129SOL    HW114846   2.255   2.949   0.993  1.0855  0.3676  1.2946
 1129SOL    HW214847   2.383   2.937   1.040 -0.3627  1.3186 -0.2284
 1130SOL     OW14848   3.074   2.267   5.154 -0.2610 -0.7418  0.3993
 1130SOL    HW114849   3.137   2.256   5.224 -0.6771 -1.8236  0.6023
 1130SOL    HW214850   3.008   2.201   5.178 -0.6574 -1.0388 -1.4969
 1131SOL     OW14851   2.545   4.586   3.244  0.2314  0.2373 -0.0381
 1131SOL    HW114852   2.621   4.612   3.192 -0.5508 -0.9506 -1.8248
 1131SOL    HW214853   2.477   4.605   3.180  0.5146  0.8546 -0.1503
 1132SOL     OW14854   1.446   2.849   3.426 -0.1630  0.1410 -0.0336
 1132SOL    HW114855   1.408   2.777   3.375 -0.7359 -0.1606  0.8208
 1132SOL    HW214856   1.469   2.915   3.361 -0.4934  1.6425  1.3750
 1133SOL     OW14857   3.618   4.558   4.755  0.2933  0.4384 -1.0098
 1133SOL    HW114858   3.663   4.611   4.821  0.1601 -1.5503  0.6951
 1133SOL    HW214859   3.562   4.510   4.816 -1.2958  2.3001 -1.0347
 1134SOL     OW14860   1.571   0.989   2.055  0.3014 -0.0490 -0.0756
 1134SOL    HW114861   1.570   0.907   2.103  1.1399  0.1103  0.2175
 1134SOL    HW214862   1.606   1.048   2.122 -1.6021  0.9162  0.0655
 1135SOL     OW14863   1.710   3.557   3.492 -0.4388 -0.0882  0.2993
 1135SOL    HW114864   1.689   3.587   3.404  0.7565  0.9985  0.3873
 1135SOL    HW214865   1.647   3.607   3.543  0.8626  0.8884  0.9525
 1136SOL     OW14866   1.741   0.367  10.294 -0.5222  0.1045 -0.1792
 1136SOL    HW114867   1.799   0.304  10.250  0.9392  0.0553  1.8167
 1136SOL    HW214868   1.671   0.359  10.229 -0.1147  0.9744 -0.7230
 1137SOL     OW14869   3.601   2.677  11.900  0.0788  0.2192  0.2818
 1137SOL    HW114870   3.667   2.743  11.878  1.6888 -0.7496  2.1661
 1137SOL    HW214871   3.521   2.727  11.914  0.1198  1.1020 -2.7140
 1138SOL     OW14872   1.914   1.391   8.254 -0.0837  0.0495 -0.2627
 1138SOL    HW114873   1.901   1.477   8.293 -0.5339 -0.5858  1.0049
 1138SOL    HW214874   1.981   1.418   8.192 -1.1930 -1.0861 -1.9511
 1139SOL     OW14875   2.214   1.700   6.400  0.1282 -0.0594  0.2105
 1139SOL    HW114876   2.155   1.626   6.415 -1.5282  0.8597 -1.8056
 1139SOL    HW214877   2.291   1.660   6.360 -0.1762  0.6700 -1.1018
 1140SOL     OW14878   0.633   2.082   7.395  0.6069 -0.4883  0.6028
 1140SOL    HW114879   0.544   2.052   7.374  0.4089  0.0873  0.6174
 1140SOL    HW214880   0.653   2.136   7.319  0.6787 -1.4359 -0.0509
 1141SOL     OW14881   0.072   3.038   0.377  0.1690  0.7589  0.0472
 1141SOL    HW114882   0.050   3.022   0.469  0.0597 -1.2152 -0.3345
 1141SOL    HW214883   0.043   3.128   0.360  1.8383  1.6342  1.8492
 1142SOL     OW14884   4.053   3.501   6.579  0.4133 -0.0959  0.1201
 1142SOL    HW114885   4.038   3.430   6.517 -0.9989  0.4636 -0.1775
 1142SOL    HW214886   3.969   3.495   6.625  0.6058  1.9570  0.7567
 1143SOL     OW14887   3.283   0.876   1.102 -0.2897 -0.2351 -0.4720
 1143SOL    HW114888   3.368   0.880   1.059 -0.3196  0.6289 -0.4428
 1143SOL    HW214889   3.228   0.888   1.024  2.1838  1.6563 -1.9097
 1144SOL     OW14890   2.073   0.989   1.604  0.1055  0.1249  0.2464
 1144SOL    HW114891   2.087   0.925   1.674 -0.7620 -0.7140 -0.3524
 1144SOL    HW214892   2.135   1.061   1.614 -0.1515 -0.1385  3.8960
 1145SOL     OW14893   1.525   2.797   4.410  0.7771 -0.2145 -0.4218
 1145SOL    HW114894   1.443   2.757   4.380  0.6136 -1.4513  1.6220
 1145SOL    HW214895   1.505   2.890   4.415 -0.5505 -0.7142  3.8629
 1146SOL     OW14896   3.002   1.593  15.205 -1.0337 -0.1155  0.6414
 1146SOL    HW114897   3.038   1.680  15.187  0.7709 -0.5955  1.9588
 1146SOL    HW214898   3.085   1.545  15.211 -1.2513 -0.4358  1.0168
 1147SOL     OW14899   1.687   0.316   4.164 -0.6504 -0.1286 -0.2724
 1147SOL    HW114900   1.750   0.259   4.119  0.5536  0.9118  0.0753
 1147SOL    HW214901   1.705   0.290   4.254 -1.1067  1.2292  0.2129
 1148SOL     OW14902   2.756   2.435   6.573  0.5602 -0.1970 -0.4794
 1148SOL    HW114903   2.837   2.385   6.565  0.2999 -0.3626 -2.0294
 1148SOL    HW214904   2.729   2.457   6.484 -0.7410  1.4823  0.3321
 1149SOL     OW14905   0.456   0.973   0.770  0.0468  0.7348  0.2039
 1149SOL    HW114906   0.395   0.963   0.696  0.4330  3.0793 -0.4484
 1149SOL    HW214907   0.423   0.898   0.819 -1.0452  0.4981 -0.8745
 1150SOL     OW14908   0.020   2.683   4.568 -0.1859 -0.0095  0.1099
 1150SOL    HW114909   0.034   2.776   4.587  2.6761 -0.0627 -1.8683
 1150SOL    HW214910   0.056   2.677   4.480  0.8321  2.3932  0.3630
 1151SOL     OW14911   2.404   0.274   2.815 -0.2375  0.1704 -0.0799
 1151SOL    HW114912   2.337   0.211   2.788 -0.3239  0.2660 -0.0880
 1151SOL    HW214913   2.484   0.223   2.801  0.6347  2.2272 -2.4946
 1152SOL     OW14914   4.107   3.376   8.267 -0.3152  0.2803  0.2783
 1152SOL    HW114915   4.126   3.288   8.299  1.9539  1.0528  1.0873
 1152SOL    HW214916   4.062   3.404   8.347 -3.5491  1.1100 -1.8577
 1153SOL     OW14917   1.035   1.859  15.808 -0.1495 -0.0325 -0.4248
 1153SOL    HW114918   0.990   1.909  15.740 -1.7164  1.4359  1.6875
 1153SOL    HW214919   1.107   1.830  15.753  1.0385  1.4706  0.3378
 1154SOL     OW14920   1.960   4.681   4.528 -0.0831  0.0614 -0.4052
 1154SOL    HW114921   1.897   4.662   4.458 -1.0023  2.3314 -0.1699
 1154SOL    HW214922   2.020   4.611   4.500 -1.0393 -0.6861 -0.5772
 1155SOL     OW14923   0.121   3.600   3.725  0.4537 -0.6575 -0.0103
 1155SOL    HW114924   0.200   3.589   3.779  1.5340 -0.9932 -1.6412
 1155SOL    HW214925   0.121   3.514   3.682  1.9342  0.1760 -1.7091
 1156SOL     OW14926   0.306   1.456   7.885 -0.4078  0.1691 -0.0303
 1156SOL    HW114927   0.299   1.361   7.884 -2.1158  0.2913  0.1543
 1156SOL    HW214928   0.313   1.470   7.979  2.7490  0.9464 -0.3900
 1157SOL     OW14929   2.134   2.489   8.375  0.5384  0.6865 -0.5502
 1157SOL    HW114930   2.079   2.566   8.362 -1.2398 -0.8155 -1.8199
 1157SOL    HW214931   2.085   2.422   8.329 -1.1394  2.2457 -1.0148
 1158SOL     OW14932   0.964   4.685  10.745 -0.0688 -0.1165  0.5711
 1158SOL    HW114933   0.979   4.697  10.652  1.5824 -0.6204  0.7845
 1158SOL    HW214934   0.932   4.594  10.748  1.6304 -0.7237  0.3195
 1159SOL     OW14935   0.362   1.889   9.446  0.7043  0.8035 -0.6286
 1159SOL    HW114936   0.324   1.931   9.523  0.9329  0.6472 -0.4299
 1159SOL    HW214937   0.338   1.797   9.459 -1.9618  1.7352  1.0247
 1160SOL     OW14938   0.805   1.206  15.545  0.4429  0.2397  0.2386
 1160SOL    HW114939   0.874   1.272  15.536  0.5214  0.1033 -0.1384
 1160SOL    HW214940   0.822   1.137  15.480 -0.1004  0.0233  0.3289
 1161SOL     OW14941   3.535   1.551  13.984 -0.4364 -0.4196 -0.6101
 1161SOL    HW114942   3.452   1.588  13.957 -0.2757  1.4611  1.4425
 1161SOL    HW214943   3.508   1.461  14.003 -1.2281 -0.3751 -1.5640
 1162SOL     OW14944   3.200   2.859   6.677  0.4090 -0.1685  0.8038
 1162SOL    HW114945   3.135   2.792   6.701 -0.1229  1.0485  2.7933
 1162SOL    HW214946   3.271   2.804   6.642  1.0297  3.7270 -3.9880
 1163SOL     OW14947   3.450   3.755   9.333  0.4424 -0.2162  0.6813
 1163SOL    HW114948   3.536   3.714   9.347  0.5882  0.0015  0.3996
 1163SOL    HW214949   3.465   3.779   9.242 -0.0531  0.9265  0.8996
 1164SOL     OW14950   0.320   2.489   4.516 -0.6665  0.7680 -0.0204
 1164SOL    HW114951   0.265   2.410   4.516  0.7597 -0.2193 -0.6196
 1164SOL    HW214952   0.279   2.542   4.448  0.4183 -0.4419 -1.6093
 1165SOL     OW14953   4.199   0.276   2.196  0.7152  0.1890  0.2818
 1165SOL    HW114954   4.198   0.370   2.216 -0.1793  0.0189  1.0387
 1165SOL    HW214955   4.199   0.233   2.282  1.1397  1.2372  0.8017
 1166SOL     OW14956   1.092   2.248   4.558  0.2068  0.6846  0.3809
 1166SOL    HW114957   1.135   2.164   4.545 -0.3209  0.3846  0.5887
 1166SOL    HW214958   1.049   2.255   4.472 -2.0366 -1.3541  1.3335
 1167SOL     OW14959   2.247   1.781   2.638  0.1130  0.3816  0.0890
 1167SOL    HW114960   2.278   1.820   2.719  1.9924 -2.0929  0.5657
 1167SOL    HW214961   2.255   1.688   2.658 -1.9176  0.4565  1.2255
 1168SOL     OW14962   2.286   4.025   3.006 -0.2096 -0.4599  0.2793
 1168SOL    HW114963   2.293   4.002   2.914 -0.2998  0.0546  0.1422
 1168SOL    HW214964   2.207   3.972   3.019 -0.1239 -0.8144 -0.6683
 1169SOL     OW14965   1.347   2.989   8.682  0.0064 -0.5561  0.3892
 1169SOL    HW114966   1.324   2.968   8.772  1.6699 -1.8982  0.5104
 1169SOL    HW214967   1.426   2.940   8.659  0.4873 -0.3872  1.6621
 1170SOL     OW14968   3.079   0.505   2.486 -0.3174  0.0147 -1.0188
 1170SOL    HW114969   3.105   0.413   2.494  0.8315  0.3701 -0.5475
 1170SOL    HW214970   3.157   0.554   2.459  0.2162  0.4867  1.3434
 1171SOL     OW14971   0.647   2.627  15.696 -0.4451  0.1895  0.1415
 1171SOL    HW114972   0.654   2.705  15.752  2.6472  0.5759 -0.7728
 1171SOL    HW214973   0.555   2.629  15.669 -1.0569  1.0525  2.2642
 1172SOL     OW14974   3.309   0.624   4.638 -0.3500  0.8785  0.3051
 1172SOL    HW114975   3.225   0.578   4.630  0.6741 -1.0063  0.2794
 1172SOL    HW214976   3.317   0.654   4.547 -0.3206 -1.1472 -0.3700
 1173SOL     OW14977   3.564   1.745   7.674  0.8439 -0.3125 -0.1983
 1173SOL    HW114978   3.619   1.719   7.748  1.0160 -0.7850 -0.4937
 1173SOL    HW214979   3.508   1.812   7.715 -1.4154 -2.4945  0.2708
 1174SOL     OW14980   1.319   0.686   7.645  0.4552  0.1271 -0.1920
 1174SOL    HW114981   1.293   0.652   7.731 -1.3912 -0.1880 -0.8680
 1174SOL    HW214982   1.228   0.705   7.622  0.6962 -0.5941 -1.7346
 1175SOL     OW14983   1.235   1.284   2.098 -0.8265  0.6840 -0.2094
 1175SOL    HW114984   1.245   1.235   2.180  0.1544  1.3061  0.0407
 1175SOL    HW214985   1.328   1.296   2.079  0.0501 -0.8837  3.1117
 1176SOL     OW14986   4.670   0.532  16.252  0.1648 -0.1071 -0.1979
 1176SOL    HW114987   4.671   0.625  16.275 -0.5451 -0.1216 -0.1202
 1176SOL    HW214988   0.038   0.509  16.246  0.6667  2.0284 -0.8906
 1177SOL     OW14989   2.336   3.040   4.152 -0.2540  0.4492  0.5093
 1177SOL    HW114990   2.260   3.044   4.094  0.1712  0.7839 -0.0174
 1177SOL    HW214991   2.339   3.124   4.196 -0.8187  0.8000 -0.1230
 1178SOL     OW14992   1.937   1.076  10.036 -0.4657 -0.4143  0.6053
 1178SOL    HW114993   1.948   1.170  10.051  0.6274 -0.2182 -1.3185
 1178SOL    HW214994   2.025   1.044  10.058  0.9752  4.8077  2.3453
 1179SOL     OW14995   1.287   4.481   5.751 -0.4685 -0.1792  0.2512
 1179SOL    HW114996   1.232   4.520   5.819 -0.7733  1.5710 -0.9840
 1179SOL    HW214997   1.231   4.450   5.679  0.9344 -1.5721 -0.2238
 1180SOL     OW14998   0.955   1.394   8.960  0.3341 -0.0343 -0.0071
 1180SOL    HW114999   0.887   1.417   9.022  0.7881  0.7269  0.2122
 1180SOL    HW215000   0.975   1.475   8.913  0.1513  0.0420  0.0503
 1181SOL     OW15001   1.725   1.061   5.045 -0.1974  0.6277  0.0577
 1181SOL    HW115002   1.785   1.095   4.978  1.0245  2.1352  1.9199
 1181SOL    HW215003   1.705   1.139   5.096  1.1245  0.6031  0.6069
 1182SOL     OW15004   3.738   1.835   9.420 -0.2867 -0.0247 -0.5163
 1182SOL    HW115005   3.663   1.781   9.442 -1.4452  1.7764 -0.0507
 1182SOL    HW215006   3.794   1.766   9.387  1.9226  1.5005  0.0054
 1183SOL     OW15007   4.127   4.488  15.295  0.4410  0.2887  0.0780
 1183SOL    HW115008   4.133   4.393  15.284 -0.2663  0.2603 -0.1025
 1183SOL    HW215009   4.050   4.494  15.352 -0.7086  1.4384 -1.5711
 1184SOL     OW15010   4.625   1.181  11.186  0.1251  0.4165  0.3772
 1184SOL    HW115011   4.627   1.270  11.220 -1.2207  0.6276 -0.1263
 1184SOL    HW215012   4.714   1.157  11.213 -0.6448 -1.7526  1.0191
 1185SOL     OW15013   4.316   0.309   4.515  0.6405 -0.2071 -0.1505
 1185SOL    HW115014   4.339   0.314   4.423 -1.4668 -0.2114 -0.6940
 1185SOL    HW215015   4.222   0.290   4.505  0.0245  2.8105 -0.2492
 1186SOL     OW15016   2.440   2.799  10.500  0.0604  0.2765  0.7969
 1186SOL    HW115017   2.403   2.880  10.536 -1.2587 -0.8162  1.8960
 1186SOL    HW215018   2.369   2.773  10.441 -0.3564 -2.7787  2.6492
 1187SOL     OW15019   4.058   3.311   7.775 -0.0761  0.3436  0.6816
 1187SOL    HW115020   4.114   3.344   7.846  0.2058  1.6881 -0.1635
 1187SOL    HW215021   3.975   3.346   7.806 -0.3577  0.2359  0.0497
 1188SOL     OW15022   0.640   1.936   6.658  0.0957 -0.8575 -0.6043
 1188SOL    HW115023   0.735   1.950   6.654  0.0695 -0.8481 -1.1877
 1188SOL    HW215024   0.629   1.878   6.733 -0.2237  1.1345  0.9063
 1189SOL     OW15025   1.076   3.733   6.106  0.3041  0.4844 -0.4465
 1189SOL    HW115026   1.096   3.793   6.178 -1.1909 -1.6365  1.7119
 1189SOL    HW215027   1.061   3.788   6.029 -1.3121 -0.6280 -0.9169
 1190SOL     OW15028   3.054   3.637   6.393 -0.1689  0.6676 -0.0703
 1190SOL    HW115029   2.999   3.603   6.465 -1.0462  1.3073 -0.4344
 1190SOL    HW215030   3.071   3.725   6.425  0.8136  0.0392  1.1527
 1191SOL     OW15031   2.634   0.601  13.438  0.5871  0.5901  0.2880
 1191SOL    HW115032   2.697   0.671  13.421  1.8780 -0.1754  1.9001
 1191SOL    HW215033   2.679   0.523  13.471  0.4916  0.7509  0.8061
 1192SOL     OW15034   2.958   2.113   3.368  0.3768 -0.6666 -0.4616
 1192SOL    HW115035   2.978   2.199   3.405  1.3775 -1.4314  0.7649
 1192SOL    HW215036   2.883   2.085   3.421  0.4848 -2.3621 -1.1955
 1193SOL     OW15037   0.021   2.701   9.315  0.7236 -0.3464  0.0370
 1193SOL    HW115038   4.686   2.670   9.384  0.6726  0.8177  0.5191
 1193SOL    HW215039   0.046   2.789   9.343  1.1114 -0.6034  0.5084
 1194SOL     OW15040   0.702   1.709   8.094 -0.5596 -0.1816  0.1709
 1194SOL    HW115041   0.693   1.684   8.002 -0.0898  0.4111 -0.0302
 1194SOL    HW215042   0.614   1.738   8.119 -0.5121  0.4663 -0.4201
 1195SOL     OW15043   4.109   0.202   5.567 -0.1383  0.2719  0.3032
 1195SOL    HW115044   4.036   0.253   5.602 -1.1465  0.0727 -1.4768
 1195SOL    HW215045   4.177   0.269   5.575 -0.0343  0.2074 -0.0076
 1196SOL     OW15046   2.781   4.286   0.457  0.4602  0.1119  0.4534
 1196SOL    HW115047   2.712   4.278   0.522  1.5303 -0.6730  1.4735
 1196SOL    HW215048   2.788   4.381   0.444 -1.0836  0.4022  1.8457
 1197SOL     OW15049   2.436   0.506   8.764  0.3497  0.1109  0.5128
 1197SOL    HW115050   2.447   0.564   8.840 -1.0249  1.2026 -0.1299
 1197SOL    HW215051   2.517   0.456   8.771 -0.3990 -1.3752 -1.5108
 1198SOL     OW15052   3.613   3.564   1.199  0.5012  0.2614 -0.1109
 1198SOL    HW115053   3.699   3.548   1.237  0.5600 -0.2732 -0.4704
 1198SOL    HW215054   3.574   3.614   1.271  1.0712 -0.0281  0.4018
 1199SOL     OW15055   2.324   2.361   8.517 -0.4461 -0.2259  0.0972
 1199SOL    HW115056   2.330   2.273   8.481  0.4322  0.9139 -2.5575
 1199SOL    HW215057   2.250   2.396   8.466 -0.1183 -0.1707 -0.3370
 1200SOL     OW15058   1.067   0.946  15.808 -0.0654 -0.2811 -0.3484
 1200SOL    HW115059   1.020   0.991  15.878  0.9399 -0.0778  0.1932
 1200SOL    HW215060   1.148   0.995  15.803 -0.5040  0.5693  1.1039
 1201SOL     OW15061   2.415   3.723   2.360  0.4694 -0.6253  0.2519
 1201SOL    HW115062   2.424   3.801   2.306  1.0905 -0.7893  0.1187
 1201SOL    HW215063   2.509   3.715   2.377  0.6548  1.2571  0.0679
 1202SOL     OW15064   1.207   0.572   7.866 -0.2917 -0.3267 -0.1055
 1202SOL    HW115065   1.140   0.522   7.820 -2.3485  2.2352  0.1060
 1202SOL    HW215066   1.154   0.601   7.940  0.4207  1.9515 -0.4839
 1203SOL     OW15067   3.180   0.722  14.733 -0.4835  0.1927 -0.3144
 1203SOL    HW115068   3.124   0.798  14.745 -0.2490  0.0827  1.4177
 1203SOL    HW215069   3.230   0.720  14.814 -0.7869  2.3278 -0.0752
 1204SOL     OW15070   0.948   0.337   1.665 -0.4805  0.2881  0.3860
 1204SOL    HW115071   0.908   0.263   1.620  0.1201  0.6440 -0.7150
 1204SOL    HW215072   1.008   0.293   1.726  2.2025  0.5694 -2.0762
 1205SOL     OW15073   2.488   1.759   6.817  0.6017 -0.3522  0.2659
 1205SOL    HW115074   2.487   1.841   6.768  1.8460 -1.0452 -0.9381
 1205SOL    HW215075   2.416   1.771   6.878  0.7350 -1.5297  0.6612
 1206SOL     OW15076   2.787   1.546   5.564  0.5974 -0.3325  0.0132
 1206SOL    HW115077   2.834   1.519   5.485 -0.6110 -1.4497 -0.3124
 1206SOL    HW215078   2.804   1.467   5.616 -0.1664 -0.9287 -0.6408
 1207SOL     OW15079   1.208   2.229   5.770  0.0321  0.3876  1.1545
 1207SOL    HW115080   1.165   2.195   5.849 -2.3322 -1.5440 -0.9759
 1207SOL    HW215081   1.300   2.226   5.799  0.2869  0.3483  0.3317
 1208SOL     OW15082   3.975   1.966   7.923  0.5414 -0.2045  0.1580
 1208SOL    HW115083   3.888   1.983   7.887 -0.1952 -0.3794  1.8489
 1208SOL    HW215084   3.969   1.874   7.947 -2.8827 -0.6088 -2.2744
 1209SOL     OW15085   4.435   0.981  11.189  0.1056 -0.3400 -0.0648
 1209SOL    HW115086   4.482   1.064  11.184  1.1694 -1.1559 -3.3266
 1209SOL    HW215087   4.507   0.922  11.167 -0.8661 -0.6373 -2.3872
 1210SOL     OW15088   3.713   1.564   4.219 -0.4011  0.7386 -0.6389
 1210SOL    HW115089   3.737   1.493   4.160 -2.3549 -0.9558  0.6368
 1210SOL    HW215090   3.784   1.628   4.214  0.9967 -0.7511  0.4602
 1211SOL     OW15091   4.300   1.126   5.381  0.1639  0.1760  0.6497
 1211SOL    HW115092   4.211   1.090   5.373  0.9050 -2.2361  3.4359
 1211SOL    HW215093   4.292   1.178   5.461 -1.0304  0.4551  0.3614
 1212SOL     OW15094   0.444   4.283   3.973 -0.1014  0.2770  0.3126
 1212SOL    HW115095   0.470   4.277   4.065 -0.9832  3.1692  0.7624
 1212SOL    HW215096   0.434   4.378   3.966  1.7363  0.5308  1.1627
 1213SOL     OW15097   2.807   0.652   4.802 -0.0517  0.2586  0.1375
 1213SOL    HW115098   2.890   0.664   4.849 -0.1578 -0.1084  0.4176
 1213SOL    HW215099   2.761   0.735   4.810 -1.0077 -0.2874  0.3164
 1214SOL     OW15100   0.702   1.000   0.025  0.0321  0.0663  0.3024
 1214SOL    HW115101   0.786   1.044   0.021 -0.0880  0.0582 -2.1960
 1214SOL    HW215102   0.720   0.913  17.689  1.7413 -0.5184  2.6465
 1215SOL     OW15103   2.828   3.270  11.803 -0.3072 -0.2041 -0.1013
 1215SOL    HW115104   2.805   3.177  11.799 -0.3927 -0.2498  1.3727
 1215SOL    HW215105   2.742   3.313  11.809  1.0510  2.4705  0.3217
 1216SOL     OW15106   0.293   4.392   4.423 -0.2015 -0.2648 -0.2073
 1216SOL    HW115107   0.200   4.415   4.419 -0.4380 -1.5312 -2.1103
 1216SOL    HW215108   0.339   4.476   4.423 -0.6923 -0.0046  1.4344
 1217SOL     OW15109   0.186   0.650   2.214 -0.7232  0.2765 -0.4020
 1217SOL    HW115110   0.222   0.654   2.125 -0.0262 -2.4650 -0.2364
 1217SOL    HW215111   0.266   0.649   2.266 -0.6778 -3.1388 -0.5170
 1218SOL     OW15112   4.231   1.073   8.157  0.2452 -0.6415 -0.6862
 1218SOL    HW115113   4.148   1.032   8.134 -1.1828  0.9393  1.6058
 1218SOL    HW215114   4.295   1.009   8.127  0.6873 -0.2071 -0.6594
 1219SOL     OW15115   2.324   0.455  15.351 -0.0156 -0.8889  0.3531
 1219SOL    HW115116   2.378   0.400  15.295  1.2237  0.0284  0.6561
 1219SOL    HW215117   2.363   0.542  15.345 -0.4153 -0.7609 -0.4388
 1220SOL     OW15118   1.864   1.042  12.082 -0.3189  1.1926  0.2584
 1220SOL    HW115119   1.798   1.023  12.016  1.8582 -1.5072 -1.1090
 1220SOL    HW215120   1.904   1.125  12.056  0.4142  0.3453 -1.2496
 1221SOL     OW15121   1.620   2.635   0.301 -0.2808  0.4674 -0.2803
 1221SOL    HW115122   1.582   2.630   0.214  0.0172  2.9432 -0.5335
 1221SOL    HW215123   1.545   2.670   0.349 -1.1450  1.0454 -2.0612
 1222SOL     OW15124   4.603   2.461  11.200 -0.2490 -0.3023  0.0752
 1222SOL    HW115125   4.680   2.454  11.256  0.9130 -2.2549 -1.7375
 1222SOL    HW215126   4.538   2.412  11.250  0.3031  0.1054  1.2012
 1223SOL     OW15127   3.749   4.041   7.231  0.2678 -0.1126  0.0604
 1223SOL    HW115128   3.727   3.954   7.198  0.5358 -1.2634  2.9406
 1223SOL    HW215129   3.833   4.038   7.183  0.1887  0.6279 -0.1370
 1224SOL     OW15130   1.964   0.341  11.172 -0.8024  0.4086  0.5561
 1224SOL    HW115131   1.903   0.355  11.100  2.1324 -1.2662 -2.2170
 1224SOL    HW215132   1.922   0.384  11.247 -1.2186  1.6181 -0.3834
 1225SOL     OW15133   4.520   1.710   5.148 -0.1363  0.3200 -0.1886
 1225SOL    HW115134   4.557   1.765   5.078 -1.6724  0.7603 -0.6485
 1225SOL    HW215135   4.444   1.671   5.105 -1.2317  0.7516  1.3946
 1226SOL     OW15136   0.517   2.853   3.502 -0.1373 -0.2355 -0.2280
 1226SOL    HW115137   0.539   2.880   3.412 -2.2605  1.1487 -0.3514
 1226SOL    HW215138   0.457   2.780   3.485 -0.7097  0.4719 -1.3366
 1227SOL     OW15139   1.028   0.703   7.666  0.3188 -0.4544 -0.5646
 1227SOL    HW115140   0.979   0.632   7.624 -1.0952  1.8140 -2.7015
 1227SOL    HW215141   0.970   0.700   7.742 -0.9346 -0.1729 -1.5151
 1228SOL     OW15142   0.668   1.377   2.414  0.0320 -0.3581 -0.4165
 1228SOL    HW115143   0.593   1.376   2.473  0.7808  1.2930  0.5588
 1228SOL    HW215144   0.741   1.381   2.477  0.1665 -1.4378 -0.5126
 1229SOL     OW15145   0.710   1.497   9.920 -0.1402 -0.6926  0.3255
 1229SOL    HW115146   0.778   1.434   9.942  0.6360  0.9885  2.7456
 1229SOL    HW215147   0.715   1.550  10.000 -1.4392 -1.4157  0.8952
 1230SOL     OW15148   4.306   3.759  10.407 -0.4740  0.0771  0.9943
 1230SOL    HW115149   4.330   3.681  10.356 -1.2219  0.5763 -0.1189
 1230SOL    HW215150   4.269   3.731  10.490  0.8852 -0.8308  1.3034
 1231SOL     OW15151   3.259   3.653   8.918 -0.6983 -0.0356  0.1325
 1231SOL    HW115152   3.278   3.688   8.831 -0.2268  0.4389  0.4326
 1231SOL    HW215153   3.335   3.690   8.962  1.6873 -0.6478 -3.4887
 1232SOL     OW15154   0.517   0.120   4.702  0.4852  0.1794  0.2262
 1232SOL    HW115155   0.447   0.181   4.730 -0.8008 -0.7669 -0.9302
 1232SOL    HW215156   0.583   0.134   4.769  1.2179  1.3897 -0.7470
 1233SOL     OW15157   3.309   2.061   2.837  0.0895 -0.5349 -0.0860
 1233SOL    HW115158   3.350   2.125   2.779 -0.6809  1.2857  1.3686
 1233SOL    HW215159   3.269   2.004   2.771  0.1349 -0.1398 -0.4590
 1234SOL     OW15160   3.314   4.675   2.530  0.2109 -0.4514 -0.3545
 1234SOL    HW115161   3.347   4.653   2.443  0.8487  0.7880 -0.4225
 1234SOL    HW215162   3.378   4.627   2.582 -1.0246 -0.0199  1.5485
 1235SOL     OW15163   1.261   3.537   2.495  0.1918 -0.1389 -0.1862
 1235SOL    HW115164   1.332   3.482   2.528  2.1085  0.4624 -3.2653
 1235SOL    HW215165   1.194   3.468   2.498 -1.8398  1.7837 -1.0284
 1236SOL     OW15166   0.166   4.465   4.050 -0.4627 -0.3145 -0.3158
 1236SOL    HW115167   0.245   4.514   4.030  0.0128 -1.1118 -0.4059
 1236SOL    HW215168   0.120   4.533   4.099 -0.1864 -0.6958  0.4660
 1237SOL     OW15169   2.567   3.308  12.804 -0.5221 -0.3101  0.0578
 1237SOL    HW115170   2.564   3.404  12.811  2.3292 -0.3325  1.5512
 1237SOL    HW215171   2.526   3.294  12.719 -2.4467 -2.1051  1.2966
 1238SOL     OW15172   2.023   1.146   6.247  0.2709  0.3557  0.5718
 1238SOL    HW115173   2.003   1.136   6.340  1.3741 -1.6330  0.5948
 1238SOL    HW215174   2.055   1.058   6.225 -3.1512 -0.5043 -0.9709
 1239SOL     OW15175   2.733   4.165   7.095 -0.4694  0.6260  0.5270
 1239SOL    HW115176   2.665   4.213   7.047  0.2110  1.0657  0.0130
 1239SOL    HW215177   2.676   4.128   7.162  0.8197 -0.2155  1.1508
 1240SOL     OW15178   4.086   1.434   8.266 -0.0122  0.2027 -0.6498
 1240SOL    HW115179   4.125   1.417   8.180 -2.0404  2.3133 -1.9830
 1240SOL    HW215180   4.044   1.353   8.295  0.1589  0.7014  0.9948
 1241SOL     OW15181   4.180   0.379   2.850  0.0984 -0.0187  0.1746
 1241SOL    HW115182   4.187   0.346   2.760  2.8912  2.1185 -0.4212
 1241SOL    HW215183   4.272   0.403   2.866 -0.3601  1.5671  0.4913
 1242SOL     OW15184   3.799   2.110   2.968  0.4850  0.2632  1.0712
 1242SOL    HW115185   3.817   2.086   2.877  0.4642  0.9137  0.8968
 1242SOL    HW215186   3.756   2.030   2.997  1.5695 -1.1349 -1.1005
 1243SOL     OW15187   3.814   4.044   3.551 -0.4622 -0.2831 -0.6919
 1243SOL    HW115188   3.869   4.042   3.472  0.3121  0.6491 -0.1727
 1243SOL    HW215189   3.804   3.951   3.573 -1.6917  0.1070  0.3733
 1244SOL     OW15190   2.888   3.208   5.353 -0.4243  0.5330  0.3670
 1244SOL    HW115191   2.807   3.189   5.306 -1.0080  2.1013  0.7211
 1244SOL    HW215192   2.920   3.287   5.310 -0.2423  0.3465  0.1591
 1245SOL     OW15193   0.181   0.651  12.564  0.2647 -0.0106  0.1324
 1245SOL    HW115194   0.232   0.653  12.483  0.9682 -0.3392  0.5667
 1245SOL    HW215195   0.217   0.731  12.603  1.2269  0.3609 -1.5356
 1246SOL     OW15196   2.906   3.089   9.581 -0.4535  0.2876  0.3711
 1246SOL    HW115197   2.972   3.020   9.583  0.1307  0.8490  0.4852
 1246SOL    HW215198   2.959   3.140   9.520 -2.0335  0.1809 -1.0613
 1247SOL     OW15199   2.595   0.017  11.701 -0.4079  0.1526  0.0205
 1247SOL    HW115200   2.601   0.112  11.697 -1.9173  0.2401 -0.3677
 1247SOL    HW215201   2.545   0.002  11.782  1.0736  2.4885  1.3470
 1248SOL     OW15202   2.742   2.547   6.823 -0.1010 -0.0076  0.6559
 1248SOL    HW115203   2.767   2.466   6.868  2.1905 -0.3647 -1.2663
 1248SOL    HW215204   2.740   2.506   6.737 -1.5685  1.6790 -0.1030
 1249SOL     OW15205   4.096   3.870  13.756  0.1098  0.6999 -0.4349
 1249SOL    HW115206   4.007   3.886  13.789  0.8405  1.7794  0.9773
 1249SOL    HW215207   4.077   3.804  13.689 -0.9058 -1.7396  2.2651
 1250SOL     OW15208   4.190   3.924  13.999  0.0722 -0.1743  0.3123
 1250SOL    HW115209   4.134   3.855  14.033 -0.3624 -0.3872 -0.8387
 1250SOL    HW215210   4.155   3.914  13.910  0.2866  3.0385 -0.1292
 1251SOL     OW15211   1.448   0.400  16.704 -0.4039  0.6773 -0.4429
 1251SOL    HW115212   1.355   0.394  16.683 -0.0103 -1.7780 -1.4861
 1251SOL    HW215213   1.462   0.306  16.719 -0.3063  0.2688 -3.0705
 1252SOL     OW15214   0.621   1.141  14.493 -0.0119  0.1982  0.2652
 1252SOL    HW115215   0.694   1.161  14.434  1.2465 -1.6004  1.2143
 1252SOL    HW215216   0.648   1.187  14.572 -2.7298  0.3586  1.0993
 1253SOL     OW15217   3.698   4.622   7.316  0.0031  0.6225 -0.2564
 1253SOL    HW115218   3.639   4.696   7.330  0.6319  1.4354 -1.9494
 1253SOL    HW215219   3.785   4.663   7.317  0.5314 -0.4940 -0.5970
 1254SOL     OW15220   1.596   2.314   4.924  0.0753  0.3248 -0.1446
 1254SOL    HW115221   1.599   2.334   4.830 -0.9521  1.6611  0.1109
 1254SOL    HW215222   1.521   2.371   4.943  0.0330 -0.0648  0.8301
 1255SOL     OW15223   1.630   1.344   3.776 -0.0653 -0.0202  0.1134
 1255SOL    HW115224   1.583   1.409   3.828 -1.9823 -0.6609 -0.8024
 1255SOL    HW215225   1.670   1.403   3.712 -0.0144 -0.6210 -0.4069
 1256SOL     OW15226   0.229   3.820  11.467  0.5764  0.1883  0.0460
 1256SOL    HW115227   0.273   3.772  11.537  1.1818 -0.5872 -0.8674
 1256SOL    HW215228   0.302   3.862  11.421 -0.6862  1.8664 -0.4644
 1257SOL     OW15229   4.458   1.162   1.173  0.2428  0.0214 -0.6065
 1257SOL    HW115230   4.489   1.239   1.221  1.1144 -0.6804 -0.0281
 1257SOL    HW215231   4.395   1.119   1.231 -2.4753  1.0328 -2.8131
 1258SOL     OW15232   0.791   4.371   7.436  0.0872  0.1147 -0.1505
 1258SOL    HW115233   0.817   4.366   7.528  0.6257  1.1395 -0.2417
 1258SOL    HW215234   0.804   4.278   7.416  0.6207  0.3972 -1.1298
 1259SOL     OW15235   0.239   0.920   1.688 -0.3441 -0.0109 -0.4538
 1259SOL    HW115236   0.192   0.945   1.608  2.8514 -0.3601 -2.4234
 1259SOL    HW215237   0.163   0.912   1.745 -0.4267  1.4218 -0.3773
 1260SOL     OW15238   2.273   3.739   9.153  0.0054  0.1651  0.1040
 1260SOL    HW115239   2.185   3.707   9.132 -0.2573  1.1692 -0.3009
 1260SOL    HW215240   2.304   3.687   9.227 -1.2830 -0.9145 -0.0903
 1261SOL     OW15241   2.204   0.079   6.037 -0.0709 -0.5314  0.2684
 1261SOL    HW115242   2.109   0.089   6.024  0.1526  1.7270  0.4213
 1261SOL    HW215243   2.245   0.096   5.952  1.3923  1.1098  1.3037
 1262SOL     OW15244   3.051   4.285   5.917  0.1418 -0.3084  0.3232
 1262SOL    HW115245   3.096   4.364   5.888  1.5564 -2.2582 -2.7673
 1262SOL    HW215246   2.981   4.293   5.852 -0.9257  1.7754  1.7160
 1263SOL     OW15247   1.149   3.899   4.498 -0.5507 -0.3350 -0.2931
 1263SOL    HW115248   1.074   3.951   4.472 -0.9092  0.1215  1.6732
 1263SOL    HW215249   1.119   3.809   4.485  3.5443 -1.8069  0.3764
 1264SOL     OW15250   3.260   3.646   9.856  0.5136  0.1309 -0.3874
 1264SOL    HW115251   3.185   3.605   9.899  1.5187 -0.0898  1.1458
 1264SOL    HW215252   3.226   3.729   9.822  0.6706 -0.0630 -1.0115
 1265SOL     OW15253   3.497   1.396   5.350  0.0146  0.3170  0.4362
 1265SOL    HW115254   3.465   1.419   5.263 -2.3059 -1.6255  0.8046
 1265SOL    HW215255   3.427   1.417   5.413 -1.3059 -1.5719 -0.4240
 1266SOL     OW15256   3.716   4.591   4.483 -0.5003  0.6473  0.2065
 1266SOL    HW115257   3.773   4.518   4.456 -1.6804 -0.8714  1.8308
 1266SOL    HW215258   3.713   4.594   4.579  0.3158 -1.1334  0.2934
 1267SOL     OW15259   1.506   3.250   6.761 -0.1709  0.1545 -0.6705
 1267SOL    HW115260   1.537   3.168   6.722  3.2460  1.3503 -0.4915
 1267SOL    HW215261   1.564   3.322   6.735 -1.4600  0.5831 -2.3713
 1268SOL     OW15262   3.373   0.535  16.282 -0.0223  0.0411 -0.2417
 1268SOL    HW115263   3.331   0.602  16.335  2.3231  0.6373  0.8809
 1268SOL    HW215264   3.401   0.471  16.348 -1.3753 -0.6125 -0.3034
 1269SOL     OW15265   2.985   0.164  17.515 -0.1620 -0.4133  0.1043
 1269SOL    HW115266   2.995   0.172  17.610 -0.8868 -0.4226  0.1848
 1269SOL    HW215267   3.076   0.142  17.493  0.0576  0.1554  0.4523
 1270SOL     OW15268   2.350   4.309  16.309  0.4457  0.1677 -0.3849
 1270SOL    HW115269   2.434   4.347  16.337  0.2074 -0.1009  0.6804
 1270SOL    HW215270   2.373   4.222  16.276 -1.8071 -0.8375  0.7212
 1271SOL     OW15271   1.074   4.651   8.106  0.2687 -0.3157  0.1062
 1271SOL    HW115272   1.058   4.624   8.016 -1.9691  0.4191  0.2783
 1271SOL    HW215273   1.061   0.021   8.107 -1.2719 -0.5368  0.8989
 1272SOL     OW15274   1.589   1.177   4.742 -0.2363  0.5658 -0.2056
 1272SOL    HW115275   1.670   1.131   4.764 -0.3060  1.0506  1.0865
 1272SOL    HW215276   1.529   1.134   4.803 -0.4423 -0.3678 -1.0542
 1273SOL     OW15277   0.951   2.269   2.185  0.1006  0.4030  0.0036
 1273SOL    HW115278   1.023   2.260   2.123  0.0013 -0.2741 -0.0176
 1273SOL    HW215279   0.879   2.223   2.142 -1.4101  0.8862  2.0159
 1274SOL     OW15280   2.360   4.652   9.237 -0.2912  0.0442 -0.0233
 1274SOL    HW115281   2.440   4.635   9.287 -1.4981 -0.9695  1.5828
 1274SOL    HW215282   2.326   4.724   9.290 -0.3565 -0.9901  1.3417
 1275SOL     OW15283   1.961   2.734   8.383  0.0311  0.3794  0.5105
 1275SOL    HW115284   1.878   2.744   8.337 -0.4430 -2.3873  0.7908
 1275SOL    HW215285   1.946   2.727   8.478  1.0574 -1.5695  0.5295
 1276SOL     OW15286   3.047   3.063   3.350 -0.2104 -0.3191  0.3389
 1276SOL    HW115287   3.067   2.978   3.390  2.3991  0.3667  0.5270
 1276SOL    HW215288   3.135   3.101   3.339  0.9260 -2.7994  0.8645
 1277SOL     OW15289   1.211   1.917   2.857  0.6096 -0.6432 -0.3374
 1277SOL    HW115290   1.217   1.825   2.832  0.3151 -0.5618 -0.6964
 1277SOL    HW215291   1.167   1.950   2.779  1.1524  0.5125 -0.1551
 1278SOL     OW15292   2.607   0.371   7.017  0.4854  0.3647 -0.2509
 1278SOL    HW115293   2.533   0.367   6.956  1.0337 -2.3090 -0.7487
 1278SOL    HW215294   2.568   0.341   7.099  1.5758  2.0890  0.8766
 1279SOL     OW15295   1.303   1.264   1.112  0.1470  0.1708 -0.0385
 1279SOL    HW115296   1.379   1.281   1.168  0.9830  0.3148 -1.1894
 1279SOL    HW215297   1.331   1.186   1.064 -0.2901  0.0941 -0.1641
 1280SOL     OW15298   0.452   1.960   8.710  0.2738  0.1757  0.1063
 1280SOL    HW115299   0.520   1.989   8.771 -1.4966 -1.4828  2.8542
 1280SOL    HW215300   0.509   1.921   8.643 -0.6841 -0.1630 -0.5083
 1281SOL     OW15301   3.368   4.379   6.977  0.0050 -0.3738  0.1001
 1281SOL    HW115302   3.417   4.434   7.037 -1.3456  2.3952 -1.3138
 1281SOL    HW215303   3.283   4.422   6.983  1.2391  2.0419  0.3894
 1282SOL     OW15304   0.525   3.498   5.228  0.1556  0.1057 -0.1712
 1282SOL    HW115305   0.530   3.589   5.257  0.1876  0.5704 -1.6564
 1282SOL    HW215306   0.486   3.502   5.141  0.5329  0.4966 -0.3193
 1283SOL     OW15307   2.972   1.803  14.981 -0.0093  0.1072  0.6208
 1283SOL    HW115308   2.981   1.863  15.055  2.6847  0.7687 -0.2413
 1283SOL    HW215309   2.908   1.845  14.924 -0.1587 -0.7124  0.1832
 1284SOL     OW15310   3.022   2.032   5.356  0.1035  0.3582 -0.2229
 1284SOL    HW115311   3.086   2.028   5.285 -0.9226  0.1003 -1.1311
 1284SOL    HW215312   2.987   1.943   5.353 -0.7638  0.7942 -2.4605
 1285SOL     OW15313   0.969   0.768   7.206 -0.0826 -0.2162  0.3869
 1285SOL    HW115314   1.022   0.792   7.130  2.1989 -3.5385  0.9797
 1285SOL    HW215315   1.000   0.682   7.231  1.1340  0.9056  2.7557
 1286SOL     OW15316   1.186   1.017   7.979 -0.3956 -0.0625  0.4371
 1286SOL    HW115317   1.191   1.093   7.920  1.0640 -0.2821  0.2726
 1286SOL    HW215318   1.118   1.052   8.037 -0.8812  0.0521 -0.1991
 1287SOL     OW15319   3.559   4.515   7.989 -0.3367  0.2699  0.7005
 1287SOL    HW115320   3.595   4.593   8.032  2.7046 -0.2385 -0.8816
 1287SOL    HW215321   3.520   4.467   8.062  0.4710 -1.5480 -0.0809
 1288SOL     OW15322   3.769   3.016   9.034  0.1112 -0.0151  0.1194
 1288SOL    HW115323   3.784   3.039   8.943  0.2389 -0.8861 -0.0788
 1288SOL    HW215324   3.709   2.942   9.025  2.6164 -1.7946 -1.8927
 1289SOL     OW15325   4.048   0.153   5.025  0.0110  1.0646  0.2464
 1289SOL    HW115326   4.051   0.218   5.096  0.2160 -0.5824  1.7376
 1289SOL    HW215327   4.083   0.079   5.074  1.7546  1.5570 -0.2299
 1290SOL     OW15328   2.147   0.779   0.773 -0.0842  0.4050 -0.1747
 1290SOL    HW115329   2.211   0.809   0.709  0.4215 -1.1941 -0.4354
 1290SOL    HW215330   2.129   0.697   0.727  0.2694  2.2791 -3.6120
 1291SOL     OW15331   1.439   1.634   9.817  0.6974  0.1633 -0.4365
 1291SOL    HW115332   1.376   1.582   9.767  0.4183 -1.5851  1.7511
 1291SOL    HW215333   1.507   1.651   9.752 -0.0725 -1.7160 -1.7585
 1292SOL     OW15334   3.116   2.836   1.685 -0.2705 -0.9932 -0.3720
 1292SOL    HW115335   3.200   2.878   1.670 -1.2249  1.1325  0.1594
 1292SOL    HW215336   3.067   2.845   1.603  0.4741 -0.6830 -0.7778
 1293SOL     OW15337   2.631   2.979   5.621  0.0346  0.3655  0.0190
 1293SOL    HW115338   2.726   2.967   5.615  0.1169  0.6287  0.7960
 1293SOL    HW215339   2.597   2.894   5.592  0.8566 -0.3087  1.0390
 1294SOL     OW15340   3.910   3.725  13.532  0.5154 -0.2821  0.1311
 1294SOL    HW115341   3.927   3.730  13.438 -1.5811 -3.5428 -0.4206
 1294SOL    HW215342   3.862   3.806  13.550  1.1799 -0.0954  1.0564
 1295SOL     OW15343   1.758   3.953   5.724  0.3042 -0.2336 -0.4532
 1295SOL    HW115344   1.707   4.034   5.727 -0.2973 -0.6637  1.1665
 1295SOL    HW215345   1.696   3.896   5.679 -0.3012 -0.8462  1.1253
 1296SOL     OW15346   0.027   0.719   0.769 -0.1756 -0.0730 -0.0158
 1296SOL    HW115347   4.704   0.713   0.686  0.3188  0.2084 -0.3173
 1296SOL    HW215348   4.704   0.779   0.827 -1.4357  2.0640 -3.3009
 1297SOL     OW15349   1.835   3.848   4.162  0.7590  0.1362  0.4238
 1297SOL    HW115350   1.907   3.786   4.171 -0.7383 -1.6225  0.2705
 1297SOL    HW215351   1.811   3.827   4.072 -0.2847 -0.3419  0.8109
 1298SOL     OW15352   0.957   2.355   3.311 -0.4131 -0.5682  0.9726
 1298SOL    HW115353   0.924   2.325   3.226 -1.2661 -1.3236  1.5864
 1298SOL    HW215354   1.022   2.288   3.334  0.0313  0.1801  1.8857
 1299SOL     OW15355   2.528   1.485  12.000 -0.0908 -0.0710  0.1604
 1299SOL    HW115356   2.535   1.576  12.028 -1.3320 -0.2361  1.0261
 1299SOL    HW215357   2.526   1.435  12.082  2.1583 -2.2368 -1.0983
 1300SOL     OW15358   2.753   3.433  16.669  0.1135  0.1324 -0.0789
 1300SOL    HW115359   2.740   3.423  16.575  0.2809 -0.6405 -0.0237
 1300SOL    HW215360   2.676   3.396  16.713  1.3288 -1.2078  0.9162
 1301SOL     OW15361   1.027   4.233  17.088  0.2290 -0.3228  0.2315
 1301SOL    HW115362   1.042   4.167  17.021 -2.3019 -0.5729 -0.0957
 1301SOL    HW215363   0.956   4.281  17.044  0.2815 -2.9216 -2.6797
 1302SOL     OW15364   1.256   2.240  16.811  0.2337  0.2538 -0.4300
 1302SOL    HW115365   1.172   2.229  16.857 -0.9614 -1.0906 -2.9192
 1302SOL    HW215366   1.310   2.252  16.889 -0.0075 -0.2921 -0.1734
 1303SOL     OW15367   2.135   3.200   6.198 -0.8992 -0.9733  0.2098
 1303SOL    HW115368   2.092   3.152   6.127 -1.9415  1.7742 -1.0031
 1303SOL    HW215369   2.189   3.262   6.149 -2.3685  0.5497  0.5306
 1304SOL     OW15370   3.002   0.489   0.718  0.7243 -0.1177 -0.6525
 1304SOL    HW115371   2.957   0.412   0.754 -2.1097  1.1583 -1.5478
 1304SOL    HW215372   3.007   0.456   0.628 -0.9716  0.5123 -0.9765
 1305SOL     OW15373   3.043   3.900   6.497 -0.2720 -0.1816 -0.0066
 1305SOL    HW115374   3.056   3.994   6.514  2.9235 -0.6534  0.1964
 1305SOL    HW215375   2.988   3.880   6.572 -0.3147  0.4972  0.1435
 1306SOL     OW15376   3.400   4.257   9.412 -0.6505  0.1552 -0.5030
 1306SOL    HW115377   3.407   4.338   9.462 -1.1132  0.9155 -1.6726
 1306SOL    HW215378   3.321   4.268   9.360 -3.3418 -0.2047  3.5325
 1307SOL     OW15379   2.175   1.673   4.333  0.1202 -0.0017  0.3748
 1307SOL    HW115380   2.260   1.629   4.339 -0.4568 -1.2857 -0.8457
 1307SOL    HW215381   2.198   1.750   4.281  2.0245  0.1013  1.3554
 1308SOL     OW15382   3.502   0.023  16.524  0.0747  0.2438 -0.2618
 1308SOL    HW115383   3.525   4.691  16.450  2.3696  0.4665  0.2881
 1308SOL    HW215384   3.509   4.682  16.594  0.3676 -1.2272 -1.6742
 1309SOL     OW15385   3.649   0.925   8.503 -0.4835 -0.5448  0.2683
 1309SOL    HW115386   3.683   1.012   8.481 -0.9308 -1.0581 -2.4332
 1309SOL    HW215387   3.555   0.945   8.502 -0.4602 -0.4512  0.0604
 1310SOL     OW15388   2.543   0.108  12.529  0.0713 -0.3067  0.2124
 1310SOL    HW115389   2.583   0.145  12.608 -0.6155 -0.1861  0.5034
 1310SOL    HW215390   2.513   0.023  12.559 -0.7160 -0.8181 -2.0209
 1311SOL     OW15391   0.475   1.186   1.554 -0.6216  0.4881 -0.8199
 1311SOL    HW115392   0.436   1.127   1.489 -1.4380 -0.2108  0.3076
 1311SOL    HW215393   0.564   1.186   1.521 -0.5078  1.5458 -0.4916
 1312SOL     OW15394   1.039   1.808  17.005  0.1706  0.5703  0.4227
 1312SOL    HW115395   0.999   1.825  17.090 -0.1956 -0.6750  0.5035
 1312SOL    HW215396   1.125   1.786  17.039 -1.3756 -2.9999  2.0249
 1313SOL     OW15397   3.757   0.346  10.378 -0.5833 -0.3138  0.2166
 1313SOL    HW115398   3.788   0.436  10.374 -0.4693 -0.4482 -2.0198
 1313SOL    HW215399   3.828   0.308  10.325 -0.1695 -0.1193  0.6309
 1314SOL     OW15400   1.122   4.600   3.155  0.1494  0.3324  0.0379
 1314SOL    HW115401   1.075   4.560   3.228 -1.1868  1.0817 -0.4212
 1314SOL    HW215402   1.089   4.539   3.090  0.4487 -1.0716  1.1980
 1315SOL     OW15403   2.701   1.707  14.267  0.1934 -0.4738 -0.9385
 1315SOL    HW115404   2.616   1.720  14.309  0.9797 -1.7433  1.0480
 1315SOL    HW215405   2.752   1.759  14.328 -0.6570  0.2893 -0.8814
 1316SOL     OW15406   0.568   3.753  10.650 -0.7192 -0.4680 -0.0650
 1316SOL    HW115407   0.570   3.793  10.737 -3.3950 -1.2504  0.3551
 1316SOL    HW215408   0.641   3.692  10.648  0.6683  1.0833  3.8027
 1317SOL     OW15409   0.176   4.671   7.148 -0.0785 -0.1092 -0.2215
 1317SOL    HW115410   0.124   4.597   7.117  2.0202 -1.6010 -0.2129
 1317SOL    HW215411   0.163   0.010   7.078 -1.1024  1.2196  1.1654
 1318SOL     OW15412   0.662   3.083   7.088  0.7456  0.2148 -0.2845
 1318SOL    HW115413   0.631   3.152   7.030  0.0551 -0.5627 -0.8400
 1318SOL    HW215414   0.678   3.014   7.023 -0.0812 -0.4331  0.1977
 1319SOL     OW15415   2.497   2.679  14.424 -0.5571  0.4269 -0.5743
 1319SOL    HW115416   2.497   2.772  14.448 -1.0088  0.9390 -2.5013
 1319SOL    HW215417   2.440   2.673  14.347  0.6798  1.9588 -1.6116
 1320SOL     OW15418   4.101   1.929  13.637  0.0675  0.4864  0.4735
 1320SOL    HW115419   4.148   1.864  13.689 -2.7738 -1.2272  0.8967
 1320SOL    HW215420   4.015   1.890  13.622  0.0312  1.0263 -0.7491
 1321SOL     OW15421   1.098   0.864   4.979  0.0365  0.0510 -0.4325
 1321SOL    HW115422   1.017   0.867   4.927  0.8914  0.1336 -1.7568
 1321SOL    HW215423   1.166   0.820   4.929 -0.9522 -1.0733 -0.8040
 1322SOL     OW15424   1.296   1.572  11.827  0.0829 -0.3210 -0.3362
 1322SOL    HW115425   1.306   1.634  11.900 -0.7252  1.3779 -1.6719
 1322SOL    HW215426   1.376   1.520  11.836  0.5988  0.1891 -1.9839
 1323SOL     OW15427   0.061   3.260  14.386  0.5472 -0.0392  0.2311
 1323SOL    HW115428   0.148   3.223  14.396  0.3429 -0.7066 -0.4202
 1323SOL    HW215429   0.064   3.308  14.303 -0.3406 -1.5490 -0.6837
 1324SOL     OW15430   2.142   3.768  10.984 -0.4151 -0.5117 -0.4425
 1324SOL    HW115431   2.146   3.688  10.931  0.6173  0.4736 -1.8734
 1324SOL    HW215432   2.204   3.825  10.938 -0.4883  2.0170  2.6447
 1325SOL     OW15433   3.427   0.320   7.311 -0.4318  0.5945 -0.1126
 1325SOL    HW115434   3.439   0.414   7.314  1.7972  0.3753 -3.0188
 1325SOL    HW215435   3.358   0.306   7.376 -2.0440  1.3006 -1.7003
 1326SOL     OW15436   4.079   0.801  10.562 -0.0963  0.5135 -0.1537
 1326SOL    HW115437   4.164   0.821  10.601 -0.0703 -0.5832  0.3560
 1326SOL    HW215438   4.077   0.874  10.500 -1.1192  0.4051 -0.2454
 1327SOL     OW15439   3.416   1.874   8.966  0.1953 -0.4234  0.5462
 1327SOL    HW115440   3.412   1.967   8.946 -0.8176 -0.8283 -1.1065
 1327SOL    HW215441   3.504   1.860   9.002  0.0956 -2.1351  0.1191
 1328SOL     OW15442   3.838   0.932  13.895 -0.6751 -0.1743  0.3808
 1328SOL    HW115443   3.744   0.931  13.873 -0.0667 -0.2996 -2.2364
 1328SOL    HW215444   3.873   0.857  13.848  0.8456 -0.5550  2.1597
 1329SOL     OW15445   1.177   0.590   8.532 -0.6430 -0.0257  0.2737
 1329SOL    HW115446   1.210   0.675   8.562 -0.2315  0.8843 -2.7624
 1329SOL    HW215447   1.236   0.536   8.584 -0.5587  0.4461  0.6695
 1330SOL     OW15448   3.339   4.667  11.278 -0.0414  0.6835  0.2191
 1330SOL    HW115449   3.328   4.654  11.184 -1.0924 -1.0240  0.5673
 1330SOL    HW215450   3.433   4.685  11.280  0.1378 -0.2985  0.6465
 1331SOL     OW15451   4.076   2.153  16.949  0.1732 -0.5827  0.0791
 1331SOL    HW115452   4.067   2.247  16.932  1.3063 -0.3407  0.7554
 1331SOL    HW215453   4.101   2.126  16.861 -0.9705 -1.5740  0.0635
 1332SOL     OW15454   2.760   4.148   6.286  0.0120  0.4090  0.1650
 1332SOL    HW115455   2.747   4.136   6.192 -2.0742  0.7280  0.4136
 1332SOL    HW215456   2.789   4.058   6.302  1.2616  0.4979 -1.6968
 1333SOL     OW15457   2.043   1.267  17.294 -0.0103 -0.5335 -0.1290
 1333SOL    HW115458   2.117   1.266  17.233  1.5836  1.6925  1.7493
 1333SOL    HW215459   2.065   1.343  17.348 -1.1811 -0.7302  0.6219
 1334SOL     OW15460   4.456   2.808   9.035  0.4460 -0.4365  0.2616
 1334SOL    HW115461   4.513   2.860   9.092  0.5354 -0.6841  0.3939
 1334SOL    HW215462   4.371   2.811   9.079  0.2673 -1.5074 -0.0275
 1335SOL     OW15463   2.022   4.198  17.048 -0.3692 -0.2618 -0.5499
 1335SOL    HW115464   2.013   4.293  17.043  0.5268 -0.2337 -1.8523
 1335SOL    HW215465   1.949   4.178  16.990 -0.5737 -0.6042 -0.1724
 1336SOL     OW15466   1.095   2.135   6.019 -0.1395  0.0547 -0.3635
 1336SOL    HW115467   1.138   2.209   6.062 -0.1298 -1.0121  1.4198
 1336SOL    HW215468   1.004   2.163   6.023  0.3137  1.4974  0.1542
 1337SOL     OW15469   2.633   1.443   3.028  0.4983  0.7345  0.5032
 1337SOL    HW115470   2.621   1.462   2.935 -0.4740  0.6704  0.6142
 1337SOL    HW215471   2.543   1.459   3.057 -0.7536 -0.6423 -2.6000
 1338SOL     OW15472   2.232   1.378   4.716  0.2570  0.2812 -0.0195
 1338SOL    HW115473   2.137   1.388   4.723  0.3185  1.3467 -0.7145
 1338SOL    HW215474   2.240   1.323   4.639 -0.1369  0.1928  0.0049
 1339SOL     OW15475   0.552   0.791   8.938  0.5017 -0.0713  0.0303
 1339SOL    HW115476   0.641   0.810   8.908  0.1670  0.9489 -0.3208
 1339SOL    HW215477   0.508   0.876   8.940  0.5102 -0.0388 -1.0915
 1340SOL     OW15478   3.033   4.427   4.557 -0.3440  0.4216  0.3653
 1340SOL    HW115479   3.043   4.333   4.569 -1.1213  0.3749  0.6259
 1340SOL    HW215480   3.081   4.431   4.475  1.3483  0.3003  1.3550
 1341SOL     OW15481   2.531   0.998  16.451  0.3601 -0.1537  0.2996
 1341SOL    HW115482   2.587   0.922  16.461  1.8133  0.9084  0.1459
 1341SOL    HW215483   2.445   0.956  16.447 -0.4790  1.5930 -0.2355
 1342SOL     OW15484   2.714   0.624   0.805  0.5991  0.5166  0.0126
 1342SOL    HW115485   2.719   0.576   0.888 -1.9746  1.2114  0.5952
 1342SOL    HW215486   2.628   0.665   0.819 -0.2283 -1.2870  0.1889
 1343SOL     OW15487   4.441   4.037   8.704  0.3378  0.3671 -0.4625
 1343SOL    HW115488   4.444   3.991   8.788 -0.0468  2.4024  0.6829
 1343SOL    HW215489   4.414   3.967   8.644 -1.5860 -0.2879  1.1418
 1344SOL     OW15490   0.408   3.573   6.542  0.5675  0.0667  0.4057
 1344SOL    HW115491   0.471   3.501   6.540 -1.2609 -1.5747  0.6266
 1344SOL    HW215492   0.425   3.606   6.454 -1.8065  0.5319  0.1130
 1345SOL     OW15493   3.367   4.123  16.459  0.5917 -0.2418 -0.5539
 1345SOL    HW115494   3.452   4.162  16.478  0.5156  0.5194 -1.7178
 1345SOL    HW215495   3.327   4.116  16.545 -0.9749  2.4146 -1.0633
 1346SOL     OW15496   0.626   4.368   4.470 -0.4693 -0.0841 -0.5161
 1346SOL    HW115497   0.584   4.412   4.544  0.3191 -1.5326  0.7846
 1346SOL    HW215498   0.635   4.442   4.409  1.7041  0.0228 -0.0872
 1347SOL     OW15499   3.989   3.550   5.580  1.0543  0.2810  0.0887
 1347SOL    HW115500   4.017   3.544   5.489 -1.1721  1.4410 -0.6531
 1347SOL    HW215501   3.949   3.636   5.590 -2.0840 -1.0405 -1.1036
 1348SOL     OW15502   0.085   1.192   4.017  0.3015 -0.2743  0.1090
 1348SOL    HW115503   0.117   1.139   3.944 -2.1454 -0.4608 -0.8208
 1348SOL    HW215504   0.008   1.140   4.040  0.0516 -0.3481 -0.8880
 1349SOL     OW15505   3.676   4.286   4.579 -0.7138  0.6502 -0.0653
 1349SOL    HW115506   3.746   4.303   4.516 -2.2169  1.4581 -1.5491
 1349SOL    HW215507   3.598   4.314   4.530 -0.2769 -0.3568 -1.3190
 1350SOL     OW15508   1.410   0.485   1.074 -0.1588  0.1705  0.1883
 1350SOL    HW115509   1.400   0.418   1.142 -1.1906  0.5102  0.3755
 1350SOL    HW215510   1.488   0.454   1.029 -0.1276 -0.6365  0.8094
 1351SOL     OW15511   0.314   0.031  12.311 -0.1691  0.0820 -0.4438
 1351SOL    HW115512   0.327   4.667  12.277 -2.5002 -0.2915 -0.3428
 1351SOL    HW215513   0.225   0.019  12.345 -0.2250 -1.0527 -1.0146
 1352SOL     OW15514   2.310   1.281  12.301 -0.2603 -0.5652  0.6210
 1352SOL    HW115515   2.400   1.304  12.279  0.1842 -1.1243  1.9037
 1352SOL    HW215516   2.328   1.202  12.351  3.4960  0.6977  1.2502
 1353SOL     OW15517   1.186   2.427   7.609  0.5717  0.1666 -0.3933
 1353SOL    HW115518   1.146   2.513   7.623 -0.0776 -0.5195  1.9755
 1353SOL    HW215519   1.180   2.383   7.694 -0.8543  0.4146 -0.3648
 1354SOL     OW15520   3.794   2.957   2.664  0.3615  0.4073 -0.4629
 1354SOL    HW115521   3.739   2.972   2.741  0.7825  0.9864 -0.2819
 1354SOL    HW215522   3.811   3.042   2.624 -2.5221  1.7931  1.2401
 1355SOL     OW15523   0.878   3.463   6.969 -0.7489  0.1296 -0.0737
 1355SOL    HW115524   0.929   3.383   6.981 -1.4235 -0.5025 -1.4503
 1355SOL    HW215525   0.807   3.447   7.031  0.4266  1.4446  1.5962
 1356SOL     OW15526   4.514   0.610   3.155 -0.1653  0.4432 -0.2589
 1356SOL    HW115527   4.510   0.535   3.213  0.7820 -1.1886 -2.2844
 1356SOL    HW215528   4.605   0.602   3.127 -0.9614 -1.0439 -2.3938
 1357SOL     OW15529   4.078   0.630   8.610  0.3593  0.0972  0.7084
 1357SOL    HW115530   4.111   0.717   8.588 -0.7724  0.4433  0.3696
 1357SOL    HW215531   4.159   0.585   8.634  0.6225  0.2357  0.0654
 1358SOL     OW15532   1.516   0.809   6.574 -0.0983  0.1676 -0.1453
 1358SOL    HW115533   1.542   0.717   6.572 -0.1241  0.1445  0.5160
 1358SOL    HW215534   1.441   0.807   6.633  1.1733  2.3671  1.5510
 1359SOL     OW15535   0.789   1.948   2.231  0.0365  0.6787  0.4196
 1359SOL    HW115536   0.705   1.958   2.275  1.7122  2.2629  3.2134
 1359SOL    HW215537   0.822   1.862   2.258 -2.5642  0.1866  2.0066
 1360SOL     OW15538   2.213   1.306   7.133 -0.5780  0.3606  0.0144
 1360SOL    HW115539   2.281   1.331   7.071  2.0983 -2.7313  1.7022
 1360SOL    HW215540   2.221   1.376   7.198 -2.8131  1.7898 -1.2447
 1361SOL     OW15541   4.499   2.071  15.042 -0.0395 -0.3102 -0.5978
 1361SOL    HW115542   4.559   2.039  14.975  1.1342  1.0196 -0.1766
 1361SOL    HW215543   4.488   1.992  15.095  1.5041 -0.7537 -0.9534
 1362SOL     OW15544   3.627   3.332   1.503 -0.2119  0.0168 -0.1525
 1362SOL    HW115545   3.665   3.345   1.416  1.0034 -2.0090  0.0782
 1362SOL    HW215546   3.707   3.350   1.553 -0.2627  1.0094 -0.4147
 1363SOL     OW15547   0.567   0.724   5.683 -0.3456  0.0072  0.2814
 1363SOL    HW115548   0.634   0.740   5.616  1.2815  0.5409  2.0270
 1363SOL    HW215549   0.500   0.779   5.644 -1.6006 -2.1025 -0.5395
 1364SOL     OW15550   2.983   3.004   2.911 -0.4488 -0.5594  0.3275
 1364SOL    HW115551   2.991   3.077   2.973 -0.2646  0.2797 -0.6758
 1364SOL    HW215552   2.920   3.034   2.845  0.0496 -1.6921 -0.6751
 1365SOL     OW15553   2.889   1.604   2.186  0.6917 -0.0381 -0.6544
 1365SOL    HW115554   2.891   1.613   2.091  0.0404 -1.6060 -0.8214
 1365SOL    HW215555   2.980   1.632   2.196  0.4822 -0.7025  3.1558
 1366SOL     OW15556   0.353   1.771   8.860  0.4766  0.1580 -0.0634
 1366SOL    HW115557   0.384   1.843   8.805  0.6856  0.0373 -0.1022
 1366SOL    HW215558   0.304   1.818   8.927  0.5940  0.6836 -0.3407
 1367SOL     OW15559   1.623   1.704   1.710 -0.0855 -0.4407 -0.1289
 1367SOL    HW115560   1.561   1.642   1.747 -1.8006  1.0949 -0.4384
 1367SOL    HW215561   1.696   1.683   1.769  1.1233  1.9578 -0.7532
 1368SOL     OW15562   0.237   2.114  11.671  0.5648 -0.6447  0.0942
 1368SOL    HW115563   0.226   2.019  11.666  2.4929 -0.7692 -1.6348
 1368SOL    HW215564   0.320   2.118  11.718  0.7710  0.7231 -0.3674
 1369SOL     OW15565   1.501   4.717   4.861 -0.0243  0.4092  0.2013
 1369SOL    HW115566   1.500   0.031   4.773  1.8074 -1.0016 -0.4459
 1369SOL    HW215567   1.421   4.665   4.866 -0.5531  1.3950  2.0367
 1370SOL     OW15568   3.325   0.905   1.988  0.0766  0.5770  0.4036
 1370SOL    HW115569   3.247   0.948   1.954 -1.5656 -1.6734  1.3097
 1370SOL    HW215570   3.285   0.823   2.018  3.3234 -1.4395 -0.8164
 1371SOL     OW15571   0.499   4.518   0.184  0.3023 -0.5149  0.2018
 1371SOL    HW115572   0.432   4.460   0.148 -0.6519  0.6539  0.0986
 1371SOL    HW215573   0.470   4.519   0.275  0.8776  2.6020  0.3603
 1372SOL     OW15574   3.347   3.613   8.478  0.6455  0.2194  1.1853
 1372SOL    HW115575   3.256   3.629   8.453  1.5417  0.1499 -2.2050
 1372SOL    HW215576   3.353   3.518   8.475  0.7780  0.2130  1.7040
 1373SOL     OW15577   1.527   1.969   5.757  0.2462 -0.5308  0.6554
 1373SOL    HW115578   1.477   2.022   5.695  1.1240 -1.0028 -0.4676
 1373SOL    HW215579   1.618   1.998   5.748  0.5519 -2.3990 -2.5865
 1374SOL     OW15580   2.562   1.712  16.899  0.0402 -0.4082  0.6641
 1374SOL    HW115581   2.577   1.805  16.915  0.5263 -0.4037  0.1726
 1374SOL    HW215582   2.470   1.727  16.874  0.4208  2.9688  1.2739
 1375SOL     OW15583   4.684   2.081   8.009  0.3967  0.3931  0.5672
 1375SOL    HW115584   4.652   2.022   8.077 -3.7568  0.0182 -1.7347
 1375SOL    HW215585   4.614   2.145   7.997  0.3503  0.0141 -1.2085
 1376SOL     OW15586   0.628   4.064   4.518  0.3312  0.3661 -0.7698
 1376SOL    HW115587   0.621   4.160   4.515  1.5643  0.5114  0.8971
 1376SOL    HW215588   0.690   4.063   4.444 -0.0291 -0.1804 -1.0628
 1377SOL     OW15589   2.017   1.172   2.207 -0.1576  0.3528  0.6220
 1377SOL    HW115590   1.997   1.142   2.296 -2.9059 -0.2854 -0.1910
 1377SOL    HW215591   1.959   1.247   2.192 -1.6397 -0.5976  1.5412
 1378SOL     OW15592   0.614   4.608  15.548 -0.0044  0.1285  0.4331
 1378SOL    HW115593   0.552   4.641  15.483  1.3238 -1.6522 -1.7054
 1378SOL    HW215594   0.688   4.591  15.491  1.5825 -0.9990  2.8027
 1379SOL     OW15595   2.314   0.705   6.212  0.4096 -0.4516 -0.5384
 1379SOL    HW115596   2.240   0.673   6.263 -0.9051  2.0946 -0.8448
 1379SOL    HW215597   2.277   0.686   6.126 -2.5167 -0.9926  0.8433
 1380SOL     OW15598   2.380   1.017   4.149 -0.1789 -0.7581  0.2243
 1380SOL    HW115599   2.396   0.940   4.203  1.3401 -2.1584 -2.1813
 1380SOL    HW215600   2.425   1.085   4.198  0.3805 -2.0322  1.4751
 1381SOL     OW15601   2.273   3.302   4.229 -0.2114  0.0810  0.4597
 1381SOL    HW115602   2.276   3.340   4.141 -2.4865 -1.8460 -0.4710
 1381SOL    HW215603   2.319   3.363   4.286  0.4210  0.1064 -0.0836
 1382SOL     OW15604   0.395   1.851  10.923  0.3708  0.0688 -0.0435
 1382SOL    HW115605   0.396   1.764  10.882 -0.4180  1.8249 -3.6953
 1382SOL    HW215606   0.324   1.895  10.878 -0.4249  0.6278  1.7648
 1383SOL     OW15607   4.441   0.192  14.794 -0.3985 -0.7131  0.0183
 1383SOL    HW115608   4.429   0.285  14.776  0.1588 -0.7310 -0.4445
 1383SOL    HW215609   4.464   0.163  14.706  1.9520  1.3767 -0.0701
 1384SOL     OW15610   0.396   0.075   3.444 -0.3912 -0.0039 -0.4290
 1384SOL    HW115611   0.469   0.137   3.431 -0.1762 -0.0475  0.5657
 1384SOL    HW215612   0.423   0.007   3.383 -0.5040 -0.5240  0.0957
 1385SOL     OW15613   4.187   3.480  10.529  0.2967  0.1438  0.0183
 1385SOL    HW115614   4.240   3.547  10.572 -1.0073 -0.5325  2.6777
 1385SOL    HW215615   4.236   3.455  10.450  1.3674  1.9687  0.1232
 1386SOL     OW15616   3.755   0.917   7.431 -0.1747  0.2105 -0.0827
 1386SOL    HW115617   3.671   0.884   7.399 -0.0790 -0.1306  0.0190
 1386SOL    HW215618   3.758   1.000   7.384 -0.0181 -1.6059 -3.2867
 1387SOL     OW15619   0.268   0.207  10.362 -0.4741 -0.4178  0.3295
 1387SOL    HW115620   0.245   0.123  10.321 -1.5225  0.9021 -1.7364
 1387SOL    HW215621   0.239   0.194  10.452  0.4074  1.3026  0.8615
 1388SOL     OW15622   3.528   0.005   6.095 -0.3578  0.2161 -0.2172
 1388SOL    HW115623   3.545   0.076   6.158 -0.6994 -0.1485  0.2856
 1388SOL    HW215624   3.435   4.709   6.092  0.1196 -1.8420 -0.6866
 1389SOL     OW15625   2.792   3.578  11.726  0.8246 -0.2767 -0.2099
 1389SOL    HW115626   2.850   3.527  11.669  1.0366  1.5118 -1.5981
 1389SOL    HW215627   2.734   3.512  11.765  0.5210  0.2980  0.3139
 1390SOL     OW15628   0.704   2.171  12.982  0.0543  0.0444 -0.5153
 1390SOL    HW115629   0.672   2.217  12.904 -0.7687 -1.2746 -0.9639
 1390SOL    HW215630   0.651   2.091  12.980  2.3276 -1.3993 -2.1207
 1391SOL     OW15631   1.122   1.274   1.831  0.0556 -0.3588 -0.4123
 1391SOL    HW115632   1.187   1.225   1.780  0.9977  0.3085  0.1401
 1391SOL    HW215633   1.148   1.252   1.921  0.2117 -0.9562 -0.6038
 1392SOL     OW15634   0.171   0.324   6.214  0.4723  0.2861  0.4292
 1392SOL    HW115635   0.143   0.415   6.202  0.3222  0.2297  0.3530
 1392SOL    HW215636   0.266   0.330   6.223  0.4210  1.0663  0.4096
 1393SOL     OW15637   3.631   0.984  17.102 -0.1226  0.2621 -0.1723
 1393SOL    HW115638   3.622   0.938  17.185  0.1653 -1.5734 -1.1523
 1393SOL    HW215639   3.703   1.046  17.110 -0.1857  0.3607 -0.3565
 1394SOL     OW15640   2.900   3.840   6.731 -0.4403 -0.1537 -0.0589
 1394SOL    HW115641   2.827   3.779   6.736  0.0088 -0.4767  2.3719
 1394SOL    HW215642   2.840   3.912   6.755 -1.0666 -0.6819 -0.0411
 1395SOL     OW15643   0.273   2.338   6.808  0.0200  0.4454  0.4114
 1395SOL    HW115644   0.318   2.411   6.849 -0.2313 -0.2308  1.8768
 1395SOL    HW215645   0.317   2.331   6.723  0.8684 -1.4390  0.9929
 1396SOL     OW15646   0.012   0.974   0.482  0.5960  0.5362  0.2934
 1396SOL    HW115647   0.049   1.018   0.405  2.2915 -0.9522  0.2632
 1396SOL    HW215648   4.675   0.916   0.439  0.3156  1.7988 -1.0236
 1397SOL     OW15649   0.501   1.971   3.055 -0.0628 -0.2822 -0.0664
 1397SOL    HW115650   0.492   1.995   2.963 -0.6903 -1.0106 -0.1996
 1397SOL    HW215651   0.550   1.891   3.036  0.5029 -0.0187  0.2938
 1398SOL     OW15652   4.602   4.618   4.290  0.0518  0.3762 -0.1257
 1398SOL    HW115653   4.519   4.663   4.278  1.4517  2.1185 -3.1956
 1398SOL    HW215654   4.607   4.577   4.203 -0.0032 -0.9266  0.4834
 1399SOL     OW15655   4.149   1.135   6.920 -0.2509 -0.0964  0.3418
 1399SOL    HW115656   4.195   1.056   6.949  0.8465  0.4079 -0.0078
 1399SOL    HW215657   4.070   1.141   6.974 -0.6695 -0.3979 -0.2309
 1400SOL     OW15658   4.342   0.535   8.167  0.0295  0.0628 -0.5578
 1400SOL    HW115659   4.408   0.468   8.182  1.4652  1.4522 -0.6091
 1400SOL    HW215660   4.277   0.509   8.233 -1.0041 -2.6659 -2.6566
 1401SOL     OW15661   1.450   1.539   3.460  0.4409 -0.1932  0.5973
 1401SOL    HW115662   1.445   1.446   3.436  0.0225  0.5459 -2.2246
 1401SOL    HW215663   1.357   1.560   3.463 -0.1639 -2.1346 -4.2512
 1402SOL     OW15664   3.082   0.078   5.827 -0.4934 -0.0055 -0.3444
 1402SOL    HW115665   2.987   0.085   5.814 -0.7359 -2.6529 -0.0333
 1402SOL    HW215666   3.105   0.163   5.863  1.1520 -0.2739 -0.7658
 1403SOL     OW15667   2.005   1.263  16.633  0.0841  0.1829  0.4253
 1403SOL    HW115668   1.915   1.289  16.610  0.4197 -0.4668 -1.5957
 1403SOL    HW215669   1.989   1.211  16.712 -2.1465  0.6186  0.2673
 1404SOL     OW15670   3.450   1.539   5.981  0.6297  0.5654  0.4601
 1404SOL    HW115671   3.382   1.475   5.961  0.4922  0.1952  2.0961
 1404SOL    HW215672   3.412   1.577   6.061  0.1335 -1.2526  1.0892
 1405SOL     OW15673   0.978   3.848   2.708  0.6710  0.5760  0.0821
 1405SOL    HW115674   1.060   3.833   2.756  1.2850  3.9761  0.0737
 1405SOL    HW215675   0.962   3.940   2.727 -3.2781 -0.1339  0.0077
 1406SOL     OW15676   3.102   0.722   6.830  0.2746 -0.0517  0.0919
 1406SOL    HW115677   3.112   0.629   6.810 -0.6055  0.2466 -1.7498
 1406SOL    HW215678   3.066   0.723   6.919  0.8987  1.3170  0.3263
 1407SOL     OW15679   1.741   0.528   5.784  0.2604 -0.3723 -0.3338
 1407SOL    HW115680   1.728   0.557   5.693 -0.0864  1.1978  0.2093
 1407SOL    HW215681   1.810   0.585   5.816  0.0827 -0.3542  0.0165
 1408SOL     OW15682   0.927   0.356  12.847  0.7177  1.0285 -0.4080
 1408SOL    HW115683   0.893   0.301  12.776 -1.7396  0.4712  1.2421
 1408SOL    HW215684   0.944   0.287  12.911  1.2407 -0.8255 -2.5437
 1409SOL     OW15685   3.980   0.776  11.149  0.1331 -0.2104  0.3822
 1409SOL    HW115686   4.036   0.835  11.099 -0.0590  0.4890  0.9961
 1409SOL    HW215687   3.946   0.848  11.201  1.3513  0.1124  0.7291
 1410SOL     OW15688   3.627   3.786  10.904  0.0598 -0.4367 -0.1093
 1410SOL    HW115689   3.660   3.875  10.897  1.7546 -0.9759  1.1454
 1410SOL    HW215690   3.692   3.750  10.964  1.9023  2.7347 -0.2164
 1411SOL     OW15691   2.249   0.109   5.773  0.9494 -0.8254  0.1579
 1411SOL    HW115692   2.271   0.195   5.737 -1.4235 -1.4982 -2.8845
 1411SOL    HW215693   2.225   0.058   5.696 -1.3718 -0.2806  0.5336
 1412SOL     OW15694   4.666   1.466   6.747  0.6055  0.2858  0.5131
 1412SOL    HW115695   4.581   1.473   6.790 -0.7197 -0.2811 -2.0100
 1412SOL    HW215696   4.678   1.371   6.754 -0.9256 -0.0172 -0.8883
 1413SOL     OW15697   2.413   1.347   6.509 -0.5923 -0.6640 -0.2393
 1413SOL    HW115698   2.384   1.309   6.426 -1.5351  1.4568 -0.8792
 1413SOL    HW215699   2.335   1.394   6.538  1.3391  2.7148 -0.5143
 1414SOL     OW15700   3.481   4.004   8.636 -0.4188  0.4310  0.0478
 1414SOL    HW115701   3.422   4.054   8.580  0.4746  0.4734 -0.8598
 1414SOL    HW215702   3.435   3.921   8.647 -0.7434  0.4124 -1.5012
 1415SOL     OW15703   4.165   0.019   9.086 -0.1912 -0.2664  0.3714
 1415SOL    HW115704   4.202   0.101   9.121  0.6271  0.2715 -1.7393
 1415SOL    HW215705   4.216   4.684   9.141  1.5355 -0.8997 -1.9029
 1416SOL     OW15706   2.904   2.395  16.585 -0.5236  0.3587 -0.7574
 1416SOL    HW115707   2.865   2.308  16.592 -1.4868  0.9045  0.7166
 1416SOL    HW215708   2.956   2.389  16.665 -0.0253 -0.6363 -1.1512
 1417SOL     OW15709   0.001   4.697   6.840  0.0764  0.1714  0.0754
 1417SOL    HW115710   0.036   4.710   6.752  0.1707  0.8075  0.2085
 1417SOL    HW215711   0.049   0.044   6.882 -0.6072  1.3782 -1.1789
 1418SOL     OW15712   0.501   1.090   8.722  0.3062 -0.1224  0.6447
 1418SOL    HW115713   0.588   1.118   8.694 -0.0549  0.3169 -0.0244
 1418SOL    HW215714   0.478   1.019   8.662  0.0493  1.6294 -1.3336
 1419SOL     OW15715   4.140   4.203  14.152  0.7753 -0.5987 -0.3830
 1419SOL    HW115716   4.232   4.206  14.125  0.2282  0.5387 -2.1320
 1419SOL    HW215717   4.139   4.149  14.231  1.4617  0.3830  0.2954
 1420SOL     OW15718   4.564   2.839   6.720  0.4605  0.4855 -0.1003
 1420SOL    HW115719   4.598   2.825   6.632  0.3925 -0.5508  0.0450
 1420SOL    HW215720   4.491   2.778   6.714  1.0265 -0.1226 -0.7922
 1421SOL     OW15721   4.154   2.403  13.878  0.1066  0.5118  0.4727
 1421SOL    HW115722   4.162   2.390  13.784  1.7587  0.3655  0.6327
 1421SOL    HW215723   4.190   2.321  13.913 -0.7834  0.2663  0.8082
 1422SOL     OW15724   1.208   0.952   0.072 -0.0564 -0.4499  0.3537
 1422SOL    HW115725   1.237   0.895   0.002 -3.6277 -1.4523 -0.3154
 1422SOL    HW215726   1.287   1.005   0.082  1.0206 -2.1260  0.6800
 1423SOL     OW15727   1.468   3.085  13.821 -0.0824  0.3038 -0.6369
 1423SOL    HW115728   1.395   3.022  13.821 -1.2519  1.6263  2.3331
 1423SOL    HW215729   1.483   3.091  13.727 -1.9578  3.6029 -0.7261
 1424SOL     OW15730   0.771   1.977   7.857  0.0529 -0.3000 -0.0883
 1424SOL    HW115731   0.776   1.886   7.827  2.0354 -0.2855  0.1957
 1424SOL    HW215732   0.698   2.015   7.809  1.0089 -2.5467 -3.3228
 1425SOL     OW15733   0.976   0.246   8.466 -0.4733  0.4695  0.2732
 1425SOL    HW115734   0.948   0.156   8.446 -0.8236  1.1790 -2.3690
 1425SOL    HW215735   1.024   0.255   8.384  1.8323  0.7817  1.6602
 1426SOL     OW15736   2.382   2.503   8.740 -0.3426 -0.4551 -0.3938
 1426SOL    HW115737   2.357   2.458   8.659 -0.2818 -0.5478 -0.3611
 1426SOL    HW215738   2.396   2.588   8.699 -0.3130 -0.4074 -0.2830
 1427SOL     OW15739   3.974   0.134  16.740 -0.0262  0.0054 -0.0795
 1427SOL    HW115740   4.042   0.182  16.693  0.5849 -1.2311 -0.4767
 1427SOL    HW215741   3.954   0.072  16.669  2.6966 -0.2819 -0.6196
 1428SOL     OW15742   0.180   2.953   8.685  0.1055 -0.0135 -0.3979
 1428SOL    HW115743   0.267   2.933   8.720  0.6653  3.2890  0.1427
 1428SOL    HW215744   0.128   2.933   8.763 -0.3801  0.0314 -0.7105
 1429SOL     OW15745   4.326   0.295  17.415 -0.1806  0.0200 -0.2388
 1429SOL    HW115746   4.231   0.301  17.415 -0.2077 -0.2646  1.3943
 1429SOL    HW215747   4.347   0.373  17.364  3.0785 -3.1651 -3.8064
 1430SOL     OW15748   1.055   2.026   8.425  0.0293 -0.2626  0.6841
 1430SOL    HW115749   0.969   1.995   8.395  0.3013  0.2775 -0.6202
 1430SOL    HW215750   1.056   2.104   8.370 -0.6064  0.5336  1.7836
 1431SOL     OW15751   1.328   0.552  17.663 -0.4035 -0.3745  0.5918
 1431SOL    HW115752   1.316   0.467  17.620  0.2216  0.2420 -0.7874
 1431SOL    HW215753   1.253   0.603  17.635 -0.9853 -0.6340  1.6719
 1432SOL     OW15754   0.789   0.646  11.765  0.2872  0.1934 -0.0892
 1432SOL    HW115755   0.790   0.695  11.847 -1.5956  1.1099 -0.6092
 1432SOL    HW215756   0.869   0.673  11.719  0.5408  1.0681  0.8685
 1433SOL     OW15757   3.702   0.829   0.833  0.3517  0.3330  1.0101
 1433SOL    HW115758   3.764   0.899   0.854  0.0639  0.4334  1.5113
 1433SOL    HW215759   3.697   0.831   0.737 -0.0984  0.1404  1.0312
 1434SOL     OW15760   4.062   4.311   9.260 -0.2622  0.0546 -0.2127
 1434SOL    HW115761   4.126   4.330   9.192  1.5231 -1.9129  0.9016
 1434SOL    HW215762   3.983   4.298   9.208 -1.0486 -0.1151  1.0004
 1435SOL     OW15763   3.952   2.219   4.906  0.0074  0.3679 -0.1786
 1435SOL    HW115764   3.986   2.156   4.842  1.6356 -0.4499  1.4856
 1435SOL    HW215765   4.005   2.200   4.983 -0.4242  1.3622  0.3588
 1436SOL     OW15766   3.089   0.252   9.978 -0.2131  0.3850 -0.6159
 1436SOL    HW115767   3.184   0.248   9.968 -0.4270  1.8214 -3.1332
 1436SOL    HW215768   3.091   0.318  10.047 -0.7689  0.4178 -0.6265
 1437SOL     OW15769   3.040   2.390   4.915 -0.4342 -0.9369  0.5450
 1437SOL    HW115770   3.091   2.471   4.923 -0.6363 -0.4754 -3.1505
 1437SOL    HW215771   3.065   2.348   4.998 -3.2439 -1.2706  1.2119
 1438SOL     OW15772   0.177   0.630   4.262 -0.1418  0.0590 -0.4926
 1438SOL    HW115773   0.173   0.676   4.346  1.5458  0.6899 -0.7414
 1438SOL    HW215774   0.094   0.584   4.267 -0.4152  0.7929  1.5800
 1439SOL     OW15775   4.227   3.258   6.610  0.2820 -0.7285 -0.9276
 1439SOL    HW115776   4.291   3.188   6.625 -2.2235 -2.0023  3.9756
 1439SOL    HW215777   4.272   3.334   6.574 -0.1533 -0.4521 -0.8925
 1440SOL     OW15778   1.955   4.358  12.066  0.1930  0.2485 -0.4576
 1440SOL    HW115779   1.926   4.336  12.155  2.6622  0.7484  0.4671
 1440SOL    HW215780   1.978   4.269  12.040 -0.0504 -0.5528  2.0065
 1441SOL     OW15781   2.970   4.114   4.060  0.1977 -0.9224 -0.3167
 1441SOL    HW115782   2.994   4.105   3.968 -2.5880  0.5764 -1.2148
 1441SOL    HW215783   3.045   4.073   4.102  1.5570  0.8317 -1.0390
 1442SOL     OW15784   2.040   4.284   7.551 -0.1660  0.2711  0.0004
 1442SOL    HW115785   2.014   4.192   7.551  1.8558 -0.3068  1.3206
 1442SOL    HW215786   2.098   4.290   7.475 -0.7868 -0.8252 -0.5478
 1443SOL     OW15787   1.993   4.125   3.085 -0.0279  0.4509  1.0193
 1443SOL    HW115788   1.990   4.113   2.990  2.2845 -0.6579  1.0838
 1443SOL    HW215789   1.954   4.213   3.092 -1.5159  0.1339 -3.5784
 1444SOL     OW15790   4.339   3.789   2.867 -0.3302  0.4150 -0.4613
 1444SOL    HW115791   4.396   3.712   2.866 -2.4531 -1.1382 -1.3979
 1444SOL    HW215792   4.384   3.833   2.939  1.0181  0.8489 -1.5722
 1445SOL     OW15793   3.506   3.035   3.888  0.4467  0.6314 -0.0872
 1445SOL    HW115794   3.418   3.060   3.859  0.4774  0.8605  0.0152
 1445SOL    HW215795   3.559   3.106   3.851  0.0124  1.0960  0.1678
 1446SOL     OW15796   3.351   1.923   4.472 -0.4126 -0.0963 -0.5118
 1446SOL    HW115797   3.426   1.976   4.443 -0.3381  1.0488  1.7386
 1446SOL    HW215798   3.312   1.982   4.537  4.0948  0.3238  1.8954
 1447SOL     OW15799   0.391   3.070  13.281 -0.2116 -0.0477 -0.1851
 1447SOL    HW115800   0.449   3.017  13.336 -0.3357  0.9141  0.8877
 1447SOL    HW215801   0.419   3.051  13.192 -0.9673 -1.6620 -0.0799
 1448SOL     OW15802   0.658   3.724  12.216  0.3769 -0.1404 -0.5405
 1448SOL    HW115803   0.637   3.779  12.292  0.0536 -0.3770 -0.4593
 1448SOL    HW215804   0.751   3.701  12.220  0.5665  0.7058 -0.1019
 1449SOL     OW15805   1.524   1.171   5.429 -0.1140 -0.3916 -0.2556
 1449SOL    HW115806   1.494   1.260   5.410  1.4914  0.1705 -0.1705
 1449SOL    HW215807   1.595   1.197   5.489  0.1923  0.5482 -1.0364
 1450SOL     OW15808   2.753   2.028   6.851 -0.0632 -0.3186 -0.7640
 1450SOL    HW115809   2.806   1.983   6.916 -1.2602 -1.7523 -0.7754
 1450SOL    HW215810   2.799   2.021   6.767  0.2147 -2.5390 -0.4285
 1451SOL     OW15811   3.747   1.296  15.054  0.2177  0.2800 -0.3317
 1451SOL    HW115812   3.726   1.298  14.961 -0.5494  0.0136 -0.1709
 1451SOL    HW215813   3.807   1.224  15.071 -1.1184 -0.7828 -0.1164
 1452SOL     OW15814   0.577   1.584   2.268  0.2554 -0.2568  0.0333
 1452SOL    HW115815   0.663   1.604   2.231  0.3676 -0.2928  0.2709
 1452SOL    HW215816   0.594   1.497   2.304  1.1385  0.3181  1.0376
 1453SOL     OW15817   0.712   3.471  15.456  0.1975 -0.0099 -0.5833
 1453SOL    HW115818   0.715   3.556  15.501  2.0138 -0.2280 -0.2813
 1453SOL    HW215819   0.683   3.488  15.367 -1.9346 -0.7763 -0.0233
 1454SOL     OW15820   1.393   2.014   9.599  0.1489 -0.6744 -0.5618
 1454SOL    HW115821   1.327   1.946   9.590 -2.3072  1.3522  1.9429
 1454SOL    HW215822   1.406   2.025   9.505 -1.8086 -3.9666 -1.2026
 1455SOL     OW15823   3.763   1.151  17.582 -0.6397  0.0133  0.0000
 1455SOL    HW115824   3.822   1.136  17.656 -0.5444  1.2247  0.1839
 1455SOL    HW215825   3.759   1.071  17.530  1.0179  1.8640 -2.9783
 1456SOL     OW15826   4.383   0.954   9.045 -0.4291 -0.2362  0.0259
 1456SOL    HW115827   4.454   0.921   8.989 -0.0321  1.4227 -0.4501
 1456SOL    HW215828   4.323   0.881   9.032  3.1347 -2.8428 -1.7262
 1457SOL     OW15829   2.457   2.718   7.247  0.6546 -0.0167  0.5190
 1457SOL    HW115830   2.497   2.687   7.328  2.1692 -0.0567 -0.2369
 1457SOL    HW215831   2.471   2.812   7.258 -0.3687  0.3585 -1.3487
 1458SOL     OW15832   0.403   4.457   1.533  0.0835 -0.3269 -0.2360
 1458SOL    HW115833   0.382   4.383   1.589 -0.0156 -0.2692 -0.1963
 1458SOL    HW215834   0.491   4.439   1.500 -0.1100  1.9746 -2.0433
 1459SOL     OW15835   4.513   0.170  11.617 -0.7949  0.0612 -0.1382
 1459SOL    HW115836   4.563   0.251  11.604  0.7776 -1.3038 -2.5147
 1459SOL    HW215837   4.584   0.107  11.606 -0.7279 -0.4319  3.0290
 1460SOL     OW15838   0.348   2.411   5.533 -0.0970 -0.5915  0.6330
 1460SOL    HW115839   0.367   2.504   5.521  1.1741 -0.8845  0.3855
 1460SOL    HW215840   0.291   2.386   5.460  0.4149  1.0706 -0.3219
 1461SOL     OW15841   0.221   4.434  15.080 -0.0962  0.0176  0.0383
 1461SOL    HW115842   0.306   4.449  15.038 -1.1192 -0.6113 -2.2477
 1461SOL    HW215843   0.215   4.501  15.148  0.7364  1.0703 -0.9110
 1462SOL     OW15844   1.752   0.599  11.114  0.7455  0.5573  0.0726
 1462SOL    HW115845   1.695   0.521  11.116  1.5915 -0.0492  0.5675
 1462SOL    HW215846   1.760   0.619  11.021 -1.8546  0.0714 -0.2656
 1463SOL     OW15847   4.393   1.724   6.119 -0.4617 -0.5407  0.3713
 1463SOL    HW115848   4.422   1.655   6.179 -2.0815 -0.0753  1.7017
 1463SOL    HW215849   4.297   1.728   6.127 -0.5460  1.2455 -1.4534
 1464SOL     OW15850   4.355   3.693   3.891  0.6242 -0.3369  0.2152
 1464SOL    HW115851   4.278   3.640   3.915  0.6856  0.2568  1.7095
 1464SOL    HW215852   4.414   3.628   3.853  2.8691  1.4140  0.7363
 1465SOL     OW15853   2.747   4.517  13.096 -1.0238  0.4717  0.2830
 1465SOL    HW115854   2.807   4.443  13.101  1.0866  2.1426  0.3104
 1465SOL    HW215855   2.763   4.559  13.011 -0.0349  1.1129  0.7822
 1466SOL     OW15856   2.985   3.240   8.359  0.4799  0.5967 -0.3008
 1466SOL    HW115857   3.006   3.160   8.310  0.4787  0.9611 -0.8981
 1466SOL    HW215858   2.918   3.206   8.419  0.2652  1.2106 -0.1940
 1467SOL     OW15859   1.345   1.665   8.007 -0.3590 -0.2670  0.1591
 1467SOL    HW115860   1.318   1.691   7.918 -0.7912 -0.6019  0.1925
 1467SOL    HW215861   1.423   1.720   8.015 -0.7024  0.0249  1.4689
 1468SOL     OW15862   0.660   3.504  14.984  0.2382  0.3859  0.0408
 1468SOL    HW115863   0.682   3.532  15.073 -2.0361  3.4406 -0.3546
 1468SOL    HW215864   0.565   3.514  14.988  0.4129  3.0033 -2.3526
 1469SOL     OW15865   3.968   4.430   9.724 -0.2954 -0.1546 -0.0532
 1469SOL    HW115866   3.962   4.526   9.719  0.0061 -0.1854 -1.0927
 1469SOL    HW215867   3.971   4.414   9.818 -0.7394 -0.4445 -0.0865
 1470SOL     OW15868   3.405   1.294   3.049  0.3183 -0.2898 -0.1386
 1470SOL    HW115869   3.405   1.378   3.004 -3.0755 -0.6533 -0.7902
 1470SOL    HW215870   3.313   1.274   3.036  0.8250 -2.5937 -0.2381
 1471SOL     OW15871   0.634   3.212  12.370 -0.3626 -0.5444 -0.2017
 1471SOL    HW115872   0.708   3.271  12.386 -3.1178  2.4553  1.3684
 1471SOL    HW215873   0.582   3.232  12.448 -0.7852 -0.3942 -0.5276
 1472SOL     OW15874   1.900   2.960   8.139  0.2409 -0.0096  0.1507
 1472SOL    HW115875   1.990   2.992   8.134  0.2605 -0.0732  0.0995
 1472SOL    HW215876   1.857   3.017   8.075  0.1361 -1.9326 -1.4841
 1473SOL     OW15877   4.484   1.850   6.599 -0.2858 -0.2373 -0.1467
 1473SOL    HW115878   4.396   1.844   6.637  0.2846  0.3519  1.2734
 1473SOL    HW215879   4.463   1.913   6.530  0.9508 -0.0494 -0.3483
 1474SOL     OW15880   0.662   1.847  15.712  0.4055 -0.2947  0.1820
 1474SOL    HW115881   0.587   1.789  15.711  0.2675 -0.1468  2.1407
 1474SOL    HW215882   0.629   1.932  15.684 -1.9493 -0.6522  1.8737
 1475SOL     OW15883   3.591   3.590  13.695  0.3795 -0.4684  0.1309
 1475SOL    HW115884   3.589   3.676  13.654  0.1353 -0.3208  0.4529
 1475SOL    HW215885   3.500   3.560  13.695 -0.1857  1.2439  0.3331
 1476SOL     OW15886   4.618   4.102   3.174 -0.4995  0.9505  0.4079
 1476SOL    HW115887   4.580   4.189   3.159  2.1302  2.0771  0.3090
 1476SOL    HW215888   4.618   4.116   3.269 -0.0750  0.6940  0.4450
 1477SOL     OW15889   2.067   3.102  14.297 -0.5175 -0.0297 -0.2036
 1477SOL    HW115890   2.148   3.070  14.257  0.4835  2.9434 -0.5592
 1477SOL    HW215891   2.113   3.180  14.329 -0.0148  0.0816 -1.1944
 1478SOL     OW15892   2.184   2.389   3.753  0.6092 -0.0108 -0.2758
 1478SOL    HW115893   2.212   2.317   3.809 -1.6490  0.8338  1.9508
 1478SOL    HW215894   2.249   2.455   3.776 -0.4055  0.9220 -0.1048
 1479SOL     OW15895   0.969   3.841   5.697  0.0019  0.0401  0.4110
 1479SOL    HW115896   0.991   3.895   5.773 -0.3622  1.0542 -0.2030
 1479SOL    HW215897   0.925   3.773   5.747  0.6548 -0.4832  0.2737
 1480SOL     OW15898   4.383   2.756   2.981  0.1451  0.2930 -0.4962
 1480SOL    HW115899   4.419   2.705   3.054  0.5194  0.5419 -0.5030
 1480SOL    HW215900   4.292   2.758   3.008 -0.1419 -0.7956 -1.3726
 1481SOL     OW15901   3.375   1.827  17.549 -0.1936  0.0031 -0.4354
 1481SOL    HW115902   3.420   1.907  17.575 -2.1172  0.9020  0.0927
 1481SOL    HW215903   3.436   1.755  17.564  0.1267  0.7349  1.7267
 1482SOL     OW15904   2.451   1.567  14.164 -0.0709  0.1744 -0.3115
 1482SOL    HW115905   2.409   1.561  14.078 -0.5740 -0.3897 -0.0293
 1482SOL    HW215906   2.463   1.478  14.196 -1.7346  0.1410  0.2168
 1483SOL     OW15907   4.325   1.840   0.500 -0.0270 -0.2045  1.0457
 1483SOL    HW115908   4.248   1.895   0.517 -1.1418 -1.5529  0.4050
 1483SOL    HW215909   4.392   1.902   0.528 -0.4914  0.3792  0.8664
 1484SOL     OW15910   3.743   3.499  10.901 -0.0578  0.0562  0.4369
 1484SOL    HW115911   3.699   3.437  10.959  0.6321 -0.5845  0.2756
 1484SOL    HW215912   3.681   3.502  10.828  1.5504  1.4335 -0.8346
 1485SOL     OW15913   2.293   3.903  10.803  0.1481 -0.6925 -0.1251
 1485SOL    HW115914   2.232   3.868  10.738 -2.1974  2.6084  0.3034
 1485SOL    HW215915   2.377   3.910  10.759  0.4180 -1.0880  0.3241
 1486SOL     OW15916   1.755   3.178   6.416  0.1280 -0.1053 -0.5722
 1486SOL    HW115917   1.741   3.149   6.326  2.2088  1.9317 -1.5377
 1486SOL    HW215918   1.688   3.245   6.432  1.4603  0.8514  0.9619
 1487SOL     OW15919   0.735   1.931   2.888 -0.6398 -0.2119  0.0929
 1487SOL    HW115920   0.740   1.956   2.796  0.7432  2.1768  0.8117
 1487SOL    HW215921   0.728   2.019   2.924  2.5930  0.4435 -0.8883
 1488SOL     OW15922   4.061   0.343  17.391  0.3846 -0.2706  0.3617
 1488SOL    HW115923   3.989   0.385  17.438  0.4984  2.2497 -1.6860
 1488SOL    HW215924   4.034   0.253  17.375 -0.4743  0.3679 -1.8018
 1489SOL     OW15925   0.046   1.730   2.366 -0.0001 -0.8556 -0.0845
 1489SOL    HW115926   4.678   1.719   2.341 -0.0645  1.8396 -0.9596
 1489SOL    HW215927   0.070   1.811   2.323  0.0313  0.5057  2.5008
 1490SOL     OW15928   0.975   4.000   5.484  0.2445  0.1092  0.7555
 1490SOL    HW115929   0.896   4.054   5.486  0.3117  0.2224  0.2056
 1490SOL    HW215930   0.969   3.945   5.563 -0.5270 -1.8546 -0.6613
 1491SOL     OW15931   3.071   2.489   3.827  0.3375  0.0299 -0.3901
 1491SOL    HW115932   3.111   2.513   3.911  1.1481  3.5511 -1.7501
 1491SOL    HW215933   3.057   2.579   3.797  0.1743  0.2646  0.3924
 1492SOL     OW15934   3.922   4.578  12.142  0.1773 -0.0795  0.2359
 1492SOL    HW115935   3.964   4.506  12.096  1.6849  0.3668  0.9227
 1492SOL    HW215936   3.991   4.629  12.185 -0.3655 -0.4705  1.5621
 1493SOL     OW15937   0.468   1.998  11.183  0.6886  0.5277  0.3536
 1493SOL    HW115938   0.538   1.955  11.133  1.2769  0.9935  0.7749
 1493SOL    HW215939   0.493   2.089  11.164 -0.0836  0.5494 -0.5849
 1494SOL     OW15940   0.350   1.197   1.935 -0.0778  0.2062 -0.1262
 1494SOL    HW115941   0.440   1.228   1.945  0.3524 -1.1721  0.2929
 1494SOL    HW215942   0.311   1.260   1.875 -1.4000  1.3434  1.9160
 1495SOL     OW15943   1.048   1.198   8.156 -0.0550  0.0478 -0.1130
 1495SOL    HW115944   1.026   1.178   8.247 -0.4803  1.8647  0.1881
 1495SOL    HW215945   1.078   1.289   8.153 -0.6518  0.1467 -2.5982
 1496SOL     OW15946   3.948   2.415   4.004 -0.4700  0.8378  0.3177
 1496SOL    HW115947   3.988   2.375   4.081 -0.1536  3.1368  1.3288
 1496SOL    HW215948   3.994   2.498   4.013 -0.9491  0.7860  2.9960
 1497SOL     OW15949   2.090   0.148   2.685  0.1751 -0.4792  0.1678
 1497SOL    HW115950   2.116   0.198   2.607 -0.2000 -1.6056 -0.6733
 1497SOL    HW215951   2.000   0.140   2.652  0.5195 -0.8895 -0.6758
 1498SOL     OW15952   0.871   0.175  16.954 -0.4348  0.1709 -0.1876
 1498SOL    HW115953   0.798   0.228  16.923 -0.5054  0.1458 -0.0666
 1498SOL    HW215954   0.942   0.239  16.961  1.1715 -1.8706  2.0457
 1499SOL     OW15955   4.526   3.434   8.820 -0.0565  0.0877  0.2359
 1499SOL    HW115956   4.537   3.357   8.877 -2.1231  2.4732  3.8533
 1499SOL    HW215957   4.446   3.406   8.776  0.1262 -1.7554  1.0433
 1500SOL     OW15958   0.506   0.038   8.193 -0.2687 -0.0018 -0.0861
 1500SOL    HW115959   0.509   4.667   8.192  3.2685  0.1372 -2.5950
 1500SOL    HW215960   0.424   0.045   8.241 -1.7743 -1.1087 -2.5491
 1501SOL     OW15961   3.751   2.098   6.166  0.1758  0.9975  0.1811
 1501SOL    HW115962   3.677   2.148   6.131 -1.6872 -0.9417  1.3037
 1501SOL    HW215963   3.717   2.072   6.251 -1.1897  0.4115 -0.5324
 1502SOL     OW15964   2.807   3.763  15.009  0.2106 -0.8529 -0.0109
 1502SOL    HW115965   2.852   3.838  15.047  0.3036 -1.4143  0.9901
 1502SOL    HW215966   2.798   3.703  15.084  0.3909 -0.1687  0.5610
 1503SOL     OW15967   1.896   2.713  12.895 -0.5659 -0.2649  0.2731
 1503SOL    HW115968   1.893   2.709  12.800 -1.7124 -1.1919  0.3454
 1503SOL    HW215969   1.923   2.622  12.911 -0.1131 -0.2145 -0.2267
 1504SOL     OW15970   3.736   0.020   3.270 -0.0273  0.1003  0.3231
 1504SOL    HW115971   3.740   0.052   3.180 -1.6242  1.1407  0.6441
 1504SOL    HW215972   3.821   4.700   3.270  0.3004  0.7188 -0.9329
 1505SOL     OW15973   0.954   0.454   7.569  0.4587  0.5076  0.4030
 1505SOL    HW115974   0.906   0.385   7.524  0.7734 -0.1625  1.0930
 1505SOL    HW215975   0.927   0.425   7.656 -1.4460 -3.7574 -1.6358
 1506SOL     OW15976   4.431   0.897   9.915 -0.1082 -0.1443  0.0042
 1506SOL    HW115977   4.472   0.980   9.891 -2.0737  0.2107 -2.1670
 1506SOL    HW215978   4.427   0.853   9.830 -0.4613 -0.0243 -0.0423
 1507SOL     OW15979   3.802   3.962  14.772 -0.0759  0.2206  0.0302
 1507SOL    HW115980   3.770   3.920  14.852 -0.9737 -0.4077 -0.6592
 1507SOL    HW215981   3.759   4.047  14.777 -0.9636 -0.1725 -0.7356
 1508SOL     OW15982   1.458   2.044   9.337 -0.2958  0.1571 -0.4064
 1508SOL    HW115983   1.419   1.990   9.269 -0.1718  0.8573 -1.0326
 1508SOL    HW215984   1.531   1.984   9.351 -0.6565  0.3367  2.3087
 1509SOL     OW15985   4.061   0.585   4.936 -0.0528 -0.4001  0.2517
 1509SOL    HW115986   4.103   0.533   4.868 -0.3234  1.8062 -1.6264
 1509SOL    HW215987   3.991   0.617   4.879  1.5813 -0.1689 -1.6610
 1510SOL     OW15988   1.959   1.267  11.981 -0.0395  0.0103  0.6400
 1510SOL    HW115989   2.055   1.261  11.971 -0.0902 -1.9948  1.3381
 1510SOL    HW215990   1.946   1.326  11.906  0.5472  1.5290  1.7379
 1511SOL     OW15991   3.946   2.760   8.676  0.1928  0.1414 -0.1328
 1511SOL    HW115992   3.919   2.824   8.742  0.0108  1.6864 -1.7023
 1511SOL    HW215993   4.017   2.713   8.721 -1.7038 -0.1490  2.5211
 1512SOL     OW15994   0.282   1.592   5.413  0.4303  0.1702 -0.0445
 1512SOL    HW115995   0.328   1.572   5.494  2.4802 -1.0476 -1.5178
 1512SOL    HW215996   0.354   1.631   5.363  0.8144 -1.8745 -1.0955
 1513SOL     OW15997   2.482   1.280   8.955 -0.1351 -0.1680 -0.3260
 1513SOL    HW115998   2.574   1.257   8.964  0.0678  0.5209 -0.6098
 1513SOL    HW215999   2.469   1.353   9.016 -1.0556  0.2938 -1.0542
 1514SOL     OW16000   4.533   1.161  14.750  0.0479 -0.3973  0.2333
 1514SOL    HW116001   4.618   1.118  14.740  0.7622  1.0482  0.1594
 1514SOL    HW216002   4.525   1.205  14.665  0.1211  2.0284  1.4881
 1515SOL     OW16003   1.725   2.920  15.801  0.5635  0.2672 -0.4281
 1515SOL    HW116004   1.797   2.968  15.761  1.8080 -0.6168  0.7587
 1515SOL    HW216005   1.775   2.846  15.836 -0.6718 -1.1055 -1.5557
 1516SOL     OW16006   2.271   2.449   3.085  0.7885  0.2044 -0.2388
 1516SOL    HW116007   2.198   2.506   3.059  0.7292  0.9907  1.6961
 1516SOL    HW216008   2.328   2.503   3.139  3.2372 -0.4154 -2.1947
 1517SOL     OW16009   0.074   0.805   5.256  0.6111 -0.1132  0.4390
 1517SOL    HW116010   0.012   0.865   5.214  3.0279  2.3169  0.3049
 1517SOL    HW216011   0.032   0.726   5.221  0.0337  0.9053 -1.1973
 1518SOL     OW16012   1.252   2.657  12.140 -0.2681 -0.6524 -0.4041
 1518SOL    HW116013   1.220   2.707  12.065 -0.6422  1.1307  0.9434
 1518SOL    HW216014   1.184   2.590  12.145  0.2777 -1.0866  1.4646
 1519SOL     OW16015   2.073   2.610   2.962  0.4228  0.3385 -0.0861
 1519SOL    HW116016   2.008   2.661   2.914 -0.7672 -1.1895 -0.0821
 1519SOL    HW216017   2.149   2.619   2.905 -0.9999 -0.8536 -2.1334
 1520SOL     OW16018   1.446   1.190   3.453  0.1854  0.1948 -0.7861
 1520SOL    HW116019   1.508   1.159   3.519  1.5434 -2.3272 -3.2588
 1520SOL    HW216020   1.496   1.193   3.372 -0.4887  1.6211 -1.1405
 1521SOL     OW16021   3.625   4.627  17.442 -0.1191 -0.3911 -0.0232
 1521SOL    HW116022   3.671   4.685  17.503  1.8756 -2.0860  0.0738
 1521SOL    HW216023   3.697   4.601  17.384 -1.1848 -0.1796 -1.4391
 1522SOL     OW16024   4.310   1.532   8.608  0.2283 -0.3759  0.4178
 1522SOL    HW116025   4.378   1.515   8.674  0.3970  2.5962  1.0107
 1522SOL    HW216026   4.236   1.489   8.651  1.3048 -1.6546  1.0488
 1523SOL     OW16027   0.094   3.090   7.048  0.6399  0.0106  0.1157
 1523SOL    HW116028   0.057   3.177   7.060  0.9489  0.1498  0.0814
 1523SOL    HW216029   0.016   3.035   7.056  2.3904 -2.3413  0.9927
 1524SOL     OW16030   3.830   0.640   8.226 -0.2383  0.4245 -0.1157
 1524SOL    HW116031   3.767   0.599   8.286 -0.9995 -1.5964 -2.2668
 1524SOL    HW216032   3.806   0.731   8.245  1.1589  0.7648  0.0131
 1525SOL     OW16033   3.901   2.365   7.926  0.9780 -0.3439 -0.1192
 1525SOL    HW116034   3.812   2.399   7.927  1.2309  0.3759 -3.2662
 1525SOL    HW216035   3.932   2.398   7.842 -1.1500 -1.7893 -1.4577
 1526SOL     OW16036   1.802   0.559   2.327  0.4854 -0.4995 -0.4377
 1526SOL    HW116037   1.841   0.645   2.347  0.2439 -0.7466  1.1287
 1526SOL    HW216038   1.777   0.570   2.236 -0.0501 -0.1604 -0.2563
 1527SOL     OW16039   1.889   3.075  13.081  0.2068  0.3109 -0.1015
 1527SOL    HW116040   1.882   3.169  13.097 -0.1251 -0.0123  1.6370
 1527SOL    HW216041   1.983   3.068  13.098 -0.0113 -1.0255  0.5123
 1528SOL     OW16042   3.997   0.333  13.023 -0.2407  0.3996 -0.1851
 1528SOL    HW116043   3.935   0.400  13.049  0.6636  0.5451  1.6265
 1528SOL    HW216044   3.936   0.269  12.985 -1.6969  0.4999  2.0164
 1529SOL     OW16045   0.196   0.537   3.579  0.0493  0.1326 -0.0968
 1529SOL    HW116046   0.181   0.451   3.619  3.0377 -0.1330  0.4370
 1529SOL    HW216047   0.290   0.547   3.592  0.2356 -1.1170 -0.4661
 1530SOL     OW16048   3.960   3.793  14.046 -0.1889  0.5165 -0.0714
 1530SOL    HW116049   3.887   3.801  13.985  0.3524  1.0657 -0.6527
 1530SOL    HW216050   3.913   3.760  14.122  0.3211  0.8601  0.4002
 1531SOL     OW16051   1.505   0.919   1.345  0.0729  0.8536 -0.4076
 1531SOL    HW116052   1.474   0.913   1.254  0.1706  3.0289 -0.5899
 1531SOL    HW216053   1.539   1.008   1.346 -1.3720  1.3741  2.3093
 1532SOL     OW16054   1.955   1.817   3.984 -0.6522 -0.0976 -0.4547
 1532SOL    HW116055   2.037   1.852   4.018 -1.1009  0.6673 -0.1619
 1532SOL    HW216056   1.907   1.812   4.066 -0.6805 -0.0775 -0.4702
 1533SOL     OW16057   0.780   0.732   0.720  0.0773 -0.6876  0.2367
 1533SOL    HW116058   0.785   0.821   0.755 -1.2365 -0.5304  0.0234
 1533SOL    HW216059   0.741   0.675   0.787  0.6313 -2.4095 -0.8857
 1534SOL     OW16060   3.819   1.236   9.086  0.5328  0.2944 -0.1909
 1534SOL    HW116061   3.837   1.290   9.163 -0.8812 -1.1592  1.1748
 1534SOL    HW216062   3.825   1.149   9.126 -1.2226  1.6889  3.1619
 1535SOL     OW16063   1.472   2.222   9.775 -0.0882 -0.1460 -0.4724
 1535SOL    HW116064   1.566   2.219   9.762  0.0468  1.6364  0.0235
 1535SOL    HW216065   1.443   2.153   9.716 -0.0968 -2.4855  2.2771
 1536SOL     OW16066   3.539   4.640  13.337 -0.4644 -0.1837 -0.0093
 1536SOL    HW116067   3.563   4.706  13.403 -2.4867 -1.1562  1.7134
 1536SOL    HW216068   3.580   4.683  13.262  0.2090  1.0883  1.0922
 1537SOL     OW16069   0.779   0.597   8.761  0.3143  0.3230 -0.3877
 1537SOL    HW116070   0.805   0.555   8.679 -1.1620  0.0281 -0.7154
 1537SOL    HW216071   0.760   0.515   8.806  0.6933  0.1583 -0.5344
 1538SOL     OW16072   4.195   0.913  11.076 -0.0140 -0.5431 -0.4417
 1538SOL    HW116073   4.202   0.972  11.001  2.5523  1.5195  1.4308
 1538SOL    HW216074   4.270   0.937  11.131 -3.2425  2.0705  2.8621
 1539SOL     OW16075   1.712   1.252  16.586 -0.1955 -0.1846 -0.3682
 1539SOL    HW116076   1.617   1.247  16.602 -0.2036 -1.5951 -0.8925
 1539SOL    HW216077   1.718   1.165  16.546 -0.0815  0.0441 -0.8469
 1540SOL     OW16078   0.151   1.318   1.434  0.2768  0.0433 -0.1207
 1540SOL    HW116079   0.197   1.328   1.351  0.1456  1.3749 -0.0389
 1540SOL    HW216080   0.080   1.382   1.422  0.3474  0.2725  0.6614
 1541SOL     OW16081   2.262   2.665   1.331 -0.1667  0.4143  0.3170
 1541SOL    HW116082   2.204   2.598   1.296  2.0608 -0.8699 -0.9060
 1541SOL    HW216083   2.332   2.659   1.266 -3.2842  2.4588 -3.1819
 1542SOL     OW16084   4.004   2.565   9.079  0.1775  0.0453  0.9212
 1542SOL    HW116085   4.099   2.576   9.077  0.2740 -1.4061 -1.6410
 1542SOL    HW216086   3.988   2.526   9.165  1.8532  0.3015  1.3603
 1543SOL     OW16087   2.052   4.203   5.424  0.2976  0.1357  0.1108
 1543SOL    HW116088   2.005   4.234   5.347  0.8009  2.6322  0.8389
 1543SOL    HW216089   2.042   4.108   5.417  3.2015 -0.0730 -1.4338
 1544SOL     OW16090   0.457   4.331   1.114  0.4269 -0.5391 -0.1608
 1544SOL    HW116091   0.382   4.381   1.146  0.6154  0.1257 -0.7504
 1544SOL    HW216092   0.532   4.390   1.117  0.1392 -0.1824 -0.0159
 1545SOL     OW16093   0.403   0.136   3.857 -0.0708  0.5841 -0.4289
 1545SOL    HW116094   0.362   0.200   3.915  0.0762 -0.6843  1.0535
 1545SOL    HW216095   0.328   0.091   3.818  1.7809 -2.5835 -0.3480
 1546SOL     OW16096   1.642   1.613   2.716  0.1801  0.0258  0.2957
 1546SOL    HW116097   1.658   1.531   2.763  2.2794 -0.1558 -0.7476
 1546SOL    HW216098   1.717   1.613   2.656  1.5753 -0.2451  2.0530
 1547SOL     OW16099   0.547   3.726   8.111 -0.5969  0.1596 -0.1573
 1547SOL    HW116100   0.544   3.733   8.206  0.3665 -0.1160 -0.1046
 1547SOL    HW216101   0.453   3.736   8.095 -0.5453 -0.7828 -1.0669
 1548SOL     OW16102   4.491   3.205   5.779 -0.4776  0.5952 -0.3423
 1548SOL    HW116103   4.581   3.173   5.776 -0.2574  1.2078 -0.3876
 1548SOL    HW216104   4.473   3.204   5.873  2.9516 -2.2099  0.2660
 1549SOL     OW16105   2.064   3.766   0.032 -0.2037  0.0357 -0.0605
 1549SOL    HW116106   2.153   3.745   0.007 -0.4443 -0.4821 -0.4754
 1549SOL    HW216107   2.049   3.715   0.112 -0.9026 -0.1526 -0.3145
 1550SOL     OW16108   0.493   3.727  14.817  0.0622 -0.0594 -0.2531
 1550SOL    HW116109   0.557   3.769  14.874 -0.5964 -0.4899  0.8081
 1550SOL    HW216110   0.453   3.669  14.883  0.3888  1.5636  1.3766
 1551SOL     OW16111   0.039   3.749   1.033  0.0733 -0.5216 -0.3955
 1551SOL    HW116112   0.121   3.796   1.049 -0.7563  2.0544 -3.7396
 1551SOL    HW216113   4.693   3.813   1.046 -0.9144 -1.8192  0.6854
 1552SOL     OW16114   4.223   2.375   3.575 -0.4548  0.1894  0.2342
 1552SOL    HW116115   4.309   2.354   3.613 -0.3522 -2.0789 -1.2197
 1552SOL    HW216116   4.218   2.294   3.523  5.0644 -0.5619  0.8064
 1553SOL     OW16117   1.690   1.176   7.157 -0.7719  0.4132 -0.0693
 1553SOL    HW116118   1.735   1.121   7.221  0.1879  0.7656 -0.4388
 1553SOL    HW216119   1.765   1.195   7.101 -0.9143  2.1075  0.3103
 1554SOL     OW16120   1.370   0.938  14.144  0.0413  0.5832 -0.1241
 1554SOL    HW116121   1.297   0.996  14.121 -0.3455 -0.1717 -0.8129
 1554SOL    HW216122   1.335   0.852  14.120  0.7222  0.1169  0.5926
 1555SOL     OW16123   0.218   4.190   1.995 -0.2330  0.4567  0.0493
 1555SOL    HW116124   0.297   4.217   1.948  0.8154 -0.8120  1.0840
 1555SOL    HW216125   0.192   4.277   2.027  0.7993  0.7485  0.1080
 1556SOL     OW16126   0.101   0.030   6.599  0.1833  0.0021  0.0349
 1556SOL    HW116127   0.159   0.106   6.596  1.8559 -1.1648  2.0127
 1556SOL    HW216128   0.057   0.033   6.514 -2.0460 -0.2474  1.1720
 1557SOL     OW16129   4.189   0.819   4.651 -0.9563 -0.3691 -0.0190
 1557SOL    HW116130   4.161   0.853   4.736 -0.4849 -2.5031  1.0116
 1557SOL    HW216131   4.109   0.800   4.602  0.2954 -2.1447 -1.3941
 1558SOL     OW16132   4.662   0.398  15.522  0.2999  0.4540 -0.0662
 1558SOL    HW116133   4.673   0.349  15.603  1.1788  1.7844  0.6267
 1558SOL    HW216134   4.618   0.332  15.469  2.7533  0.1439 -1.7014
 1559SOL     OW16135   2.834   1.801   7.489 -1.1917 -0.5533 -1.0854
 1559SOL    HW116136   2.794   1.857   7.422 -1.3368  0.8044  0.1466
 1559SOL    HW216137   2.926   1.795   7.463 -0.4503  1.7217  1.0718
 1560SOL     OW16138   4.637   4.339   5.314  0.0106  0.6614 -0.2147
 1560SOL    HW116139   4.665   4.366   5.227 -0.8156  0.7954 -0.4365
 1560SOL    HW216140   4.580   4.264   5.296  0.0335  0.4768  0.4719
 1561SOL     OW16141   0.057   2.329   1.293  0.1962  0.0947  0.2529
 1561SOL    HW116142   0.014   2.255   1.250  0.0378  0.7100 -0.6527
 1561SOL    HW216143   4.706   2.359   1.342  0.5966  1.4707  0.0391
 1562SOL     OW16144   0.860   4.382   5.750  0.2625 -0.6954  0.7080
 1562SOL    HW116145   0.797   4.351   5.816 -2.0624 -2.0560 -2.1575
 1562SOL    HW216146   0.925   4.312   5.745  0.6001 -0.4957  2.2712
 1563SOL     OW16147   0.345   1.918   1.907  0.2765 -0.1453  0.3543
 1563SOL    HW116148   0.379   1.832   1.933 -0.0694 -0.5290 -0.4511
 1563SOL    HW216149   0.255   1.885   1.909  0.8962 -1.8883 -0.6579
 1564SOL     OW16150   3.030   1.240   2.299  0.0836 -0.5033  0.5135
 1564SOL    HW116151   3.024   1.157   2.347 -0.1373 -0.8095 -0.0479
 1564SOL    HW216152   2.943   1.277   2.313  0.6228  1.0274 -0.1901
 1565SOL     OW16153   0.800   1.640   1.711  0.0918 -0.3381 -0.5069
 1565SOL    HW116154   0.865   1.569   1.709  1.7717  1.2261 -1.2696
 1565SOL    HW216155   0.735   1.611   1.647  0.5844  2.5333 -2.3189
 1566SOL     OW16156   3.795   2.284   2.242 -0.4017 -0.1483 -0.0056
 1566SOL    HW116157   3.822   2.371   2.271  0.2377 -0.7645  1.2415
 1566SOL    HW216158   3.826   2.239   2.321  4.0570  0.7492 -1.2530
 1567SOL     OW16159   2.765   0.167   7.858 -0.0468 -0.3464 -0.2969
 1567SOL    HW116160   2.679   0.159   7.898  0.1854 -0.3151  0.2082
 1567SOL    HW216161   2.809   0.084   7.878  0.5174  0.1116  0.3448
 1568SOL     OW16162   2.725   3.145   9.788 -0.6612 -0.1927  0.8730
 1568SOL    HW116163   2.776   3.140   9.707 -1.9348  0.9514 -0.0058
 1568SOL    HW216164   2.779   3.096   9.850 -0.9769  1.3925  2.3818
 1569SOL     OW16165   1.964   1.816   7.486  0.1097 -0.1778 -0.2047
 1569SOL    HW116166   1.982   1.908   7.466 -0.0829 -0.0594  0.1676
 1569SOL    HW216167   1.962   1.769   7.403  0.0830 -0.5396  0.0006
 1570SOL     OW16168   0.566   1.091   3.037  0.8318  0.3838 -0.2639
 1570SOL    HW116169   0.594   1.062   3.124 -0.3001 -0.7773 -0.2842
 1570SOL    HW216170   0.570   1.008   2.989  1.2942 -0.0922  0.5939
 1571SOL     OW16171   3.541   1.769   4.278  0.2338  0.6627  0.5513
 1571SOL    HW116172   3.588   1.787   4.360 -1.7775 -1.0344  2.0834
 1571SOL    HW216173   3.594   1.695   4.247  0.0643  0.9797 -0.4706
 1572SOL     OW16174   2.219   2.525  16.365  0.1501 -0.5047  0.1072
 1572SOL    HW116175   2.238   2.542  16.457  0.2711 -1.0444  0.1829
 1572SOL    HW216176   2.138   2.576  16.364  1.8329  2.1947  1.5617
 1573SOL     OW16177   0.174   2.438   9.310 -0.1141 -0.1925  0.2942
 1573SOL    HW116178   0.260   2.479   9.307 -0.1735  0.0144  1.4686
 1573SOL    HW216179   0.127   2.494   9.372 -0.3153 -3.1023  2.7443
 1574SOL     OW16180   2.732   3.320   3.216  0.7920  0.5177 -0.0012
 1574SOL    HW116181   2.643   3.299   3.187  0.9484  0.7671 -0.6655
 1574SOL    HW216182   2.781   3.354   3.142  1.0876  1.8639  0.8115
 1575SOL     OW16183   1.984   3.286   2.862  0.2252 -0.5643 -0.1426
 1575SOL    HW116184   2.058   3.316   2.915  1.1052 -2.5564 -0.2412
 1575SOL    HW216185   2.023   3.278   2.775 -0.9315  0.4335 -0.7683
 1576SOL     OW16186   2.854   3.792   5.586 -1.0898 -0.0610 -0.6085
 1576SOL    HW116187   2.847   3.745   5.503  2.6590 -2.1429  0.2742
 1576SOL    HW216188   2.779   3.766   5.640  0.7752 -0.1048  1.9630
 1577SOL     OW16189   3.729   4.021  13.003 -0.0431  0.3527  0.3484
 1577SOL    HW116190   3.798   4.088  12.999 -0.8897  1.1631 -0.5089
 1577SOL    HW216191   3.675   4.057  12.933  0.4483  1.5428  0.5703
 1578SOL     OW16192   1.100   0.655   4.096 -0.2303 -0.3247 -0.0647
 1578SOL    HW116193   1.084   0.564   4.069 -0.0594  0.3235 -2.3059
 1578SOL    HW216194   1.182   0.673   4.050 -0.3597 -1.2337 -0.6551
 1579SOL     OW16195   0.728   0.787  15.112  0.4038  0.3761 -0.0653
 1579SOL    HW116196   0.723   0.838  15.193 -2.0333  0.7048 -0.4152
 1579SOL    HW216197   0.815   0.749  15.119 -0.2335 -0.8439  1.5497
 1580SOL     OW16198   0.222   1.526   8.205 -0.5039  0.1764 -0.0805
 1580SOL    HW116199   0.148   1.553   8.259  2.0452  1.0109  2.9706
 1580SOL    HW216200   0.290   1.491   8.262 -0.3238  1.4825  0.4963
 1581SOL     OW16201   1.815   0.795   1.907  0.2981 -0.2111  0.1362
 1581SOL    HW116202   1.791   0.754   1.990 -1.9820  1.4799  0.3250
 1581SOL    HW216203   1.904   0.765   1.890  0.8024  1.2329  0.2362
 1582SOL     OW16204   4.184   0.355   3.563 -0.0310  0.2330 -0.2045
 1582SOL    HW116205   4.262   0.314   3.526 -0.9137 -1.7973  0.1923
 1582SOL    HW216206   4.217   0.443   3.579 -0.4137  0.2275  0.6484
 1583SOL     OW16207   0.067   2.259   2.144 -0.4607  0.1857 -0.4200
 1583SOL    HW116208   4.709   2.307   2.130  0.2029  0.7161 -2.5614
 1583SOL    HW216209   0.134   2.301   2.091  0.8140 -2.4225 -0.8722
 1584SOL     OW16210   3.776   3.800   5.444  0.5581  0.3871  0.9376
 1584SOL    HW116211   3.746   3.768   5.358 -1.8985  1.4266  1.4256
 1584SOL    HW216212   3.800   3.887   5.411 -2.9870  0.5877 -1.0983
 1585SOL     OW16213   1.357   0.382  14.726 -0.0667  0.0962  0.0403
 1585SOL    HW116214   1.414   0.347  14.794 -0.1236  1.0101  0.5626
 1585SOL    HW216215   1.340   0.470  14.758 -0.0815  0.2393 -0.3580
 1586SOL     OW16216   2.192   0.222   8.706  0.6122 -0.2805  0.2352
 1586SOL    HW116217   2.217   0.215   8.798 -1.1427  0.3865  0.7518
 1586SOL    HW216218   2.099   0.242   8.718  0.4704 -1.1426  0.5885
 1587SOL     OW16219   4.723   3.041  10.006 -0.2417 -0.2384  0.5511
 1587SOL    HW116220   0.013   3.125  10.050  0.0180 -1.7931  3.4901
 1587SOL    HW216221   4.638   3.016  10.042 -0.3533  0.4836  0.7954
 1588SOL     OW16222   2.542   4.134   5.472  0.7865  0.2919  0.3747
 1588SOL    HW116223   2.630   4.146   5.508  1.1094 -1.2154  0.0787
 1588SOL    HW216224   2.565   4.148   5.380  0.2728  2.0745  0.5188
 1589SOL     OW16225   2.069   2.143   6.756 -0.4135 -0.0406  0.0801
 1589SOL    HW116226   2.158   2.136   6.723 -1.2012  0.8564 -2.1765
 1589SOL    HW216227   2.029   2.066   6.716 -0.0211 -1.4318  2.3190
 1590SOL     OW16228   2.518   3.082   1.199 -0.2885  0.4396  0.2056
 1590SOL    HW116229   2.531   3.174   1.223  0.5571 -0.1213  1.8517
 1590SOL    HW216230   2.423   3.080   1.216 -0.0200 -0.4065  1.5894
 1591SOL     OW16231   0.610   0.099   0.280 -0.7348 -0.1064 -0.5037
 1591SOL    HW116232   0.647   0.034   0.220  0.5052 -2.3339  2.6604
 1591SOL    HW216233   0.637   0.061   0.364  1.0879  0.7259 -0.7263
 1592SOL     OW16234   1.974   1.238   0.894 -0.5170  0.1540 -0.7541
 1592SOL    HW116235   2.048   1.179   0.910 -1.1139 -0.0648  1.1752
 1592SOL    HW216236   2.015   1.301   0.835  0.1494 -0.0714 -0.5392
 1593SOL     OW16237   3.055   0.330   5.886  0.5462  0.1551 -0.1821
 1593SOL    HW116238   3.069   0.399   5.951 -4.3295  2.1023 -1.1905
 1593SOL    HW216239   2.990   0.380   5.837 -1.1595  0.3230  2.2380
 1594SOL     OW16240   0.569   1.372  13.427  0.0221  0.2423  0.1765
 1594SOL    HW116241   0.654   1.405  13.457  0.5620 -1.6955  0.7275
 1594SOL    HW216242   0.596   1.328  13.346  1.7860 -0.2502  1.0343
 1595SOL     OW16243   4.006   4.230   3.648  0.0329  0.3263 -0.8528
 1595SOL    HW116244   4.077   4.238   3.585  0.4483  2.0601 -0.1625
 1595SOL    HW216245   3.960   4.158   3.604  1.2581 -0.3331 -1.0408
 1596SOL     OW16246   3.004   1.908  12.607 -0.3918 -0.2411 -0.1727
 1596SOL    HW116247   2.922   1.957  12.611  0.3586  0.9631  0.5537
 1596SOL    HW216248   3.026   1.921  12.700  1.2970  4.0268 -1.1543
 1597SOL     OW16249   2.643   2.096   3.379 -0.0238  0.2133  0.3416
 1597SOL    HW116250   2.671   2.177   3.336 -0.3506 -0.1697 -0.5957
 1597SOL    HW216251   2.661   2.108   3.472  0.9545 -0.5166  0.2451
 1598SOL     OW16252   0.790   0.537   3.930 -0.2009  0.0735  0.5379
 1598SOL    HW116253   0.816   0.571   3.844  0.5174 -1.3457  0.1922
 1598SOL    HW216254   0.706   0.579   3.946  0.7117  1.0876  2.6710
 1599SOL     OW16255   2.538   3.609   5.429 -0.3855 -1.0790  0.3229
 1599SOL    HW116256   2.562   3.577   5.516 -0.6164 -0.5697  0.5736
 1599SOL    HW216257   2.447   3.579   5.430 -1.3745  1.9759  3.5340
 1600SOL     OW16258   2.431   4.101   0.387  0.0211  0.4032  0.7061
 1600SOL    HW116259   2.516   4.122   0.349 -1.2719  1.9670 -1.2987
 1600SOL    HW216260   2.390   4.040   0.326  0.9156 -0.3677  0.8732
 1601SOL     OW16261   0.729   0.960  11.438  0.1669  0.2641  0.0887
 1601SOL    HW116262   0.818   0.943  11.469  0.7326  1.7223 -0.7396
 1601SOL    HW216263   0.708   0.885  11.382 -0.5991  0.4189  0.1576
 1602SOL     OW16264   3.600   2.490  11.658  0.0340  0.0042 -0.2473
 1602SOL    HW116265   3.673   2.451  11.612  1.2294  0.7018  1.0444
 1602SOL    HW216266   3.646   2.550  11.716 -1.3772  0.4721  0.4061
 1603SOL     OW16267   3.428   0.583   3.071 -0.2612 -0.1520  0.5366
 1603SOL    HW116268   3.442   0.539   2.987  2.5837 -0.4518  1.1851
 1603SOL    HW216269   3.403   0.673   3.049 -1.2800 -0.5589  0.0162
 1604SOL     OW16270   2.477   2.239   6.565  0.1461  0.2960 -0.2049
 1604SOL    HW116271   2.491   2.249   6.471  2.5455 -1.2307 -0.0293
 1604SOL    HW216272   2.483   2.329   6.596 -1.8267 -0.5394  2.5979
 1605SOL     OW16273   3.034   1.866   2.912 -0.0082  0.3038  0.2116
 1605SOL    HW116274   3.126   1.873   2.888  0.0629 -1.1817  0.0329
 1605SOL    HW216275   3.034   1.900   3.001 -0.7027 -0.7521  0.6139
 1606SOL     OW16276   2.623   1.017  10.822 -0.0853 -0.1097 -0.6181
 1606SOL    HW116277   2.585   1.084  10.879  0.1686  1.4919 -2.3442
 1606SOL    HW216278   2.647   1.072  10.747 -1.0392  0.6179 -0.3937
 1607SOL     OW16279   0.416   0.583   6.413 -0.1993 -0.2028  0.3254
 1607SOL    HW116280   0.418   0.638   6.335 -0.8042  0.5413  0.8304
 1607SOL    HW216281   0.334   0.618   6.449  0.5592  0.0133  1.8572
 1608SOL     OW16282   1.415   4.125   3.132 -0.2550  0.3642  0.0339
 1608SOL    HW116283   1.411   4.127   3.227  0.4694  2.2256  0.0290
 1608SOL    HW216284   1.509   4.140   3.118 -0.4904 -0.8387 -2.8425
 1609SOL     OW16285   1.360   0.947   8.887 -0.1319  0.0913 -0.0024
 1609SOL    HW116286   1.389   0.877   8.945 -0.7784  0.4965  0.8314
 1609SOL    HW216287   1.405   1.024   8.923  0.0224  0.1170 -0.2515
 1610SOL     OW16288   1.036   1.381   2.315  0.1763  0.0603 -0.2519
 1610SOL    HW116289   1.098   1.311   2.297  1.8786  1.6894 -0.7424
 1610SOL    HW216290   0.965   1.374   2.251  1.3849  0.8059 -1.6739
 1611SOL     OW16291   0.116   1.559   7.145  0.7255 -0.2223  0.1952
 1611SOL    HW116292   0.079   1.489   7.091  0.1190  2.0506 -2.3758
 1611SOL    HW216293   0.082   1.544   7.233 -0.4982 -0.0957 -0.2521
 1612SOL     OW16294   2.312   2.447  11.069 -0.3040 -0.1880 -0.2262
 1612SOL    HW116295   2.347   2.436  11.157  2.9921  1.7295 -1.3004
 1612SOL    HW216296   2.224   2.409  11.073  0.4218 -2.0984 -2.3871
 1613SOL     OW16297   3.137   4.013  15.712  0.4450  0.3906  0.5056
 1613SOL    HW116298   3.220   4.032  15.755  1.0399 -2.0805  0.4531
 1613SOL    HW216299   3.077   4.082  15.739 -1.4948 -0.8102 -0.7229
 1614SOL     OW16300   2.352   1.875   5.258  0.2714  0.8589  0.6600
 1614SOL    HW116301   2.383   1.807   5.199  1.3098  2.0675 -0.1919
 1614SOL    HW216302   2.420   1.890   5.323  0.2416  1.4930  0.5513
 1615SOL     OW16303   4.671   1.215   4.404  0.3633  0.2161 -0.1106
 1615SOL    HW116304   4.720   1.280   4.454  0.4570  0.6928 -0.8237
 1615SOL    HW216305   4.722   1.135   4.416 -0.4101 -0.2179  0.2180
 1616SOL     OW16306   0.563   1.586  14.950 -0.4750  0.0311 -0.3340
 1616SOL    HW116307   0.597   1.536  14.875  2.2949  0.0085  0.9712
 1616SOL    HW216308   0.580   1.676  14.924  0.7810  0.1649  0.9809
 1617SOL     OW16309   0.940   4.094   2.798  0.3059 -0.2432 -0.2488
 1617SOL    HW116310   0.875   4.161   2.774  1.1027  1.2408  1.7032
 1617SOL    HW216311   0.922   4.079   2.891 -1.3862  0.3477 -0.4755
 1618SOL     OW16312   1.420   2.534   8.224  0.2206 -0.9039 -0.1336
 1618SOL    HW116313   1.402   2.445   8.253 -0.1743  0.3581  3.4668
 1618SOL    HW216314   1.392   2.530   8.132  0.1200  4.4689 -0.3417
 1619SOL     OW16315   3.737   1.470   4.483  0.3820 -0.0966  0.1492
 1619SOL    HW116316   3.719   1.478   4.389 -1.5557  1.1144  0.6210
 1619SOL    HW216317   3.652   1.493   4.521  0.2307 -0.1808 -0.1289
 1620SOL     OW16318   2.534   4.253   6.689  0.1657 -0.4190 -0.9901
 1620SOL    HW116319   2.515   4.343   6.717 -1.9367 -1.0638 -0.3106
 1620SOL    HW216320   2.576   4.268   6.604 -0.9602  0.5543 -1.3806
 1621SOL     OW16321   2.036   3.030  17.058 -0.4927 -0.3585  0.2950
 1621SOL    HW116322   1.954   3.049  17.011  0.7510  1.2886 -1.1962
 1621SOL    HW216323   2.097   3.098  17.029 -1.3908  0.1505 -0.4173
 1622SOL     OW16324   3.533   2.334   0.314  0.0117  0.0920  0.2352
 1622SOL    HW116325   3.622   2.336   0.277  0.1112  0.2096  0.4821
 1622SOL    HW216326   3.490   2.269   0.259  2.0190 -0.6279 -0.4968
 1623SOL     OW16327   2.566   0.405   1.753  0.1329 -0.6004  0.0657
 1623SOL    HW116328   2.537   0.457   1.828 -0.6843  0.2264 -0.8287
 1623SOL    HW216329   2.487   0.367   1.714 -0.1256  1.2022 -1.1620
 1624SOL     OW16330   1.227   3.451   5.980 -0.2195 -0.1201  0.4218
 1624SOL    HW116331   1.271   3.514   5.923 -0.8125  0.0960  0.2040
 1624SOL    HW216332   1.190   3.506   6.049 -0.5013 -1.2822  1.2011
 1625SOL     OW16333   3.499   2.749   3.774 -0.1430 -0.0728 -0.1345
 1625SOL    HW116334   3.415   2.786   3.743 -0.4071 -0.8700 -0.3676
 1625SOL    HW216335   3.566   2.813   3.750  0.0647  0.2263  1.2737
 1626SOL     OW16336   0.459   0.158   5.041  0.1685 -0.4260 -0.4377
 1626SOL    HW116337   0.402   0.146   4.965  1.0329  1.5411 -1.3927
 1626SOL    HW216338   0.532   0.097   5.036  0.0957 -0.3822 -2.0730
 1627SOL     OW16339   3.719   0.194   7.524  0.0655 -0.0624  0.5083
 1627SOL    HW116340   3.654   0.134   7.487  0.9809 -0.4098 -0.5413
 1627SOL    HW216341   3.745   0.143   7.601  0.5209 -1.2013 -0.3941
 1628SOL     OW16342   1.932   0.538  17.307  0.2114 -0.8485  0.0079
 1628SOL    HW116343   1.909   0.535  17.214  1.9882  3.2216 -0.5856
 1628SOL    HW216344   1.920   0.444  17.320 -0.9711 -0.7909 -0.6425
 1629SOL     OW16345   1.929   4.200   8.778 -0.1641  0.1901  0.4729
 1629SOL    HW116346   1.990   4.252   8.726 -0.3379 -1.0915 -1.0051
 1629SOL    HW216347   1.943   4.248   8.860 -0.6508 -0.1052  0.7337
 1630SOL     OW16348   1.557   0.227   2.322  0.2760 -0.4166 -0.3337
 1630SOL    HW116349   1.476   0.273   2.303  1.3903  2.1257  1.0240
 1630SOL    HW216350   1.588   0.291   2.386 -0.4452 -1.6489  1.2501
 1631SOL     OW16351   1.025   3.168   6.122  0.9446 -0.0179 -0.6030
 1631SOL    HW116352   1.096   3.106   6.108  0.8035 -0.3390  0.1424
 1631SOL    HW216353   0.957   3.101   6.128  0.2688  0.6945 -0.2792
 1632SOL     OW16354   3.990   1.593   3.262  0.2693  0.0220  0.1247
 1632SOL    HW116355   4.007   1.684   3.235 -0.2085  0.6677  2.0244
 1632SOL    HW216356   3.976   1.547   3.179  0.3961  1.7824 -0.8965
 1633SOL     OW16357   1.872   2.747   7.702 -0.0949 -0.0592 -0.2360
 1633SOL    HW116358   1.943   2.812   7.707  1.9691 -2.2827 -0.3499
 1633SOL    HW216359   1.934   2.674   7.694 -0.4982 -0.5200  0.8151
 1634SOL     OW16360   2.186   1.006   4.730  0.4003  0.1196 -0.0966
 1634SOL    HW116361   2.139   0.970   4.655  2.9900  0.0996 -1.7016
 1634SOL    HW216362   2.274   1.034   4.705  1.4436 -1.8680  1.3575
 1635SOL     OW16363   0.436   4.479   7.093  0.6863 -0.2066  0.0421
 1635SOL    HW116364   0.440   4.384   7.108  1.3339 -0.3477 -1.0098
 1635SOL    HW216365   0.429   4.507   7.184  3.1100  1.6319 -0.3483
 1636SOL     OW16366   3.201   1.238  10.014 -0.5231  0.2636  0.5934
 1636SOL    HW116367   3.201   1.318   9.961  0.3260  1.4326  2.3621
 1636SOL    HW216368   3.168   1.172   9.953  1.1989  1.2051 -1.3650
 1637SOL     OW16369   0.444   3.195  15.356  0.1741  0.1035 -0.2417
 1637SOL    HW116370   0.467   3.121  15.413  0.0448 -0.7528 -1.2882
 1637SOL    HW216371   0.381   3.153  15.297 -0.7201 -1.8450  2.0986
 1638SOL     OW16372   1.103   2.166   4.978  0.2379  0.2326 -0.4765
 1638SOL    HW116373   1.184   2.129   4.943 -0.1803 -0.6441 -0.5283
 1638SOL    HW216374   1.070   2.188   4.891 -0.0662 -0.3414 -0.5087
 1639SOL     OW16375   3.995   0.844   7.910  0.6469 -0.1261  0.3775
 1639SOL    HW116376   3.941   0.818   7.835 -1.1078  2.2442  0.7897
 1639SOL    HW216377   4.076   0.830   7.862  1.1697  0.3238  1.1392
 1640SOL     OW16378   2.136   1.402   0.011 -0.2447  0.4031  0.6186
 1640SOL    HW116379   2.043   1.386  17.693  0.1096 -0.6354 -0.2974
 1640SOL    HW216380   2.157   1.486  17.669  3.2764 -0.3609  0.8211
 1641SOL     OW16381   2.374   4.301   3.010  0.0275 -0.1013 -0.1461
 1641SOL    HW116382   2.287   4.340   2.998  0.0595 -0.7244 -2.4272
 1641SOL    HW216383   2.346   4.210   3.007  1.2737 -0.4852 -0.0871
 1642SOL     OW16384   2.721   0.070   4.650 -0.1976  0.4538 -0.1828
 1642SOL    HW116385   2.755   4.705   4.656 -3.2163 -0.7009 -0.3639
 1642SOL    HW216386   2.727   0.089   4.556 -0.4892  2.4991  0.2212
 1643SOL     OW16387   1.454   1.412   7.958 -0.1353 -0.1684 -0.5411
 1643SOL    HW116388   1.398   1.488   7.973 -0.0268  0.2736 -2.3698
 1643SOL    HW216389   1.536   1.451   7.926 -0.7636  1.6022  0.0160
 1644SOL     OW16390   3.478   2.429   8.538  0.1597  0.0748 -0.1703
 1644SOL    HW116391   3.470   2.445   8.633  0.4593  2.0013 -0.4657
 1644SOL    HW216392   3.448   2.508   8.492  0.1999 -0.0426 -0.3950
 1645SOL     OW16393   3.998   2.133   3.145 -0.1275 -0.1548  0.5319
 1645SOL    HW116394   4.051   2.190   3.090 -0.5494  0.3626  0.6637
 1645SOL    HW216395   3.916   2.142   3.097  0.9422  0.3667 -1.2095
 1646SOL     OW16396   2.541   1.368   8.458  0.6027  0.2176  0.0047
 1646SOL    HW116397   2.526   1.393   8.549 -0.6121  0.0880 -0.1670
 1646SOL    HW216398   2.536   1.273   8.466 -2.2071  0.2776 -0.9090
 1647SOL     OW16399   0.849   0.141   3.145 -0.0688  0.4058 -0.1812
 1647SOL    HW116400   0.785   0.074   3.122  0.9568 -0.2168 -1.2563
 1647SOL    HW216401   0.886   0.087   3.215 -1.8081  0.4716  0.7743
 1648SOL     OW16402   3.951   0.564   1.236 -0.5519 -0.1578  0.1179
 1648SOL    HW116403   3.873   0.514   1.262 -0.4807 -1.1966 -1.6926
 1648SOL    HW216404   3.929   0.589   1.147 -1.0289 -1.4645 -0.1194
 1649SOL     OW16405   2.012   0.810   5.005 -0.1860  0.1152 -0.5155
 1649SOL    HW116406   2.036   0.902   5.017  0.3460  0.0390 -1.0277
 1649SOL    HW216407   1.991   0.792   5.097  1.0677 -1.4703 -0.5490
 1650SOL     OW16408   0.592   1.964   5.174  0.0613  0.2124 -0.2562
 1650SOL    HW116409   0.560   1.986   5.087 -0.8362  2.0056  0.5217
 1650SOL    HW216410   0.680   1.934   5.150 -0.5446  1.1075 -3.6048
 1651SOL     OW16411   2.055   3.649   0.586 -0.2798  0.3611  0.0540
 1651SOL    HW116412   2.103   3.728   0.562  0.0885  0.3481  0.7458
 1651SOL    HW216413   1.986   3.637   0.521  0.5399 -0.4820 -0.6565
 1652SOL     OW16414   2.870   0.860  10.779  0.2322  0.1352 -0.6005
 1652SOL    HW116415   2.785   0.899  10.803 -1.0963 -3.2077  0.1070
 1652SOL    HW216416   2.908   0.828  10.861  0.3835  1.7424 -0.0383
 1653SOL     OW16417   4.603   0.719   8.703  0.3122  0.3626 -0.0332
 1653SOL    HW116418   4.630   0.677   8.784 -0.6901 -0.4074 -0.0988
 1653SOL    HW216419   4.560   0.801   8.729  0.5998  0.8951 -1.2279
 1654SOL     OW16420   2.520   0.530   8.463  0.2515  0.3245 -0.3538
 1654SOL    HW116421   2.463   0.457   8.440  0.8278  0.0720 -0.9814
 1654SOL    HW216422   2.501   0.557   8.553 -0.7832 -0.1327 -0.4320
 1655SOL     OW16423   0.279   2.270  10.749 -0.6875 -0.2245 -0.2678
 1655SOL    HW116424   0.339   2.240  10.681 -0.6868 -0.2595 -0.2516
 1655SOL    HW216425   0.259   2.359  10.719 -1.5406 -1.0907 -2.2765
 1656SOL     OW16426   1.565   3.306   3.285  0.2763  0.0855 -0.8100
 1656SOL    HW116427   1.531   3.340   3.202  1.2197  0.4070 -1.0595
 1656SOL    HW216428   1.654   3.285   3.259  0.1281 -2.1170  0.4298
 1657SOL     OW16429   3.855   0.626   4.796  0.3095  0.2492 -0.0122
 1657SOL    HW116430   3.884   0.700   4.744 -1.7685  1.5841  0.7107
 1657SOL    HW216431   3.762   0.613   4.774  0.5885  2.1332 -2.2082
 1658SOL     OW16432   3.074   0.719   7.105  0.0458 -0.0321  0.7698
 1658SOL    HW116433   3.154   0.685   7.144  0.2981  0.3900  0.6234
 1658SOL    HW216434   3.009   0.699   7.172 -0.1189  1.3523  1.0237
 1659SOL     OW16435   0.391   0.671  13.820  0.4499 -0.1449 -0.2358
 1659SOL    HW116436   0.305   0.666  13.778 -0.2952 -1.0304  1.3940
 1659SOL    HW216437   0.457   0.691  13.754 -0.0966  2.2632 -0.0381
 1660SOL     OW16438   4.422   0.923   8.778 -0.3908 -0.6862 -0.5240
 1660SOL    HW116439   4.347   0.897   8.724 -1.5683  0.2438  0.6665
 1660SOL    HW216440   4.399   1.010   8.808  0.8934 -0.6506  0.3589
 1661SOL     OW16441   0.684   1.466   4.832 -0.4600 -0.6244 -0.1933
 1661SOL    HW116442   0.621   1.536   4.818  0.9757  0.7879  0.3943
 1661SOL    HW216443   0.724   1.505   4.909 -2.2667  0.9738 -0.0748
 1662SOL     OW16444   3.111   4.331  11.744 -0.3250  0.7244  0.5313
 1662SOL    HW116445   3.096   4.242  11.776  1.4692  0.4619  0.6651
 1662SOL    HW216446   3.180   4.311  11.681  1.0626 -0.5733  2.4682
 1663SOL     OW16447   4.325   2.153  14.512 -0.0690 -0.2143  0.2490
 1663SOL    HW116448   4.373   2.141  14.594 -0.1638 -0.6912  0.2333
 1663SOL    HW216449   4.234   2.139  14.538  0.1052 -0.5890  0.6508
 1664SOL     OW16450   3.886   1.401   0.125 -0.0953  0.2310  0.0917
 1664SOL    HW116451   3.960   1.342   0.140  0.3679  0.8420  0.2331
 1664SOL    HW216452   3.921   1.451   0.051 -1.3199 -0.0993 -0.7203
 1665SOL     OW16453   2.908   1.776   3.484  0.0885 -0.1360  0.4049
 1665SOL    HW116454   2.941   1.688   3.501  1.8728  0.5713  0.6371
 1665SOL    HW216455   2.968   1.826   3.540 -0.4892  2.2232 -1.0572
 1666SOL     OW16456   4.115   3.024   8.792  0.2216  0.2941  0.0589
 1666SOL    HW116457   4.098   3.107   8.838  0.7437  0.8516 -0.7656
 1666SOL    HW216458   4.202   3.004   8.825 -0.1237 -2.0201 -0.4792
 1667SOL     OW16459   0.158   1.807  14.074  0.3039 -0.4224 -0.3701
 1667SOL    HW116460   0.151   1.734  14.011  2.5690 -0.1836 -0.8996
 1667SOL    HW216461   0.121   1.876  14.018 -1.2223 -0.8577  0.1094
 1668SOL     OW16462   4.217   3.997   1.824  0.6891  0.1226 -0.5514
 1668SOL    HW116463   4.238   3.918   1.873 -0.3936  0.3648  0.3133
 1668SOL    HW216464   4.150   3.962   1.765  1.2944 -0.5235 -0.8522
 1669SOL     OW16465   2.330   1.807   3.220 -0.2807 -0.2612  0.3045
 1669SOL    HW116466   2.394   1.878   3.223 -1.6514  1.0507 -1.1593
 1669SOL    HW216467   2.288   1.815   3.305  1.0202  0.0456  0.9085
 1670SOL     OW16468   1.117   1.222   6.087 -0.0152  0.0653  0.1370
 1670SOL    HW116469   1.060   1.182   6.022 -0.4576 -1.2084  1.3272
 1670SOL    HW216470   1.129   1.310   6.050 -3.1811  0.2369 -0.4619
 1671SOL     OW16471   1.592   3.169   7.054  0.2359 -0.2339  0.2750
 1671SOL    HW116472   1.520   3.219   7.092 -0.0252 -0.8046  0.5350
 1671SOL    HW216473   1.547   3.126   6.981  0.6796 -0.2409  0.0057
 1672SOL     OW16474   3.751   2.489   3.595 -0.4514 -0.1515  0.7133
 1672SOL    HW116475   3.744   2.487   3.690 -2.6594 -2.4954  0.4992
 1672SOL    HW216476   3.843   2.516   3.590 -0.2470 -0.5390  2.5182
 1673SOL     OW16477   1.847   2.206  16.267 -0.2330  0.7666 -0.5542
 1673SOL    HW116478   1.773   2.257  16.299 -2.1673 -0.6687 -2.7295
 1673SOL    HW216479   1.927   2.245  16.303  1.0648 -1.2122 -1.2805
 1674SOL     OW16480   1.000   0.880   5.947 -0.0287  0.0933  0.3417
 1674SOL    HW116481   1.029   0.790   5.961 -1.5839 -0.0014  3.0261
 1674SOL    HW216482   1.049   0.900   5.867 -0.9493  0.6382 -0.0818
 1675SOL     OW16483   4.379   0.116   9.488  0.1656 -0.2695  0.0586
 1675SOL    HW116484   4.410   0.042   9.435 -0.2421 -0.7892  0.5461
 1675SOL    HW216485   4.437   0.118   9.564  0.1569  2.2089 -0.0036
 1676SOL     OW16486   1.787   0.127   9.585 -0.1799  0.2292 -0.1808
 1676SOL    HW116487   1.750   0.100   9.669  1.4657  2.0776  1.1490
 1676SOL    HW216488   1.879   0.102   9.600  0.0399 -0.5801 -2.8192
 1677SOL     OW16489   2.568   0.028   2.235 -0.5730  0.5302 -0.5392
 1677SOL    HW116490   2.536   0.118   2.228  1.8991  1.5049  0.5829
 1677SOL    HW216491   2.515   4.713   2.304  1.9095 -0.6419  0.7111
 1678SOL     OW16492   4.437   4.278   0.394 -0.0095  0.5250  0.4382
 1678SOL    HW116493   4.344   4.258   0.391  0.2564 -0.3548 -1.4868
 1678SOL    HW216494   4.466   4.197   0.353 -0.4662  0.7960 -0.4318
 1679SOL     OW16495   2.079   0.581   2.477 -0.1149  0.4023 -0.0950
 1679SOL    HW116496   2.056   0.503   2.427  0.7366  0.1970 -0.1653
 1679SOL    HW216497   2.017   0.582   2.550  0.9031 -1.5878  0.7915
 1680SOL     OW16498   1.670   3.015  13.293 -0.9445  0.1155 -0.2869
 1680SOL    HW116499   1.709   3.042  13.376 -2.6961  1.7733 -0.0061
 1680SOL    HW216500   1.723   3.069  13.235 -1.0757 -1.0599 -1.5059
 1681SOL     OW16501   0.920   0.603   2.142 -0.0849 -0.0846  0.2472
 1681SOL    HW116502   0.939   0.534   2.078 -0.0645  0.8800 -0.7680
 1681SOL    HW216503   0.850   0.648   2.097 -0.2438 -0.5244  0.0506
 1682SOL     OW16504   3.012   1.421  14.242 -0.1475  0.2757 -0.7446
 1682SOL    HW116505   3.063   1.397  14.164 -2.9481 -1.2173 -2.1150
 1682SOL    HW216506   2.992   1.337  14.282  1.0975  0.2298 -0.2286
 1683SOL     OW16507   2.982   0.411   7.822  0.0006  0.3174 -0.2804
 1683SOL    HW116508   3.046   0.341   7.810  1.2878  1.6702 -1.3197
 1683SOL    HW216509   2.900   0.369   7.796  0.7054 -0.8146 -0.6757
 1684SOL     OW16510   3.366   3.056  12.684 -0.1558 -0.1903  0.4504
 1684SOL    HW116511   3.388   2.982  12.626  0.8779 -0.6410  1.4236
 1684SOL    HW216512   3.450   3.085  12.721 -0.9736  2.6775  0.0744
 1685SOL     OW16513   0.797   2.512  15.455 -0.1195  0.1560  0.4860
 1685SOL    HW116514   0.767   2.533  15.544 -1.7503  0.9835 -0.2510
 1685SOL    HW216515   0.891   2.512  15.472 -0.2873  2.6042  1.4378
 1686SOL     OW16516   2.175   4.668  11.908  0.0896  0.1550 -0.1203
 1686SOL    HW116517   2.103   4.657  11.970  0.3611 -0.6490  0.0483
 1686SOL    HW216518   2.148   0.017  11.853  3.5260  1.0120 -0.6592
 1687SOL     OW16519   0.447   3.547   3.638 -0.0864  0.2285 -0.0922
 1687SOL    HW116520   0.426   3.455   3.651 -0.3713  0.4102  0.7349
 1687SOL    HW216521   0.539   3.543   3.663 -0.2019 -1.0196  0.1234
 1688SOL     OW16522   0.865   1.354   1.910 -0.4089  0.0206  0.0156
 1688SOL    HW116523   0.958   1.331   1.904 -0.5809 -0.3217 -1.2469
 1688SOL    HW216524   0.819   1.276   1.880  1.1445 -1.3692  1.1832
 1689SOL     OW16525   2.147   2.627   4.703 -0.1879 -0.0333 -0.4006
 1689SOL    HW116526   2.242   2.627   4.701 -0.1799  0.3820 -0.0063
 1689SOL    HW216527   2.130   2.714   4.740  0.0366  1.1975 -3.1291
 1690SOL     OW16528   4.662   3.306  13.644  0.8352  0.5572  0.5761
 1690SOL    HW116529   4.617   3.335  13.565  0.5217 -0.6985  0.2912
 1690SOL    HW216530   4.593   3.272  13.701  1.7858  0.4156  1.6457
 1691SOL     OW16531   2.236   1.585  13.328 -0.2705  0.1754 -0.3718
 1691SOL    HW116532   2.141   1.591  13.323 -0.4057  0.5887  3.1707
 1691SOL    HW216533   2.253   1.607  13.419  0.8092  0.5307 -0.6497
 1692SOL     OW16534   3.785   1.431   6.419  0.6561  0.1122 -0.2684
 1692SOL    HW116535   3.836   1.447   6.339 -1.3159 -0.7720 -1.6982
 1692SOL    HW216536   3.862   1.395   6.464  0.0447  0.5170  1.0763
 1693SOL     OW16537   3.780   3.434   3.804  0.4667  0.1829  0.4484
 1693SOL    HW116538   3.793   3.487   3.882  1.3735  0.0277  0.4005
 1693SOL    HW216539   3.862   3.454   3.759 -0.2754  0.1926 -0.9043
 1694SOL     OW16540   1.326   4.280  17.146  0.3723  0.4032  0.3253
 1694SOL    HW116541   1.349   4.334  17.070 -0.8787  2.2239  1.2216
 1694SOL    HW216542   1.231   4.275  17.132  0.3031 -1.5687  1.5847
 1695SOL     OW16543   0.912   3.664   8.188  0.4036 -0.5901 -0.1424
 1695SOL    HW116544   0.822   3.633   8.195  1.4062 -2.8226  2.5443
 1695SOL    HW216545   0.955   3.594   8.139  1.1178 -0.3202  0.0883
 1696SOL     OW16546   0.310   4.413  10.676 -0.2338 -0.1386 -0.2842
 1696SOL    HW116547   0.301   4.389  10.768  0.0366 -0.2463 -0.2878
 1696SOL    HW216548   0.369   4.488  10.683 -0.0532 -0.3557  0.5776
 1697SOL     OW16549   2.235   4.666  10.879 -0.3774  0.2967  0.8653
 1697SOL    HW116550   2.154   4.694  10.922 -1.1712  2.2898 -1.8977
 1697SOL    HW216551   2.299   4.652  10.948  2.0043  1.8351 -0.9967
 1698SOL     OW16552   1.793   3.780   3.637 -0.5596  0.0020 -0.1311
 1698SOL    HW116553   1.817   3.753   3.726  2.3816  0.1260 -0.8756
 1698SOL    HW216554   1.699   3.790   3.646 -0.0502  3.1864  1.7000
 1699SOL     OW16555   4.700   0.712  13.715  0.2817 -0.3411 -0.1706
 1699SOL    HW116556   0.020   0.790  13.682  1.3989 -2.1974 -3.1050
 1699SOL    HW216557   4.699   0.727  13.809  1.5586 -0.6955 -0.1040
 1700SOL     OW16558   1.955   0.299   6.257 -0.2068 -0.4644 -0.0505
 1700SOL    HW116559   2.006   0.246   6.318  0.4981  0.8422  0.4919
 1700SOL    HW216560   1.947   0.256   6.171  1.4160  2.4603 -1.6759
 1701SOL     OW16561   1.964   4.161  17.658 -0.4222  0.7574 -0.7913
 1701SOL    HW116562   1.994   4.143   0.048 -2.3012 -0.3920 -0.4013
 1701SOL    HW216563   2.005   4.247  17.646  1.6748  0.1380  1.6881
 1702SOL     OW16564   3.684   2.353   4.846 -0.0927 -0.3874  0.0424
 1702SOL    HW116565   3.645   2.433   4.882  0.5917 -0.2743  0.5240
 1702SOL    HW216566   3.748   2.400   4.792 -0.0049 -1.6472 -0.9347
 1703SOL     OW16567   3.348   0.595   1.421 -0.1350 -0.2246  0.4629
 1703SOL    HW116568   3.291   0.536   1.372 -0.8959  0.5216  0.4389
 1703SOL    HW216569   3.306   0.680   1.431 -0.5902 -0.3470 -0.4483
 1704SOL     OW16570   2.615   3.409   2.107 -0.1188 -0.0887 -0.0763
 1704SOL    HW116571   2.558   3.347   2.152  1.0504  0.2726  1.8787
 1704SOL    HW216572   2.559   3.439   2.035  0.1157 -1.6989 -0.9280
 1705SOL     OW16573   3.650   2.385   7.854  0.7124 -0.7652 -0.1118
 1705SOL    HW116574   3.580   2.355   7.912  1.2017 -3.1490 -0.7704
 1705SOL    HW216575   3.610   2.415   7.773 -0.8476 -0.0824  0.9265
 1706SOL     OW16576   4.495   2.821   8.720 -0.2442 -0.2861  0.0357
 1706SOL    HW116577   4.476   2.811   8.814 -1.8234  2.4235 -0.0034
 1706SOL    HW216578   4.501   2.915   8.709 -0.2461 -0.0952  1.7333
 1707SOL     OW16579   2.307   3.551   9.348  0.1854 -0.1150 -0.4622
 1707SOL    HW116580   2.393   3.525   9.316  0.9442  0.6824  0.9364
 1707SOL    HW216581   2.246   3.480   9.325  0.8038 -1.3695  1.7149
 1708SOL     OW16582   1.396   3.973   7.553  0.1594  0.0440 -0.6819
 1708SOL    HW116583   1.351   4.011   7.629  0.5957  2.5550 -1.6629
 1708SOL    HW216584   1.467   4.036   7.537 -1.9035  3.0516  2.0198
 1709SOL     OW16585   2.801   0.567   5.222  0.3789  0.4039 -0.0877
 1709SOL    HW116586   2.858   0.639   5.197  1.1886 -0.7266 -1.4391
 1709SOL    HW216587   2.842   0.527   5.299 -1.7078 -0.8718  0.3739
 1710SOL     OW16588   4.272   3.322   8.679 -0.1364 -0.2256 -0.2787
 1710SOL    HW116589   4.224   3.282   8.606 -0.1382  0.1670 -0.4896
 1710SOL    HW216590   4.220   3.295   8.755 -1.1215 -0.7735 -1.1407
 1711SOL     OW16591   1.876   1.759   5.320 -0.2717 -0.1613 -0.0041
 1711SOL    HW116592   1.783   1.741   5.304 -0.0723 -1.1756 -0.0129
 1711SOL    HW216593   1.864   1.817   5.395 -1.5601  0.3855 -0.6360
 1712SOL     OW16594   1.432   2.098   7.727  0.8126  0.0359  0.0632
 1712SOL    HW116595   1.344   2.131   7.743  0.6190 -0.3061 -0.3039
 1712SOL    HW216596   1.400   2.046   7.653 -1.8329  0.3203  0.9964
 1713SOL     OW16597   4.236   2.276   5.206  0.1982 -0.5604  0.2531
 1713SOL    HW116598   4.304   2.238   5.262  0.6712  0.9090  0.6685
 1713SOL    HW216599   4.184   2.318   5.274  0.8018  1.8397 -0.7759
 1714SOL     OW16600   0.280   0.440   7.342  0.0714 -0.2293 -0.4067
 1714SOL    HW116601   0.268   0.495   7.420  1.9722  1.9414 -1.6233
 1714SOL    HW216602   0.358   0.389   7.366  0.4390  0.3693 -0.3237
 1715SOL     OW16603   3.361   2.307   6.876 -0.0378 -0.3058 -0.2775
 1715SOL    HW116604   3.311   2.238   6.918 -1.1525  1.3562  1.1393
 1715SOL    HW216605   3.443   2.258   6.867 -0.0477 -0.2525 -0.6531
 1716SOL     OW16606   0.829   0.172   5.821 -0.0140 -0.2998  0.0916
 1716SOL    HW116607   0.833   0.082   5.788 -1.8126 -0.5897  0.6692
 1716SOL    HW216608   0.784   0.221   5.752 -0.0186 -0.5961 -0.1187
 1717SOL     OW16609   1.120   1.883  10.557  0.5194 -0.2515  0.0244
 1717SOL    HW116610   1.148   1.793  10.540  0.5244 -0.8757  3.4020
 1717SOL    HW216611   1.203   1.922  10.584  0.7322 -0.0552 -0.9209
 1718SOL     OW16612   0.136   3.242   4.535  0.2496  0.1718 -0.0597
 1718SOL    HW116613   0.147   3.155   4.573  3.1273  0.4191 -0.2969
 1718SOL    HW216614   0.145   3.218   4.443 -0.5586  0.8567 -0.3179
 1719SOL     OW16615   3.235   2.045   1.615 -0.4682 -0.0410 -0.2096
 1719SOL    HW116616   3.272   2.097   1.686 -4.3738 -0.7166  2.3413
 1719SOL    HW216617   3.295   1.971   1.608 -0.4689  0.1180 -1.7871
 1720SOL     OW16618   0.556   3.589   7.381  0.3704  0.1996  0.0531
 1720SOL    HW116619   0.515   3.660   7.332 -0.5299 -0.5233 -0.2508
 1720SOL    HW216620   0.594   3.630   7.458  0.7365  0.5650 -0.3215
 1721SOL     OW16621   3.764   4.023   6.903  0.1628  0.3768 -0.5388
 1721SOL    HW116622   3.819   3.991   6.831 -0.4514  1.3374 -1.4263
 1721SOL    HW216623   3.749   3.947   6.960 -2.7477  1.3799  0.0294
 1722SOL     OW16624   3.943   2.060   6.533  0.1564  0.3263 -0.7791
 1722SOL    HW116625   3.929   1.971   6.501 -1.1980  0.0611  0.5699
 1722SOL    HW216626   3.904   2.046   6.620 -0.3702  1.5744 -0.8218
 1723SOL     OW16627   2.211   3.864   9.510  0.0645  0.8605  0.0026
 1723SOL    HW116628   2.306   3.873   9.517  0.0794  0.9944 -0.3440
 1723SOL    HW216629   2.178   3.917   9.581 -1.0058  2.2094 -1.5002
 1724SOL     OW16630   4.328   3.089   9.002 -0.5089 -0.3952 -0.9690
 1724SOL    HW116631   4.267   3.025   9.039 -1.9754  2.6464  1.8188
 1724SOL    HW216632   4.319   3.139   9.083  1.6288 -0.5634 -0.6205
 1725SOL     OW16633   0.738   1.734   7.707 -0.7720 -0.0889  0.0656
 1725SOL    HW116634   0.654   1.779   7.707 -0.7675 -0.0781  1.2156
 1725SOL    HW216635   0.711   1.644   7.721  0.1335 -0.3965 -0.1539
 1726SOL     OW16636   4.720   4.245   1.022  0.5148  0.3807 -0.1754
 1726SOL    HW116637   0.078   4.205   1.051  0.0065  0.9843  2.0873
 1726SOL    HW216638   4.670   4.257   1.103  0.6876 -0.4301  0.0553
 1727SOL     OW16639   4.055   1.244   7.225 -0.2060 -0.1739  0.3829
 1727SOL    HW116640   4.106   1.322   7.244  0.3176 -0.7954  1.5131
 1727SOL    HW216641   4.006   1.283   7.153  1.8020 -1.0003 -1.4460
 1728SOL     OW16642   2.363   1.717   9.048 -0.6256  0.2154  0.1700
 1728SOL    HW116643   2.412   1.637   9.067  1.0079  0.7094 -1.9594
 1728SOL    HW216644   2.429   1.785   9.063 -1.1754  0.8178 -0.1956
 1729SOL     OW16645   1.468   0.367   2.715  0.4375 -0.0903  0.2798
 1729SOL    HW116646   1.548   0.373   2.663  0.7486  1.6251  0.9525
 1729SOL    HW216647   1.423   0.289   2.683 -0.4238  0.8039 -0.7009
 1730SOL     OW16648   0.678   0.325   5.577  0.4012  0.1033  0.2442
 1730SOL    HW116649   0.631   0.358   5.654  0.4995  2.4126 -0.6777
 1730SOL    HW216650   0.599   0.315   5.524  0.3115  1.4958  0.1005
 1731SOL     OW16651   1.565   3.862   6.662 -0.6441  0.2996  0.1322
 1731SOL    HW116652   1.554   3.919   6.737 -0.4095 -1.2588  1.3660
 1731SOL    HW216653   1.514   3.784   6.683 -0.8527  0.9683  2.1066
 1732SOL     OW16654   3.754   2.436   8.497  0.2748  0.1626 -0.3901
 1732SOL    HW116655   3.784   2.350   8.525 -1.1721 -0.7119 -1.5679
 1732SOL    HW216656   3.660   2.433   8.480  0.1876 -0.2938  0.1799
 1733SOL     OW16657   2.296   2.930   2.837  0.4101  0.2227 -0.6122
 1733SOL    HW116658   2.348   3.010   2.849 -1.2245  1.1478  0.2600
 1733SOL    HW216659   2.214   2.968   2.808  0.7498  1.1177 -0.4050
 1734SOL     OW16660   0.245   2.439   2.332 -0.1059  0.3804 -0.3652
 1734SOL    HW116661   0.322   2.485   2.297  0.5891 -0.6859 -0.2355
 1734SOL    HW216662   0.235   2.470   2.422 -0.0937 -1.9164  0.4432
 1735SOL     OW16663   3.222   3.359   8.796  0.4141  0.1565  0.3650
 1735SOL    HW116664   3.201   3.267   8.784 -0.3021  0.1287  1.7919
 1735SOL    HW216665   3.171   3.399   8.726 -0.6487  1.5215  1.9201
 1736SOL     OW16666   1.147   1.447   1.254 -0.1427  0.3692  0.6187
 1736SOL    HW116667   1.206   1.517   1.282  0.1180  0.9760 -1.4992
 1736SOL    HW216668   1.202   1.383   1.208  1.7170  1.7984  0.8699
 1737SOL     OW16669   0.130   3.817   3.572  0.2805 -0.2422  0.4421
 1737SOL    HW116670   0.073   3.865   3.632  0.5542  1.5529 -0.7096
 1737SOL    HW216671   0.117   3.731   3.610  1.6774 -1.0246 -0.8668
 1738SOL     OW16672   2.704   3.223  10.115  0.0252 -0.4739  0.2232
 1738SOL    HW116673   2.703   3.127  10.124  0.2898 -0.4332  0.6967
 1738SOL    HW216674   2.613   3.251  10.119 -0.1494 -0.8596 -0.9686
 1739SOL     OW16675   0.194   2.793   4.787  0.0202  0.1484  0.3571
 1739SOL    HW116676   0.264   2.738   4.751 -1.5003 -1.4719 -0.1763
 1739SOL    HW216677   0.223   2.883   4.770  1.3185  0.0115  1.9063
 1740SOL     OW16678   0.267   4.439  11.836 -0.1766  0.1752  0.2620
 1740SOL    HW116679   0.253   4.459  11.743 -0.8893 -0.9493  0.1305
 1740SOL    HW216680   0.186   4.399  11.867 -0.2558 -0.2496 -0.5002
 1741SOL     OW16681   2.740   3.989   7.898  0.0947 -0.4375  0.1218
 1741SOL    HW116682   2.752   3.894   7.892 -1.6548 -0.6133 -0.4075
 1741SOL    HW216683   2.698   4.006   7.814 -0.0927  0.1478  0.3350
 1742SOL     OW16684   0.011   2.108   8.424 -0.0932 -0.8227 -0.1367
 1742SOL    HW116685   4.684   2.146   8.496  0.1667 -1.3604  0.3338
 1742SOL    HW216686   0.092   2.115   8.474 -0.9056 -0.6989  1.1643
 1743SOL     OW16687   1.116   4.228   7.341  0.5133 -0.9501  0.8552
 1743SOL    HW116688   1.054   4.156   7.351 -1.7901  0.9530  0.1031
 1743SOL    HW216689   1.069   4.309   7.362  1.7195 -0.0899  0.1989
 1744SOL     OW16690   4.334   0.264  13.511 -0.1128 -0.2619  0.2324
 1744SOL    HW116691   4.325   0.195  13.576 -0.4775  0.2779  0.7544
 1744SOL    HW216692   4.345   0.331  13.578 -2.4206 -0.4937  0.8191
 1745SOL     OW16693   3.329   1.373   7.338 -0.1337  0.0899 -0.4498
 1745SOL    HW116694   3.379   1.414   7.409  2.1311  0.9721 -2.5471
 1745SOL    HW216695   3.393   1.307   7.310  2.7803  3.5030 -1.8108
 1746SOL     OW16696   2.899   0.627  17.001  0.4986 -0.2868  0.7901
 1746SOL    HW116697   2.852   0.601  17.080  0.4685 -0.8891  0.5728
 1746SOL    HW216698   2.931   0.713  17.028  0.7748  0.0576 -0.6223
 1747SOL     OW16699   1.749   4.279  16.873  0.3767 -0.0711  0.0219
 1747SOL    HW116700   1.790   4.297  16.789  1.4620  1.2208  0.8146
 1747SOL    HW216701   1.668   4.328  16.866 -1.0186 -2.2080  1.0075
 1748SOL     OW16702   2.495   1.843   1.838 -0.4224  0.1330  0.3101
 1748SOL    HW116703   2.499   1.798   1.922 -2.6102 -1.0868 -0.2560
 1748SOL    HW216704   2.508   1.936   1.857  0.2791  0.3609 -1.2694
 1749SOL     OW16705   1.785   0.222  15.873 -0.0953  0.2822 -0.1123
 1749SOL    HW116706   1.869   0.216  15.828 -1.0454  0.1958 -1.8670
 1749SOL    HW216707   1.735   0.157  15.823  1.2325  0.1147 -1.2231
 1750SOL     OW16708   3.902   1.628  13.594 -0.1107 -0.3019 -0.1625
 1750SOL    HW116709   3.910   1.545  13.641  1.2053  0.4993  1.0172
 1750SOL    HW216710   3.844   1.663  13.662  0.2515 -0.1615  0.0736
 1751SOL     OW16711   2.095   1.747   2.414  0.4094 -0.2516  0.0018
 1751SOL    HW116712   2.154   1.779   2.346  1.7172  1.0818  1.7423
 1751SOL    HW216713   2.146   1.759   2.494 -1.5585 -0.8065  1.3402
 1752SOL     OW16714   2.510   1.626  13.489 -0.5220 -0.1979  0.7453
 1752SOL    HW116715   2.487   1.717  13.472 -0.0819 -0.3166 -0.4517
 1752SOL    HW216716   2.439   1.602  13.549 -0.5484  3.7410  2.3170
 1753SOL     OW16717   3.441   3.086   2.975  0.7962 -0.0900 -0.9682
 1753SOL    HW116718   3.389   3.013   2.943  1.1801 -0.0131 -1.7782
 1753SOL    HW216719   3.377   3.158   2.972  1.7102  0.6979 -1.5794
 1754SOL     OW16720   0.684   3.272   3.655 -0.0177  0.8633 -0.2433
 1754SOL    HW116721   0.600   3.232   3.631  0.1335  1.0416 -1.0892
 1754SOL    HW216722   0.716   3.202   3.712  1.9462  0.7787 -1.4422
 1755SOL     OW16723   2.600   2.601  10.631  0.0520 -0.7139 -0.0696
 1755SOL    HW116724   2.563   2.615  10.718  0.9454 -1.1648  0.3792
 1755SOL    HW216725   2.565   2.667  10.570 -0.1118 -0.4104  0.3562
 1756SOL     OW16726   0.438   2.407   3.582 -0.4065 -0.0442  0.7320
 1756SOL    HW116727   0.503   2.419   3.514  0.4643  0.8980  1.7267
 1756SOL    HW216728   0.362   2.380   3.532 -0.8877 -2.1869  2.6125
 1757SOL     OW16729   0.770   2.187   1.993 -0.1089 -0.0887 -0.5125
 1757SOL    HW116730   0.768   2.271   1.947 -2.2074 -1.2047 -2.4534
 1757SOL    HW216731   0.677   2.173   2.014  0.2004 -0.1343  0.8643
 1758SOL     OW16732   0.272   1.231   4.821  0.4656  0.3643 -0.1525
 1758SOL    HW116733   0.297   1.211   4.731 -3.4059  0.0239 -1.1785
 1758SOL    HW216734   0.351   1.204   4.866 -0.1994 -0.2254  0.6680
 1759SOL     OW16735   2.953   3.325  12.330  0.2482  0.8092 -0.1730
 1759SOL    HW116736   2.968   3.416  12.305  2.3920  0.8344  1.2260
 1759SOL    HW216737   2.920   3.290  12.248  0.5342 -1.7511  0.8226
 1760SOL     OW16738   1.954   3.031   6.905  0.4032 -0.0659  0.1405
 1760SOL    HW116739   1.969   3.058   6.814 -1.3140 -0.0214 -0.1422
 1760SOL    HW216740   1.911   2.947   6.893  1.4423 -0.7310  1.1141
 1761SOL     OW16741   1.562   0.933   5.769  0.0709  0.0230 -1.1561
 1761SOL    HW116742   1.632   0.940   5.704 -0.7888  0.9926 -1.9853
 1761SOL    HW216743   1.483   0.945   5.717 -0.9309  2.8452  1.0074
 1762SOL     OW16744   4.527   3.764   0.303  0.4084 -0.1101 -0.1990
 1762SOL    HW116745   4.584   3.717   0.242  0.3130  0.4771 -0.7510
 1762SOL    HW216746   4.506   3.695   0.365 -0.4246 -0.5718 -0.9971
 1763SOL     OW16747   3.323   3.930   4.303 -0.0330  0.1291  0.1078
 1763SOL    HW116748   3.332   3.997   4.371 -1.3609  0.1140  0.3015
 1763SOL    HW216749   3.269   3.981   4.243  0.7245 -1.4152 -1.8831
 1764SOL     OW16750   4.170   4.102   8.377 -0.3072 -0.1075 -0.3443
 1764SOL    HW116751   4.150   4.196   8.375 -3.8743 -0.8223  0.8425
 1764SOL    HW216752   4.117   4.070   8.304 -0.6414 -0.0373 -0.1326
 1765SOL     OW16753   4.566   3.185   8.598 -0.2633  0.4874 -0.5197
 1765SOL    HW116754   4.550   3.206   8.690 -0.1859  0.8953 -0.5985
 1765SOL    HW216755   4.661   3.172   8.593 -0.5479 -1.5501 -0.7933
 1766SOL     OW16756   0.680   1.642   0.690 -0.4790 -0.1053  0.3430
 1766SOL    HW116757   0.650   1.709   0.751 -1.2223  0.6089 -0.7855
 1766SOL    HW216758   0.596   1.603   0.665  0.1892 -3.4170  3.2450
 1767SOL     OW16759   1.295   2.156   7.186 -0.7850  0.6729 -0.7269
 1767SOL    HW116760   1.375   2.161   7.133 -1.0343 -0.0577 -1.1715
 1767SOL    HW216761   1.322   2.215   7.257  0.4177 -2.4516  1.3807
 1768SOL     OW16762   3.260   0.857   1.360 -0.5766 -0.0674 -0.9578
 1768SOL    HW116763   3.353   0.880   1.371 -1.0280  0.4755  1.5991
 1768SOL    HW216764   3.247   0.870   1.266  0.5790 -1.6878 -1.3518
 1769SOL     OW16765   3.615   4.511   7.697  0.2180 -0.4563  0.4474
 1769SOL    HW116766   3.524   4.541   7.690  0.0573 -1.2569 -0.8797
 1769SOL    HW216767   3.632   4.518   7.791  2.8808 -1.6706  0.0458
 1770SOL     OW16768   2.996   1.791   6.067 -0.0516  0.1715 -0.9917
 1770SOL    HW116769   2.908   1.759   6.086 -0.2318  1.1126 -0.2319
 1770SOL    HW216770   3.001   1.770   5.973  1.7386 -1.8518 -0.4475
 1771SOL     OW16771   2.114   1.711   8.436 -0.3007  0.0526  0.2712
 1771SOL    HW116772   2.151   1.733   8.350  0.0872  1.7017  0.8608
 1771SOL    HW216773   2.173   1.636   8.443  0.2177  0.5913  1.5877
 1772SOL     OW16774   3.451   0.895   8.126  0.3484 -0.5184  0.2892
 1772SOL    HW116775   3.462   0.986   8.152 -0.7218  0.0851 -1.3420
 1772SOL    HW216776   3.511   0.883   8.052 -0.4697  0.5212 -0.5399
 1773SOL     OW16777   2.655   1.534  13.284 -0.4145 -0.2568  0.4059
 1773SOL    HW116778   2.602   1.565  13.358  0.5358 -1.4329  1.5847
 1773SOL    HW216779   2.744   1.558  13.311  0.1171 -1.1559 -0.5743
 1774SOL     OW16780   0.291   1.618   4.318 -0.0754  0.1637  0.3344
 1774SOL    HW116781   0.270   1.551   4.253 -0.0912  0.6689 -0.1853
 1774SOL    HW216782   0.231   1.595   4.389 -2.7735  1.5580 -1.5053
 1775SOL     OW16783   3.943   2.386  10.367  0.0886 -0.5324  0.3613
 1775SOL    HW116784   3.932   2.317  10.432  2.5171 -2.5453 -1.3779
 1775SOL    HW216785   3.946   2.463  10.423 -1.0033  0.4917 -0.9618
 1776SOL     OW16786   3.541   3.670   4.711 -0.1694  0.0872  1.0038
 1776SOL    HW116787   3.552   3.733   4.639 -2.8225  1.1935  1.5824
 1776SOL    HW216788   3.526   3.587   4.667  0.0133  0.6133 -0.0662
 1777SOL     OW16789   4.231   4.680  11.664  0.3032 -0.0494 -0.0942
 1777SOL    HW116790   4.212   4.667  11.757 -0.2326 -1.3951 -0.3816
 1777SOL    HW216791   4.235   0.051  11.669 -0.1975  0.0020 -0.6430
 1778SOL     OW16792   3.937   2.334   6.775  0.0824 -0.2981  0.1727
 1778SOL    HW116793   3.885   2.404   6.736 -0.1648 -0.4499  0.2322
 1778SOL    HW216794   4.025   2.369   6.759 -0.2651  1.6576  2.4506
 1779SOL     OW16795   2.455   0.311   5.877  0.0123  0.1388  0.6248
 1779SOL    HW116796   2.545   0.343   5.872  0.0857  0.0049  1.0653
 1779SOL    HW216797   2.405   0.387   5.848  0.6759  0.3797  0.1274
 1780SOL     OW16798   4.306   0.851   6.257  0.0661 -0.0787  0.0182
 1780SOL    HW116799   4.299   0.893   6.171  1.2437 -1.6358 -0.8291
 1780SOL    HW216800   4.244   0.780   6.240 -0.5372  1.1882 -3.0870
 1781SOL     OW16801   3.526   2.200   6.069  0.1606 -0.2797  0.0874
 1781SOL    HW116802   3.556   2.268   6.009 -2.8610  0.3826 -0.6713
 1781SOL    HW216803   3.437   2.229   6.087  0.2112 -0.6578  0.9627
 1782SOL     OW16804   1.835   3.858  12.177 -0.3186  0.1441 -0.0061
 1782SOL    HW116805   1.899   3.792  12.149 -0.5652 -1.2056  2.5973
 1782SOL    HW216806   1.786   3.801  12.236  0.0758  0.5382  0.6997
 1783SOL     OW16807   2.002   4.566   2.245  0.0201  0.1728  0.7056
 1783SOL    HW116808   1.931   4.624   2.219 -0.9933 -1.1238  0.6247
 1783SOL    HW216809   2.020   4.518   2.164 -1.1426  2.5003 -0.9292
 1784SOL     OW16810   3.652   1.254  11.394 -0.3524  0.7781  0.2553
 1784SOL    HW116811   3.673   1.223  11.306 -2.5494 -0.8750  0.3073
 1784SOL    HW216812   3.571   1.304  11.382 -1.4666 -1.4922 -1.4969
 1785SOL     OW16813   2.174   1.640   9.481  0.4719 -0.4656 -0.2172
 1785SOL    HW116814   2.150   1.547   9.479 -0.0301 -0.3171 -1.0391
 1785SOL    HW216815   2.164   1.646   9.386 -2.1253  1.3476  0.1765
 1786SOL     OW16816   4.389   0.549   8.905  0.2721 -0.6822 -0.0828
 1786SOL    HW116817   4.374   0.522   8.996  1.1390  1.0932  0.5825
 1786SOL    HW216818   4.484   0.555   8.901  0.0861  2.0758 -0.1056
 1787SOL     OW16819   1.458   3.054  13.559 -0.5636 -0.2593 -0.2175
 1787SOL    HW116820   1.447   2.967  13.521 -1.0544 -1.0945  1.8911
 1787SOL    HW216821   1.520   3.092  13.496  0.9545 -1.1374  0.7553
 1788SOL     OW16822   1.319   4.056   8.896 -0.5120 -0.4989  0.0644
 1788SOL    HW116823   1.377   4.130   8.915  0.0407 -0.3442 -2.1937
 1788SOL    HW216824   1.251   4.058   8.963  0.4061  0.0228  0.9809
 1789SOL     OW16825   0.615   4.022   2.041  0.2502 -0.2646 -0.1040
 1789SOL    HW116826   0.589   4.114   2.043 -0.2223 -0.3440 -2.1674
 1789SOL    HW216827   0.636   4.020   1.947  0.5181  0.1899 -0.0498
 1790SOL     OW16828   2.274   4.538  13.796  0.0364 -0.4126  0.1001
 1790SOL    HW116829   2.239   4.626  13.785 -0.2664 -0.6086 -0.4824
 1790SOL    HW216830   2.343   4.561  13.859 -0.3558 -1.3797  0.8697
 1791SOL     OW16831   1.595   1.129   6.678  0.1867  0.3114  0.7017
 1791SOL    HW116832   1.559   1.052   6.721 -0.0952  0.7495  1.2466
 1791SOL    HW216833   1.688   1.118   6.700  0.2991 -2.2865 -1.0822
 1792SOL     OW16834   4.394   2.146  14.781  0.0249 -0.6231 -0.8782
 1792SOL    HW116835   4.357   2.163  14.867 -2.4103  0.2524 -2.0932
 1792SOL    HW216836   4.469   2.087  14.791  1.6127  1.9426  2.4373
 1793SOL     OW16837   3.254   3.110   9.411 -0.2243  0.6058  0.0381
 1793SOL    HW116838   3.296   3.196   9.400  1.9112 -0.7696 -2.5766
 1793SOL    HW216839   3.259   3.116   9.507  0.9789  2.7794 -0.1652
 1794SOL     OW16840   1.424   0.178   4.124  0.2965  0.0611  0.0484
 1794SOL    HW116841   1.517   0.184   4.105  0.6537 -1.7811  1.1871
 1794SOL    HW216842   1.400   0.269   4.106  0.5110  0.1669  0.3094
 1795SOL     OW16843   2.550   1.629   7.855 -0.4707 -0.8712  0.0340
 1795SOL    HW116844   2.616   1.695   7.831 -2.5929  1.1929 -0.1451
 1795SOL    HW216845   2.495   1.633   7.777 -0.6714  2.5337  0.3463
 1796SOL     OW16846   3.467   1.440  11.309 -0.4420 -0.4255  0.2475
 1796SOL    HW116847   3.374   1.435  11.289 -0.7989  0.4494  1.6636
 1796SOL    HW216848   3.476   1.521  11.360  1.0661 -2.4469  3.1774
 1797SOL     OW16849   0.468   2.265  12.754 -0.0351  0.2800  0.4673
 1797SOL    HW116850   0.435   2.351  12.728  1.1456  0.4187 -0.5649
 1797SOL    HW216851   0.477   2.270  12.849  3.5862 -2.5770  0.2790
 1798SOL     OW16852   3.415   1.329  14.114  0.2234  0.0802 -0.5776
 1798SOL    HW116853   3.443   1.256  14.059  0.8383  0.1594 -0.3726
 1798SOL    HW216854   3.326   1.350  14.087  0.6015  1.8975 -0.3951
 1799SOL     OW16855   3.654   3.067   4.847  0.2814 -0.1700  0.3396
 1799SOL    HW116856   3.671   3.097   4.936 -0.4020 -1.1525  0.7905
 1799SOL    HW216857   3.708   2.988   4.850 -0.8672 -1.0939 -3.6798
 1800SOL     OW16858   3.098   3.678   7.988  0.2878 -0.2125 -0.3624
 1800SOL    HW116859   3.153   3.640   7.919  1.2187  0.1904  0.1529
 1800SOL    HW216860   3.104   3.614   8.059 -0.8308 -0.9006 -0.8969
 1801SOL     OW16861   1.876   3.576  11.131  0.1974  0.2450 -0.5169
 1801SOL    HW116862   1.885   3.671  11.122  0.3232  0.4169  1.5545
 1801SOL    HW216863   1.846   3.578  11.221 -1.3390  1.5962 -1.0615
 1802SOL     OW16864   1.471   1.515   8.556 -0.2956  0.0011  0.6877
 1802SOL    HW116865   1.460   1.481   8.467 -2.7191 -1.6541  1.6251
 1802SOL    HW216866   1.446   1.442   8.613  0.6716 -1.6407 -0.9763
 1803SOL     OW16867   0.418   0.705   6.167  0.0242 -0.2562 -0.5639
 1803SOL    HW116868   0.511   0.694   6.184  0.2330  0.1584 -1.4226
 1803SOL    HW216869   0.424   0.749   6.082 -0.0289 -0.2751 -0.5772
 1804SOL     OW16870   2.247   4.229   4.850  0.4474  0.3131 -0.4357
 1804SOL    HW116871   2.152   4.221   4.837  0.4471 -0.5641  0.1075
 1804SOL    HW216872   2.275   4.137   4.856 -1.7981 -0.2467  1.6843
 1805SOL     OW16873   0.561   0.652   5.034  0.3241  0.3293 -0.2438
 1805SOL    HW116874   0.584   0.736   4.994  0.8430 -0.1309 -0.9116
 1805SOL    HW216875   0.466   0.646   5.028  0.4604 -2.0324  0.1153
 1806SOL     OW16876   0.063   3.608   5.311 -0.2079 -0.3872  0.4420
 1806SOL    HW116877   4.702   3.583   5.275  0.5172  0.3356 -1.8112
 1806SOL    HW216878   0.050   3.592   5.404  0.0860  1.0213  0.7231
 1807SOL     OW16879   1.189   2.297   2.960 -0.5492  0.3666  0.3299
 1807SOL    HW116880   1.228   2.304   2.873  2.4103 -0.5899  1.5895
 1807SOL    HW216881   1.248   2.241   3.011 -1.0255  2.2200  2.9185
 1808SOL     OW16882   3.198   4.435   4.335  0.1122  0.5431 -0.2158
 1808SOL    HW116883   3.175   4.511   4.282  0.6953  1.9449  1.5522
 1808SOL    HW216884   3.207   4.381   4.257 -0.4597 -2.3461  1.7086
 1809SOL     OW16885   0.879   3.719   7.270  0.3257 -0.6037 -0.3899
 1809SOL    HW116886   0.803   3.774   7.292  0.5770 -0.2763 -0.3353
 1809SOL    HW216887   0.839   3.657   7.209  1.0525 -0.3783 -1.0887
 1810SOL     OW16888   1.942   0.380   4.000  0.3784  0.1125  0.4981
 1810SOL    HW116889   2.028   0.371   3.960  0.4652 -0.1313  0.7415
 1810SOL    HW216890   1.960   0.354   4.090  0.5560 -1.4262  0.0259
 1811SOL     OW16891   1.991   4.194   4.769  0.1999  0.5136  0.4781
 1811SOL    HW116892   1.936   4.266   4.799 -1.7903 -0.3972 -0.9191
 1811SOL    HW216893   1.940   4.156   4.697  0.8796 -0.1105  0.3278
 1812SOL     OW16894   1.180   3.494   5.195 -0.3498 -0.0434  0.3814
 1812SOL    HW116895   1.126   3.430   5.240 -0.3891  0.4936  1.1004
 1812SOL    HW216896   1.123   3.527   5.125 -1.3225 -0.6379  0.8953
 1813SOL     OW16897   1.031   2.376   8.418 -0.3689 -0.2578  0.5482
 1813SOL    HW116898   1.059   2.460   8.382 -0.6458 -0.1015  0.6954
 1813SOL    HW216899   1.024   2.330   8.334  1.0493  1.4249 -0.4724
 1814SOL     OW16900   1.478   2.882   6.056  0.1520 -0.6221  0.2836
 1814SOL    HW116901   1.523   2.801   6.031  0.4617 -0.1994 -0.5285
 1814SOL    HW216902   1.531   2.956   6.027 -1.4863  0.8981  1.2108
 1815SOL     OW16903   0.689   1.605   7.085  0.0196 -0.0463  0.1321
 1815SOL    HW116904   0.770   1.636   7.125  0.1747 -0.5748  0.2275
 1815SOL    HW216905   0.695   1.509   7.090  1.5566  0.1893  2.7862
 1816SOL     OW16906   0.314   0.227   0.019 -0.6478 -0.1768  0.9126
 1816SOL    HW116907   0.228   0.251   0.052 -2.4387  0.4701 -4.1572
 1816SOL    HW216908   0.284   0.142  17.683 -0.9682  0.0581  0.6111
 1817SOL     OW16909   4.638   1.531   1.758  0.2525 -0.0962 -0.5752
 1817SOL    HW116910   4.579   1.603   1.781 -1.1615 -0.7115 -2.2784
 1817SOL    HW216911   4.587   1.460   1.797 -1.6206  0.2425 -2.3952
 1818SOL     OW16912   0.983   3.301   5.268  0.6386 -0.5491 -0.4362
 1818SOL    HW116913   1.004   3.210   5.248 -0.6582 -0.4543 -2.2274
 1818SOL    HW216914   0.915   3.320   5.203 -0.5365 -1.5215  0.4961
 1819SOL     OW16915   1.700   1.800   8.196 -0.0327 -0.3435 -0.2292
 1819SOL    HW116916   1.634   1.823   8.261 -0.5969 -1.1224 -0.5285
 1819SOL    HW216917   1.753   1.737   8.244 -0.0675 -0.4851 -0.3758
 1820SOL     OW16918   4.308   1.938   5.763  0.7665 -0.7067 -0.3514
 1820SOL    HW116919   4.360   1.930   5.683  2.5631 -0.0922  0.7605
 1820SOL    HW216920   4.303   1.844   5.779 -0.2266 -0.5739  0.0918
 1821SOL     OW16921   4.035   2.946  12.930 -0.3298  0.1233 -0.3210
 1821SOL    HW116922   3.971   2.922  12.997 -1.4138  1.4075 -0.8723
 1821SOL    HW216923   4.018   2.873  12.871  0.9460 -0.0626 -0.4424
 1822SOL     OW16924   0.333   1.675  10.342  0.4225  0.8398  0.0407
 1822SOL    HW116925   0.308   1.639  10.257  1.0800 -2.3525  1.2019
 1822SOL    HW216926   0.401   1.742  10.333 -0.3007  1.4109 -1.2172
 1823SOL     OW16927   2.669   3.676   2.214  0.6507 -0.1849  0.5006
 1823SOL    HW116928   2.672   3.583   2.194  2.1421 -0.5723  2.5455
 1823SOL    HW216929   2.701   3.716   2.133  1.8967  0.5205  1.3424
 1824SOL     OW16930   2.944   1.915   9.368 -0.8716  0.6457 -0.4711
 1824SOL    HW116931   3.019   1.883   9.418 -0.4978  1.1238 -0.7224
 1824SOL    HW216932   2.974   1.923   9.278  0.4612  1.4082  0.0364
 1825SOL     OW16933   0.027   1.606   8.374 -0.0917 -0.2730 -0.2790
 1825SOL    HW116934   4.685   1.597   8.442 -0.4079  1.3564 -0.3860
 1825SOL    HW216935   0.040   1.701   8.370  1.4415 -0.3391  3.3935
 1826SOL     OW16936   0.692   4.049   6.897  0.2804  0.2458  0.0380
 1826SOL    HW116937   0.668   4.121   6.838 -1.3323 -1.5185 -1.4204
 1826SOL    HW216938   0.736   3.989   6.837 -0.9732  2.1010 -2.7715
 1827SOL     OW16939   0.987   0.488   9.112 -0.4044  0.0564  0.1604
 1827SOL    HW116940   0.975   0.458   9.202  0.7487  0.0808  0.3139
 1827SOL    HW216941   0.904   0.467   9.069 -0.3219 -3.6551  1.7726
 1828SOL     OW16942   3.995   0.928   8.155 -0.2180  0.1002 -0.4002
 1828SOL    HW116943   4.053   0.867   8.200  0.5676  0.9039 -0.3350
 1828SOL    HW216944   3.991   0.888   8.068 -0.0900  0.4099 -0.5463
 1829SOL     OW16945   2.222   1.499   5.602 -0.2649 -0.2089  0.9177
 1829SOL    HW116946   2.316   1.499   5.582 -0.5541  0.6159 -0.4172
 1829SOL    HW216947   2.192   1.576   5.554  0.5591 -0.3444  0.1903
 1830SOL     OW16948   3.427   4.518  10.810 -0.1567  0.2858  0.6074
 1830SOL    HW116949   3.459   4.587  10.752  1.5201  1.0696  2.4833
 1830SOL    HW216950   3.502   4.477  10.853 -0.0190 -0.0856  0.0195
 1831SOL     OW16951   2.441   1.347   3.665  0.2781  0.2954 -0.5152
 1831SOL    HW116952   2.389   1.362   3.745 -0.6584 -0.8458 -0.9019
 1831SOL    HW216953   2.417   1.255   3.657  2.8147 -0.1364 -2.9019
 1832SOL     OW16954   1.768   0.682  10.534  0.1293  0.4813  0.2090
 1832SOL    HW116955   1.727   0.737  10.601  1.4459  1.8269 -0.1115
 1832SOL    HW216956   1.855   0.717  10.518  0.6330 -0.1714  1.5324
 1833SOL     OW16957   4.552   0.845   2.094  0.1142 -0.7333 -0.4249
 1833SOL    HW116958   4.468   0.842   2.141 -0.0539  2.5167 -0.4861
 1833SOL    HW216959   4.617   0.833   2.163  1.1647  0.8527 -1.1489
 1834SOL     OW16960   0.472   4.633  10.699  0.0012  0.2780  0.6039
 1834SOL    HW116961   0.538   4.608  10.763  1.0275  0.3202 -0.4307
 1834SOL    HW216962   0.536   4.663  10.634 -1.5407  2.1243 -0.0629
 1835SOL     OW16963   2.506   3.963   2.258 -0.1781 -0.0131  0.2121
 1835SOL    HW116964   2.586   3.975   2.206 -0.0070  0.0953  0.4999
 1835SOL    HW216965   2.515   4.044   2.308 -2.3333 -0.6949  1.7043
 1836SOL     OW16966   3.072   3.835   9.715 -0.2640 -0.0523 -0.0057
 1836SOL    HW116967   3.063   3.771   9.644  0.8240  1.0105 -1.0899
 1836SOL    HW216968   2.992   3.819   9.765 -1.1968 -0.5886 -1.6957
 1837SOL     OW16969   3.864   1.775  13.363 -0.1219 -0.2789  0.5675
 1837SOL    HW116970   3.919   1.850  13.384  0.4273 -1.1395  2.2642
 1837SOL    HW216971   3.909   1.718  13.425 -0.6260 -1.8894 -0.5540
 1838SOL     OW16972   0.187   0.079   5.160 -0.2278 -0.4836  0.0578
 1838SOL    HW116973   0.161   0.152   5.104  1.4406 -0.3302 -0.5091
 1838SOL    HW216974   0.276   0.093   5.192 -0.6286 -0.1995  1.0477
 1839SOL     OW16975   1.420   4.159   4.486 -0.0464 -0.1369 -0.2790
 1839SOL    HW116976   1.485   4.226   4.462 -1.1485  0.1396 -2.4705
 1839SOL    HW216977   1.371   4.196   4.559  1.2505  1.6400 -0.2812
 1840SOL     OW16978   0.055   0.571   3.047  0.3597 -0.4086  0.2365
 1840SOL    HW116979   0.113   0.510   3.093 -0.2923 -0.7934  0.5594
 1840SOL    HW216980   0.108   0.650   3.037  0.7438 -0.6467  0.3928
 1841SOL     OW16981   1.160   4.658  11.642  0.1220 -0.2949  0.4263
 1841SOL    HW116982   1.172   4.581  11.698 -2.9454 -1.1512 -0.0923
 1841SOL    HW216983   1.246   4.672  11.602  0.2950  0.0944  0.9456
 1842SOL     OW16984   1.473   0.778   4.215 -0.7996  0.2240  0.5014
 1842SOL    HW116985   1.443   0.694   4.181 -0.8947 -0.2341  1.7141
 1842SOL    HW216986   1.424   0.837   4.159  2.4106 -0.8310 -3.3538
 1843SOL     OW16987   3.261   0.739  15.762  0.1731  0.5248  0.5644
 1843SOL    HW116988   3.274   0.644  15.769  2.2074  0.7887  0.3848
 1843SOL    HW216989   3.223   0.753  15.676  2.1226  1.8244 -0.0691
 1844SOL     OW16990   3.961   4.175   2.355  0.4249 -0.1422  0.0743
 1844SOL    HW116991   4.057   4.166   2.360  0.7086  3.4319  0.6536
 1844SOL    HW216992   3.938   4.083   2.344 -0.9547  0.4594 -1.9206
 1845SOL     OW16993   3.802   1.796   5.534  0.3257  0.6380  0.0984
 1845SOL    HW116994   3.888   1.839   5.530 -0.3380  2.0159  0.6318
 1845SOL    HW216995   3.810   1.727   5.600  2.5659 -0.8378 -1.7000
 1846SOL     OW16996   3.434   0.875   6.278 -0.2852 -0.0424 -0.2718
 1846SOL    HW116997   3.469   0.955   6.238 -0.7644 -0.4776 -1.5525
 1846SOL    HW216998   3.505   0.812   6.275  0.1743  0.4669 -0.2327
 1847SOL     OW16999   1.176   1.831   8.771 -0.3030  0.2525  0.1708
 1847SOL    HW117000   1.259   1.834   8.818 -1.3778  0.2870  2.0443
 1847SOL    HW217001   1.146   1.743   8.749  1.7432 -1.0358  2.6038
 1848SOL     OW17002   3.183   2.073   2.492 -0.1635  1.4580  0.0977
 1848SOL    HW117003   3.123   2.074   2.417  0.6861  1.8252 -0.5892
 1848SOL    HW217004   3.153   2.146   2.546  2.0854  0.6403  2.4654
 1849SOL     OW17005   2.934   0.504   5.444  0.2359 -0.1935  0.0733
 1849SOL    HW117006   2.882   0.489   5.523  0.4728 -0.1817  0.2310
 1849SOL    HW217007   2.979   0.420   5.443 -0.8217 -0.7868  2.1756
 1850SOL     OW17008   4.519   0.221   2.752 -0.2989  0.0455 -0.1709
 1850SOL    HW117009   4.489   0.277   2.823 -0.4849  1.2264 -1.1772
 1850SOL    HW217010   4.601   0.269   2.735  1.4050 -2.8763 -0.1892
 1851SOL     OW17011   1.780   2.088   5.705 -0.0494  0.3325  0.9037
 1851SOL    HW117012   1.767   2.172   5.662 -1.7700 -1.3008 -1.7631
 1851SOL    HW217013   1.857   2.106   5.759  0.8507 -2.2283  0.5325
 1852SOL     OW17014   4.523   0.542  13.897  0.0392  0.8329  0.2869
 1852SOL    HW117015   4.608   0.583  13.912  0.9191 -0.8229 -0.1645
 1852SOL    HW217016   4.472   0.562  13.976 -1.7228 -0.0862 -0.6138
 1853SOL     OW17017   0.970   4.611   4.477 -0.8554  0.1427  0.1504
 1853SOL    HW117018   0.989   4.636   4.568 -0.2299  2.3986 -0.6053
 1853SOL    HW217019   1.012   4.525   4.487 -3.8966 -1.5480 -1.8044
 1854SOL     OW17020   1.773   3.093  16.943  0.4039 -0.6704 -0.1723
 1854SOL    HW117021   1.706   3.084  16.875  1.5947  0.1389 -1.4467
 1854SOL    HW217022   1.732   3.153  17.006 -1.3248 -1.5542 -0.4554
 1855SOL     OW17023   4.279   4.032   2.619  0.6748 -0.0774  0.1847
 1855SOL    HW117024   4.350   4.077   2.663 -1.1529 -0.0401  3.0811
 1855SOL    HW217025   4.253   4.101   2.558 -0.0217 -1.4210 -1.0759
 1856SOL     OW17026   2.155   4.287   7.836 -0.1735 -0.1638  0.1830
 1856SOL    HW117027   2.107   4.241   7.767 -1.2768  0.4212  0.5547
 1856SOL    HW217028   2.081   4.313   7.891  0.3616  0.7766  0.4528
 1857SOL     OW17029   2.132   0.875   7.211 -0.2400 -0.6446  0.4025
 1857SOL    HW117030   2.179   0.822   7.146  2.0563  0.0849  1.4684
 1857SOL    HW217031   2.173   0.834   7.288  1.2734 -1.6114 -0.9120
 1858SOL     OW17032   3.973   4.058  11.026 -0.0220  0.2849  0.5128
 1858SOL    HW117033   3.963   4.153  11.025  0.0550  0.2743 -1.6178
 1858SOL    HW217034   3.898   4.037  10.970  1.9232  0.3853 -2.0970
 1859SOL     OW17035   2.767   3.184  12.154 -0.2116  0.0306 -0.1459
 1859SOL    HW117036   2.828   3.142  12.095 -1.1746 -1.6999  0.1062
 1859SOL    HW217037   2.684   3.174  12.108  0.0280  0.8270 -0.7616
 1860SOL     OW17038   1.963   1.223   7.079  0.5724  0.4279  0.3158
 1860SOL    HW117039   2.050   1.230   7.119 -0.0383 -0.0164  1.7233
 1860SOL    HW217040   1.973   1.149   7.019  2.5046  0.7149  0.2639
 1861SOL     OW17041   3.411   3.712   7.683 -0.1460 -0.2476  0.0851
 1861SOL    HW117042   3.466   3.741   7.755 -1.3857 -0.7080  1.2074
 1861SOL    HW217043   3.383   3.626   7.712 -3.3374  0.6675 -0.2626
 1862SOL     OW17044   0.229   0.640   7.695 -0.0734  0.3393  0.6723
 1862SOL    HW117045   0.138   0.615   7.709 -0.8779  1.9525 -1.7278
 1862SOL    HW217046   0.282   0.560   7.702 -0.1334  0.5104  3.1134
 1863SOL     OW17047   3.295   0.913  11.997  0.3259  0.2054  1.0186
 1863SOL    HW117048   3.232   0.858  12.043  3.1628 -0.9308  3.5977
 1863SOL    HW217049   3.382   0.874  12.012  1.2215  1.0507 -2.1128
 1864SOL     OW17050   3.049   2.839   2.161  0.5197 -0.1551 -0.0574
 1864SOL    HW117051   3.115   2.797   2.217 -0.1427 -2.0759 -0.7063
 1864SOL    HW217052   2.980   2.773   2.161  0.8004 -0.4614  3.2274
 1865SOL     OW17053   0.216   0.174   7.487  0.1664  0.1676 -0.7199
 1865SOL    HW117054   0.252   0.240   7.427 -0.1118  2.7141  1.8987
 1865SOL    HW217055   0.222   0.225   7.568 -1.5684 -0.9258  0.0794
 1866SOL     OW17056   1.356   3.067   2.712  0.0520 -0.0203 -0.4228
 1866SOL    HW117057   1.374   3.072   2.618  1.1649 -0.8093 -0.2535
 1866SOL    HW217058   1.299   2.991   2.701  1.0900 -0.5718 -2.0005
 1867SOL     OW17059   4.289   4.573   9.235 -0.0505 -0.0710 -0.4243
 1867SOL    HW117060   4.223   4.511   9.206 -1.7004  1.2773  0.4804
 1867SOL    HW217061   4.299   4.555   9.329  1.4699 -0.9540 -0.7417
 1868SOL     OW17062   4.205   2.963  15.915  0.7982  0.2014  0.2697
 1868SOL    HW117063   4.290   2.952  15.871  0.9257  0.7592  0.3783
 1868SOL    HW217064   4.157   3.009  15.847  1.0410 -0.1883 -0.1661
 1869SOL     OW17065   3.253   3.099   7.736  0.2313  0.2590  0.0658
 1869SOL    HW117066   3.272   3.144   7.654 -0.6439  0.8050  0.1610
 1869SOL    HW217067   3.343   3.084   7.766 -0.1208 -2.0194 -0.0274
 1870SOL     OW17068   1.698   0.662   8.145  0.0039 -0.5973 -0.1416
 1870SOL    HW117069   1.778   0.688   8.100 -0.9213  0.5464 -1.1243
 1870SOL    HW217070   1.638   0.717   8.095  1.4054 -0.3566 -1.5474
 1871SOL     OW17071   1.012   0.596  13.186  0.3181  0.0544 -0.1801
 1871SOL    HW117072   0.944   0.660  13.207  0.3538  0.2035 -0.5181
 1871SOL    HW217073   0.989   0.600  13.093 -1.3333  2.5989  0.3441
 1872SOL     OW17074   4.692   3.145   4.946 -0.0118  0.3521  0.1108
 1872SOL    HW117075   4.716   3.198   5.023  0.5118  1.2480 -0.6612
 1872SOL    HW217076   4.691   3.214   4.880 -0.6572 -0.5703 -0.8430
 1873SOL     OW17077   4.227   3.377   3.091  0.4467 -0.6855  0.1206
 1873SOL    HW117078   4.192   3.388   3.003 -1.2779 -0.0680  0.8830
 1873SOL    HW217079   4.320   3.378   3.068  0.5126  0.2499  0.4318
 1874SOL     OW17080   3.196   2.124   4.144  0.3752 -0.3847  0.1603
 1874SOL    HW117081   3.276   2.151   4.189  0.2347  1.9974 -1.0054
 1874SOL    HW217082   3.179   2.199   4.087  1.3960 -1.2343 -1.2529
 1875SOL     OW17083   0.742   3.586   3.452 -0.1966  0.0864 -0.2325
 1875SOL    HW117084   0.664   3.577   3.397  0.8869 -3.6649 -1.1524
 1875SOL    HW217085   0.735   3.676   3.484  0.0192  0.0401 -0.0574
 1876SOL     OW17086   3.051   4.571   6.491 -0.1055 -0.1084 -0.0638
 1876SOL    HW117087   3.085   4.483   6.507 -1.1386 -0.2916  1.1102
 1876SOL    HW217088   2.968   4.561   6.537 -1.0273  0.6440 -1.5609
 1877SOL     OW17089   3.799   2.008  14.576  0.0862  0.2017  0.3993
 1877SOL    HW117090   3.824   1.950  14.648  0.0898  0.4700  0.6134
 1877SOL    HW217091   3.742   2.065  14.629 -0.3001  0.5510 -0.3997
 1878SOL     OW17092   1.596   0.876   7.971  0.1324  0.1338 -0.5870
 1878SOL    HW117093   1.594   0.971   7.962  1.4234  0.1676 -0.4984
 1878SOL    HW217094   1.502   0.859   7.977  0.1800 -0.3290 -1.1589
 1879SOL     OW17095   1.703   3.915  13.290  0.4077 -0.3869 -0.6029
 1879SOL    HW117096   1.723   3.953  13.376 -2.8298  0.1825 -0.1282
 1879SOL    HW217097   1.788   3.931  13.249  0.7027 -0.4938 -0.0348
 1880SOL     OW17098   1.191   1.684  12.048  0.3604 -0.1859  0.4823
 1880SOL    HW117099   1.189   1.650  12.137 -0.1968  1.2642  1.0286
 1880SOL    HW217100   1.109   1.663  12.003 -0.1602 -2.1952  2.4168
 1881SOL     OW17101   2.114   4.257  11.467  0.7718  0.0493 -0.7939
 1881SOL    HW117102   2.061   4.322  11.513  0.0627 -0.5485 -0.7487
 1881SOL    HW217103   2.043   4.203  11.431 -1.3249  1.4422  1.2078
 1882SOL     OW17104   2.077   2.138  12.320 -0.7736 -0.1279  0.1775
 1882SOL    HW117105   1.985   2.111  12.315 -0.7481 -0.1269 -0.2396
 1882SOL    HW217106   2.093   2.126  12.414  1.7174 -1.4327 -0.4123
 1883SOL     OW17107   2.551   2.308   3.574 -0.4715  0.0388 -0.2234
 1883SOL    HW117108   2.558   2.391   3.527  0.7021 -0.0477 -0.2064
 1883SOL    HW217109   2.638   2.298   3.613  0.0213  2.5747 -0.6864
 1884SOL     OW17110   2.364   1.767  14.331  0.2260  0.5836 -0.2634
 1884SOL    HW117111   2.361   1.841  14.271  2.5513  1.7876  1.1097
 1884SOL    HW217112   2.391   1.693  14.277  0.0293 -1.7959  2.8780
 1885SOL     OW17113   3.330   4.115   4.519  0.2859 -0.3063  0.2791
 1885SOL    HW117114   3.380   4.195   4.510  1.3138 -0.8437  1.2484
 1885SOL    HW217115   3.291   4.116   4.606 -0.0218 -0.5654  0.1453
 1886SOL     OW17116   2.296   0.827   3.209 -0.0552  0.3059 -0.0231
 1886SOL    HW117117   2.233   0.875   3.155  2.1738 -0.8449 -3.6454
 1886SOL    HW217118   2.377   0.841   3.159  0.3256  0.1471  0.5414
 1887SOL     OW17119   4.708   1.106   5.101 -0.0526  0.0945  0.3330
 1887SOL    HW117120   0.006   1.189   5.059 -1.3612  1.4174  2.2520
 1887SOL    HW217121   4.627   1.123   5.149 -1.4133 -0.2720 -1.8380
 1888SOL     OW17122   2.065   2.115  13.855  0.8540  0.2479  1.1594
 1888SOL    HW117123   2.049   2.149  13.767 -2.5967 -2.4255  0.7707
 1888SOL    HW217124   2.063   2.021  13.837  0.6479  0.2535  1.1498
 1889SOL     OW17125   1.366   1.005   5.254 -0.1148 -0.2363 -0.2680
 1889SOL    HW117126   1.406   0.923   5.283 -1.3071 -0.4081  0.8803
 1889SOL    HW217127   1.430   1.066   5.291  1.8365 -2.2917 -0.2157
 1890SOL     OW17128   4.632   3.822  15.843 -0.2113  0.0689 -0.5037
 1890SOL    HW117129   4.609   3.883  15.773 -0.6096  0.4102 -0.0723
 1890SOL    HW217130   4.724   3.805  15.819  0.0136  1.3268 -0.5044
 1891SOL     OW17131   2.112   2.961   8.416  0.2250  0.3206 -0.0608
 1891SOL    HW117132   2.056   2.888   8.389  2.9542 -1.8666  0.0877
 1891SOL    HW217133   2.205   2.938   8.404  0.2405 -0.0856  0.8476
 1892SOL     OW17134   4.127   0.977   7.364  0.0445  0.4586  0.0902
 1892SOL    HW117135   4.103   1.043   7.298  0.7295  0.9111  0.2938
 1892SOL    HW217136   4.141   1.033   7.440  1.8661 -0.0630  0.1347
 1893SOL     OW17137   3.281   3.307   5.800 -0.2207 -0.4999 -0.1784
 1893SOL    HW117138   3.361   3.255   5.810 -0.9754 -1.2225  1.9939
 1893SOL    HW217139   3.232   3.234   5.762 -0.4676 -0.0400 -0.7451
 1894SOL     OW17140   3.952   1.789   9.235  0.0018  0.1648  0.2938
 1894SOL    HW117141   4.027   1.842   9.209 -0.4847  1.8958  2.4094
 1894SOL    HW217142   3.989   1.749   9.314 -0.5578 -2.9646 -1.0308
 1895SOL     OW17143   4.426   1.363   1.858  0.2902 -0.2463 -1.1331
 1895SOL    HW117144   4.407   1.423   1.786 -0.7097  1.4899  0.5577
 1895SOL    HW217145   4.381   1.411   1.928  1.8489 -1.2757  0.5657
 1896SOL     OW17146   2.662   1.197  16.597  0.6164  0.0781 -0.5054
 1896SOL    HW117147   2.648   1.152  16.681 -1.3855  0.3895 -0.6629
 1896SOL    HW217148   2.634   1.122  16.544  1.2185  0.6296 -1.6062
 1897SOL     OW17149   1.598   0.234   0.072 -0.8220  0.1787  0.4480
 1897SOL    HW117150   1.643   0.277  17.699  0.4019  1.4095  1.9467
 1897SOL    HW217151   1.593   0.305   0.136 -1.4799  1.4276 -0.9766
 1898SOL     OW17152   4.179   1.262   6.279  0.6323 -0.3257  0.5922
 1898SOL    HW117153   4.131   1.261   6.197 -1.0072 -3.0236  1.6065
 1898SOL    HW217154   4.119   1.303   6.341 -2.0260  0.3264 -2.4258
 1899SOL     OW17155   1.337   3.007  14.208  0.2547 -0.1072 -0.4016
 1899SOL    HW117156   1.423   2.975  14.183 -0.1630 -1.7406  0.2671
 1899SOL    HW217157   1.327   3.076  14.143 -1.2707 -2.5777 -2.7759
 1900SOL     OW17158   4.655   4.411   7.320  0.1137 -0.2357  0.3909
 1900SOL    HW117159   4.638   4.320   7.346  0.6603  0.2763  2.5558
 1900SOL    HW217160   4.689   4.389   7.234 -2.1886 -1.3960 -0.2365
 1901SOL     OW17161   4.256   0.920   1.834 -0.1747  0.0726  0.3448
 1901SOL    HW117162   4.299   0.842   1.869 -0.8502 -0.0332  0.9448
 1901SOL    HW217163   4.224   0.973   1.907 -0.8261  1.3570 -0.8646
 1902SOL     OW17164   0.599   3.221   4.433 -0.0526 -0.0543 -0.1361
 1902SOL    HW117165   0.534   3.286   4.405 -0.3505  0.2919  1.3313
 1902SOL    HW217166   0.549   3.191   4.509  1.0139  0.0281  0.5935
 1903SOL     OW17167   2.092   3.243   7.023 -0.0904 -0.3206  0.9101
 1903SOL    HW117168   2.176   3.205   6.995  0.1865 -0.1433  1.4879
 1903SOL    HW217169   2.031   3.177   6.992 -0.0790 -0.0351  0.2908
 1904SOL     OW17170   3.910   1.078   9.753 -0.4012  0.2475 -0.3546
 1904SOL    HW117171   3.997   1.043   9.774  0.3555  0.2217 -3.5289
 1904SOL    HW217172   3.856   1.002   9.773 -1.1104  0.8815  0.1166
 1905SOL     OW17173   2.544   2.797   2.290 -0.2751 -0.1277 -0.2195
 1905SOL    HW117174   2.606   2.869   2.294 -1.1106  0.7264 -2.7311
 1905SOL    HW217175   2.486   2.849   2.346 -2.9967 -0.6729 -2.5066
 1906SOL     OW17176   0.523   0.220  15.520  0.1897 -0.5086 -0.0859
 1906SOL    HW117177   0.446   0.188  15.568  0.1812 -0.9851 -0.4237
 1906SOL    HW217178   0.534   0.156  15.450 -1.2955  0.4310 -1.1758
 1907SOL     OW17179   4.624   0.117   9.224 -0.1790  0.0168 -0.0092
 1907SOL    HW117180   4.603   0.029   9.194  1.6176 -0.4300 -0.0068
 1907SOL    HW217181   4.650   0.116   9.316  0.0015  1.8803 -0.0391
 1908SOL     OW17182   3.990   2.567   9.363  0.2763 -0.4715  0.2720
 1908SOL    HW117183   4.015   2.571   9.455  1.8544  2.1682 -0.2540
 1908SOL    HW217184   4.076   2.548   9.325  0.7712 -2.3285  2.3212
 1909SOL     OW17185   1.229   2.335   4.058 -0.2963  0.1050 -0.7582
 1909SOL    HW117186   1.196   2.356   3.971  0.1691  2.0955 -0.4759
 1909SOL    HW217187   1.252   2.415   4.106 -3.6886 -0.6524  2.1714
 1910SOL     OW17188   3.806   1.224  12.993  0.4042 -0.0252 -0.1836
 1910SOL    HW117189   3.892   1.225  13.035  1.1252 -1.0983 -1.6600
 1910SOL    HW217190   3.827   1.289  12.926  2.0408 -1.6653 -1.2694
 1911SOL     OW17191   1.997   0.534  12.299  0.4480  0.3105 -0.1875
 1911SOL    HW117192   1.954   0.571  12.376 -0.4998 -3.1924  0.9756
 1911SOL    HW217193   2.072   0.592  12.288 -0.6404  2.0692  1.7095
 1912SOL     OW17194   0.658   2.784   5.238 -0.3892  0.2656 -0.2579
 1912SOL    HW117195   0.609   2.839   5.177 -2.6544 -0.1871  1.1309
 1912SOL    HW217196   0.749   2.782   5.210  0.3946 -1.0865  2.3777
 1913SOL     OW17197   3.260   4.574  13.649 -0.1558  0.3737 -0.1671
 1913SOL    HW117198   3.267   4.643  13.716  1.2236  0.5047 -0.4426
 1913SOL    HW217199   3.245   4.632  13.574 -2.0800  1.1653  0.8279
 1914SOL     OW17200   3.029   1.104  14.047 -0.3166 -0.4231  0.4989
 1914SOL    HW117201   2.936   1.094  14.068 -0.6585 -0.8490 -1.2420
 1914SOL    HW217202   3.073   1.031  14.092  1.4130  0.7189  0.6343
 1915SOL     OW17203   4.018   1.270   2.837 -0.5703 -0.3143 -0.3878
 1915SOL    HW117204   4.052   1.208   2.773  1.1706 -1.6551  1.8408
 1915SOL    HW217205   4.083   1.235   2.898 -1.3238 -3.7098 -1.5585
 1916SOL     OW17206   1.953   0.843  13.717 -0.1995 -0.3171 -0.8430
 1916SOL    HW117207   1.871   0.799  13.738 -0.4474  1.2702  1.4989
 1916SOL    HW217208   1.928   0.896  13.641 -1.9386  0.3158  0.1928
 1917SOL     OW17209   2.585   4.669   7.946 -0.5764  0.1454  0.2300
 1917SOL    HW117210   2.513   4.633   7.895 -2.1481  2.0227  1.1218
 1917SOL    HW217211   2.663   4.634   7.902 -1.7275 -0.6629 -1.1500
 1918SOL     OW17212   2.091   0.291   4.238 -0.1200  0.0473 -0.5988
 1918SOL    HW117213   2.102   0.206   4.194 -0.9591 -0.7884  0.7742
 1918SOL    HW217214   2.171   0.283   4.290  0.3701  0.1434 -1.3403
 1919SOL     OW17215   0.777   0.161   2.167 -0.8648 -0.2354 -0.2377
 1919SOL    HW117216   0.763   0.070   2.143  0.8016 -1.2346  2.5538
 1919SOL    HW217217   0.742   0.201   2.087  1.4088  3.9084  0.7990
 1920SOL     OW17218   4.334   1.448   7.900 -0.3900  0.1668 -0.3491
 1920SOL    HW117219   4.408   1.418   7.952 -0.7496  0.8383  0.5467
 1920SOL    HW217220   4.260   1.407   7.946 -0.3416 -2.0814 -2.2580
 1921SOL     OW17221   1.334   3.334   2.029  0.2127 -0.0424  0.6883
 1921SOL    HW117222   1.298   3.421   2.012 -1.3903 -0.9026 -0.3229
 1921SOL    HW217223   1.402   3.337   1.961 -1.1448 -0.5011 -0.7001
 1922SOL     OW17224   1.217   1.659  10.437  0.4661  0.0251 -0.2111
 1922SOL    HW117225   1.252   1.588  10.384  1.8198  0.6842 -0.1737
 1922SOL    HW217226   1.293   1.716  10.446 -0.4869  1.3353 -0.5071
 1923SOL     OW17227   2.613   0.463   5.605  0.0222 -0.7276  0.5161
 1923SOL    HW117228   2.562   0.520   5.663  0.3339  0.5713 -0.4989
 1923SOL    HW217229   2.580   0.480   5.517  0.3692  0.7822  0.6788
 1924SOL     OW17230   0.511   4.314   5.596 -0.1447 -0.7072 -0.2388
 1924SOL    HW117231   0.447   4.279   5.535 -0.3565  0.0999 -0.4744
 1924SOL    HW217232   0.525   4.403   5.564  0.6799 -0.9960 -0.6822
 1925SOL     OW17233   0.456   4.563   3.953 -0.0099  0.3756 -0.1862
 1925SOL    HW117234   0.435   4.563   3.860 -0.0529  1.4651 -0.1766
 1925SOL    HW217235   0.532   4.622   3.954 -1.0524  1.6754  1.4509
 1926SOL     OW17236   3.878   2.549  14.874 -0.0494  0.3602  0.0772
 1926SOL    HW117237   3.963   2.572  14.911 -1.1572  0.6296  2.4974
 1926SOL    HW217238   3.902   2.557  14.782 -0.4679  0.6505 -0.0085
 1927SOL     OW17239   4.329   3.917   8.253 -0.2898 -0.3717 -0.2458
 1927SOL    HW117240   4.339   3.992   8.312  0.0683  0.4616 -1.3509
 1927SOL    HW217241   4.265   3.870   8.306  0.0952  0.0585  0.6016
 1928SOL     OW17242   1.274   1.076  16.835 -0.2513 -0.2166 -0.1707
 1928SOL    HW117243   1.190   1.122  16.845  1.0440  2.0225  0.3639
 1928SOL    HW217244   1.334   1.144  16.865  0.5707 -1.2672  0.5599
 1929SOL     OW17245   0.112   3.117   9.336  0.2930 -0.1735  0.3775
 1929SOL    HW117246   0.148   3.069   9.262  2.4236 -2.4512  2.8822
 1929SOL    HW217247   0.037   3.163   9.298  1.2788  1.0932 -0.0520
 1930SOL     OW17248   4.401   0.200   3.558 -0.2858  0.7793 -0.2992
 1930SOL    HW117249   4.389   0.154   3.474  5.2570  0.1095 -0.7310
 1930SOL    HW217250   4.488   0.174   3.589 -1.3023  0.7970  2.4866
 1931SOL     OW17251   4.172   3.922   4.963 -0.0321  0.2061 -0.4958
 1931SOL    HW117252   4.096   3.912   5.019  0.9221 -0.4618  0.6932
 1931SOL    HW217253   4.135   3.924   4.875  0.6501  3.2961 -0.6950
 1932SOL     OW17254   2.600   2.412   7.974  0.2158  0.2675 -0.0760
 1932SOL    HW117255   2.553   2.471   7.914 -0.6491  1.3008  1.5950
 1932SOL    HW217256   2.530   2.347   7.978 -1.4551  2.1812  1.8801
 1933SOL     OW17257   1.865   2.643   9.480  0.6066  0.3700  0.7419
 1933SOL    HW117258   1.922   2.694   9.422  1.8353  0.7771  2.3148
 1933SOL    HW217259   1.797   2.707   9.502  1.0212  0.5578  1.4740
 1934SOL     OW17260   2.337   3.333  13.995  0.2079  0.1417 -0.4595
 1934SOL    HW117261   2.336   3.252  13.944  0.0347 -0.8504  1.1410
 1934SOL    HW217262   2.351   3.290  14.079 -1.1578  0.2687 -0.1615
 1935SOL     OW17263   1.040   4.003   4.778  0.2124 -0.6758 -0.1004
 1935SOL    HW117264   1.111   4.011   4.714  0.8494 -1.8630  0.4495
 1935SOL    HW217265   1.071   3.944   4.848  1.2948 -0.7241 -0.6180
 1936SOL     OW17266   0.063   2.481   5.764 -0.0292 -0.8221 -0.5582
 1936SOL    HW117267   0.027   2.392   5.765 -0.4365 -0.6405  0.2101
 1936SOL    HW217268   0.156   2.463   5.778  0.4818  1.7720 -0.6884
 1937SOL     OW17269   4.200   1.942   6.708 -0.1114  0.0323 -0.3370
 1937SOL    HW117270   4.127   1.987   6.751 -0.7902 -1.4342  0.0655
 1937SOL    HW217271   4.187   1.850   6.731  0.4047  0.1584  0.4446
 1938SOL     OW17272   0.461   2.374   7.124 -0.2376 -0.2263 -0.4033
 1938SOL    HW117273   0.427   2.305   7.068 -0.2798  0.3198 -1.0542
 1938SOL    HW217274   0.547   2.389   7.085  0.4545 -0.5665  1.0043
 1939SOL     OW17275   0.791   3.186  13.556 -0.1969  0.3074 -0.2075
 1939SOL    HW117276   0.862   3.142  13.603 -1.4577 -1.2660  0.2119
 1939SOL    HW217277   0.764   3.258  13.615  1.7711 -0.0126  1.0865
 1940SOL     OW17278   1.867   2.573  10.477  0.2806  0.1161  0.4193
 1940SOL    HW117279   1.804   2.642  10.498  0.1015 -0.0059  0.2820
 1940SOL    HW217280   1.856   2.517  10.553 -0.9388  0.7389  0.6851
 1941SOL     OW17281   2.043   3.952  17.519 -0.2643 -0.7163  0.4362
 1941SOL    HW117282   2.063   3.880  17.579  4.4076 -0.4156 -0.7280
 1941SOL    HW217283   2.006   4.014  17.582 -0.2238 -0.2734  0.0239
 1942SOL     OW17284   0.914   3.881  11.040 -0.1804 -0.6697  0.1741
 1942SOL    HW117285   0.913   3.805  10.981  0.8329 -0.7411  0.2477
 1942SOL    HW217286   0.931   3.955  10.982 -1.5083 -1.2565 -0.9677
 1943SOL     OW17287   1.332   1.820   2.070 -0.5034 -0.0832 -0.0150
 1943SOL    HW117288   1.413   1.779   2.099  1.1089  2.2213 -1.2401
 1943SOL    HW217289   1.346   1.915   2.074 -1.2019  0.1242 -2.1406
 1944SOL     OW17290   0.588   1.897   2.422  0.8504  0.2392  0.2430
 1944SOL    HW117291   0.505   1.943   2.408  0.7264  0.0845  0.4719
 1944SOL    HW217292   0.568   1.814   2.380 -0.6392  0.2551  0.9375
 1945SOL     OW17293   3.161   2.333  16.446 -0.0883  0.1394 -0.4732
 1945SOL    HW117294   3.105   2.384  16.504  0.9603  0.9016 -0.1513
 1945SOL    HW217295   3.103   2.261  16.418  0.5937  0.1104 -1.8111
 1946SOL     OW17296   2.366   1.063   3.486 -0.3296 -0.0921  0.2322
 1946SOL    HW117297   2.367   0.980   3.437 -0.6324  0.3026 -0.4407
 1946SOL    HW217298   2.291   1.046   3.543 -0.0325 -0.6790  0.4498
 1947SOL     OW17299   2.428   0.289   2.467  0.2616  0.0276  0.7290
 1947SOL    HW117300   2.335   0.266   2.474 -0.4051  1.8948 -2.4384
 1947SOL    HW217301   2.467   0.203   2.483 -2.0641 -0.6962  2.5726
 1948SOL     OW17302   0.111   0.089   4.225  0.6958  0.1293 -0.1372
 1948SOL    HW117303   0.027   0.061   4.262  1.0104  2.2732  2.2337
 1948SOL    HW217304   0.175   0.052   4.285 -0.7915 -1.3339  0.5471
 1949SOL     OW17305   3.370   0.591   9.919  0.2198  0.4624  0.1245
 1949SOL    HW117306   3.430   0.533   9.967  0.5440 -0.1854 -1.0519
 1949SOL    HW217307   3.302   0.603   9.985 -0.9021 -0.1272 -0.9191
 1950SOL     OW17308   1.932   1.734   2.980  0.0064  0.6313 -0.5895
 1950SOL    HW117309   1.884   1.669   3.030  1.0366 -0.4797 -1.0481
 1950SOL    HW217310   1.993   1.683   2.927  1.1932  0.8755  0.5412
 1951SOL     OW17311   2.847   3.567   4.892  0.5803 -0.4171  0.3686
 1951SOL    HW117312   2.893   3.485   4.911  0.7550 -0.5854 -0.7717
 1951SOL    HW217313   2.777   3.566   4.956 -1.7920 -0.1951 -2.2469
 1952SOL     OW17314   0.482   0.211   5.824 -0.1509  0.1598 -0.5085
 1952SOL    HW117315   0.494   0.305   5.815 -0.1976  0.4076  1.7967
 1952SOL    HW217316   0.409   0.213   5.886  1.2591  0.7116  1.1347
 1953SOL     OW17317   2.600   3.609   3.564 -0.5862 -0.3939 -0.1857
 1953SOL    HW117318   2.521   3.664   3.568  1.3742  2.3347  1.3453
 1953SOL    HW217319   2.640   3.687   3.528 -0.9239 -1.0368 -1.9356
 1954SOL     OW17320   2.917   2.670   3.314 -0.1296  0.2380  0.0457
 1954SOL    HW117321   2.890   2.638   3.228  3.4590 -1.2909 -0.5011
 1954SOL    HW217322   2.844   2.728   3.338  1.1495  1.3284  1.3548
 1955SOL     OW17323   4.282   4.355   7.462 -0.1360 -0.0637 -0.0571
 1955SOL    HW117324   4.192   4.386   7.455 -0.2285 -0.2536  0.2857
 1955SOL    HW217325   4.318   4.376   7.376  2.0049 -0.7717  0.6631
 1956SOL     OW17326   4.235   4.538   0.553 -0.1809 -0.5004  0.8391
 1956SOL    HW117327   4.184   4.490   0.619  1.1947 -0.1204  2.1536
 1956SOL    HW217328   4.320   4.494   0.556  1.0858  1.9680  0.9411
 1957SOL     OW17329   0.261   2.240   9.869  0.4035  0.4901  0.0025
 1957SOL    HW117330   0.206   2.164   9.887  1.1749 -0.2118 -0.5940
 1957SOL    HW217331   0.350   2.212   9.888  0.6088  0.3450 -1.1782
 1958SOL     OW17332   4.107   0.809   5.528  0.2048 -0.7788  0.4580
 1958SOL    HW117333   4.067   0.870   5.466 -1.3281 -1.4139  0.8009
 1958SOL    HW217334   4.182   0.861   5.556  0.6011  0.3258 -2.6814
 1959SOL     OW17335   2.072   4.611  16.490  0.0698  0.0895 -0.2487
 1959SOL    HW117336   2.117   4.582  16.411  0.7821 -0.4685  0.3635
 1959SOL    HW217337   2.145   4.626  16.550 -0.3507 -3.4744  1.1019
 1960SOL     OW17338   2.996   2.449   9.084 -0.1569 -0.5604  0.0334
 1960SOL    HW117339   2.981   2.441   9.178 -1.6371 -0.2026 -0.1758
 1960SOL    HW217340   2.985   2.544   9.083 -1.4863 -0.7007  1.2616
 1961SOL     OW17341   0.632   2.398   5.521  0.0421  0.2616  0.3500
 1961SOL    HW117342   0.665   2.487   5.510  2.5169 -1.0461 -3.0145
 1961SOL    HW217343   0.538   2.418   5.528 -0.9315 -2.9635 -3.3380
 1962SOL     OW17344   0.134   2.796   6.115  0.0527 -0.3868  0.1688
 1962SOL    HW117345   0.079   2.799   6.038  0.1056  0.9727  0.1785
 1962SOL    HW217346   0.081   2.738   6.170  2.8048 -1.9468  1.2052
 1963SOL     OW17347   2.864   2.183   4.064  0.1752  0.0901  0.2797
 1963SOL    HW117348   2.859   2.253   4.129 -1.9034 -0.8203  1.1003
 1963SOL    HW217349   2.859   2.102   4.115 -1.5623 -0.0132 -0.0555
 1964SOL     OW17350   2.280   4.176  15.666  0.2411 -0.2694 -0.2824
 1964SOL    HW117351   2.357   4.119  15.670 -0.8289 -1.6923  0.1562
 1964SOL    HW217352   2.255   4.185  15.758  1.2408  2.1229 -0.2589
 1965SOL     OW17353   1.382   0.243  15.205  0.2482 -0.0938  0.1159
 1965SOL    HW117354   1.303   0.236  15.259  0.5926 -2.3316  0.3490
 1965SOL    HW217355   1.439   0.177  15.245  0.6381  1.0103  1.3980
 1966SOL     OW17356   2.729   2.701   0.338  0.0617  0.0906  0.1466
 1966SOL    HW117357   2.721   2.607   0.352 -0.1345  0.5156  2.8444
 1966SOL    HW217358   2.636   2.722   0.347 -0.6579 -3.4799  0.8839
 1967SOL     OW17359   0.925   0.346  13.144  0.3167  0.2731  0.4908
 1967SOL    HW117360   0.837   0.383  13.134  0.1246 -0.5977 -1.0603
 1967SOL    HW217361   0.980   0.421  13.165  0.9828 -0.2462  0.5929
 1968SOL     OW17362   1.536   2.641  15.555 -0.2071  0.2963 -0.3099
 1968SOL    HW117363   1.574   2.634  15.467 -0.2500  1.4669 -0.4262
 1968SOL    HW217364   1.530   2.734  15.576 -0.4867  0.0270  0.7655
 1969SOL     OW17365   0.601   0.003  13.870  0.3989  0.3508 -0.3675
 1969SOL    HW117366   0.611   4.703  13.962  1.3458  1.0447 -0.2909
 1969SOL    HW217367   0.692   0.026  13.854  0.3580  0.4340 -0.4787
 1970SOL     OW17368   2.575   3.097   9.267 -0.3231  0.3181 -0.8644
 1970SOL    HW117369   2.612   3.137   9.188  1.0401  1.4816  0.3779
 1970SOL    HW217370   2.550   3.006   9.247 -0.7292 -0.0404  1.3418
 1971SOL     OW17371   0.571   2.231  12.077  0.1126  0.3320  0.3251
 1971SOL    HW117372   0.522   2.267  12.150 -0.7453 -1.5867  0.6917
 1971SOL    HW217373   0.649   2.204  12.126 -0.3799  0.3357  1.1017
 1972SOL     OW17374   3.264   0.327   9.096 -0.8626 -0.8519 -0.1723
 1972SOL    HW117375   3.197   0.290   9.037 -0.2522 -0.7086 -0.9518
 1972SOL    HW217376   3.330   0.257   9.097 -1.0254 -1.0066 -0.1592
 1973SOL     OW17377   1.800   2.177   8.797 -0.6245 -0.1869  0.6300
 1973SOL    HW117378   1.811   2.087   8.828 -1.2434 -1.0710 -1.7499
 1973SOL    HW217379   1.758   2.160   8.713 -0.9842 -0.0713  0.7893
 1974SOL     OW17380   2.022   4.511  11.568 -0.3979 -0.8665 -0.2515
 1974SOL    HW117381   2.069   4.534  11.487  1.0624  1.2388  1.2025
 1974SOL    HW217382   2.022   4.596  11.612 -0.4413 -0.3626 -1.2314
 1975SOL     OW17383   2.050   3.548   8.963 -0.0567  0.3940 -0.4311
 1975SOL    HW117384   2.036   3.583   9.051  0.7961  2.0899 -0.9531
 1975SOL    HW217385   1.965   3.508   8.947  0.1616 -0.5685  0.8670
 1976SOL     OW17386   0.804   1.096   1.718  0.4340 -0.4891  0.6290
 1976SOL    HW117387   0.873   1.029   1.722  0.1318 -0.7546  1.4090
 1976SOL    HW217388   0.738   1.053   1.771  0.0780 -1.5162 -0.6315
 1977SOL     OW17389   4.687   2.356   6.312 -0.1631  0.1658 -0.1820
 1977SOL    HW117390   4.707   2.283   6.370  3.2622  1.4371  0.2727
 1977SOL    HW217391   0.006   2.336   6.229 -1.2922  1.4055 -1.0555
 1978SOL     OW17392   4.208   4.669  11.942 -0.8482  0.8395  0.0207
 1978SOL    HW117393   4.234   4.576  11.942 -1.0956  0.7709 -0.2020
 1978SOL    HW217394   4.198   4.685  12.036  0.8147  1.9545  0.0116
 1979SOL     OW17395   1.852   0.981   7.260 -0.1313  0.3251 -0.0505
 1979SOL    HW117396   1.861   0.995   7.354 -0.3879  0.1927 -0.0074
 1979SOL    HW217397   1.937   0.940   7.241  0.2324  0.8631  0.4005
 1980SOL     OW17398   0.691   4.272  17.323  0.5728  0.7428  1.0061
 1980SOL    HW117399   0.728   4.185  17.338 -1.3259 -0.4144 -1.0367
 1980SOL    HW217400   0.700   4.293  17.230 -3.6203 -0.0450  0.4037
 1981SOL     OW17401   4.253   3.119  17.564  0.0452  0.4752  0.1757
 1981SOL    HW117402   4.315   3.047  17.568  0.4971  0.7809 -1.4127
 1981SOL    HW217403   4.286   3.178  17.497 -0.2887  1.1361  0.5882
 1982SOL     OW17404   3.636   3.232   4.325 -0.8056  0.3034 -0.2133
 1982SOL    HW117405   3.653   3.196   4.413 -0.5794 -3.1226 -1.6359
 1982SOL    HW217406   3.712   3.195   4.280  0.4226  0.9342  1.3217
 1983SOL     OW17407   0.040   1.343   4.971 -0.0554  0.1171 -0.1126
 1983SOL    HW117408   0.130   1.321   4.944  0.4964 -1.1203  2.8227
 1983SOL    HW217409   0.065   1.407   5.037  1.5185  1.5175 -2.0534
 1984SOL     OW17410   4.081   4.671   9.775  0.2711  0.2574 -0.4144
 1984SOL    HW117411   4.171   4.640   9.762  0.8477  2.0690 -0.7558
 1984SOL    HW217412   4.091   0.041   9.782 -0.4301  0.1512  1.8838
 1985SOL     OW17413   4.379   1.939  12.412  0.7243 -0.5188 -0.2250
 1985SOL    HW117414   4.340   1.914  12.328 -1.4812  0.1758  0.5964
 1985SOL    HW217415   4.392   2.032  12.397  2.0375 -0.8241 -0.9944
 1986SOL     OW17416   4.508   2.175   4.078  0.5284  0.5909  0.5213
 1986SOL    HW117417   4.433   2.125   4.045 -0.0390 -0.1521  2.9331
 1986SOL    HW217418   4.565   2.138   4.011  0.6583  0.8645  0.4818
 1987SOL     OW17419   3.111   3.949   3.378 -0.4172 -0.0889  0.0283
 1987SOL    HW117420   3.124   3.869   3.328  0.3232  0.4797 -0.6979
 1987SOL    HW217421   3.042   3.927   3.441 -0.1197 -0.1332  0.3415
 1988SOL     OW17422   2.795   2.978  11.743 -0.4411  0.6802  0.0308
 1988SOL    HW117423   2.850   2.907  11.709  1.4970  1.9146  0.5864
 1988SOL    HW217424   2.710   2.954  11.705 -0.6290  1.9183 -0.3240
 1989SOL     OW17425   4.245   0.076   2.905  0.0585  0.3303 -0.1763
 1989SOL    HW117426   4.302   0.052   2.832 -1.3425  0.0885 -1.1951
 1989SOL    HW217427   4.315   0.104   2.964  0.7933 -0.6366 -0.6084
 1990SOL     OW17428   4.490   4.608   6.391 -0.3202 -0.7110 -0.0014
 1990SOL    HW117429   4.498   4.633   6.482 -0.8136 -0.4590 -0.0290
 1990SOL    HW217430   4.581   4.623   6.364 -0.4262 -0.0334  0.0334
 1991SOL     OW17431   2.099   4.185  15.451  0.2012 -0.0312 -0.0296
 1991SOL    HW117432   2.167   4.199  15.518  1.0188 -0.0311 -0.8587
 1991SOL    HW217433   2.090   4.090  15.446  1.2817 -0.1959  1.0386
 1992SOL     OW17434   2.215   2.431   9.589 -0.3906  0.4306 -0.3895
 1992SOL    HW117435   2.236   2.437   9.682 -0.2071  0.1807 -0.4142
 1992SOL    HW217436   2.124   2.398   9.591 -0.5895  0.9653 -0.7582
 1993SOL     OW17437   1.502   2.087   1.257 -0.3658  0.1111  0.0087
 1993SOL    HW117438   1.462   2.022   1.315  1.6420 -0.4020  0.8020
 1993SOL    HW217439   1.528   2.154   1.321 -0.6395  0.7638 -0.5688
 1994SOL     OW17440   1.247   4.402   1.957 -0.1615 -0.1070 -0.2028
 1994SOL    HW117441   1.180   4.335   1.947  0.0463 -0.5337  1.2125
 1994SOL    HW217442   1.186   4.470   1.985  0.3299  0.2215  0.0852
 1995SOL     OW17443   1.870   4.259  13.877  0.0579  0.0450 -0.3139
 1995SOL    HW117444   1.863   4.275  13.782 -0.4422  0.2925 -0.2360
 1995SOL    HW217445   1.788   4.301  13.901 -0.0583 -0.0885 -0.4717
 1996SOL     OW17446   3.269   2.669   6.442 -0.0265  0.0323 -0.4720
 1996SOL    HW117447   3.195   2.705   6.393 -1.7041  2.2154  3.6782
 1996SOL    HW217448   3.226   2.589   6.473  1.2414 -0.3128  0.3890
 1997SOL     OW17449   4.461   0.773   9.343  0.5744  0.0480 -0.1743
 1997SOL    HW117450   4.462   0.692   9.394 -0.2855 -0.0736 -0.3586
 1997SOL    HW217451   4.554   0.794   9.335  0.6504 -1.0576 -2.1620
 1998SOL     OW17452   3.275   0.077  11.535  0.1845 -0.8705  0.5660
 1998SOL    HW117453   3.320   0.041  11.458  0.3249 -0.0595  0.2696
 1998SOL    HW217454   3.209   0.125  11.486 -1.0735 -2.5010  0.6611
 1999SOL     OW17455   2.489   2.605   7.790 -0.1770  0.3326 -0.6765
 1999SOL    HW117456   2.535   2.686   7.768  1.6277 -0.5950 -0.3237
 1999SOL    HW217457   2.412   2.648   7.828  1.7948  0.5146  3.0939
 2000SOL     OW17458   1.367   0.110   8.036 -0.6435 -0.4692  0.2755
 2000SOL    HW117459   1.279   0.142   8.053  0.0418  0.9239  1.2311
 2000SOL    HW217460   1.336   0.033   7.987 -1.3637 -0.3748  0.5857
 2001SOL     OW17461   1.452   1.274   0.722 -0.0471 -0.1427 -0.1959
 2001SOL    HW117462   1.424   1.361   0.753 -0.1739  0.1073 -1.0104
 2001SOL    HW217463   1.443   1.290   0.628 -0.6653  1.1252  0.0712
 2002SOL     OW17464   3.492   2.600   4.405  0.4361 -0.4208 -0.0836
 2002SOL    HW117465   3.587   2.591   4.401  0.2960 -2.1664  0.2002
 2002SOL    HW217466   3.483   2.636   4.493  0.3640 -1.3826  0.3097
 2003SOL     OW17467   0.994   3.482   3.406  0.3178  0.1676 -0.6724
 2003SOL    HW117468   0.904   3.511   3.418  0.3771  0.2580 -0.4276
 2003SOL    HW217469   1.001   3.487   3.311  1.5543 -0.5184 -0.6221
 2004SOL     OW17470   1.086   0.425  12.310 -0.3631 -0.2121  0.2994
 2004SOL    HW117471   1.072   0.457  12.221  2.1715  1.9262  0.6352
 2004SOL    HW217472   1.156   0.484  12.341  0.5328 -0.5371 -1.1169
 2005SOL     OW17473   0.789   3.475   4.610  0.7212  0.3347  0.6102
 2005SOL    HW117474   0.806   3.390   4.650 -1.4397  0.3983  1.7141
 2005SOL    HW217475   0.698   3.487   4.637  0.6328  0.0180  0.4512
 2006SOL     OW17476   3.692   3.984   7.546  0.2956  0.5757 -0.1318
 2006SOL    HW117477   3.598   3.968   7.538  0.3801  0.8541 -1.7783
 2006SOL    HW217478   3.701   3.990   7.641  0.9654  0.4615 -0.1880
 2007SOL     OW17479   1.167   2.552  16.225  0.0793  0.6390  0.1055
 2007SOL    HW117480   1.150   2.475  16.280 -0.2089  1.3721  1.0414
 2007SOL    HW217481   1.182   2.513  16.139 -0.1172 -2.2813  1.3798
 2008SOL     OW17482   0.567   0.325   2.546 -0.2499 -0.1208  0.2274
 2008SOL    HW117483   0.518   0.346   2.467 -0.7881 -0.1445  0.5512
 2008SOL    HW217484   0.538   0.235   2.560  0.6021 -0.4792 -0.3943
 2009SOL     OW17485   1.398   0.963   0.709  0.5163  0.5264  0.0954
 2009SOL    HW117486   1.401   1.058   0.696 -2.1295  0.4369 -1.1874
 2009SOL    HW217487   1.467   0.929   0.652  0.8333  1.4060 -0.0418
 2010SOL     OW17488   3.855   0.393   9.323  0.1389 -0.1266 -0.8497
 2010SOL    HW117489   3.776   0.428   9.281 -0.2386  0.5050  0.3768
 2010SOL    HW217490   3.892   0.467   9.371 -0.3830 -0.4788  0.1063
 2011SOL     OW17491   2.043   3.033   2.946  0.2854  0.5681 -0.1603
 2011SOL    HW117492   2.058   3.123   2.917  2.2070 -0.1667 -1.4989
 2011SOL    HW217493   1.953   3.040   2.978  0.6717  0.0544  1.0510
 2012SOL     OW17494   1.178   2.625  17.125  0.3275 -0.8141 -0.0310
 2012SOL    HW117495   1.098   2.601  17.172  0.6839  0.3853  1.1832
 2012SOL    HW217496   1.187   2.559  17.057 -1.4398 -0.4799 -0.5902
 2013SOL     OW17497   0.681   3.817   4.914 -0.2153  0.6646 -0.0422
 2013SOL    HW117498   0.727   3.831   4.832 -1.7883  0.7530 -0.9022
 2013SOL    HW217499   0.597   3.778   4.888 -0.9358  1.1132  1.5665
 2014SOL     OW17500   1.388   1.373   5.295  0.2503 -0.0463 -0.1095
 2014SOL    HW117501   1.444   1.450   5.286  0.4163 -0.1259  0.2513
 2014SOL    HW217502   1.329   1.408   5.228 -0.6275  2.7898  2.1248
 2015SOL     OW17503   2.290   3.107   9.515 -0.3402  0.3057 -0.3284
 2015SOL    HW117504   2.366   3.158   9.543 -1.4151  0.3979  2.4241
 2015SOL    HW217505   2.333   3.024   9.492 -3.3519 -1.3630  0.1334
 2016SOL     OW17506   2.079   2.019   3.095  0.3387  0.4058 -0.2441
 2016SOL    HW117507   2.148   1.953   3.090 -1.4134 -1.2084 -3.3435
 2016SOL    HW217508   2.129   2.099   3.082  1.7691 -0.3564  0.6156
 2017SOL     OW17509   4.066   1.176  17.474 -0.7849  0.7787  0.2934
 2017SOL    HW117510   3.990   1.219  17.433 -1.8191 -0.4359  0.9577
 2017SOL    HW217511   4.122   1.253  17.482 -0.0290  0.3543 -0.8965
 2018SOL     OW17512   4.032   4.366  17.606  0.2409 -0.2334 -0.3562
 2018SOL    HW117513   3.971   4.422  17.653  0.6616 -0.2001  0.1625
 2018SOL    HW217514   4.109   4.355  17.662 -1.3830 -0.2507  1.8662
 2019SOL     OW17515   3.405   2.474   3.012 -0.2776 -0.0357  0.2968
 2019SOL    HW117516   3.441   2.393   2.977  0.5955 -0.0163  1.1321
 2019SOL    HW217517   3.380   2.522   2.934  0.1132 -1.2594 -0.5808
 2020SOL     OW17518   1.820   4.705  17.525 -0.2590 -0.2355 -0.1828
 2020SOL    HW117519   1.855   0.062  17.560  1.6927 -1.8329  1.6640
 2020SOL    HW217520   1.771   4.685  17.606  0.3117 -0.8121  0.0207
 2021SOL     OW17521   1.412   4.175  15.326 -0.0123 -0.5030  0.2215
 2021SOL    HW117522   1.490   4.126  15.301 -0.5118  0.5936 -3.5469
 2021SOL    HW217523   1.439   4.215  15.408 -0.1632  2.9560 -1.4371
 2022SOL     OW17524   0.814   2.767   5.821 -0.2183  0.0767 -0.0988
 2022SOL    HW117525   0.861   2.698   5.869 -2.6916 -0.0299  2.2021
 2022SOL    HW217526   0.883   2.790   5.760 -1.7617  1.5732 -1.2685
 2023SOL     OW17527   2.493   1.390   5.215  0.6649 -0.1168  0.2376
 2023SOL    HW117528   2.572   1.435   5.185  0.8313  0.0383  0.9007
 2023SOL    HW217529   2.458   1.362   5.130  2.0647 -1.4274  0.0978
 2024SOL     OW17530   0.130   2.669  10.990 -0.2556  0.1819  0.6674
 2024SOL    HW117531   0.196   2.618  11.037 -1.2954 -1.6797  0.1108
 2024SOL    HW217532   0.163   2.676  10.901  0.8835 -1.0451  1.0041
 2025SOL     OW17533   1.783   2.471  15.072  0.1306 -0.2072  0.4948
 2025SOL    HW117534   1.825   2.418  15.005  0.1081 -0.0833  0.3837
 2025SOL    HW217535   1.811   2.445  15.160  2.3540 -0.0518 -0.1932
 2026SOL     OW17536   0.964   2.678  15.172  0.3022 -0.5716  0.3043
 2026SOL    HW117537   0.990   2.600  15.122  1.8607 -0.0344  0.2976
 2026SOL    HW217538   1.001   2.742  15.111 -0.4227 -0.9985 -0.5858
 2027SOL     OW17539   4.014   0.909   2.811 -0.3904  0.0707 -0.0792
 2027SOL    HW117540   3.956   0.834   2.819 -2.4629  1.4965 -1.5985
 2027SOL    HW217541   4.095   0.884   2.855 -1.2925 -1.8839  0.4486
 2028SOL     OW17542   2.393   0.932   7.730  0.1884  0.2591 -0.0499
 2028SOL    HW117543   2.364   1.022   7.717  1.0752  1.0165  3.2712
 2028SOL    HW217544   2.482   0.949   7.759  0.8005 -1.3326 -0.9698
 2029SOL     OW17545   3.641   1.972   7.235 -0.1584 -0.4470 -0.2299
 2029SOL    HW117546   3.660   1.885   7.270  0.4463 -0.3275 -0.2528
 2029SOL    HW217547   3.563   1.994   7.285 -0.1306  0.4097 -0.5713
 2030SOL     OW17548   1.707   1.712   4.988  0.4914 -0.0895 -0.1125
 2030SOL    HW117549   1.758   1.677   4.915  0.1317  0.6993 -0.7467
 2030SOL    HW217550   1.761   1.791   4.986  2.2999 -1.3005  0.7732
 2031SOL     OW17551   0.613   0.855   1.043 -0.9035 -0.3647  0.2237
 2031SOL    HW117552   0.659   0.826   1.122 -0.2330  0.2316  0.0541
 2031SOL    HW217553   0.629   0.949   1.046 -2.3114 -0.1660  1.5246
 2032SOL     OW17554   4.104   3.688   1.333  0.3718 -0.0470  0.1277
 2032SOL    HW117555   4.163   3.718   1.263 -0.5721  1.0583 -0.1848
 2032SOL    HW217556   4.145   3.602   1.344 -1.7838 -1.3499 -2.1088
 2033SOL     OW17557   0.176   0.269   2.768  0.2325 -0.7654  0.2016
 2033SOL    HW117558   0.121   0.341   2.739  1.4050 -0.2348 -0.6734
 2033SOL    HW217559   0.251   0.315   2.806 -0.5218  1.2968 -0.8290
 2034SOL     OW17560   2.226   4.352   9.248 -0.2064  0.2257  0.7548
 2034SOL    HW117561   2.252   4.439   9.277 -0.9559  0.9721 -0.8433
 2034SOL    HW217562   2.154   4.338   9.309 -0.3165 -2.1426  0.0788
 2035SOL     OW17563   2.993   0.773   3.631  0.4291 -0.3164  0.0059
 2035SOL    HW117564   2.917   0.720   3.654 -1.6228  2.9671  0.7149
 2035SOL    HW217565   2.988   0.851   3.686  0.0360 -0.8187  0.6770
 2036SOL     OW17566   3.353   3.934   9.601 -0.3603 -0.4645 -0.3432
 2036SOL    HW117567   3.357   4.007   9.540 -0.5568  0.1449  0.3697
 2036SOL    HW217568   3.263   3.951   9.631 -0.4209  0.4397 -1.0336
 2037SOL     OW17569   1.507   3.332   4.396  0.3791 -0.0880  0.0213
 2037SOL    HW117570   1.574   3.344   4.329  0.6475 -0.8056  0.1568
 2037SOL    HW217571   1.437   3.390   4.365 -0.1412 -0.5726  0.2828
 2038SOL     OW17572   1.312   3.388   6.914 -0.0587  0.4005  0.2791
 2038SOL    HW117573   1.242   3.332   6.948  1.7540 -2.3179 -0.5218
 2038SOL    HW217574   1.381   3.332   6.881 -0.8629  0.9522 -2.3129
 2039SOL     OW17575   1.163   1.129  14.071  0.0589 -0.2333 -0.6492
 2039SOL    HW117576   1.105   1.118  13.996 -2.8001 -1.5264  1.7233
 2039SOL    HW217577   1.112   1.189  14.126  0.0689 -1.0966  0.3184
 2040SOL     OW17578   3.677   2.346   3.889  0.1478 -0.4282  0.1664
 2040SOL    HW117579   3.730   2.406   3.942 -2.8155 -1.3254  4.1492
 2040SOL    HW217580   3.725   2.264   3.896  2.4242  1.0143  1.3888
 2041SOL     OW17581   2.104   2.436   5.230 -0.4887  0.2026  0.0994
 2041SOL    HW117582   2.184   2.430   5.178 -2.8235 -4.2672 -2.9477
 2041SOL    HW217583   2.028   2.438   5.171  0.0329 -1.9871 -0.6159
 2042SOL     OW17584   4.501   2.463   3.045 -0.0788  0.9257  0.0672
 2042SOL    HW117585   4.433   2.410   3.003 -1.1010  1.4189  1.1046
 2042SOL    HW217586   4.568   2.458   2.976  0.7490 -1.6482  1.0524
 2043SOL     OW17587   2.088   2.602  17.509 -0.2120  0.9189 -0.5162
 2043SOL    HW117588   2.169   2.645  17.481  0.7060 -1.1491 -0.9756
 2043SOL    HW217589   2.083   2.651  17.591  2.5244  2.5763 -1.3398
 2044SOL     OW17590   2.700   4.364   8.964  0.7357 -0.5459 -1.0462
 2044SOL    HW117591   2.616   4.389   9.003  1.1322 -0.4089 -0.2669
 2044SOL    HW217592   2.730   4.305   9.033 -1.1373  2.0527  2.0195
 2045SOL     OW17593   3.359   4.180   7.204 -0.2705 -0.3866  0.5130
 2045SOL    HW117594   3.429   4.190   7.268  0.8852  0.6690 -0.9219
 2045SOL    HW217595   3.370   4.259   7.153  0.7294 -1.1943 -0.5107
 2046SOL     OW17596   0.261   0.720   2.548 -0.3648 -0.2361  0.1683
 2046SOL    HW117597   0.213   0.682   2.474 -0.5635 -3.5639  2.0020
 2046SOL    HW217598   0.192   0.769   2.593  0.2404  1.1502 -0.4143
 2047SOL     OW17599   2.734   4.421  17.185  0.0705 -0.0519  0.2333
 2047SOL    HW117600   2.738   4.501  17.238 -2.2420  1.5423 -1.9836
 2047SOL    HW217601   2.651   4.432  17.138  0.4393  0.9576 -0.1718
 2048SOL     OW17602   2.528   1.296   0.738 -0.3280 -0.9211  0.0760
 2048SOL    HW117603   2.624   1.305   0.733 -0.4117 -0.7376 -1.3136
 2048SOL    HW217604   2.511   1.333   0.824 -1.0409 -0.6919 -0.1653
 2049SOL     OW17605   2.352   0.222   8.192  0.5642 -0.8244  0.3721
 2049SOL    HW117606   2.373   0.240   8.284  1.3278 -0.0758  0.0494
 2049SOL    HW217607   2.290   0.149   8.197 -2.6126  1.7918 -0.8308
 2050SOL     OW17608   2.751   0.408   6.479 -0.1232  0.1779  0.6215
 2050SOL    HW117609   2.733   0.410   6.385 -1.4256 -1.9056  0.8326
 2050SOL    HW217610   2.738   0.499   6.506 -0.0228  0.3226  0.1786
 2051SOL     OW17611   3.081   1.694  14.077  0.5273  0.0334 -0.1573
 2051SOL    HW117612   3.080   1.661  14.167 -2.7863  2.5544  0.7085
 2051SOL    HW217613   3.019   1.766  14.067  0.0495 -0.2257  0.9222
 2052SOL     OW17614   3.071   3.781  15.610 -0.4738  0.1959  0.7000
 2052SOL    HW117615   3.101   3.859  15.657 -2.6019  0.6764  1.2614
 2052SOL    HW217616   2.987   3.803  15.569 -0.2811  0.1294  0.2646
 2053SOL     OW17617   1.627   1.162   3.272 -0.1706  0.5703 -0.0919
 2053SOL    HW117618   1.615   1.161   3.177  3.4601  2.1805 -0.5524
 2053SOL    HW217619   1.639   1.072   3.301  0.0896 -0.2657 -2.7885
 2054SOL     OW17620   0.343   3.392   6.072 -0.2464  0.4961  0.0293
 2054SOL    HW117621   0.380   3.304   6.083  0.4296  0.7269 -0.3568
 2054SOL    HW217622   0.298   3.368   5.992 -1.9373 -2.5287  1.9013
 2055SOL     OW17623   0.842   4.359   0.163  0.3607 -0.4710 -0.2666
 2055SOL    HW117624   0.810   4.324   0.246  1.6907  1.1893  0.9433
 2055SOL    HW217625   0.789   4.303   0.106  1.3979 -2.4812  0.7573
 2056SOL     OW17626   1.688   0.311   4.764  0.5642  0.0833  0.1922
 2056SOL    HW117627   1.730   0.341   4.845 -0.0088 -0.3175  0.6340
 2056SOL    HW217628   1.722   0.223   4.747 -0.1076  0.2191 -1.7952
 2057SOL     OW17629   4.707   0.772   2.315  0.1425 -0.4760  0.5587
 2057SOL    HW117630   0.048   0.712   2.281  1.0241  0.7967 -0.0049
 2057SOL    HW217631   4.664   0.715   2.378  1.3571 -0.0434  1.7902
 2058SOL     OW17632   2.931   3.235   6.054  0.5511  0.4706  0.0374
 2058SOL    HW117633   3.009   3.284   6.084  0.8134  0.8877 -1.3344
 2058SOL    HW217634   2.867   3.305   6.044  0.0802  0.0000 -0.2146
 2059SOL     OW17635   1.142   3.064   5.841  0.1327  0.2432 -0.0648
 2059SOL    HW117636   1.145   3.031   5.930  1.6974 -0.7224 -0.4677
 2059SOL    HW217637   1.222   3.115   5.848  1.4748 -1.8061 -0.5603
 2060SOL     OW17638   4.478   0.504   5.080 -0.4712  0.0526 -0.3189
 2060SOL    HW117639   4.453   0.524   4.990  1.6536 -0.2664 -0.9713
 2060SOL    HW217640   4.474   0.408   5.074  1.3366 -0.0300 -0.2632
 2061SOL     OW17641   3.756   3.859   3.238 -0.6879  0.0509  0.3404
 2061SOL    HW117642   3.781   3.791   3.176  1.7509  0.0825  1.3070
 2061SOL    HW217643   3.759   3.941   3.188 -1.0945 -0.6831 -0.8903
 2062SOL     OW17644   2.792   2.567  16.368 -0.4913  0.2049 -0.4941
 2062SOL    HW117645   2.824   2.551  16.456 -1.7661 -1.7758 -0.3825
 2062SOL    HW217646   2.711   2.516  16.367  0.5735 -1.5081  0.2310
 2063SOL     OW17647   4.614   3.470   6.540 -0.4412 -0.0080  0.3516
 2063SOL    HW117648   4.692   3.516   6.508 -0.2148 -0.1361  0.7211
 2063SOL    HW217649   4.655   3.386   6.555  0.5124  0.5347  0.7734
 2064SOL     OW17650   1.996   4.293   1.382 -0.3663  0.3876  0.3949
 2064SOL    HW117651   1.950   4.323   1.304 -0.9518  1.2381  1.0668
 2064SOL    HW217652   1.998   4.201   1.357  0.0703  0.0012  1.8582
 2065SOL     OW17653   3.390   2.870  11.977 -0.0316  0.6481  0.3474
 2065SOL    HW117654   3.422   2.942  11.922  2.9464 -0.9251  0.0081
 2065SOL    HW217655   3.317   2.833  11.928  2.0768 -1.2729 -1.3509
 2066SOL     OW17656   0.162   2.749   5.427  0.2897  0.7678  0.4004
 2066SOL    HW117657   0.254   2.767   5.450 -0.0005  2.9213 -0.1224
 2066SOL    HW217658   0.163   2.733   5.332 -1.8499  3.1483 -0.0010
 2067SOL     OW17659   0.654   4.679   3.687  0.0497 -0.3223  0.7233
 2067SOL    HW117660   0.677   0.021   3.753  0.2934 -0.1670  0.4783
 2067SOL    HW217661   0.689   4.604   3.734  2.7875  0.2318 -0.4398
 2068SOL     OW17662   3.381   1.515   2.292 -0.0341 -0.0119 -0.2108
 2068SOL    HW117663   3.451   1.539   2.353 -0.2657  2.3854 -0.8948
 2068SOL    HW217664   3.425   1.444   2.245  1.1586 -0.5205  1.6605
 2069SOL     OW17665   0.538   2.523   8.004 -0.4386  0.2088  0.1044
 2069SOL    HW117666   0.523   2.537   8.097  0.2251  1.1358  0.0705
 2069SOL    HW217667   0.494   2.441   7.982  0.7339 -0.6118  0.8498
 2070SOL     OW17668   3.241   4.148   8.114  0.0796 -0.1605  0.3201
 2070SOL    HW117669   3.162   4.115   8.072 -0.3203 -0.0360  0.9752
 2070SOL    HW217670   3.307   4.082   8.093 -0.2528 -0.0060 -1.2349
 2071SOL     OW17671   0.129   3.593   5.801 -0.3573 -0.4157  0.2030
 2071SOL    HW117672   0.143   3.665   5.740 -0.7901  0.1595  0.7798
 2071SOL    HW217673   0.085   3.643   5.870 -0.6637  1.5592 -1.4059
 2072SOL     OW17674   4.414   4.309   5.467  0.2459 -0.8773 -0.0829
 2072SOL    HW117675   4.459   4.388   5.438  0.1764 -1.2198 -1.1380
 2072SOL    HW217676   4.416   4.261   5.384 -1.5567  0.4259 -0.8906
 2073SOL     OW17677   2.844   0.581  14.671 -0.2531  0.0048  0.4189
 2073SOL    HW117678   2.871   0.666  14.708  0.8257 -0.5023  0.7869
 2073SOL    HW217679   2.923   0.531  14.694 -1.1046 -0.4142  2.4032
 2074SOL     OW17680   4.406   4.186   7.162  0.1608 -0.1645 -0.2265
 2074SOL    HW117681   4.322   4.160   7.202 -0.5577  0.8777 -1.0908
 2074SOL    HW217682   4.445   4.103   7.191 -0.7630 -0.5070  0.0577
 2075SOL     OW17683   4.141   4.479   4.247  0.4577 -0.2940 -0.3203
 2075SOL    HW117684   4.108   4.479   4.157  1.0810 -2.9410 -0.5550
 2075SOL    HW217685   4.224   4.432   4.240  0.1612 -1.4974  4.3864
 2076SOL     OW17686   0.561   0.891   7.512  0.1256  0.1578  0.0029
 2076SOL    HW117687   0.538   0.912   7.603  0.1060  3.8251 -0.8377
 2076SOL    HW217688   0.651   0.923   7.515 -0.6074  2.1936  0.1224
 2077SOL     OW17689   2.676   2.629   4.100  0.4055 -0.4672 -0.6299
 2077SOL    HW117690   2.592   2.609   4.141  0.8971  0.2239  0.7307
 2077SOL    HW217691   2.644   2.618   4.011 -0.1131  0.9579 -0.6203
 2078SOL     OW17692   0.163   2.605  13.018 -0.1302  0.2911  0.0058
 2078SOL    HW117693   0.199   2.613  13.107 -0.9470  0.2637  0.3475
 2078SOL    HW217694   0.078   2.565  13.039 -0.2265  0.4987  0.0203
 2079SOL     OW17695   1.548   3.148   1.909  0.0804  0.1858  0.5481
 2079SOL    HW117696   1.606   3.100   1.849  0.9420  0.8562  0.8539
 2079SOL    HW217697   1.482   3.081   1.928 -0.4605  1.1134  1.9238
 2080SOL     OW17698   1.868   4.338   4.197  0.3582 -0.2556  0.4541
 2080SOL    HW117699   1.843   4.247   4.181  0.6708 -0.0970 -0.8874
 2080SOL    HW217700   1.806   4.383   4.140  0.5899  0.7398  0.9737
 2081SOL     OW17701   0.823   3.123  15.015 -0.0520  0.3646  0.0755
 2081SOL    HW117702   0.807   3.197  15.073 -2.9888 -0.3107  0.1276
 2081SOL    HW217703   0.806   3.048  15.072  2.9269 -0.0206  0.4557
 2082SOL     OW17704   1.984   3.185  17.645 -0.3165  0.4858  0.4222
 2082SOL    HW117705   1.991   3.165   0.039  0.1463 -1.4670 -0.0301
 2082SOL    HW217706   2.019   3.274  17.638  1.4082 -0.0465  2.5062
 2083SOL     OW17707   2.984   2.670  10.396  0.1089  0.3164  0.4942
 2083SOL    HW117708   2.953   2.591  10.440  0.6135  0.6622  1.4833
 2083SOL    HW217709   2.929   2.735  10.440 -2.5995  0.3167 -2.9672
 2084SOL     OW17710   0.899   1.131   9.401 -0.4474 -0.0717 -0.0758
 2084SOL    HW117711   0.840   1.099   9.334 -2.1532  0.9307  0.9341
 2084SOL    HW217712   0.945   1.202   9.356  0.7154  0.4941  1.9842
 2085SOL     OW17713   2.835   4.611   7.800 -0.5439  0.5423  0.7353
 2085SOL    HW117714   2.801   4.565   7.723  0.8314  1.0990 -0.1962
 2085SOL    HW217715   2.868   4.545   7.860  2.5839  1.4373 -0.0023
 2086SOL     OW17716   3.016   4.474   9.352 -0.5344 -0.2740  0.5459
 2086SOL    HW117717   2.992   4.521   9.432 -0.5524 -0.3444  0.5818
 2086SOL    HW217718   3.028   4.545   9.289  2.5782  0.5859  2.1219
 2087SOL     OW17719   2.255   1.495   5.284 -0.6593  0.5025 -0.3263
 2087SOL    HW117720   2.342   1.457   5.273  0.2284  2.6432 -0.7517
 2087SOL    HW217721   2.262   1.544   5.202 -0.7231 -0.8972 -1.1736
 2088SOL     OW17722   3.356   3.788   5.828 -0.5662  0.3717 -0.1798
 2088SOL    HW117723   3.297   3.762   5.899  0.5715 -2.9136 -0.4182
 2088SOL    HW217724   3.289   3.830   5.775 -0.4929 -1.7301 -1.9582
 2089SOL     OW17725   0.516   3.299   5.446 -0.2856 -0.2562 -0.2871
 2089SOL    HW117726   0.557   3.377   5.409 -0.9544  0.2427  0.0216
 2089SOL    HW217727   0.426   3.300   5.413 -1.0843  1.7656  1.9187
 2090SOL     OW17728   0.720   0.201  10.612  0.4574  0.3474 -0.0249
 2090SOL    HW117729   0.811   0.213  10.586  0.0889 -0.4657 -1.6746
 2090SOL    HW217730   0.678   0.182  10.528  2.0321  2.1147 -1.2221
 2091SOL     OW17731   1.024   2.332   0.799 -0.4329 -0.5680  0.7998
 2091SOL    HW117732   0.952   2.271   0.817  0.5253 -1.9241 -0.0392
 2091SOL    HW217733   1.049   2.353   0.889 -0.6705  1.5108  0.3887
 2092SOL     OW17734   0.406   0.531   0.362  0.5024  0.7183  0.2887
 2092SOL    HW117735   0.435   0.503   0.449  0.1953 -0.3917  0.0368
 2092SOL    HW217736   0.437   0.621   0.355 -0.4747  1.0039 -0.3462
 2093SOL     OW17737   4.066   3.459   1.060 -0.0237  0.7136 -0.4255
 2093SOL    HW117738   3.972   3.479   1.050 -0.6825 -1.5688  1.3038
 2093SOL    HW217739   4.108   3.510   0.991  1.1054 -0.5362 -0.6536
 2094SOL     OW17740   2.287   3.792   8.586  0.7459 -0.2579  0.1813
 2094SOL    HW117741   2.275   3.723   8.651 -3.5420  0.9977  0.6573
 2094SOL    HW217742   2.362   3.838   8.624  0.2662 -0.5584  1.4971
 2095SOL     OW17743   0.124   1.850  11.344  0.2806 -0.3155  0.1700
 2095SOL    HW117744   0.151   1.871  11.254 -0.4899 -1.7436 -0.3856
 2095SOL    HW217745   0.202   1.889  11.384 -2.3571  1.8475  3.1490
 2096SOL     OW17746   1.125   1.495   8.089  0.1804 -0.4453 -0.0079
 2096SOL    HW117747   1.104   1.577   8.045  0.8140 -0.1927  0.1690
 2096SOL    HW217748   1.200   1.521   8.142 -0.5121  0.2169  0.6537
 2097SOL     OW17749   1.503   1.639   4.639  0.2043 -0.0242  0.5820
 2097SOL    HW117750   1.548   1.555   4.631 -0.7980 -0.5714  0.7292
 2097SOL    HW217751   1.422   1.614   4.594  0.4121 -2.8257  1.8118
 2098SOL     OW17752   3.895   3.259   6.701  0.6414 -0.3181 -0.5739
 2098SOL    HW117753   3.804   3.233   6.688  0.3503  0.0682  0.7076
 2098SOL    HW217754   3.879   3.309   6.781 -0.8267 -1.0580 -0.4029
 2099SOL     OW17755   0.758   4.590   7.749 -0.5034 -0.5501 -0.2443
 2099SOL    HW117756   0.675   4.596   7.702 -0.6560 -0.6999  0.0089
 2099SOL    HW217757   0.731   4.549   7.831 -2.1444  1.2589  0.1073
 2100SOL     OW17758   2.752   2.602   9.321  0.5009  0.1809  0.1068
 2100SOL    HW117759   2.793   2.688   9.329  0.8296  0.2714 -2.4993
 2100SOL    HW217760   2.665   2.620   9.357  1.0787  0.3840  1.4105
 2101SOL     OW17761   4.496   1.581   2.697 -0.1051 -0.1320  0.4862
 2101SOL    HW117762   4.459   1.539   2.620  0.0366  0.4576  0.0956
 2101SOL    HW217763   4.579   1.615   2.664 -1.0495  1.1435 -0.6040
 2102SOL     OW17764   2.527   4.280   6.984  0.1104 -0.2161 -0.5717
 2102SOL    HW117765   2.459   4.226   6.942  0.3294  0.8100 -2.2497
 2102SOL    HW217766   2.526   4.363   6.936 -1.4026 -0.1024 -0.3489
 2103SOL     OW17767   3.037   0.402  16.869 -0.1615 -0.4818  0.2167
 2103SOL    HW117768   2.995   0.472  16.920 -1.1873  0.5431 -2.0708
 2103SOL    HW217769   3.049   0.332  16.933  2.5559  0.6603  0.9769
 2104SOL     OW17770   0.670   3.086   4.185 -0.5485  0.4311 -0.2769
 2104SOL    HW117771   0.642   3.108   4.274 -0.1359 -2.7776  0.6396
 2104SOL    HW217772   0.631   3.000   4.172  0.2064  0.0331  0.1044
 2105SOL     OW17773   2.324   2.679  17.441  0.0213 -0.1666 -0.1676
 2105SOL    HW117774   2.408   2.653  17.402  0.9159  1.4311  0.7100
 2105SOL    HW217775   2.339   2.771  17.460  1.1998 -0.1588 -1.0922
 2106SOL     OW17776   2.051   0.400   5.637  0.0381  0.1493 -0.1719
 2106SOL    HW117777   2.055   0.493   5.656  0.5804 -0.0459  0.6507
 2106SOL    HW217778   2.141   0.369   5.643 -0.2915 -0.5109  1.3423
 2107SOL     OW17779   1.535   1.388   5.712  0.0792 -0.6658  0.1884
 2107SOL    HW117780   1.604   1.454   5.722 -0.4666 -0.2510  1.1877
 2107SOL    HW217781   1.597   1.320   5.685 -1.9510 -1.3186 -2.8253
 2108SOL     OW17782   2.445   4.099  14.335  0.2614 -0.2774  0.2825
 2108SOL    HW117783   2.383   4.166  14.305 -0.8906 -1.4642  0.0058
 2108SOL    HW217784   2.389   4.029  14.302  2.3217 -2.2079  0.8884
 2109SOL     OW17785   4.200   1.853   7.685 -0.2677 -0.4948 -0.1572
 2109SOL    HW117786   4.171   1.790   7.751 -0.9236 -1.7582 -1.6550
 2109SOL    HW217787   4.196   1.798   7.606  1.3095 -1.4739  0.4384
 2110SOL     OW17788   2.639   1.830   6.435 -0.0292 -0.1331 -0.0382
 2110SOL    HW117789   2.561   1.862   6.480  0.4245 -1.4444  1.6722
 2110SOL    HW217790   2.614   1.743   6.404  1.3877 -1.7184  3.3173
 2111SOL     OW17791   3.863   3.186   2.513 -0.3588 -0.1530  0.1813
 2111SOL    HW117792   3.831   3.203   2.425 -0.5443  0.7307  0.4187
 2111SOL    HW217793   3.921   3.262   2.517 -1.1562  0.5936 -2.5811
 2112SOL     OW17794   4.579   1.848   1.405 -0.4188 -0.3610  0.1124
 2112SOL    HW117795   4.606   1.930   1.448  0.3477  0.2772 -1.5926
 2112SOL    HW217796   4.659   1.804   1.377  0.6394  0.8946  1.1053
 2113SOL     OW17797   0.027   0.616   1.591 -0.0896  0.0946 -0.2881
 2113SOL    HW117798   4.708   0.674   1.654 -1.8109 -0.4087 -0.9926
 2113SOL    HW217799   4.681   0.620   1.526 -1.7241  0.1625  1.4993
 2114SOL     OW17800   0.143   3.911   7.554  0.0405  0.1147  0.4547
 2114SOL    HW117801   0.115   3.820   7.565  1.1221 -0.3560 -0.8445
 2114SOL    HW217802   0.066   3.958   7.588 -1.7061 -1.4417 -1.3821
 2115SOL     OW17803   2.831   0.417   6.860  0.3129 -0.0676  0.1418
 2115SOL    HW117804   2.747   0.406   6.906 -0.0400  1.2525 -0.1932
 2115SOL    HW217805   2.823   0.507   6.828  2.1830 -0.1449 -0.5107
 2116SOL     OW17806   3.382   0.214   5.931  0.2059  0.2667 -0.1149
 2116SOL    HW117807   3.399   0.122   5.913 -0.1006  0.5596 -1.9575
 2116SOL    HW217808   3.402   0.249   5.844 -0.6463  1.3757  0.1405
 2117SOL     OW17809   0.871   0.278   4.488  0.1193 -0.2769 -0.3599
 2117SOL    HW117810   0.798   0.294   4.547  0.4744  0.1111 -0.0217
 2117SOL    HW217811   0.815   0.253   4.414 -1.2489  2.1808 -0.1839
 2118SOL     OW17812   1.862   2.602   3.738  0.3396 -0.3632  0.6438
 2118SOL    HW117813   1.913   2.657   3.798 -1.4514  3.6872 -1.5373
 2118SOL    HW217814   1.909   2.616   3.656 -1.0269  0.3985 -0.0041
 2119SOL     OW17815   3.447   3.635   0.915 -0.3440 -1.0074 -0.3085
 2119SOL    HW117816   3.481   3.644   1.004  0.8183 -1.2172 -0.7249
 2119SOL    HW217817   3.470   3.543   0.904 -0.9571 -0.8413 -3.1339
 2120SOL     OW17818   0.444   3.027   1.542 -0.2545 -0.4229 -0.2632
 2120SOL    HW117819   0.534   3.050   1.565 -0.6302 -1.5348  2.2880
 2120SOL    HW217820   0.436   3.083   1.465 -0.6034 -2.0772 -1.4416
 2121SOL     OW17821   1.650   0.376   0.943  0.0597  0.2481 -0.4014
 2121SOL    HW117822   1.703   0.345   0.870  0.8301  2.1916 -0.6614
 2121SOL    HW217823   1.714   0.390   1.013  1.1312 -0.0640 -1.3341
 2122SOL     OW17824   4.542   0.188   5.383  0.1161  0.1327 -0.2877
 2122SOL    HW117825   4.465   0.244   5.389 -0.4703 -0.5218 -1.5243
 2122SOL    HW217826   4.611   0.247   5.356 -0.3992  1.4177  1.1907
 2123SOL     OW17827   4.558   2.565   8.920 -0.4857  0.3874 -0.0005
 2123SOL    HW117828   4.635   2.543   8.973 -1.1757 -2.1549 -0.0747
 2123SOL    HW217829   4.538   2.645   8.968  2.5760  0.2549  1.5230
 2124SOL     OW17830   3.520   4.686   6.554  0.1135 -0.4593  0.0079
 2124SOL    HW117831   3.571   4.606   6.562  0.8396  0.1005  0.9701
 2124SOL    HW217832   3.586   0.025   6.525  1.0981 -1.2830  0.4764
 2125SOL     OW17833   3.576   4.188   7.363 -0.1192 -0.1157  0.5020
 2125SOL    HW117834   3.596   4.137   7.442  0.0381 -0.2710  0.3617
 2125SOL    HW217835   3.635   4.141   7.304 -0.0793  2.1831 -1.2592
 2126SOL     OW17836   2.124   0.922   7.862  0.4685  0.2307 -0.3546
 2126SOL    HW117837   2.204   0.956   7.822  0.0939  0.9553 -0.5010
 2126SOL    HW217838   2.159   0.864   7.929 -1.1087 -1.3122 -0.8534
 2127SOL     OW17839   2.451   3.228   8.560 -0.2061 -0.0386  0.2085
 2127SOL    HW117840   2.502   3.309   8.561 -2.0947  1.1292  0.6924
 2127SOL    HW217841   2.483   3.188   8.479  0.4983  1.2274 -0.1476
 2128SOL     OW17842   1.144   3.558   4.923  0.0626  0.0999  0.4418
 2128SOL    HW117843   1.200   3.481   4.918 -0.0534  0.0068  0.5669
 2128SOL    HW217844   1.115   3.574   4.833  0.6649 -0.1739  0.1954
 2129SOL     OW17845   3.735   3.832   9.093 -0.1594 -0.2076  0.0982
 2129SOL    HW117846   3.800   3.814   9.161  0.7531 -1.7438 -1.2120
 2129SOL    HW217847   3.787   3.824   9.014 -1.5663 -2.1308 -0.6251
 2130SOL     OW17848   3.827   3.076   4.110  0.6629 -0.2816  0.0590
 2130SOL    HW117849   3.786   2.993   4.085  0.0302  0.1481 -0.3409
 2130SOL    HW217850   3.813   3.127   4.030 -1.0235  1.8445  1.7122
 2131SOL     OW17851   3.490   0.918   0.947 -0.7358  0.1129  0.1128
 2131SOL    HW117852   3.567   0.876   0.909 -1.8065 -0.9669 -0.8777
 2131SOL    HW217853   3.501   1.003   0.905 -1.8295  0.4371  0.4751
 2132SOL     OW17854   3.747   4.252  11.389  0.3048 -0.0043 -0.5246
 2132SOL    HW117855   3.831   4.298  11.392  0.0134  0.3419  3.1778
 2132SOL    HW217856   3.758   4.178  11.449 -0.7941  0.8972  0.7816
 2133SOL     OW17857   3.090   0.940   6.660 -0.2348  0.4960  0.3451
 2133SOL    HW117858   3.027   0.992   6.710 -0.0467 -0.4900  1.5812
 2133SOL    HW217859   3.081   0.857   6.707 -0.1632  1.2624  1.6921
 2134SOL     OW17860   2.230   0.255  16.403 -0.2335 -0.2187  0.3077
 2134SOL    HW117861   2.147   0.228  16.442 -0.8842  0.1951 -0.7735
 2134SOL    HW217862   2.292   0.192  16.440 -1.2490 -0.5998  1.3520
 2135SOL     OW17863   0.556   2.212   9.424  0.7951 -0.3844 -0.1676
 2135SOL    HW117864   0.634   2.258   9.394  0.8785  0.9750  2.1088
 2135SOL    HW217865   0.585   2.124   9.402 -0.2946 -0.3875 -1.5838
 2136SOL     OW17866   3.198   2.792  10.007 -0.2618  0.2208 -0.5922
 2136SOL    HW117867   3.161   2.880   9.997  0.3172  0.7146  1.7217
 2136SOL    HW217868   3.277   2.805  10.059 -0.2415 -0.1124 -0.5413
 2137SOL     OW17869   3.736   1.791  16.576 -1.1910  0.0954 -0.1614
 2137SOL    HW117870   3.806   1.805  16.640  0.1130  0.3010 -1.6599
 2137SOL    HW217871   3.683   1.872  16.580 -2.9932 -1.0388 -1.0432
 2138SOL     OW17872   3.948   2.440   8.194  0.1014  0.1921 -0.0637
 2138SOL    HW117873   3.928   2.418   8.103 -1.4781 -1.4203  0.6702
 2138SOL    HW217874   3.867   2.445   8.244 -0.4803 -1.1802 -0.8560
 2139SOL     OW17875   2.067   0.640   7.564  0.0929 -0.3902  0.5909
 2139SOL    HW117876   2.096   0.629   7.654  4.1890 -0.4630 -0.7189
 2139SOL    HW217877   2.039   0.550   7.548  0.0474 -0.2986  0.1391
 2140SOL     OW17878   3.314   1.722   3.567 -0.2677  0.1621 -0.0363
 2140SOL    HW117879   3.383   1.784   3.543 -0.4870  0.1940 -0.6080
 2140SOL    HW217880   3.247   1.789   3.585  0.2164 -0.3477  3.5098
 2141SOL     OW17881   3.078   0.974   2.369 -0.3119 -0.3943  0.0234
 2141SOL    HW117882   3.047   0.896   2.415 -0.6459 -1.3081 -1.7477
 2141SOL    HW217883   3.057   0.937   2.283  0.3999  0.7898 -0.6648
 2142SOL     OW17884   0.412   2.390   6.582 -0.2769  0.3434 -0.1128
 2142SOL    HW117885   0.498   2.427   6.563  0.1027 -0.9178 -0.8669
 2142SOL    HW217886   0.359   2.411   6.505  0.4582  0.8981 -0.4642
 2143SOL     OW17887   3.536   4.072   2.886  0.3959 -1.0384  0.4384
 2143SOL    HW117888   3.603   4.005   2.901  1.1737  0.1565  2.2227
 2143SOL    HW217889   3.595   4.129   2.837 -1.4138 -0.9825 -1.6772
 2144SOL     OW17890   2.467   0.457   3.973  0.4631  0.1428 -0.3301
 2144SOL    HW117891   2.503   0.541   4.000  0.3682 -0.3981  1.4406
 2144SOL    HW217892   2.489   0.473   3.881 -0.9959  1.9214 -0.3584
 2145SOL     OW17893   3.839   1.672   7.584  0.0200  0.5796  0.1721
 2145SOL    HW117894   3.874   1.761   7.592 -2.2651  1.4252  0.8273
 2145SOL    HW217895   3.783   1.664   7.662 -0.2070 -0.3392 -0.0823
 2146SOL     OW17896   0.894   3.185  17.510  0.1087 -0.0640  0.2031
 2146SOL    HW117897   0.823   3.238  17.547  0.7684  0.3019  0.9627
 2146SOL    HW217898   0.856   3.098  17.511 -0.2636  0.1074  0.8748
 2147SOL     OW17899   2.306   2.452   6.390  0.3551 -0.1164 -0.3428
 2147SOL    HW117900   2.365   2.508   6.440 -0.8607  1.3177 -0.5260
 2147SOL    HW217901   2.361   2.379   6.362  0.6168  0.3476 -1.0294
 2148SOL     OW17902   3.930   0.156   8.150  0.2633 -0.0281 -0.1584
 2148SOL    HW117903   3.989   0.081   8.157 -0.4440 -0.3339  2.5767
 2148SOL    HW217904   3.928   0.180   8.057 -1.5260  1.1761  0.1923
 2149SOL     OW17905   1.356   1.999   0.481 -0.1423  0.6145 -0.0937
 2149SOL    HW117906   1.400   2.035   0.404 -1.6672  1.5308 -0.5242
 2149SOL    HW217907   1.388   2.055   0.551 -2.0884 -0.5069  1.6998
 2150SOL     OW17908   3.810   3.831  13.838  0.6989 -0.7293  0.4737
 2150SOL    HW117909   3.775   3.860  13.754  0.3340 -2.0286  0.1746
 2150SOL    HW217910   3.795   3.737  13.829  0.6528 -0.7066  0.3120
 2151SOL     OW17911   2.528   2.933  13.244 -0.1633 -0.1635 -0.1341
 2151SOL    HW117912   2.541   2.923  13.150  0.4999 -2.0217  0.1547
 2151SOL    HW217913   2.521   3.028  13.253  1.9402 -0.2109  2.0649
 2152SOL     OW17914   4.373   0.270  13.878  0.6110 -0.2871 -0.7361
 2152SOL    HW117915   4.395   0.352  13.834  0.7144  0.3673  0.5269
 2152SOL    HW217916   4.348   0.293  13.968  0.0171  1.3937 -1.3317
 2153SOL     OW17917   0.576   1.646   3.665 -0.4943  0.5311  0.0953
 2153SOL    HW117918   0.570   1.741   3.665 -0.0724  0.5591 -0.1572
 2153SOL    HW217919   0.564   1.629   3.572  0.4530 -1.1368  0.2634
 2154SOL     OW17920   1.813   2.782   7.155  0.0765  0.0211  0.5625
 2154SOL    HW117921   1.779   2.748   7.237  1.7046  0.9411  1.6176
 2154SOL    HW217922   1.749   2.747   7.093 -1.4088  0.1307  2.0269
 2155SOL     OW17923   2.388   1.083   8.059 -0.3838  0.1433 -0.4270
 2155SOL    HW117924   2.349   1.043   8.138 -0.9594 -2.4154 -2.0065
 2155SOL    HW217925   2.440   1.010   8.026  1.3704  1.4136 -0.4029
 2156SOL     OW17926   2.187   3.104  15.645  0.5497 -0.1431  0.3649
 2156SOL    HW117927   2.264   3.149  15.680 -0.6210  2.5244 -0.4561
 2156SOL    HW217928   2.122   3.137  15.707 -0.1509 -0.4861 -0.1919
 2157SOL     OW17929   0.992   4.007  15.170 -0.3536 -0.2973 -0.6179
 2157SOL    HW117930   0.922   4.032  15.109  1.4042  0.9350 -2.1420
 2157SOL    HW217931   1.073   4.013  15.119 -1.1439 -1.9754 -2.1084
 2158SOL     OW17932   1.285   2.743   6.751  0.2374 -0.0849  0.3414
 2158SOL    HW117933   1.346   2.813   6.730 -0.6359  0.8608  0.9173
 2158SOL    HW217934   1.287   2.691   6.671  0.7102  0.7240 -0.1710
 2159SOL     OW17935   3.413   1.416   6.891  0.0492  0.1630  0.1233
 2159SOL    HW117936   3.351   1.457   6.953 -1.9015  0.2027 -1.8594
 2159SOL    HW217937   3.394   1.323   6.906 -1.2694  0.0402 -2.3836
 2160SOL     OW17938   2.193   1.012   2.543 -0.1436 -0.1071  0.2996
 2160SOL    HW117939   2.242   1.016   2.461 -1.0592 -3.2085 -0.4125
 2160SOL    HW217940   2.233   1.079   2.598  0.0451 -2.1190  2.6205
 2161SOL     OW17941   0.907   1.746   7.183 -0.0030  0.1225  0.1062
 2161SOL    HW117942   0.850   1.782   7.251  0.0044 -0.1414  0.2534
 2161SOL    HW217943   0.936   1.820   7.129 -0.1200  0.1829  0.1250
 2162SOL     OW17944   3.872   2.048   2.424 -0.0834 -0.4988 -0.2725
 2162SOL    HW117945   3.834   1.987   2.361 -3.9770  2.2059 -0.4738
 2162SOL    HW217946   3.818   2.053   2.503  1.5532  0.6939  0.7800
 2163SOL     OW17947   1.702   0.464   7.341 -0.3317 -0.2008  0.3860
 2163SOL    HW117948   1.782   0.500   7.302 -0.0236  1.7872  2.8656
 2163SOL    HW217949   1.740   0.414   7.413  0.1499 -0.5935 -0.1372
 2164SOL     OW17950   3.072   3.407   9.170 -0.4902 -0.4253  0.0825
 2164SOL    HW117951   3.153   3.415   9.119 -0.5163  0.4528  0.1763
 2164SOL    HW217952   3.072   3.489   9.219  1.9926 -0.1195 -0.4255
 2165SOL     OW17953   4.623   3.087  12.336 -0.2236 -0.3586  0.6170
 2165SOL    HW117954   4.654   3.089  12.426  1.8363  0.1250 -0.0800
 2165SOL    HW217955   4.585   3.175  12.330 -0.4621 -0.3957  1.5894
 2166SOL     OW17956   4.297   1.871   7.055  0.2119 -0.1451  0.2045
 2166SOL    HW117957   4.320   1.809   6.985 -1.2148  0.9457 -1.2436
 2166SOL    HW217958   4.334   1.825   7.130 -0.2766 -0.9078 -0.0289
 2167SOL     OW17959   2.568   4.404   6.027  0.4239 -0.8230 -0.0464
 2167SOL    HW117960   2.502   4.406   6.096  0.7429 -2.3517  0.2933
 2167SOL    HW217961   2.523   4.416   5.943 -1.5680 -0.3660  1.0916
 2168SOL     OW17962   2.201   2.525   2.059 -0.2854 -0.4685 -0.1168
 2168SOL    HW117963   2.118   2.479   2.074 -0.5644  0.1229  0.1638
 2168SOL    HW217964   2.180   2.595   1.998 -1.4303 -1.4756 -0.8837
 2169SOL     OW17965   4.041   1.381   4.196  0.9165 -0.3067  0.1755
 2169SOL    HW117966   4.006   1.315   4.137 -1.9627 -0.3841  2.0147
 2169SOL    HW217967   3.958   1.422   4.218  2.4608  2.5837  0.6836
 2170SOL     OW17968   3.271   1.485   7.116 -0.1779  0.1871 -0.4209
 2170SOL    HW117969   3.295   1.442   7.198 -0.1253  0.2544 -0.4015
 2170SOL    HW217970   3.273   1.573   7.153  0.1982 -0.0803  0.1995
 2171SOL     OW17971   4.460   3.063   6.007  0.0186 -0.1565  0.1449
 2171SOL    HW117972   4.442   3.128   6.075  1.1344 -0.8786  1.1324
 2171SOL    HW217973   4.538   3.018   6.039  0.5155  0.4855 -0.1516
 2172SOL     OW17974   3.373   4.081   2.623 -0.4500  0.5970  0.1810
 2172SOL    HW117975   3.443   4.146   2.614 -0.1150  0.2097  0.0070
 2172SOL    HW217976   3.329   4.092   2.538 -0.0663  0.1588 -0.0745
 2173SOL     OW17977   3.860   4.374  17.357 -0.4582  0.2349  0.6532
 2173SOL    HW117978   3.877   4.405  17.445  0.9816  1.9403 -0.2384
 2173SOL    HW217979   3.944   4.399  17.318 -0.9735 -0.2327 -0.7807
 2174SOL     OW17980   2.283   0.948   8.273 -0.2375  0.4255 -0.7123
 2174SOL    HW117981   2.335   0.881   8.318  0.8006  0.5470 -1.7216
 2174SOL    HW217982   2.268   0.999   8.352  0.8179  1.3742 -1.1360
 2175SOL     OW17983   1.901   4.700  10.833 -0.2373 -0.0961  0.1482
 2175SOL    HW117984   1.865   0.044  10.776 -1.3800 -0.5591  0.3100
 2175SOL    HW217985   1.897   4.623  10.776  1.0685  1.0036 -1.4349
 2176SOL     OW17986   3.060   3.006   5.991 -0.4418 -0.3243  0.4706
 2176SOL    HW117987   3.025   3.019   5.903  2.2700 -3.3728 -1.0543
 2176SOL    HW217988   3.011   3.071   6.042  0.6819  1.1579 -0.3463
 2177SOL     OW17989   4.596   2.190   8.643 -0.2949 -0.2951  0.1858
 2177SOL    HW117990   4.523   2.204   8.582  0.9948  1.8324 -0.8867
 2177SOL    HW217991   4.547   2.153   8.716  0.2459 -2.6772 -0.6581
 2178SOL     OW17992   2.777   4.401   5.363 -0.0548  0.5706  0.3368
 2178SOL    HW117993   2.779   4.381   5.456  0.8905 -0.7626  0.0284
 2178SOL    HW217994   2.864   4.378   5.329  0.5988 -1.3026  3.2945
 2179SOL     OW17995   4.370   3.414   6.448 -0.2877  0.1149 -0.7855
 2179SOL    HW117996   4.461   3.436   6.471 -0.6255 -1.2278  1.8738
 2179SOL    HW217997   4.357   3.495   6.398 -0.2621  1.4418  1.3506
 2180SOL     OW17998   2.699   4.287   2.525  0.1336 -0.1736 -0.1635
 2180SOL    HW117999   2.766   4.219   2.521  0.5243  0.2882 -1.2245
 2180SOL    HW218000   2.757   4.358   2.554  0.9109 -0.0932 -1.9430
 2181SOL     OW18001   0.411   4.280   0.062  0.3396 -0.3655  0.3754
 2181SOL    HW118002   0.374   4.194   0.041 -1.1443  0.3331  0.1016
 2181SOL    HW218003   0.492   4.291   0.012  0.1396  0.8831  0.3200
 2182SOL     OW18004   3.931   3.778   8.181  0.0936 -0.0851  0.6552
 2182SOL    HW118005   3.983   3.826   8.116 -1.3320  0.2695 -0.2373
 2182SOL    HW218006   3.885   3.846   8.229 -0.7837  0.3860 -0.8377
 2183SOL     OW18007   4.399   3.121   8.387  0.1148 -0.1077  0.1919
 2183SOL    HW118008   4.329   3.185   8.404 -0.3094 -0.4821 -0.1295
 2183SOL    HW218009   4.469   3.142   8.449  0.5025  1.9791 -0.9353
 2184SOL     OW18010   3.958   4.596   4.691  0.0908 -0.0135  0.0026
 2184SOL    HW118011   4.024   4.571   4.627  0.0649 -0.3184  0.0963
 2184SOL    HW218012   3.974   4.690   4.704 -0.5901  0.2825 -1.3011
 2185SOL     OW18013   3.640   4.469   2.880  0.1562  0.0111 -0.3396
 2185SOL    HW118014   3.570   4.453   2.817 -1.6875  1.2146  1.4194
 2185SOL    HW218015   3.644   4.564   2.875  0.4520 -0.0702 -1.8342
 2186SOL     OW18016   0.830   1.321  16.760 -0.1109 -0.8178 -0.2015
 2186SOL    HW118017   0.850   1.354  16.672  0.4762  0.9460  0.5912
 2186SOL    HW218018   0.764   1.383  16.794  1.0806  0.7745 -0.7801
 2187SOL     OW18019   0.806   3.049  15.395  0.1546  0.4056 -0.3663
 2187SOL    HW118020   0.802   3.056  15.490  2.3229 -0.9948 -0.1686
 2187SOL    HW218021   0.859   2.970  15.384 -0.7738  0.1073 -2.8007
 2188SOL     OW18022   3.272   0.415   4.087  0.2281 -0.2668  0.2080
 2188SOL    HW118023   3.279   0.341   4.026 -0.6701  0.1470 -0.4007
 2188SOL    HW218024   3.263   0.490   4.029  0.2034 -0.9508 -0.6740
 2189SOL     OW18025   2.940   0.583   7.300 -0.3476 -0.3254 -0.0701
 2189SOL    HW118026   2.941   0.554   7.391  1.2567 -0.3083 -0.0808
 2189SOL    HW218027   2.878   0.656   7.300 -1.2310 -1.0744 -2.3234
 2190SOL     OW18028   3.034   1.558   4.398 -0.0173 -0.1254  0.4131
 2190SOL    HW118029   3.021   1.519   4.311 -0.4778  1.2883 -0.1678
 2190SOL    HW218030   3.070   1.643   4.370 -0.3436  0.3232  1.3641
 2191SOL     OW18031   1.657   1.076   2.999  0.5922  0.0590  0.2457
 2191SOL    HW118032   1.580   1.108   2.952 -1.1753 -2.9796  1.0886
 2191SOL    HW218033   1.653   0.983   2.978 -0.9385  0.5616 -1.7168
 2192SOL     OW18034   4.208   4.020   6.541 -0.5555  0.4763 -0.1940
 2192SOL    HW118035   4.118   4.008   6.512 -0.3442 -0.3738 -0.5198
 2192SOL    HW218036   4.223   3.946   6.600 -0.7118  1.1784  0.7339
 2193SOL     OW18037   1.942   2.858   5.605 -0.3411  0.4811  0.1806
 2193SOL    HW118038   1.967   2.951   5.604 -2.1682  1.0000  2.1135
 2193SOL    HW218039   1.979   2.835   5.520 -0.2123 -0.8189  0.5854
 2194SOL     OW18040   3.286   3.072   4.409  0.2597  0.4426  0.9263
 2194SOL    HW118041   3.298   2.984   4.445  0.4363  0.1310  0.0966
 2194SOL    HW218042   3.296   3.058   4.315  0.3877 -1.0260  1.1639
 2195SOL     OW18043   1.031   4.405   6.366 -0.4011 -0.4503 -0.2025
 2195SOL    HW118044   1.070   4.334   6.315 -1.7150  1.3697 -3.7119
 2195SOL    HW218045   1.097   4.408   6.435  0.9179 -1.6781 -1.4153
 2196SOL     OW18046   1.112   3.528  17.192  0.2274 -0.3266 -0.1026
 2196SOL    HW118047   1.160   3.591  17.139  0.3932  0.4486  0.9643
 2196SOL    HW218048   1.171   3.486  17.255  0.9431 -0.5952 -0.9465
 2197SOL     OW18049   4.515   4.665   6.645 -0.0190 -0.1282 -0.0245
 2197SOL    HW118050   4.556   4.647   6.730  0.4077  2.9121  0.4190
 2197SOL    HW218051   4.484   0.030   6.658 -2.0847 -0.8732  0.2428
 2198SOL     OW18052   2.414   3.183  10.053 -0.0518  0.0118 -0.4515
 2198SOL    HW118053   2.352   3.110  10.059 -0.3577  0.3079  0.0410
 2198SOL    HW218054   2.368   3.242   9.994  0.6346 -0.7063 -1.7057
 2199SOL     OW18055   4.189   3.759   2.650  0.4114 -0.4544  0.0216
 2199SOL    HW118056   4.242   3.776   2.728 -0.6566 -2.0466  1.0881
 2199SOL    HW218057   4.200   3.846   2.611 -0.0957 -0.3623  0.0778
 2200SOL     OW18058   0.156   0.336   5.700  0.3909 -0.0156  0.1344
 2200SOL    HW118059   0.182   0.288   5.779 -0.7404 -1.1724 -0.1799
 2200SOL    HW218060   0.061   0.324   5.698  0.2899  1.3743 -1.9813
 2201SOL     OW18061   2.292   2.689   6.216 -0.0793 -0.0806  0.3860
 2201SOL    HW118062   2.305   2.600   6.247  0.3541 -0.1830 -0.1048
 2201SOL    HW218063   2.203   2.711   6.244  0.8749 -0.5095  3.7849
 2202SOL     OW18064   0.951   2.247  14.927  0.3799 -0.1329  0.2724
 2202SOL    HW118065   0.956   2.279  14.837  1.3981  0.9031  0.6940
 2202SOL    HW218066   0.930   2.330  14.971  1.7939 -0.0538  0.7986
 2203SOL     OW18067   1.396   1.959   1.497 -0.2445  0.4530  0.2658
 2203SOL    HW118068   1.300   1.954   1.491 -0.3910  0.0240  2.6551
 2203SOL    HW218069   1.407   2.012   1.576 -2.4029  3.0847 -1.1949
 2204SOL     OW18070   1.615   0.780  16.066 -0.1728 -0.6921 -0.3018
 2204SOL    HW118071   1.637   0.771  16.158 -1.5487  0.7844  0.1772
 2204SOL    HW218072   1.600   0.690  16.037  0.4120 -0.5280 -1.1177
 2205SOL     OW18073   4.310   3.482   2.106  1.0706  0.1670 -0.4874
 2205SOL    HW118074   4.297   3.436   2.023  1.1285 -0.0257 -0.3894
 2205SOL    HW218075   4.401   3.457   2.125  1.1316 -0.3066 -1.4142
 2206SOL     OW18076   1.867   1.068   4.487  0.4117 -0.0042 -0.0984
 2206SOL    HW118077   1.905   1.149   4.521  0.5296 -0.0366 -0.1520
 2206SOL    HW218078   1.785   1.102   4.452 -0.8397 -2.3464  0.5553
 2207SOL     OW18079   2.175   3.024   3.924  0.7205  0.5168  0.2552
 2207SOL    HW118080   2.182   3.093   3.859 -0.1217 -0.1263 -0.5142
 2207SOL    HW218081   2.202   2.953   3.866  1.9078  0.9446  0.2883
 2208SOL     OW18082   0.753   4.722   0.589 -0.4591  0.6994  0.0317
 2208SOL    HW118083   0.699   0.077   0.595  2.6847  2.7984  0.8206
 2208SOL    HW218084   0.754   4.700   0.682  2.0535 -0.2635 -0.2103
 2209SOL     OW18085   1.494   0.269  14.947 -0.1075 -0.5346  0.2747
 2209SOL    HW118086   1.426   0.202  14.952 -0.0254 -0.5373  1.4083
 2209SOL    HW218087   1.570   0.211  14.936  0.5859  0.0803  1.8267
 2210SOL     OW18088   0.592   2.899   7.344 -0.0035 -0.3008 -0.0314
 2210SOL    HW118089   0.581   2.967   7.277 -0.9566 -1.0588 -0.6353
 2210SOL    HW218090   0.554   2.940   7.422 -2.4457 -0.9505 -0.8645
 2211SOL     OW18091   3.070   1.496   9.478  0.1544  0.3265  0.1220
 2211SOL    HW118092   3.087   1.511   9.385 -0.7828  2.1983  0.2575
 2211SOL    HW218093   3.161   1.495   9.507  0.8192  0.2733 -1.9946
 2212SOL     OW18094   2.740   1.814   1.676  0.2202 -0.1119  0.4005
 2212SOL    HW118095   2.769   1.734   1.720 -0.2535 -0.9871 -0.8806
 2212SOL    HW218096   2.714   1.872   1.748  0.5816  0.0809  0.3794
 2213SOL     OW18097   0.011   3.047   6.092 -0.1149 -0.7096 -0.0980
 2213SOL    HW118098   0.077   2.980   6.111 -0.5766 -1.0593  0.2544
 2213SOL    HW218099   0.013   3.095   6.175 -0.3782 -4.6417  2.1643
 2214SOL     OW18100   1.972   3.613  10.587  0.0962  0.0741 -0.5767
 2214SOL    HW118101   1.969   3.584  10.678 -0.8041 -0.7498 -0.8730
 2214SOL    HW218102   1.967   3.536  10.530  0.7387 -0.6199  0.3039
 2215SOL     OW18103   0.910   2.902  17.016  0.4293  0.5104 -0.4265
 2215SOL    HW118104   0.816   2.890  17.029  0.5880 -0.5647 -0.3566
 2215SOL    HW218105   0.928   2.825  16.963  0.3125  0.7046 -0.7516
 2216SOL     OW18106   1.499   3.025   3.244  0.1940 -0.1289 -0.2563
 2216SOL    HW118107   1.529   3.111   3.274 -2.4793 -0.6099  3.8407
 2216SOL    HW218108   1.417   3.056   3.205  0.4826 -1.6288 -2.0107
 2217SOL     OW18109   0.876   2.817   7.069 -0.0094  0.1041 -0.0518
 2217SOL    HW118110   0.904   2.859   7.151 -0.2514  0.0864  0.0403
 2217SOL    HW218111   0.785   2.790   7.082  0.4769 -1.8579 -0.7982
 2218SOL     OW18112   3.056   3.520   4.279 -0.4975  0.2174  0.0743
 2218SOL    HW118113   3.145   3.553   4.288  0.1163 -0.7095 -2.6608
 2218SOL    HW218114   3.068   3.461   4.205 -0.3853  0.1480  0.1475
 2219SOL     OW18115   3.975   2.934   7.293 -0.5564 -0.9806  0.2048
 2219SOL    HW118116   3.962   2.867   7.360  0.7180  0.2553  1.6880
 2219SOL    HW218117   3.886   2.970   7.300 -0.4740 -0.7172 -0.1425
 2220SOL     OW18118   0.665   1.641   0.387  0.4601 -0.1762 -0.2715
 2220SOL    HW118119   0.743   1.587   0.373  0.7171  0.6897 -2.1450
 2220SOL    HW218120   0.654   1.636   0.482 -0.2155 -1.2879 -0.4158
 2221SOL     OW18121   2.232   3.631   7.258  0.1088 -0.4372  0.3366
 2221SOL    HW118122   2.262   3.540   7.250  1.7879  0.1496  0.0909
 2221SOL    HW218123   2.302   3.677   7.212  0.7330  0.5416  2.2735
 2222SOL     OW18124   4.041   4.559   0.990 -0.0253  0.0801  0.6720
 2222SOL    HW118125   4.098   4.512   1.051 -1.4982 -2.2507  0.2816
 2222SOL    HW218126   4.093   4.639   0.995 -0.3952  0.3558  0.1449
 2223SOL     OW18127   2.530   4.644   0.778 -0.0604  0.4280  0.3339
 2223SOL    HW118128   2.452   4.605   0.740 -0.4516  1.9990 -0.4584
 2223SOL    HW218129   2.575   4.566   0.812  0.6997  0.1339 -1.3345
 2224SOL     OW18130   4.690   0.591   9.735 -0.0604 -0.0675  0.2026
 2224SOL    HW118131   4.631   0.525   9.771 -0.0525  0.1879  0.6766
 2224SOL    HW218132   0.037   0.588   9.797 -0.4400  0.6154  0.6714
 2225SOL     OW18133   2.131   0.602   7.821  0.2808 -0.2338  1.0705
 2225SOL    HW118134   2.121   0.632   7.911 -0.8346 -0.4549  1.0317
 2225SOL    HW218135   2.223   0.597   7.794  0.2359  2.8522  0.4127
 2226SOL     OW18136   3.456   1.052  10.798 -0.1291  0.5216  0.1423
 2226SOL    HW118137   3.549   1.072  10.807  0.4901 -2.2925 -0.0211
 2226SOL    HW218138   3.438   1.100  10.717 -0.4116  0.2505  0.0422
 2227SOL     OW18139   0.354   3.592  10.521 -0.4030  0.2187  0.0587
 2227SOL    HW118140   0.310   3.677  10.528  0.1160  0.4960 -0.0707
 2227SOL    HW218141   0.444   3.625  10.524  0.2549 -1.3930 -1.8848
 2228SOL     OW18142   2.999   1.986   5.038  0.6340 -0.2177  0.6048
 2228SOL    HW118143   3.092   2.008   5.047  0.6018  0.4902 -0.6493
 2228SOL    HW218144   2.993   1.946   4.951  0.6195  0.2027  0.4082
 2229SOL     OW18145   4.509   2.555   2.264 -0.4734  0.2926 -0.6978
 2229SOL    HW118146   4.450   2.490   2.225  1.5489 -1.2622 -1.1620
 2229SOL    HW218147   4.448   2.629   2.269 -1.0745 -0.2007 -0.7557
 2230SOL     OW18148   4.059   1.750  13.124  0.0142 -0.1257 -0.5985
 2230SOL    HW118149   4.102   1.831  13.098  1.5809 -0.9284 -0.5217
 2230SOL    HW218150   3.986   1.781  13.176 -0.9834 -0.4719 -1.7992
 2231SOL     OW18151   3.650   0.156   3.023  0.0301  0.4279 -0.0923
 2231SOL    HW118152   3.670   0.241   3.061  0.2864 -0.0150  0.7744
 2231SOL    HW218153   3.571   0.179   2.974 -0.6059 -1.8161 -0.1229
 2232SOL     OW18154   0.240   0.816   0.558 -0.0255  0.3485 -0.5111
 2232SOL    HW118155   0.182   0.740   0.567 -1.6991  1.5406 -1.1933
 2232SOL    HW218156   0.169   0.878   0.539  0.7151  2.5956  4.1090
 2233SOL     OW18157   3.403   1.961   7.411 -0.0231 -0.1184 -0.0511
 2233SOL    HW118158   3.369   2.050   7.411  2.3327  0.7882 -1.4284
 2233SOL    HW218159   3.321   1.915   7.390  0.4733 -1.3393  0.6991
 2234SOL     OW18160   0.075   0.852  13.408 -0.4457 -0.3219 -0.3745
 2234SOL    HW118161   0.142   0.847  13.340 -1.2901  1.6210 -1.3395
 2234SOL    HW218162   4.718   0.858  13.358 -1.9754  2.4770  2.4542
 2235SOL     OW18163   3.172   1.734   0.882 -0.1403  0.1889  0.0676
 2235SOL    HW118164   3.095   1.694   0.923 -0.3196 -1.1431 -1.5396
 2235SOL    HW218165   3.239   1.670   0.909  0.3233  0.4403 -0.4756
 2236SOL     OW18166   1.986   0.716   8.760  0.7800 -0.1156  0.2504
 2236SOL    HW118167   2.046   0.670   8.702  0.0477  0.2354 -0.7758
 2236SOL    HW218168   2.044   0.767   8.816  0.4202  0.7023 -0.1245
 2237SOL     OW18169   3.600   0.927   9.045 -0.1022 -0.3533  0.1983
 2237SOL    HW118170   3.645   0.933   8.961  0.8967 -1.4746  0.6580
 2237SOL    HW218171   3.676   0.952   9.097 -1.0443  2.7293  0.0753
 2238SOL     OW18172   0.062   3.742   7.309  0.4077 -0.4656 -0.8717
 2238SOL    HW118173   0.049   3.734   7.403 -1.9865  2.3532 -0.9697
 2238SOL    HW218174   0.130   3.675   7.311  0.7771 -0.0105  1.9087
 2239SOL     OW18175   1.645   3.193  17.150  0.5640 -0.0659  0.0758
 2239SOL    HW118176   1.558   3.154  17.156 -0.2745  1.3804 -2.8743
 2239SOL    HW218177   1.695   3.121  17.188 -0.2362  0.5302  2.2485
 2240SOL     OW18178   2.280   1.306  12.003  0.2854  0.2046  0.0106
 2240SOL    HW118179   2.276   1.270  12.092  0.2352 -1.0099 -0.4861
 2240SOL    HW218180   2.362   1.352  12.019  0.0315  0.8357 -0.5184
 2241SOL     OW18181   1.747   3.382  10.552  0.2968 -0.0623  0.1179
 2241SOL    HW118182   1.680   3.375  10.483 -0.3277 -1.2713  0.8408
 2241SOL    HW218183   1.723   3.466  10.591 -0.6094 -2.5039  4.8934
 2242SOL     OW18184   0.854   1.626   4.991  0.0901  0.0477  0.4236
 2242SOL    HW118185   0.884   1.569   5.062  0.5494  2.5401  2.2328
 2242SOL    HW218186   0.911   1.596   4.919 -1.1649  0.8771 -0.9159
 2243SOL     OW18187   3.502   1.283   2.437 -0.0105  0.1752  0.0780
 2243SOL    HW118188   3.575   1.221   2.441  0.5455  0.7007 -1.7940
 2243SOL    HW218189   3.508   1.317   2.526  1.2949  0.9180 -0.2914
 2244SOL     OW18190   2.606   2.516   4.581 -0.9609 -0.4431  0.6126
 2244SOL    HW118191   2.690   2.473   4.595  0.1576  1.7214  0.5544
 2244SOL    HW218192   2.640   2.600   4.551 -0.2208 -1.4101 -1.2319
 2245SOL     OW18193   3.020   2.755   3.773 -0.2873 -0.3209  0.3910
 2245SOL    HW118194   3.021   2.850   3.785 -2.7285 -0.4364  1.5625
 2245SOL    HW218195   2.935   2.746   3.731  0.4474  0.4078 -1.2277
 2246SOL     OW18196   2.084   1.293  12.464 -0.7028  0.3389 -0.0559
 2246SOL    HW118197   2.158   1.304  12.404 -0.5294 -1.1533 -0.1034
 2246SOL    HW218198   2.124   1.343  12.535 -1.5973  0.1806  0.5626
 2247SOL     OW18199   0.271   2.962   3.964 -0.1036 -0.4014 -0.0204
 2247SOL    HW118200   0.360   2.927   3.970  0.3822  1.0809  1.4128
 2247SOL    HW218201   0.226   2.887   4.002 -1.2989  0.2577 -0.1371
 2248SOL     OW18202   3.829   3.363   6.942  0.2403  0.0136  0.3784
 2248SOL    HW118203   3.815   3.428   7.012  0.3218  0.3086  0.1221
 2248SOL    HW218204   3.876   3.297   6.992  0.6728  0.0909  0.0714
 2249SOL     OW18205   0.843   4.702   2.468  0.2769  0.2356 -0.3229
 2249SOL    HW118206   0.804   4.675   2.384  0.7396  0.6073 -0.6532
 2249SOL    HW218207   0.899   4.628   2.491  0.6341  0.1728 -1.4028
 2250SOL     OW18208   2.382   2.989   5.384 -0.3743 -0.0837 -0.1263
 2250SOL    HW118209   2.299   3.008   5.341 -0.6170 -1.0248 -0.0635
 2250SOL    HW218210   2.388   2.894   5.389 -0.1070 -0.1905 -2.2808
 2251SOL     OW18211   1.687   0.052   6.347 -0.0168 -0.0282 -0.0389
 2251SOL    HW118212   1.696   4.681   6.342 -1.4481 -0.3333  2.7227
 2251SOL    HW218213   1.771   0.076   6.386  1.0951 -0.3324 -2.3028
 2252SOL     OW18214   4.283   3.479  16.311  0.1198 -0.5401 -0.3995
 2252SOL    HW118215   4.337   3.400  16.318 -0.2293 -0.8203 -0.8375
 2252SOL    HW218216   4.355   3.539  16.293 -0.1941  0.1419  0.6076
 2253SOL     OW18217   1.706   3.423   7.300  0.2954  0.8425  0.0520
 2253SOL    HW118218   1.614   3.446   7.287 -0.2464 -2.5023 -2.0723
 2253SOL    HW218219   1.729   3.400   7.210 -2.1753  1.4048 -0.7368
 2254SOL     OW18220   2.667   1.535   3.320  0.1951 -0.3626  0.7648
 2254SOL    HW118221   2.675   1.443   3.345  0.4226 -1.3767 -3.0660
 2254SOL    HW218222   2.675   1.527   3.225  1.7355  0.5501  0.8129
 2255SOL     OW18223   1.173   3.456  10.628 -0.4337  0.0701  0.4234
 2255SOL    HW118224   1.134   3.405  10.699  0.3212  1.0870  1.5539
 2255SOL    HW218225   1.090   3.481  10.587 -0.5146 -1.3875 -0.3036
 2256SOL     OW18226   2.604   2.975   9.505  0.6370  0.5400  0.3567
 2256SOL    HW118227   2.688   3.004   9.540  1.2766 -1.2325  0.3073
 2256SOL    HW218228   2.606   3.019   9.420  0.6019  0.0103  0.0779
 2257SOL     OW18229   4.591   0.098   2.352  0.2281  0.0106  0.0571
 2257SOL    HW118230   4.654   0.170   2.363  1.8398 -1.4405  0.4827
 2257SOL    HW218231   4.563   0.114   2.263  1.3865  1.0725 -0.1233
 2258SOL     OW18232   1.550   3.790   3.040 -0.4682  0.6662 -0.0217
 2258SOL    HW118233   1.612   3.863   3.040  0.4430 -0.1047  3.9443
 2258SOL    HW218234   1.558   3.775   2.946 -0.1552  0.7196 -0.0059
 2259SOL     OW18235   4.510   2.492   5.090 -0.5697 -0.2204 -0.5666
 2259SOL    HW118236   4.495   2.418   5.031  0.8450  1.7371 -3.4306
 2259SOL    HW218237   4.458   2.554   5.038 -0.2944  0.3820 -0.1303
 2260SOL     OW18238   3.248   0.679  15.477 -0.2732  0.7784 -0.0584
 2260SOL    HW118239   3.246   0.664  15.383  0.6472 -0.2299  0.0786
 2260SOL    HW218240   3.310   0.609  15.498 -1.5555  0.0974  1.4918
 2261SOL     OW18241   2.061   2.753   7.386 -0.5521 -0.0020  0.2217
 2261SOL    HW118242   2.133   2.816   7.379 -0.6515 -0.0264 -1.0862
 2261SOL    HW218243   1.986   2.812   7.379 -0.6907 -0.2589 -0.4630
 2262SOL     OW18244   0.074   2.126   3.402  0.5438  0.4155  0.2284
 2262SOL    HW118245   0.018   2.201   3.423  0.8837  0.4177  1.1148
 2262SOL    HW218246   0.011   2.060   3.373  0.5886  0.6309 -0.3764
 2263SOL     OW18247   1.508   3.199   4.880  0.3059  0.2374 -0.2474
 2263SOL    HW118248   1.444   3.257   4.922  0.9186 -1.5430  3.1614
 2263SOL    HW218249   1.457   3.118   4.878  1.0324 -0.2263  0.4533
 2264SOL     OW18250   1.844   4.345   3.321 -0.4174 -0.0364  0.1660
 2264SOL    HW118251   1.872   4.371   3.233  2.3143 -0.9780  0.7536
 2264SOL    HW218252   1.926   4.320   3.362 -0.5414  1.8292  1.5554
 2265SOL     OW18253   3.634   1.595   8.107 -0.2128 -0.5187  0.1552
 2265SOL    HW118254   3.670   1.514   8.142 -1.8220 -0.8142  1.1249
 2265SOL    HW218255   3.578   1.630   8.176  1.7594  3.8861 -0.4908
 2266SOL     OW18256   2.249   0.398  12.202  0.1941  0.0984 -0.5283
 2266SOL    HW118257   2.244   0.492  12.221 -0.9338  0.4998 -2.9108
 2266SOL    HW218258   2.309   0.360  12.267 -0.3365  0.7422  0.3477
 2267SOL     OW18259   0.549   3.403  15.220  0.0160  0.2574  0.3219
 2267SOL    HW118260   0.493   3.415  15.142  0.9996 -0.9650 -0.5687
 2267SOL    HW218261   0.504   3.337  15.272  0.3051  0.0839  0.3454
 2268SOL     OW18262   2.711   4.141  11.747  0.8511  0.0206 -0.3973
 2268SOL    HW118263   2.796   4.129  11.705  0.1727 -1.7779 -1.2204
 2268SOL    HW218264   2.728   4.099  11.832  3.0467 -0.9015 -1.2908
 2269SOL     OW18265   4.172   2.664   8.809 -0.4128 -0.4173 -0.2477
 2269SOL    HW118266   4.183   2.571   8.827  1.1046 -0.3609 -0.8861
 2269SOL    HW218267   4.260   2.695   8.828 -0.6328 -0.7067  1.2928
 2270SOL     OW18268   2.689   2.861   2.846  0.0978 -1.1200  0.0781
 2270SOL    HW118269   2.751   2.933   2.838  0.3817 -1.1351  2.1025
 2270SOL    HW218270   2.714   2.813   2.767  2.7086 -1.0490  0.8594
 2271SOL     OW18271   4.317   2.963   7.674  0.2219  0.4127  0.4844
 2271SOL    HW118272   4.409   2.942   7.691  0.3196  0.4366 -0.0069
 2271SOL    HW218273   4.279   2.982   7.759  0.8526 -0.0882  0.8771
 2272SOL     OW18274   1.513   3.451  13.311 -0.3213  0.6597 -0.3014
 2272SOL    HW118275   1.485   3.359  13.308  1.6612  0.0124  0.6312
 2272SOL    HW218276   1.443   3.485  13.256  0.0845 -0.5014 -1.5654
 2273SOL     OW18277   2.750   1.447  12.410 -0.0745  0.0536 -0.2352
 2273SOL    HW118278   2.697   1.436  12.489  1.6664  0.5730  0.9860
 2273SOL    HW218279   2.835   1.415  12.440 -0.4528 -0.2794  0.4858
 2274SOL     OW18280   1.239   0.355   5.442  0.0393 -0.2578 -0.1113
 2274SOL    HW118281   1.244   0.343   5.537  0.6622  0.4040 -0.0605
 2274SOL    HW218282   1.149   0.388   5.435 -0.2356 -0.9035  0.4182
 2275SOL     OW18283   1.007   4.206   8.833 -0.3003 -0.5588 -0.1114
 2275SOL    HW118284   0.919   4.236   8.811 -0.1183 -0.4623 -0.6906
 2275SOL    HW218285   1.021   4.143   8.762 -0.0911 -0.7031  0.0565
 2276SOL     OW18286   4.010   1.662   5.047  0.3264 -1.0669  0.4146
 2276SOL    HW118287   3.967   1.646   4.963 -1.3244 -1.3803  1.3282
 2276SOL    HW218288   3.974   1.747   5.073 -0.7519 -1.6322  0.7906
 2277SOL     OW18289   4.341   2.212   6.616 -0.5666 -0.4865  0.2768
 2277SOL    HW118290   4.337   2.172   6.529  1.5279 -0.9838  0.3835
 2277SOL    HW218291   4.340   2.130   6.667 -0.5392 -0.1256  0.8595
 2278SOL     OW18292   3.964   2.722  12.496 -0.4323  0.1039  0.3940
 2278SOL    HW118293   3.962   2.754  12.586  0.7925  1.8081 -0.2074
 2278SOL    HW218294   3.974   2.629  12.518 -1.2530  0.0575  0.5831
 2279SOL     OW18295   4.142   1.308   8.044  0.3308  0.1402  0.6526
 2279SOL    HW118296   4.188   1.241   8.096  0.4987 -0.7611 -0.6652
 2279SOL    HW218297   4.077   1.253   8.000  2.6547 -2.8901  0.9944
 2280SOL     OW18298   4.146   4.205   0.386  0.0045 -0.0042  0.0610
 2280SOL    HW118299   4.051   4.210   0.391  0.0442  3.2218 -2.7104
 2280SOL    HW218300   4.163   4.114   0.411  1.0020 -0.1278 -1.0516
 2281SOL     OW18301   3.166   1.669   9.695  0.1418  0.0172 -0.5710
 2281SOL    HW118302   3.124   1.752   9.670  1.7975  1.0154 -0.0685
 2281SOL    HW218303   3.225   1.643   9.624  1.7054  1.7010  0.1237
 2282SOL     OW18304   0.346   2.410   6.289 -0.1961 -0.4214 -0.3757
 2282SOL    HW118305   0.319   2.420   6.198  0.4056 -0.9827 -0.6092
 2282SOL    HW218306   0.414   2.342   6.287 -0.2831 -0.5454  0.5738
 2283SOL     OW18307   0.850   3.642   3.028  0.2486  0.3006  0.1740
 2283SOL    HW118308   0.930   3.595   3.003 -0.5981 -0.1497 -1.6780
 2283SOL    HW218309   0.788   3.626   2.957  0.4490  3.2506 -0.6626
 2284SOL     OW18310   3.420   2.019   5.754  0.2393  0.2858  0.4639
 2284SOL    HW118311   3.361   2.021   5.678 -0.7711  2.0736  1.2994
 2284SOL    HW218312   3.356   2.010   5.825 -1.9288 -0.1994 -1.5539
 2285SOL     OW18313   1.011   1.334   9.240  0.0143 -0.4124  0.1485
 2285SOL    HW118314   0.978   1.305   9.155 -0.2390 -1.4229  0.5867
 2285SOL    HW218315   1.067   1.403   9.203  0.7394  0.0261  2.0780
 2286SOL     OW18316   0.386   3.017   1.822  0.7294 -0.3580  0.2607
 2286SOL    HW118317   0.385   2.926   1.852  0.3049  0.1541  1.7852
 2286SOL    HW218318   0.385   3.006   1.727  0.1640  0.2069  0.2045
 2287SOL     OW18319   4.275   3.295   1.866  0.3264 -0.2702  1.1197
 2287SOL    HW118320   4.261   3.202   1.884  0.8907 -0.7276 -0.7933
 2287SOL    HW218321   4.370   3.298   1.855  0.2919 -0.7496  0.7417
 2288SOL     OW18322   1.359   4.042   4.886 -0.3263  0.3921  0.0778
 2288SOL    HW118323   1.448   4.006   4.884 -0.6480 -0.5361  2.1240
 2288SOL    HW218324   1.316   3.962   4.915 -0.7875 -0.5816 -3.3471
 2289SOL     OW18325   0.291   1.815  17.660  0.0825 -0.2054 -0.1548
 2289SOL    HW118326   0.241   1.745  17.617  2.7967 -1.9430 -0.5207
 2289SOL    HW218327   0.378   1.774  17.667  1.1058  1.9240 -0.2680
 2290SOL     OW18328   1.267   3.105  16.739  0.0226 -0.3351 -0.5714
 2290SOL    HW118329   1.192   3.108  16.798  0.6141  0.4928  0.1528
 2290SOL    HW218330   1.286   3.013  16.720  1.5014 -0.0443 -0.5313
 2291SOL     OW18331   3.987   1.043  17.686  0.0492  0.0023 -0.5289
 2291SOL    HW118332   4.012   0.952  17.674  0.2449 -0.3438  2.5828
 2291SOL    HW218333   4.019   1.088  17.608  0.4168  1.0221  0.2056
 2292SOL     OW18334   0.899   1.741   2.668  0.1318 -0.5557 -0.3780
 2292SOL    HW118335   0.904   1.833   2.644 -3.9529 -0.5019 -0.9560
 2292SOL    HW218336   0.983   1.712   2.705 -0.8237  0.3736  2.5144
 2293SOL     OW18337   0.766   3.669   6.551 -0.5311 -1.3344 -0.5018
 2293SOL    HW118338   0.817   3.616   6.612 -0.8312  1.1991  1.9574
 2293SOL    HW218339   0.788   3.628   6.467 -0.8063  0.6518 -1.5321
 2294SOL     OW18340   4.150   2.630   7.159  0.0697  0.0788  0.0800
 2294SOL    HW118341   4.209   2.684   7.212 -1.1406  1.7674 -0.2763
 2294SOL    HW218342   4.078   2.693   7.161  0.3577  0.4062  0.1842
 2295SOL     OW18343   4.601   1.341   0.182 -0.0530  0.7230  0.0851
 2295SOL    HW118344   4.583   1.274   0.117  1.3668  0.3347  0.0875
 2295SOL    HW218345   4.686   1.377   0.155  1.2108 -0.8829  1.8986
 2296SOL     OW18346   2.092   2.870   0.646 -0.1849 -0.2070  0.3483
 2296SOL    HW118347   2.096   2.965   0.636 -0.0986 -0.0723  1.6190
 2296SOL    HW218348   2.056   2.868   0.735  1.4818 -0.7730  1.0280
 2297SOL     OW18349   2.117   2.725  10.057 -0.3996  0.0314  0.4154
 2297SOL    HW118350   2.178   2.685  10.120  0.8079  0.5982 -0.4010
 2297SOL    HW218351   2.034   2.717  10.104  0.3515 -0.1680  1.7301
 2298SOL     OW18352   4.514   2.515   4.531  0.4078  0.3636  0.4880
 2298SOL    HW118353   4.540   2.444   4.590 -0.7285  0.0681  0.6363
 2298SOL    HW218354   4.590   2.569   4.510  1.7465 -2.1393 -0.9659
 2299SOL     OW18355   3.449   2.947   8.336 -0.1290 -0.2959 -0.4414
 2299SOL    HW118356   3.376   2.920   8.281 -0.4831 -0.4849  0.1278
 2299SOL    HW218357   3.415   2.983   8.418  0.6473 -1.3518  0.3466
 2300SOL     OW18358   2.290   2.936   8.696  0.0950 -0.4688 -0.8772
 2300SOL    HW118359   2.300   2.994   8.621 -0.8788 -0.3278 -0.8943
 2300SOL    HW218360   2.198   2.910   8.685 -0.2326 -0.4227  1.7309
 2301SOL     OW18361   2.597   2.863   7.859 -0.0256 -0.3399  0.4208
 2301SOL    HW118362   2.629   2.954   7.857  0.5168 -0.5845 -2.2787
 2301SOL    HW218363   2.612   2.838   7.950  0.4120 -0.9388  0.1833
 2302SOL     OW18364   3.005   0.221   8.597  0.1636 -0.6989 -0.0958
 2302SOL    HW118365   2.959   0.241   8.517 -0.3920  0.2776  0.4723
 2302SOL    HW218366   3.051   0.304   8.612 -2.1901  0.6794 -0.5222
 2303SOL     OW18367   2.027   1.201   0.196 -0.0036 -0.2434  0.0788
 2303SOL    HW118368   2.086   1.239   0.131  1.7931  0.9851  2.4183
 2303SOL    HW218369   2.037   1.109   0.172 -1.7901 -0.9890  2.3072
 2304SOL     OW18370   2.526   0.495   5.313 -0.0588 -0.2216 -0.5238
 2304SOL    HW118371   2.486   0.561   5.257  1.5846  0.5188 -0.8245
 2304SOL    HW218372   2.617   0.507   5.286  0.4103 -0.1879  1.0851
 2305SOL     OW18373   2.829   2.424   4.231 -0.1730 -0.1694 -0.0152
 2305SOL    HW118374   2.900   2.461   4.283  2.1476 -1.7235 -2.0730
 2305SOL    HW218375   2.805   2.497   4.174 -2.5335 -0.0722  1.1022
 2306SOL     OW18376   4.569   0.421   9.225  0.3553  0.1144 -0.3844
 2306SOL    HW118377   4.580   0.329   9.201  1.8918 -0.0475  0.9114
 2306SOL    HW218378   4.566   0.428   9.320  3.1314 -0.7334 -0.2053
 2307SOL     OW18379   2.321   0.351   3.571  0.0173  0.4584  0.3596
 2307SOL    HW118380   2.242   0.403   3.561  0.8518  1.7215  0.3902
 2307SOL    HW218381   2.338   0.326   3.480 -0.2753  2.7014 -0.2992
 2308SOL     OW18382   3.294   3.639   9.571 -0.3455 -0.6361  0.5448
 2308SOL    HW118383   3.350   3.706   9.533 -0.9902  0.6793  1.8828
 2308SOL    HW218384   3.334   3.640   9.658  0.7970  0.2791  0.0083
 2309SOL     OW18385   2.244   0.829   1.218 -0.2070 -0.0986 -0.6915
 2309SOL    HW118386   2.252   0.735   1.199  0.5332 -0.3879  1.0167
 2309SOL    HW218387   2.336   0.851   1.233 -0.4712  0.3961  0.2373
 2310SOL     OW18388   0.613   4.126   6.593  0.0582 -0.5548  0.2620
 2310SOL    HW118389   0.552   4.104   6.522 -1.6988  0.2622  1.5271
 2310SOL    HW218390   0.546   4.159   6.652  0.1426 -0.0605  0.0840
 2311SOL     OW18391   0.220   1.164   0.679  0.4975 -0.2638 -0.2720
 2311SOL    HW118392   0.154   1.125   0.622 -0.8215  1.4891  0.0549
 2311SOL    HW218393   0.178   1.245   0.708  0.3145 -0.0484 -1.1645
 2312SOL     OW18394   4.182   3.786   4.355  0.1688  0.1486  0.1080
 2312SOL    HW118395   4.181   3.881   4.343 -0.1020  0.3195  1.4440
 2312SOL    HW218396   4.274   3.768   4.336 -0.0887 -2.3725  1.2728
 2313SOL     OW18397   4.384   1.780   8.602 -0.1304  0.0024 -0.2243
 2313SOL    HW118398   4.379   1.688   8.579 -0.4177 -0.3932  1.4333
 2313SOL    HW218399   4.467   1.790   8.649 -0.2157  0.4340 -0.1593
 2314SOL     OW18400   3.766   1.070   0.908  0.1531 -0.1499 -1.2475
 2314SOL    HW118401   3.821   1.148   0.918 -1.2436  0.9756 -2.3975
 2314SOL    HW218402   3.748   1.041   0.997 -2.7674 -0.2410 -1.8880
 2315SOL     OW18403   3.503   0.078   7.426 -0.7005  0.3601 -0.1044
 2315SOL    HW118404   3.429   0.039   7.473 -0.5124 -0.5604 -0.5851
 2315SOL    HW218405   3.457   0.138   7.367  1.5944  1.5828 -0.6452
 2316SOL     OW18406   2.855   2.495  10.553  0.3849  0.0649  0.3954
 2316SOL    HW118407   2.869   2.491  10.647 -0.6128 -1.3098  0.4738
 2316SOL    HW218408   2.768   2.535  10.558  0.0426 -0.5067 -1.1339
 2317SOL     OW18409   4.258   4.287   3.515 -0.0501 -0.4261  0.1008
 2317SOL    HW118410   4.281   4.284   3.422 -0.4282 -1.3043  0.0481
 2317SOL    HW218411   4.278   4.379   3.537  0.6541 -0.2718 -1.1556
 2318SOL     OW18412   0.177   3.367   6.343  0.2936  0.2374  0.7401
 2318SOL    HW118413   0.255   3.361   6.288 -1.0894  2.1178 -1.4164
 2318SOL    HW218414   0.164   3.275   6.366 -2.4073  0.0192 -1.7498
 2319SOL     OW18415   2.043   1.758  16.029 -0.4569  0.3344 -0.2986
 2319SOL    HW118416   2.087   1.790  15.951  1.0762  2.2309  1.3435
 2319SOL    HW218417   2.014   1.845  16.058 -1.4696  0.2295 -0.9928
 2320SOL     OW18418   4.656   1.047  15.035  0.3348 -0.2959  0.0784
 2320SOL    HW118419   4.719   0.989  15.077  2.3352  0.9159 -1.2649
 2320SOL    HW218420   4.666   1.058  14.941  0.1498  0.7948  0.1834
 2321SOL     OW18421   4.076   4.429   0.751  0.5969  0.2501  0.0715
 2321SOL    HW118422   4.079   4.334   0.763  0.7489  0.3303  0.6780
 2321SOL    HW218423   4.058   4.466   0.837 -0.1842  1.7977 -0.7666
 2322SOL     OW18424   1.710   4.492   7.442 -0.0409 -0.5212 -0.0708
 2322SOL    HW118425   1.771   4.531   7.505 -0.8203  0.2435  0.2050
 2322SOL    HW218426   1.644   4.560   7.427  0.6242 -0.2107 -1.6645
 2323SOL     OW18427   4.441   3.506   8.056 -0.0143 -0.2765 -0.6439
 2323SOL    HW118428   4.444   3.498   8.152  1.9574 -0.4090 -0.7289
 2323SOL    HW218429   4.447   3.601   8.055 -0.0307 -0.2414  1.3636
 2324SOL     OW18430   0.205   1.121   3.397 -0.1696 -0.0656 -0.2002
 2324SOL    HW118431   0.287   1.150   3.439 -0.3901  0.3098 -0.0249
 2324SOL    HW218432   0.206   1.179   3.320 -1.8895  1.1486  0.6927
 2325SOL     OW18433   2.295   4.213   2.713 -0.2435  0.1832 -0.5473
 2325SOL    HW118434   2.304   4.118   2.719  0.1369  0.3182  0.9240
 2325SOL    HW218435   2.265   4.244   2.798 -0.1027  0.3350 -0.5531
 2326SOL     OW18436   3.276   3.348   4.423  1.5308 -0.6630  0.3587
 2326SOL    HW118437   3.244   3.343   4.333  0.6396  1.6076  0.5570
 2326SOL    HW218438   3.264   3.255   4.442 -1.6032 -0.1941  0.6079
 2327SOL     OW18439   0.599   1.899   3.658 -0.2134  0.1476 -0.3844
 2327SOL    HW118440   0.663   1.920   3.590 -1.0417 -0.1824 -1.2680
 2327SOL    HW218441   0.551   1.980   3.677  1.5793  1.2233 -0.4848
 2328SOL     OW18442   3.400   2.682   7.988  0.5547  0.4539  0.1346
 2328SOL    HW118443   3.480   2.630   8.001  0.8485  1.0990  0.8810
 2328SOL    HW218444   3.324   2.638   8.027  0.2164 -0.3095 -1.3732
 2329SOL     OW18445   1.395   2.104   6.572 -0.2930 -0.0159 -0.4511
 2329SOL    HW118446   1.385   2.066   6.485 -0.2900 -0.9064 -0.0676
 2329SOL    HW218447   1.375   2.032   6.632  4.1008 -0.5690  0.3625
 2330SOL     OW18448   1.788   2.966   8.503  0.3129  0.1402  0.4789
 2330SOL    HW118449   1.845   2.987   8.576 -0.3659 -0.0233  1.0507
 2330SOL    HW218450   1.860   2.957   8.440 -0.9601  3.6586 -1.5219
 2331SOL     OW18451   1.330   0.071   1.883 -0.0631  0.0264  0.3067
 2331SOL    HW118452   1.374   0.028   1.810  1.8081 -0.2478  1.5788
 2331SOL    HW218453   1.383   0.151   1.877 -1.3392  0.9236  0.9720
 2332SOL     OW18454   3.392   2.923   0.597  0.4556  0.4020 -0.3367
 2332SOL    HW118455   3.463   2.889   0.543  1.0804 -0.3288  0.9381
 2332SOL    HW218456   3.370   3.009   0.560  0.0222 -0.2558 -1.5884
 2333SOL     OW18457   3.422   3.296   5.031 -0.5115 -0.0206  0.5497
 2333SOL    HW118458   3.453   3.268   5.117  0.6419  1.1748  0.5292
 2333SOL    HW218459   3.374   3.216   5.008 -0.7417 -0.0382  1.0999
 2334SOL     OW18460   4.707   2.545   3.227  0.2668 -0.4365  0.3374
 2334SOL    HW118461   0.056   2.523   3.285  1.9971  3.1965 -0.4275
 2334SOL    HW218462   4.703   2.469   3.169 -1.3205 -0.7041  0.7956
 2335SOL     OW18463   1.127   0.209   7.403  0.2513 -0.4636  0.1846
 2335SOL    HW118464   1.185   0.133   7.402  1.8513  0.7710 -0.8251
 2335SOL    HW218465   1.146   0.243   7.315 -0.2520 -1.2023 -0.2116
 2336SOL     OW18466   4.142   3.983   5.809  0.4639  0.2028 -0.0195
 2336SOL    HW118467   4.101   3.898   5.823  1.4838 -0.2044  0.5401
 2336SOL    HW218468   4.168   3.976   5.717 -0.8253 -1.0462 -0.2808
 2337SOL     OW18469   0.048   1.863  10.532 -0.2386 -0.1708 -0.1645
 2337SOL    HW118470   4.697   1.922  10.531 -2.2282 -2.7221  0.1914
 2337SOL    HW218471   0.044   1.806  10.455 -1.9634 -1.2481  0.7226
 2338SOL     OW18472   2.621   3.164   5.285  0.2759  0.3335  0.0427
 2338SOL    HW118473   2.557   3.127   5.346  1.0111  0.2314  0.7548
 2338SOL    HW218474   2.576   3.206   5.212  0.8385  1.7072  0.4821
 2339SOL     OW18475   3.007   3.372  14.335 -0.1380 -0.2124 -0.4268
 2339SOL    HW118476   2.960   3.399  14.257 -1.5626  0.9535  0.8371
 2339SOL    HW218477   3.089   3.419  14.315  0.4342 -1.6764 -1.5005
 2340SOL     OW18478   4.614   1.697   7.424 -0.2033  0.1946 -0.0630
 2340SOL    HW118479   4.650   1.610   7.411 -0.5151  0.1822 -0.8270
 2340SOL    HW218480   4.683   1.733   7.480  1.2029 -2.8402  0.1423
 2341SOL     OW18481   3.335   4.341   6.696  0.2796 -0.0576 -0.1341
 2341SOL    HW118482   3.344   4.379   6.783 -0.3801  1.1936 -0.6124
 2341SOL    HW218483   3.403   4.273   6.697  0.7003  0.3151 -2.5720
 2342SOL     OW18484   2.505   2.422   9.738 -0.0710 -0.1448  0.6199
 2342SOL    HW118485   2.573   2.425   9.670  0.3786  1.9517  1.1768
 2342SOL    HW218486   2.486   2.514   9.757  2.4392  1.1418 -2.9585
 2343SOL     OW18487   4.080   1.320  10.939  0.3336 -0.1999 -0.5070
 2343SOL    HW118488   3.986   1.325  10.960  0.5013  1.6022 -0.2025
 2343SOL    HW218489   4.097   1.406  10.902  0.0637 -0.7812 -1.9622
 2344SOL     OW18490   1.686   1.982   7.722 -0.5909 -0.3939  0.3922
 2344SOL    HW118491   1.676   1.910   7.784 -2.0795 -2.3716 -2.1460
 2344SOL    HW218492   1.599   2.023   7.724 -0.8450 -0.8126 -2.4571
 2345SOL     OW18493   3.955   0.596  10.428 -0.3239  0.3774 -0.0937
 2345SOL    HW118494   3.987   0.667  10.484 -0.4206  0.4278 -0.1035
 2345SOL    HW218495   3.941   0.652  10.352  1.1099 -1.1437 -1.4785
 2346SOL     OW18496   1.516   1.846   4.793  0.2404 -0.4302 -0.5168
 2346SOL    HW118497   1.506   1.770   4.736  0.5979  0.0147 -1.1786
 2346SOL    HW218498   1.575   1.813   4.859  1.1137 -0.1610 -1.1654
 2347SOL     OW18499   3.590   0.927   5.726  0.1125  0.0034 -0.1872
 2347SOL    HW118500   3.524   0.989   5.696 -1.0709 -0.7201  0.9083
 2347SOL    HW218501   3.559   0.849   5.680 -0.5304 -0.4350  0.9948
 2348SOL     OW18502   2.161   4.638  11.348 -0.0763  0.1948  0.1491
 2348SOL    HW118503   2.069   4.653  11.327  0.8041  3.3260 -1.5053
 2348SOL    HW218504   2.204   4.602  11.270 -1.4769 -0.2253 -0.4168
 2349SOL     OW18505   0.048   4.619  11.774  0.5448  0.1004 -0.2097
 2349SOL    HW118506   0.031   4.689  11.711 -1.8387  0.4063  0.7852
 2349SOL    HW218507   4.690   4.605  11.821  0.2736 -0.2030 -0.7637
 2350SOL     OW18508   4.269   1.178   4.567 -0.5211 -0.0518  0.9070
 2350SOL    HW118509   4.285   1.199   4.475  1.7726  1.7914  1.7392
 2350SOL    HW218510   4.358   1.164   4.600  0.4358 -2.2979 -2.5709
 2351SOL     OW18511   1.017   1.737   7.559 -0.1990 -0.0880 -0.0545
 2351SOL    HW118512   1.070   1.809   7.524 -0.4928 -0.9531 -2.3002
 2351SOL    HW218513   0.925   1.763   7.556  0.1561  0.6422 -5.3977
 2352SOL     OW18514   4.369   1.852   5.344 -0.1661  0.5246 -0.0895
 2352SOL    HW118515   4.408   1.886   5.424 -0.8172  1.0979 -0.0195
 2352SOL    HW218516   4.443   1.837   5.286  0.5826  1.8358  0.5439
 2353SOL     OW18517   0.141   4.013   3.064 -0.6274  0.3404 -0.1078
 2353SOL    HW118518   0.056   4.057   3.076 -1.2477 -1.0133  0.3885
 2353SOL    HW218519   0.183   4.033   3.147  0.4038 -0.0323 -0.5449
 2354SOL     OW18520   4.152   2.410   3.256 -0.0748  0.2658 -0.1376
 2354SOL    HW118521   4.108   2.335   3.296  1.7523 -1.0183 -0.5113
 2354SOL    HW218522   4.113   2.399   3.169  1.9320  1.7899 -1.2446
 2355SOL     OW18523   3.378   2.101   0.247 -0.2745  0.0774  0.8914
 2355SOL    HW118524   3.292   2.110   0.206  1.3508 -1.0161 -2.7791
 2355SOL    HW218525   3.380   2.015   0.289  0.1005 -1.9199 -3.1558
 2356SOL     OW18526   1.937   4.328  12.364  0.1750  0.1582  0.8042
 2356SOL    HW118527   1.859   4.286  12.399 -0.7729  1.0673 -0.2221
 2356SOL    HW218528   1.987   4.246  12.363  0.4364  0.3152  1.0404
 2357SOL     OW18529   0.834   2.010   3.194  1.0274 -0.1481  0.5797
 2357SOL    HW118530   0.857   2.099   3.166  1.7385 -0.2354  0.8975
 2357SOL    HW218531   0.844   1.967   3.109 -0.5993  0.4139  0.0919
 2358SOL     OW18532   1.828   2.859  16.132 -0.2217 -0.0448 -0.2250
 2358SOL    HW118533   1.774   2.938  16.126 -0.8789 -0.3505  1.8006
 2358SOL    HW218534   1.765   2.806  16.181  0.4306 -0.4017  0.2204
 2359SOL     OW18535   2.253   2.937   3.139  0.3304  0.4588 -0.6340
 2359SOL    HW118536   2.203   2.906   3.215  0.5399 -0.7003 -0.9650
 2359SOL    HW218537   2.182   2.948   3.076  0.5010  1.7310 -0.5894
 2360SOL     OW18538   2.493   2.857   9.180  0.2374  0.6510  0.0975
 2360SOL    HW118539   2.441   2.825   9.107  1.2650  0.8552 -0.7209
 2360SOL    HW218540   2.499   2.774   9.226 -2.0119 -0.0558 -0.9120
 2361SOL     OW18541   2.304   1.045   2.297 -0.0253  0.2870  0.7391
 2361SOL    HW118542   2.333   0.955   2.311  2.3195  1.5212  3.8562
 2361SOL    HW218543   2.311   1.062   2.204 -0.9454 -0.7755  0.4745
 2362SOL     OW18544   0.474   0.903   8.524 -0.8361 -0.0600 -0.0533
 2362SOL    HW118545   0.563   0.869   8.528 -0.4056  0.6784 -3.4841
 2362SOL    HW218546   0.423   0.851   8.586  1.4301 -0.3375  1.5731
 2363SOL     OW18547   1.620   1.694   3.558 -0.3496  0.5168  0.1940
 2363SOL    HW118548   1.545   1.637   3.541 -2.4338  3.6050 -0.8075
 2363SOL    HW218549   1.614   1.733   3.471  0.4271  0.5938  0.1744
 2364SOL     OW18550   1.765   3.680  12.343  0.1450  0.1654 -0.1095
 2364SOL    HW118551   1.745   3.623  12.417 -0.9407 -0.5166 -0.9403
 2364SOL    HW218552   1.738   3.622  12.273  0.9749 -0.7898  0.3673
 2365SOL     OW18553   2.689   3.646   9.999 -0.4413 -0.4527  0.2643
 2365SOL    HW118554   2.605   3.602  10.014 -2.4056  2.3563 -2.3643
 2365SOL    HW218555   2.723   3.588   9.931 -0.9200  0.5236 -0.8234
 2366SOL     OW18556   3.517   3.881   3.428  0.0535 -0.9532 -0.4998
 2366SOL    HW118557   3.590   3.883   3.367 -0.1398  1.4927 -0.6741
 2366SOL    HW218558   3.442   3.931   3.394  0.4878 -0.7060 -1.0909
 2367SOL     OW18559   4.131   1.075   2.600 -0.1197 -0.3202 -0.3498
 2367SOL    HW118560   4.082   1.021   2.661  0.8668 -1.1684 -0.3133
 2367SOL    HW218561   4.220   1.059   2.631 -1.2506  0.4185  3.1935
 2368SOL     OW18562   3.886   4.609   1.707 -0.8315 -0.4016  0.0081
 2368SOL    HW118563   3.858   4.654   1.627  1.6275  0.7701 -0.2081
 2368SOL    HW218564   3.966   4.658   1.726  0.1896 -1.5966 -1.1340
 2369SOL     OW18565   3.894   2.875   4.981 -0.5943  0.7116 -0.2068
 2369SOL    HW118566   3.940   2.954   5.008  1.5332  0.1642 -2.1413
 2369SOL    HW218567   3.892   2.831   5.065 -1.6551  0.4580 -0.3623
 2370SOL     OW18568   2.196   1.044   2.036 -0.7994  0.2050  0.0598
 2370SOL    HW118569   2.181   1.111   1.969  1.3819  0.3042 -0.3010
 2370SOL    HW218570   2.124   1.072   2.093 -0.4636 -0.6541  0.8941
 2371SOL     OW18571   1.694   0.100   8.750 -0.3971 -0.5870  0.0581
 2371SOL    HW118572   1.685   0.006   8.762 -0.1903 -0.5313  0.6423
 2371SOL    HW218573   1.685   0.103   8.654  0.1815 -0.3710  0.0074
 2372SOL     OW18574   0.610   2.764   7.087  0.3979 -0.0099 -0.1522
 2372SOL    HW118575   0.533   2.801   7.044  2.6397  1.0021 -3.3167
 2372SOL    HW218576   0.594   2.786   7.179  0.5595 -1.4787  0.2279
 2373SOL     OW18577   1.592   1.872   4.100 -1.2372  0.3194  0.6331
 2373SOL    HW118578   1.632   1.834   4.178 -0.2433 -2.4162 -1.1750
 2373SOL    HW218579   1.641   1.840   4.024 -1.6866  2.6582 -0.6132
 2374SOL     OW18580   3.646   1.453   7.056  0.3424  0.4625 -0.1245
 2374SOL    HW118581   3.561   1.444   7.013  0.2859  0.4083 -0.0018
 2374SOL    HW218582   3.649   1.549   7.057  0.0453  0.4819 -0.9723
 2375SOL     OW18583   0.178   2.056   6.658  0.1041  0.5498 -0.3256
 2375SOL    HW118584   0.269   2.084   6.651  0.5464 -1.1040 -1.1779
 2375SOL    HW218585   0.174   2.059   6.753  1.3522 -1.6794 -0.2058
 2376SOL     OW18586   4.402   1.343   7.377  0.4507  0.0168  0.1452
 2376SOL    HW118587   4.392   1.384   7.462  0.8057  1.0153 -0.2969
 2376SOL    HW218588   4.480   1.287   7.386 -0.2055 -0.6804  1.4953
 2377SOL     OW18589   0.193   1.037   1.430 -0.1048  0.1282  0.2965
 2377SOL    HW118590   0.166   1.124   1.460 -1.1858 -0.2164  0.3158
 2377SOL    HW218591   0.116   1.013   1.378  0.5697  1.0402 -1.0938
 2378SOL     OW18592   1.326   3.418   0.527  0.2009 -0.3400  0.2529
 2378SOL    HW118593   1.278   3.336   0.535 -2.1012  1.1211  1.2674
 2378SOL    HW218594   1.404   3.406   0.581 -0.2309  1.6423  1.3165
 2379SOL     OW18595   1.196   4.150   5.911 -0.0935 -0.5009 -0.0981
 2379SOL    HW118596   1.252   4.226   5.926  0.0941 -0.3474 -1.5884
 2379SOL    HW218597   1.163   4.173   5.824  0.4936 -1.3895 -0.5474
 2380SOL     OW18598   2.823   0.263   1.480  0.3964  0.1533  0.0283
 2380SOL    HW118599   2.827   0.309   1.396  0.3263 -1.5833 -0.9068
 2380SOL    HW218600   2.857   0.176   1.458  1.2975  0.4219  0.3358
 2381SOL     OW18601   4.721   0.602   3.941 -0.4291 -0.2915 -0.2274
 2381SOL    HW118602   4.698   0.549   4.018 -0.3550  0.0442  0.0248
 2381SOL    HW218603   4.637   0.647   3.935 -0.4331 -0.4187 -1.0551
 2382SOL     OW18604   3.293   4.616   8.479  0.2759  0.0802  0.6406
 2382SOL    HW118605   3.370   4.562   8.465 -0.5602 -0.7198 -0.9066
 2382SOL    HW218606   3.234   4.553   8.521 -1.0937  0.9060 -0.0064
 2383SOL     OW18607   0.328   2.351   8.205  0.0843 -0.4325  0.2086
 2383SOL    HW118608   0.286   2.383   8.285 -3.1146 -0.0873 -1.5799
 2383SOL    HW218609   0.364   2.275   8.250  0.7086  0.4566  1.2212
 2384SOL     OW18610   0.667   1.859  11.017  0.1872 -0.3396 -0.3607
 2384SOL    HW118611   0.730   1.878  10.948 -1.5470  0.8043 -1.6319
 2384SOL    HW218612   0.584   1.861  10.969  0.3091  0.3278 -0.5429
 2385SOL     OW18613   2.211   3.720   5.517  0.3620 -0.1051  0.0417
 2385SOL    HW118614   2.252   3.804   5.537  2.4332 -0.9971 -0.4093
 2385SOL    HW218615   2.195   3.684   5.604  0.0850  0.5680  0.2704
 2386SOL     OW18616   0.667   2.206   2.909 -0.4859 -0.5284 -0.7346
 2386SOL    HW118617   0.701   2.229   2.823 -1.3197  0.5340 -0.7677
 2386SOL    HW218618   0.574   2.229   2.906  0.3404  2.7989 -0.9343
 2387SOL     OW18619   0.927   1.515   2.957 -0.0749 -0.2054 -0.4755
 2387SOL    HW118620   1.007   1.480   2.994 -1.1035 -1.9324  0.1225
 2387SOL    HW218621   0.925   1.609   2.972 -0.8749 -0.2689 -0.1695
 2388SOL     OW18622   1.393   1.819   3.164  0.1678  0.5213 -0.2170
 2388SOL    HW118623   1.455   1.806   3.237 -2.1096  1.9688  1.9544
 2388SOL    HW218624   1.430   1.754   3.104 -0.8343  1.8896 -2.2812
 2389SOL     OW18625   2.741   1.953   5.779  0.0072  0.2867 -0.3683
 2389SOL    HW118626   2.725   2.023   5.842  1.3509  1.2169 -1.0276
 2389SOL    HW218627   2.775   1.993   5.699 -2.2171 -0.2450 -1.5660
 2390SOL     OW18628   1.192   0.090   6.974  0.0411 -0.1837  0.1642
 2390SOL    HW118629   1.118   0.097   7.034 -0.2424 -0.0983 -0.1959
 2390SOL    HW218630   1.150   0.071   6.890  0.2329  0.9953 -0.2036
 2391SOL     OW18631   0.989   0.771   6.396  0.1881 -0.4737  0.4069
 2391SOL    HW118632   1.085   0.769   6.404  0.3873  1.0423 -1.6008
 2391SOL    HW218633   0.978   0.811   6.310 -0.8829 -0.4269  0.5679
 2392SOL     OW18634   1.492   1.670   2.265 -0.4696 -0.3769  0.1279
 2392SOL    HW118635   1.552   1.597   2.279 -0.4107 -0.3835 -0.1518
 2392SOL    HW218636   1.510   1.727   2.340 -0.1389 -2.7072  1.7903
 2393SOL     OW18637   4.407   0.448  13.677 -0.1444  0.6184 -0.5780
 2393SOL    HW118638   4.467   0.481  13.744 -0.4724  1.4955 -0.7074
 2393SOL    HW218639   4.439   0.502  13.605 -3.2334  0.3432 -2.1538
 2394SOL     OW18640   1.627   3.186  15.194 -0.6771  0.1572 -0.1606
 2394SOL    HW118641   1.690   3.174  15.123  0.4386 -2.0561  1.2495
 2394SOL    HW218642   1.542   3.176  15.150 -0.2489  1.5628 -1.3362
 2395SOL     OW18643   3.972   2.431  16.897  0.4418 -0.2516 -0.4984
 2395SOL    HW118644   3.959   2.436  16.802 -1.3163 -0.6419 -0.2713
 2395SOL    HW218645   3.944   2.516  16.930  0.3004 -0.9727  1.2463
 2396SOL     OW18646   3.313   4.500  16.702 -0.1134 -0.0529  0.3947
 2396SOL    HW118647   3.402   4.507  16.735  0.5384  1.0242 -1.6066
 2396SOL    HW218648   3.295   4.407  16.689  0.2630  0.0115 -0.5975
 2397SOL     OW18649   1.950   3.886   2.529  0.2651 -0.1604  0.4722
 2397SOL    HW118650   2.040   3.853   2.527  0.4963  0.3702  2.0353
 2397SOL    HW218651   1.911   3.820   2.471  0.9898  0.0671 -0.2779
 2398SOL     OW18652   4.343   2.260   5.719 -0.4766 -0.2017  0.1428
 2398SOL    HW118653   4.323   2.193   5.784 -0.6769 -1.2277 -0.9841
 2398SOL    HW218654   4.274   2.263   5.653 -2.5816 -0.9981  2.3001
 2399SOL     OW18655   0.566   2.926   2.721 -0.1398 -0.1434 -0.5507
 2399SOL    HW118656   0.479   2.964   2.728  1.3543  3.3534 -1.3259
 2399SOL    HW218657   0.604   2.951   2.805  3.0630  0.5362 -2.2108
 2400SOL     OW18658   4.363   0.121   8.689 -0.8469 -0.3140  0.8245
 2400SOL    HW118659   4.426   0.172   8.639 -1.9429 -1.3654 -1.6645
 2400SOL    HW218660   4.430   0.090   8.749  0.4289  1.2723  0.2087
 2401SOL     OW18661   0.915   3.785   7.933  0.8480 -0.4725  0.1770
 2401SOL    HW118662   0.935   3.747   8.018  0.0474  0.2057  0.6616
 2401SOL    HW218663   1.004   3.794   7.897  0.4170 -0.1237 -0.8045
 2402SOL     OW18664   1.868   3.368   9.412 -0.2411 -0.5839  0.3682
 2402SOL    HW118665   1.821   3.435   9.461  0.2874 -1.0509  1.5112
 2402SOL    HW218666   1.797   3.345   9.352  0.0169 -1.7555  0.5175
 2403SOL     OW18667   0.180   1.593   9.755 -0.0089 -0.0333 -0.1065
 2403SOL    HW118668   0.236   1.662   9.722 -0.7039  1.0074  0.8845
 2403SOL    HW218669   0.250   1.536   9.788 -0.9247 -1.0692  0.0717
 2404SOL     OW18670   4.411   3.652   2.411 -0.1636 -0.0220  0.2343
 2404SOL    HW118671   4.352   3.728   2.406 -0.6373 -0.3895  0.2330
 2404SOL    HW218672   4.489   3.671   2.359  0.4986 -0.6279  1.0070
 2405SOL     OW18673   4.289   0.860   1.103 -0.3063  0.3685 -0.3095
 2405SOL    HW118674   4.223   0.927   1.121 -1.1413 -0.1297 -1.5286
 2405SOL    HW218675   4.267   0.808   1.181  0.4745  0.2194 -0.1848
 2406SOL     OW18676   4.189   0.419   9.987  0.0967  0.3615  0.1688
 2406SOL    HW118677   4.104   0.447  10.019 -0.2636  0.9558 -1.2807
 2406SOL    HW218678   4.232   0.392  10.068  2.5679 -0.6704 -1.4731
 2407SOL     OW18679   4.513   0.264   4.683  0.1826 -0.1193 -0.1976
 2407SOL    HW118680   4.439   0.275   4.623 -2.0612 -1.7141  2.2671
 2407SOL    HW218681   4.476   0.195   4.739 -1.5628  1.0578  0.0975
 2408SOL     OW18682   4.177   3.269  15.429  0.3170 -0.2954 -0.0557
 2408SOL    HW118683   4.130   3.220  15.496  2.4787  2.3322  3.3583
 2408SOL    HW218684   4.248   3.294  15.488 -1.0438 -1.7865  2.2035
 2409SOL     OW18685   1.519   4.238   6.652  1.0561 -0.4002  1.0328
 2409SOL    HW118686   1.439   4.287   6.634  1.1103  0.1713  2.3477
 2409SOL    HW218687   1.488   4.161   6.700 -2.2117  0.4010  0.2053
 2410SOL     OW18688   1.641   3.291   3.774 -0.5016  0.6130 -0.1777
 2410SOL    HW118689   1.582   3.301   3.699 -0.0329 -0.0358 -0.6314
 2410SOL    HW218690   1.723   3.284   3.726 -0.4655  0.0615 -0.0407
 2411SOL     OW18691   3.059   2.578   9.573  0.3512  0.5731  0.0834
 2411SOL    HW118692   3.148   2.550   9.595  0.7721  2.8239  1.2587
 2411SOL    HW218693   3.002   2.530   9.633 -0.7016 -0.4761 -1.7737
 2412SOL     OW18694   0.101   2.874   7.259  0.7988  0.1324 -0.2199
 2412SOL    HW118695   0.094   2.851   7.166 -0.5410 -0.7436  0.1045
 2412SOL    HW218696   0.191   2.844   7.274  0.8872 -0.0620 -1.1294
 2413SOL     OW18697   0.844   2.859   4.020  0.0824  0.4575 -0.4932
 2413SOL    HW118698   0.849   2.859   4.116  3.2106 -0.1678 -0.6728
 2413SOL    HW218699   0.925   2.899   3.990  1.1553  0.4689  2.3807
 2414SOL     OW18700   1.618   4.421  11.341 -0.3292 -0.2176 -0.8615
 2414SOL    HW118701   1.644   4.412  11.433  1.3434 -1.1901 -1.4309
 2414SOL    HW218702   1.530   4.387  11.355  0.1472 -0.4609  1.4477
 2415SOL     OW18703   1.304   2.298  16.294 -0.3298 -0.1236 -0.0511
 2415SOL    HW118704   1.347   2.295  16.379  0.7338 -0.2677 -0.5852
 2415SOL    HW218705   1.218   2.260  16.309 -0.5069 -0.0748 -0.9527
 2416SOL     OW18706   2.113   3.341   9.344  0.0441  0.8537  0.2042
 2416SOL    HW118707   2.133   3.268   9.402 -1.4397  0.3425  0.0596
 2416SOL    HW218708   2.022   3.356   9.369 -1.1008 -2.8627 -1.7670
 2417SOL     OW18709   3.617   3.365   4.816 -0.1344 -0.4566  0.5171
 2417SOL    HW118710   3.549   3.343   4.880  0.7109 -0.4365  1.4174
 2417SOL    HW218711   3.580   3.335   4.733  2.0574 -0.9469 -0.2707
 2418SOL     OW18712   0.945   0.598   3.577 -0.5815 -0.3363  0.6331
 2418SOL    HW118713   0.854   0.570   3.587 -0.4994 -0.8262  0.0042
 2418SOL    HW218714   0.952   0.591   3.482 -0.3299 -0.0765  0.6320
 2419SOL     OW18715   2.502   2.123   5.171 -0.5040 -0.5941 -0.1824
 2419SOL    HW118716   2.508   2.169   5.255 -0.2891  0.2098 -0.6490
 2419SOL    HW218717   2.483   2.031   5.192 -4.2663  0.7386  2.1711
 2420SOL     OW18718   2.277   2.844   8.157 -0.3784  0.1371  0.4814
 2420SOL    HW118719   2.290   2.826   8.064 -3.7359  0.4651 -0.0345
 2420SOL    HW218720   2.218   2.919   8.152 -0.8134 -0.0974  1.9773
 2421SOL     OW18721   3.122   0.041   7.297  0.0008  0.0672  0.3571
 2421SOL    HW118722   3.150   0.090   7.220  0.3946  2.6060  2.1086
 2421SOL    HW218723   3.057   4.715   7.248  0.4597 -0.2780  0.1009
 2422SOL     OW18724   4.007   1.300   0.655 -0.4045  0.0035 -0.2651
 2422SOL    HW118725   3.941   1.288   0.587  0.7974 -2.2106 -1.0415
 2422SOL    HW218726   3.967   1.298   0.742  0.7275 -2.6004  0.1870
 2423SOL     OW18727   2.736   1.337   3.691 -0.6488 -0.0253 -0.1944
 2423SOL    HW118728   2.765   1.287   3.616 -0.0431 -0.6695  0.4709
 2423SOL    HW218729   2.641   1.330   3.692 -0.5854 -0.6379  1.6139
 2424SOL     OW18730   4.705   0.077   7.401 -0.0085 -0.2162  0.6161
 2424SOL    HW118731   0.056   0.130   7.428 -0.8823  1.0006  0.6601
 2424SOL    HW218732   4.717   0.069   7.306 -1.2246  0.3012  0.4147
 2425SOL     OW18733   1.468   2.367   7.975  0.2367 -0.6893 -0.4004
 2425SOL    HW118734   1.400   2.354   7.910  0.1721  1.3899 -0.7481
 2425SOL    HW218735   1.491   2.277   8.000  2.4525  0.1239  0.4881
 2426SOL     OW18736   1.048   0.680  10.525 -0.4206  0.2500 -0.2158
 2426SOL    HW118737   1.063   0.752  10.587 -3.0540 -0.2713  1.0125
 2426SOL    HW218738   1.021   0.727  10.446 -1.3141  0.0118 -0.0531
 2427SOL     OW18739   1.935   0.257   8.814 -0.1458 -0.0408  0.0418
 2427SOL    HW118740   1.851   0.265   8.769 -0.2167  3.5462  0.7636
 2427SOL    HW218741   1.915   0.231   8.904  2.7566  0.4260  0.8275
 2428SOL     OW18742   3.879   2.108   5.832  0.3406 -0.7153  0.4412
 2428SOL    HW118743   3.873   2.203   5.829  1.7339 -0.6402  0.2616
 2428SOL    HW218744   3.798   2.080   5.789  0.4035 -1.2036  0.6352
 2429SOL     OW18745   3.482   0.445  10.338  0.0005  0.3647  0.1984
 2429SOL    HW118746   3.499   0.400  10.256 -1.2097 -0.7749  0.5631
 2429SOL    HW218747   3.465   0.376  10.403 -0.7912  0.6792  0.3283
 2430SOL     OW18748   0.894   1.902   8.748  0.2704  0.0638  0.1100
 2430SOL    HW118749   0.884   1.920   8.841  0.5005  1.2730 -0.1008
 2430SOL    HW218750   0.980   1.860   8.742  0.9183  1.4169  0.0193
 2431SOL     OW18751   3.544   1.335   5.733  0.6627  0.1072 -0.6057
 2431SOL    HW118752   3.456   1.362   5.761 -0.0834 -1.7007 -1.1916
 2431SOL    HW218753   3.528   1.285   5.653 -1.2837  0.7430 -0.6097
 2432SOL     OW18754   2.363   2.468   5.538  0.3515  0.0959 -0.0614
 2432SOL    HW118755   2.271   2.448   5.519  0.3547 -0.4431  0.5296
 2432SOL    HW218756   2.363   2.466   5.633  1.0211 -1.5533 -0.1077
 2433SOL     OW18757   1.855   0.210   2.215 -0.3482 -0.5260 -0.2677
 2433SOL    HW118758   1.761   0.224   2.224 -0.0925  0.7688  0.4975
 2433SOL    HW218759   1.863   0.121   2.183 -2.1021  0.1331 -2.5113
 2434SOL     OW18760   3.369   2.186   1.811  0.5130  0.0805  0.6513
 2434SOL    HW118761   3.303   2.214   1.874 -0.8774 -0.0405 -0.7488
 2434SOL    HW218762   3.387   2.269   1.766  3.3262 -1.3248 -0.7983
 2435SOL     OW18763   1.132   2.482   8.037 -0.3949 -0.1482 -0.0934
 2435SOL    HW118764   1.150   2.493   8.130 -0.2065  1.1151 -0.2829
 2435SOL    HW218765   1.165   2.566   8.005 -0.5865  0.0003  0.1009
 2436SOL     OW18766   2.010   2.160   5.840  0.0837 -0.2645  0.4225
 2436SOL    HW118767   2.051   2.181   5.756 -0.2228 -0.2922  0.2696
 2436SOL    HW218768   2.014   2.244   5.887  1.2713 -0.1802  0.1883
 2437SOL     OW18769   3.912   3.175  14.619  0.3899 -0.5458 -0.0184
 2437SOL    HW118770   3.894   3.178  14.713  2.0481 -0.4545  0.2852
 2437SOL    HW218771   3.918   3.079  14.613  2.0797 -0.3343 -1.5333
 2438SOL     OW18772   2.702   2.087   6.276  1.0148  0.6204  0.2425
 2438SOL    HW118773   2.669   2.002   6.246  2.6497 -0.2255  0.8418
 2438SOL    HW218774   2.717   2.073   6.369  1.8917  0.2069  0.0434
 2439SOL     OW18775   4.668   2.177  16.187  0.6659  0.2837  0.5243
 2439SOL    HW118776   4.724   2.244  16.147  2.6101 -0.9487  1.1929
 2439SOL    HW218777   4.722   2.099  16.184 -0.3560 -0.4706  2.0037
 2440SOL     OW18778   2.842   3.790   3.223  0.4543  0.0613  1.0317
 2440SOL    HW118779   2.758   3.824   3.256 -1.0829 -0.9955 -1.7814
 2440SOL    HW218780   2.827   3.809   3.131 -1.4484 -2.7817  0.7357
 2441SOL     OW18781   0.282   0.349   0.618 -0.0678  0.1328 -0.4694
 2441SOL    HW118782   0.339   0.409   0.666 -0.8694 -0.0966  0.7627
 2441SOL    HW218783   0.228   0.315   0.690 -1.1561  0.5413 -1.0882
 2442SOL     OW18784   1.772   2.358  10.666  0.7309 -0.2665  0.3391
 2442SOL    HW118785   1.838   2.302  10.707 -0.0930 -1.4083  0.1080
 2442SOL    HW218786   1.734   2.400  10.743 -1.7105  2.6056 -2.4446
 2443SOL     OW18787   2.509   2.388   2.739  0.0150 -0.2505  0.2433
 2443SOL    HW118788   2.418   2.415   2.742  0.2720  0.7297 -1.1923
 2443SOL    HW218789   2.543   2.428   2.659  0.0697 -2.0052 -0.6218
 2444SOL     OW18790   3.456   4.217   7.728 -0.1640 -0.0996  0.9830
 2444SOL    HW118791   3.388   4.238   7.792  0.2865  2.4994  0.6024
 2444SOL    HW218792   3.504   4.299   7.734 -0.9692  0.3522  1.2959
 2445SOL     OW18793   1.972   1.619   7.268  0.7266 -0.7075 -0.3786
 2445SOL    HW118794   2.067   1.614   7.280  0.5412 -2.2117  0.5926
 2445SOL    HW218795   1.951   1.578   7.184 -0.1231  0.4279 -0.7168
 2446SOL     OW18796   3.276   0.154   0.081 -0.2130  0.6426 -0.4589
 2446SOL    HW118797   3.354   0.190   0.039  1.0357  0.0200  1.3374
 2446SOL    HW218798   3.312   0.079   0.127 -1.3722 -1.2848 -2.6679
 2447SOL     OW18799   0.060   0.127  11.637  0.0292 -0.2011  0.2308
 2447SOL    HW118800   0.061   0.197  11.703 -0.2089  1.1825 -1.2528
 2447SOL    HW218801   0.113   0.168  11.569  1.0349  1.2758  1.8778
 2448SOL     OW18802   1.994   1.234   1.887  0.4139 -0.4551  0.5952
 2448SOL    HW118803   1.918   1.203   1.837  1.0333  0.3791 -0.8862
 2448SOL    HW218804   2.058   1.227   1.816  1.3402 -1.3941  1.5323
 2449SOL     OW18805   2.738   1.413  10.321  0.1249 -0.1156 -0.0292
 2449SOL    HW118806   2.768   1.341  10.378 -0.7325 -0.8588 -0.5131
 2449SOL    HW218807   2.703   1.354  10.255  0.8604 -1.7921  1.0630
 2450SOL     OW18808   2.110   3.151  16.195  0.4012 -0.4167 -0.2794
 2450SOL    HW118809   2.106   3.061  16.163  2.0456 -0.3542 -0.6493
 2450SOL    HW218810   2.198   3.185  16.175 -0.4740  3.2973  2.1759
 2451SOL     OW18811   0.847   3.440  12.487 -0.0649  0.6892 -0.0664
 2451SOL    HW118812   0.922   3.428  12.546 -0.2501 -2.7789 -0.5787
 2451SOL    HW218813   0.810   3.519  12.526 -0.6680  1.4645 -2.2442
 2452SOL     OW18814   1.027   2.052   7.926 -0.4543  0.1975 -0.4222
 2452SOL    HW118815   0.943   2.007   7.927 -1.0095  1.2873  1.7303
 2452SOL    HW218816   1.089   1.988   7.891 -0.2970  1.4250 -2.4165
 2453SOL     OW18817   3.742   4.234  15.384 -0.9272 -0.4670 -0.0753
 2453SOL    HW118818   3.647   4.229  15.378 -1.0387  0.6678  0.8928
 2453SOL    HW218819   3.760   4.215  15.292 -0.7495 -0.4964 -0.0344
 2454SOL     OW18820   2.549   4.143   4.000 -0.3889 -0.0983 -0.1432
 2454SOL    HW118821   2.608   4.070   3.984  0.3129  0.1221  1.4225
 2454SOL    HW218822   2.576   4.175   4.086  1.7146 -1.4871 -0.2891
 2455SOL     OW18823   0.955   0.561  10.860  0.5557 -0.1375  0.6187
 2455SOL    HW118824   0.985   0.636  10.808 -1.8252  0.0813 -0.4479
 2455SOL    HW218825   0.899   0.513  10.800  0.4403 -0.0527  0.6578
 2456SOL     OW18826   3.695   2.149  11.554 -0.2717 -0.1866  0.4360
 2456SOL    HW118827   3.681   2.094  11.631  0.3490 -0.9568  0.0019
 2456SOL    HW218828   3.754   2.209  11.599  0.6292  0.5808 -1.7312
 2457SOL     OW18829   1.244   2.881   8.179 -0.3893 -0.3912 -0.6975
 2457SOL    HW118830   1.332   2.918   8.169 -0.7885  0.7510 -0.0162
 2457SOL    HW218831   1.203   2.955   8.224 -0.6421  0.0325 -1.6463
 2458SOL     OW18832   2.832   1.401   6.561  0.3441  0.3854 -0.2016
 2458SOL    HW118833   2.833   1.473   6.624 -0.4569  0.7744 -0.6262
 2458SOL    HW218834   2.779   1.431   6.487  1.7308 -1.1352 -1.7833
 2459SOL     OW18835   1.255   4.015   7.975 -0.2060  0.3116 -0.2382
 2459SOL    HW118836   1.240   3.920   7.970  2.6361 -0.1024 -0.7844
 2459SOL    HW218837   1.205   4.040   8.053 -2.1155 -0.0308 -1.3501
 2460SOL     OW18838   0.931   1.697   3.312 -0.0619 -0.1022 -0.0524
 2460SOL    HW118839   1.023   1.675   3.298  0.5990  1.5593  1.7115
 2460SOL    HW218840   0.929   1.792   3.304  2.2870  0.0238  0.8278
 2461SOL     OW18841   0.705   2.408   6.725 -0.0504 -0.2155  0.0266
 2461SOL    HW118842   0.710   2.390   6.819 -0.8436  1.5673  0.4174
 2461SOL    HW218843   0.756   2.489   6.730  0.5519 -0.5933 -0.0176
 2462SOL     OW18844   0.893   3.598  12.249 -0.0530 -0.5582  0.0218
 2462SOL    HW118845   0.933   3.639  12.325  1.3807 -0.3989 -0.8165
 2462SOL    HW218846   0.892   3.507  12.280 -2.4688  0.0847  1.7222
 2463SOL     OW18847   0.943   4.523   9.461  0.1183 -0.3535 -0.0434
 2463SOL    HW118848   0.892   4.604   9.457  0.2247 -0.3503 -1.3899
 2463SOL    HW218849   0.912   4.487   9.543 -0.2738 -1.4576 -0.6848
 2464SOL     OW18850   3.253   4.136   5.303 -0.1061  0.1090  0.3706
 2464SOL    HW118851   3.322   4.196   5.330  0.4781  0.1926 -1.2979
 2464SOL    HW218852   3.253   4.082   5.382  0.3766 -0.8390 -0.2875
 2465SOL     OW18853   0.339   1.990   2.373 -0.2407  0.2678 -0.1286
 2465SOL    HW118854   0.348   2.076   2.333 -1.6307  0.5082  0.0658
 2465SOL    HW218855   0.298   1.942   2.301 -0.8657  0.9477 -0.2214
 2466SOL     OW18856   1.406   2.683  11.418  0.3391 -0.4436 -0.0899
 2466SOL    HW118857   1.382   2.648  11.504  0.7556  1.0343  0.6460
 2466SOL    HW218858   1.323   2.707  11.377 -0.8153 -0.1216  2.4261
 2467SOL     OW18859   0.033   3.670  11.342  0.1279 -0.6120  0.0560
 2467SOL    HW118860   0.054   3.578  11.351 -3.1569 -1.3338  0.3070
 2467SOL    HW218861   0.108   3.715  11.380  0.4940 -0.6446 -0.6286
 2468SOL     OW18862   1.479   2.370  12.655 -0.4865 -0.1264  0.0999
 2468SOL    HW118863   1.539   2.315  12.604  1.8829 -0.2641  3.0475
 2468SOL    HW218864   1.486   2.458  12.618  1.9600 -0.5049 -0.3474
 2469SOL     OW18865   1.632   2.471   7.480  0.0994 -0.1996  0.3119
 2469SOL    HW118866   1.668   2.411   7.545  1.4980 -1.4088 -1.5648
 2469SOL    HW218867   1.603   2.418   7.406  1.4209  0.6937 -0.8372
 2470SOL     OW18868   1.741   2.676  13.406 -0.0223  0.6722 -0.3962
 2470SOL    HW118869   1.701   2.625  13.476 -2.6869  0.4012 -2.1240
 2470SOL    HW218870   1.805   2.722  13.461 -0.8181  0.7029  0.5042
 2471SOL     OW18871   4.042   1.389  14.782 -0.4838  0.5004 -0.0503
 2471SOL    HW118872   3.953   1.420  14.800 -1.1036 -1.0061 -0.5013
 2471SOL    HW218873   4.089   1.430  14.854 -1.5925  1.4019  0.1625
 2472SOL     OW18874   3.978   2.688   7.447 -1.0399 -0.4074  0.6875
 2472SOL    HW118875   3.983   2.611   7.390 -3.0331  0.0729 -0.1225
 2472SOL    HW218876   4.035   2.658   7.518 -0.3042 -2.3576 -0.7058
 2473SOL     OW18877   0.323   1.851  14.564 -0.0388  0.2243 -0.1911
 2473SOL    HW118878   0.354   1.761  14.565 -0.2105  0.1424 -2.1599
 2473SOL    HW218879   0.271   1.862  14.484  0.9925  0.4669 -0.8344
 2474SOL     OW18880   1.972   3.690   7.244  0.0231  0.1101 -0.1752
 2474SOL    HW118881   2.065   3.671   7.255 -0.3606 -0.9260  1.3398
 2474SOL    HW218882   1.943   3.615   7.192 -0.1960  0.8531 -1.1154
 2475SOL     OW18883   1.152   4.241   2.731 -0.1967 -0.3395 -0.1485
 2475SOL    HW118884   1.177   4.222   2.640  0.7205  0.9823 -0.1650
 2475SOL    HW218885   1.073   4.190   2.747 -1.4090  1.5844 -0.0056
 2476SOL     OW18886   3.308   3.631   4.301 -0.0045  0.2216 -0.9147
 2476SOL    HW118887   3.313   3.631   4.397  1.9855  0.4854 -1.0294
 2476SOL    HW218888   3.311   3.724   4.282  1.2539  0.5217  0.6992
 2477SOL     OW18889   4.528   4.592   7.914 -0.2484 -0.3907 -0.3559
 2477SOL    HW118890   4.480   4.593   7.831 -0.3996 -0.5026 -0.2718
 2477SOL    HW218891   4.543   4.498   7.923 -1.4574 -0.6456 -0.8793
 2478SOL     OW18892   1.771   4.359  11.591  0.5437  0.3272  0.5648
 2478SOL    HW118893   1.852   4.409  11.598  0.3304  0.2995  3.2286
 2478SOL    HW218894   1.737   4.347  11.680 -0.0536  1.6328  0.5191
 2479SOL     OW18895   2.084   0.649   3.790  0.4045 -0.0961 -0.3413
 2479SOL    HW118896   2.105   0.616   3.702  0.5203  1.0036 -0.7267
 2479SOL    HW218897   2.005   0.600   3.814  0.7120 -0.5669 -0.2743
 2480SOL     OW18898   2.114   3.914   9.991 -0.2988 -0.4243 -0.2046
 2480SOL    HW118899   2.087   3.919  10.083  0.9196  1.4934  0.0400
 2480SOL    HW218900   2.031   3.877   9.960 -1.3189  1.0979  0.7392
 2481SOL     OW18901   3.346   0.040   8.238 -0.3980 -0.0679 -0.2404
 2481SOL    HW118902   3.325   4.699   8.305 -0.7339  1.2077  0.9128
 2481SOL    HW218903   3.331   0.115   8.296 -1.4082 -1.8076  1.7585
 2482SOL     OW18904   4.707   2.409  10.941  0.0243  0.0561 -0.5633
 2482SOL    HW118905   4.702   2.503  10.921 -1.5580 -0.4570 -2.5675
 2482SOL    HW218906   4.650   2.410  11.018  0.8773  2.6557  0.0497
 2483SOL     OW18907   3.081   0.499   4.680 -0.2704  0.5743 -0.1352
 2483SOL    HW118908   3.006   0.468   4.731 -0.1279  0.6421  0.1173
 2483SOL    HW218909   3.104   0.416   4.638 -0.6216 -0.3141  1.4266
 2484SOL     OW18910   0.439   0.292   2.253 -0.2655 -0.1725 -0.8149
 2484SOL    HW118911   0.417   0.298   2.160 -1.9520  1.4818 -0.3001
 2484SOL    HW218912   0.369   0.347   2.288  0.3428  0.2581 -0.2597
 2485SOL     OW18913   3.012   3.781   5.976 -0.5832 -0.4471  0.4315
 2485SOL    HW118914   3.094   3.792   6.024  1.0459 -1.6562 -2.1235
 2485SOL    HW218915   3.013   3.867   5.934  0.2995 -1.4768 -1.6381
 2486SOL     OW18916   0.937   3.391   3.825 -0.3730  0.4174 -0.7779
 2486SOL    HW118917   0.950   3.454   3.754  3.0072 -1.4448 -1.7777
 2486SOL    HW218918   0.905   3.314   3.778  1.2735 -0.0390 -1.1323
 2487SOL     OW18919   3.812   1.624   6.815  0.7660  0.0426  0.1469
 2487SOL    HW118920   3.862   1.656   6.740  2.7931 -1.5520  0.7991
 2487SOL    HW218921   3.796   1.533   6.791 -2.2445  0.3272  1.1021
 2488SOL     OW18922   2.615   3.535   5.060 -0.1359 -0.8347  0.3882
 2488SOL    HW118923   2.595   3.564   5.149 -1.4557  0.0968 -0.2177
 2488SOL    HW218924   2.545   3.470   5.048 -1.5391  0.8923 -0.6706
 2489SOL     OW18925   4.692   4.545   5.610 -0.0171 -0.3762 -0.5988
 2489SOL    HW118926   4.714   4.580   5.523  0.1274  2.8452  0.7329
 2489SOL    HW218927   4.707   4.451   5.598  1.8372  0.1271 -2.2226
 2490SOL     OW18928   3.244   2.428   4.041 -0.0989  0.2684 -0.0182
 2490SOL    HW118929   3.296   2.422   4.121 -1.3232 -0.4891  0.7227
 2490SOL    HW218930   3.312   2.401   3.979 -1.4202  0.5465 -1.5924
 2491SOL     OW18931   3.596   3.963   5.780  0.3371  0.0453  0.4375
 2491SOL    HW118932   3.575   4.054   5.802 -0.0269 -0.0919  0.6678
 2491SOL    HW218933   3.529   3.921   5.834 -2.5873  2.0669 -1.6207
 2492SOL     OW18934   0.194   2.158   4.801 -0.0609  0.6949  0.3756
 2492SOL    HW118935   0.133   2.204   4.859  0.5061 -1.7885  2.9554
 2492SOL    HW218936   0.273   2.206   4.826  0.9883 -0.1950 -1.2269
 2493SOL     OW18937   3.692   1.752  14.937  0.5101  0.2257 -0.3710
 2493SOL    HW118938   3.775   1.737  14.891 -0.0123 -1.1570 -0.8513
 2493SOL    HW218939   3.697   1.705  15.021  1.1757 -0.2624 -0.6872
 2494SOL     OW18940   4.560   3.616  15.610  0.0802 -0.3632  0.2385
 2494SOL    HW118941   4.641   3.666  15.614 -0.1996  0.0339  0.9402
 2494SOL    HW218942   4.593   3.544  15.664  0.4845 -0.4277 -0.0928
 2495SOL     OW18943   4.469   4.556   1.244 -0.6222 -0.1085 -0.2677
 2495SOL    HW118944   4.463   4.545   1.339 -0.3205 -3.0881 -0.5899
 2495SOL    HW218945   4.563   4.561   1.226  0.1484 -1.6185  3.2003
 2496SOL     OW18946   3.694   0.869   7.966  0.2846 -0.6024  0.1458
 2496SOL    HW118947   3.778   0.844   8.004  0.4662  0.7722  0.6406
 2496SOL    HW218948   3.718   0.927   7.894 -1.5814  0.2541  0.2008
 2497SOL     OW18949   4.527   4.566   3.340  0.3648 -0.1719 -0.3117
 2497SOL    HW118950   4.553   4.621   3.267 -1.6184  1.6264  0.3160
 2497SOL    HW218951   4.613   4.557   3.380 -0.9740  0.3530  2.7107
 2498SOL     OW18952   4.271   4.650   6.154  0.0507  0.0071 -0.3337
 2498SOL    HW118953   4.289   4.640   6.247  1.8529 -2.1026 -0.9094
 2498SOL    HW218954   4.229   0.012   6.149  0.8859  0.5146  1.6094
 2499SOL     OW18955   1.768   1.740   9.135 -0.5444  0.0430  0.0253
 2499SOL    HW118956   1.795   1.757   9.225 -0.8508 -0.6257  0.2382
 2499SOL    HW218957   1.840   1.791   9.099 -0.6922 -0.1781 -0.5880
 2500SOL     OW18958   3.609   4.075   4.985  0.5944  0.0926  0.5922
 2500SOL    HW118959   3.702   4.070   4.963  1.1074 -0.4206  2.8190
 2500SOL    HW218960   3.567   4.030   4.912  2.0723  0.5593 -0.5474
 2501SOL     OW18961   0.839   3.746  14.744  0.0741  0.1424  0.2732
 2501SOL    HW118962   0.884   3.723  14.662  1.5459 -1.4552  1.5410
 2501SOL    HW218963   0.824   3.839  14.725 -2.0216 -0.5879 -1.6582
 2502SOL     OW18964   2.133   1.695   1.118  0.3363  0.2006 -0.0029
 2502SOL    HW118965   2.065   1.757   1.092  1.0003  2.3370  3.3461
 2502SOL    HW218966   2.130   1.626   1.052 -3.4520  0.5009 -0.1360
 2503SOL     OW18967   3.957   4.723  17.642 -0.4103 -0.1128  0.3494
 2503SOL    HW118968   3.995   0.031   0.024  2.9653  0.1455 -1.3116
 2503SOL    HW218969   3.902   4.653  17.677  2.2786 -2.7978 -0.7764
 2504SOL     OW18970   1.325   3.710   3.144 -0.7567 -0.6204  0.4753
 2504SOL    HW118971   1.290   3.795   3.170  1.0245  0.3956 -0.4393
 2504SOL    HW218972   1.396   3.743   3.089 -0.1501  0.2256  1.7686
 2505SOL     OW18973   2.413   2.618   1.109  0.7454 -0.0258  0.1471
 2505SOL    HW118974   2.495   2.642   1.065  1.4458 -1.3057  0.7422
 2505SOL    HW218975   2.396   2.532   1.071 -0.4291 -0.0590  0.7622
 2506SOL     OW18976   0.527   3.563  17.539  0.4855 -0.3270  0.6427
 2506SOL    HW118977   0.505   3.588  17.449  4.1882 -0.3418 -0.2488
 2506SOL    HW218978   0.479   3.480  17.548 -0.0817 -0.3469 -2.5961
 2507SOL     OW18979   0.812   3.309  13.958  0.5037 -0.1017  0.9106
 2507SOL    HW118980   0.817   3.389  14.010  0.4530 -0.0045  0.7658
 2507SOL    HW218981   0.817   3.353  13.873  0.3517 -0.6809  0.5982
 2508SOL     OW18982   4.604   1.902   6.140 -0.7486 -0.2091 -0.1228
 2508SOL    HW118983   4.553   1.982   6.152 -0.5797  0.0673 -1.2419
 2508SOL    HW218984   4.534   1.842   6.114  0.1699 -0.3764 -2.2430
 2509SOL     OW18985   4.679   0.249  17.341  0.3302  0.3868 -0.9483
 2509SOL    HW118986   4.716   0.177  17.392  2.0685  2.1761  0.3042
 2509SOL    HW218987   4.635   0.198  17.272  0.5023  0.6321 -1.2405
 2510SOL     OW18988   4.207   4.332   6.559 -0.3229  0.5266  0.0673
 2510SOL    HW118989   4.214   4.243   6.593 -2.5878  0.5313  0.5321
 2510SOL    HW218990   4.282   4.335   6.499 -0.5920  0.0050 -0.2836
 2511SOL     OW18991   2.004   2.841   4.292 -0.0630  0.3298  0.2680
 2511SOL    HW118992   2.022   2.751   4.318  0.0539 -0.7440 -3.5536
 2511SOL    HW218993   2.060   2.890   4.352  1.8402 -1.9479  0.3365
 2512SOL     OW18994   2.189   2.973   7.320  0.1159 -0.8075 -0.0412
 2512SOL    HW118995   2.283   2.987   7.309 -0.2641  3.3686  1.8667
 2512SOL    HW218996   2.164   3.065   7.333  0.3542 -0.6109 -0.9934
 2513SOL     OW18997   3.301   1.166   2.258 -0.3289 -0.0231  0.3401
 2513SOL    HW118998   3.216   1.207   2.267 -1.1109 -1.6338  0.3782
 2513SOL    HW218999   3.354   1.203   2.329 -1.3805 -0.1927  1.2135
 2514SOL     OW19000   3.878   1.961  12.038 -0.2544  0.4528  0.4903
 2514SOL    HW119001   3.806   2.017  12.068 -1.2076 -1.5408  1.8961
 2514SOL    HW219002   3.944   2.029  12.022 -1.9973  2.2549  0.8339
 2515SOL     OW19003   4.318   4.038   6.293 -0.2864  0.1340 -0.1225
 2515SOL    HW119004   4.250   4.026   6.227 -1.3326 -1.6133  1.2557
 2515SOL    HW219005   4.278   4.004   6.374  1.1794 -1.0453  0.0904
 2516SOL     OW19006   4.627   4.258   1.280 -0.3800 -0.4576 -0.1904
 2516SOL    HW119007   4.642   4.352   1.272  2.8369 -1.0356 -0.8760
 2516SOL    HW219008   4.563   4.255   1.351  0.4133 -0.6990  0.5222
 2517SOL     OW19009   4.519   1.081  17.364 -0.4226 -0.3794  0.4958
 2517SOL    HW119010   4.503   1.157  17.309  1.0331 -0.5548 -0.1574
 2517SOL    HW219011   4.614   1.091  17.360 -0.7506  2.5104  0.0705
 2518SOL     OW19012   1.993   4.106   2.794 -0.2934  0.4719 -0.3298
 2518SOL    HW119013   2.049   4.049   2.741  1.1619  0.8939  0.7632
 2518SOL    HW219014   1.909   4.088   2.750  0.5325 -1.0875 -1.2643
 2519SOL     OW19015   0.652   3.336  16.087 -0.5755 -0.0181  0.2031
 2519SOL    HW119016   0.714   3.344  16.160 -1.6769  1.7961  0.9363
 2519SOL    HW219017   0.711   3.307  16.017  2.5007  1.9962  1.9356
 2520SOL     OW19018   4.320   1.004   9.305 -0.2242 -0.1033  0.5099
 2520SOL    HW119019   4.327   1.009   9.210  0.0760  0.3924  0.5620
 2520SOL    HW219020   4.368   0.923   9.320  0.7939  0.3077 -0.5279
 2521SOL     OW19021   3.953   4.254   5.962  0.3959  0.0766  0.1846
 2521SOL    HW119022   3.992   4.342   5.966  0.0309  0.2355  0.3222
 2521SOL    HW219023   3.868   4.271   5.920  1.2396  1.1094 -1.1149
 2522SOL     OW19024   4.311   1.290  15.320 -0.1250 -0.0275  0.2693
 2522SOL    HW119025   4.263   1.235  15.258 -1.7107 -0.1282  1.5745
 2522SOL    HW219026   4.253   1.366  15.313  1.3852  0.9800 -1.1969
 2523SOL     OW19027   2.211   0.503   6.968 -0.1786  0.0183 -0.0549
 2523SOL    HW119028   2.199   0.477   7.059 -0.2292 -0.4256 -0.1880
 2523SOL    HW219029   2.219   0.598   6.972  0.2036  0.1276 -3.1649
 2524SOL     OW19030   1.332   0.188  15.603  0.3944 -0.0332 -0.1321
 2524SOL    HW119031   1.391   0.152  15.537  1.6217  1.5874  0.0699
 2524SOL    HW219032   1.282   0.250  15.550  0.4570  0.3483  0.2525
 2525SOL     OW19033   4.585   1.395   3.383 -0.0025  0.4530 -0.5101
 2525SOL    HW119034   4.634   1.465   3.426 -0.6774  0.9648 -0.5881
 2525SOL    HW219035   4.498   1.432   3.372 -0.6603 -1.0501 -0.3147
 2526SOL     OW19036   0.720   1.578   1.387  0.5442  0.1412  0.2156
 2526SOL    HW119037   0.686   1.539   1.468  1.5006 -0.4980  0.3185
 2526SOL    HW219038   0.783   1.514   1.354  1.2236 -0.1078  1.9717
 2527SOL     OW19039   2.338   3.698   6.008  0.1095 -0.3994 -0.8826
 2527SOL    HW119040   2.415   3.752   5.989 -0.1272  0.6975  1.2693
 2527SOL    HW219041   2.343   3.707   6.103  0.1353  1.4357 -1.0580
 2528SOL     OW19042   3.290   0.361   4.921  0.3747 -0.1862 -0.0739
 2528SOL    HW119043   3.319   0.451   4.937 -0.2105  0.2085 -1.2208
 2528SOL    HW219044   3.304   0.344   4.828 -3.1159  0.2640 -0.6771
 2529SOL     OW19045   0.502   2.781   4.986 -0.3828 -0.0518 -0.3804
 2529SOL    HW119046   0.570   2.837   4.948  0.6286 -0.6481  0.5535
 2529SOL    HW219047   0.422   2.802   4.938  0.0399  0.9799 -0.6360
 2530SOL     OW19048   4.350   3.804   7.846 -0.3175 -0.0575  0.4662
 2530SOL    HW119049   4.403   3.734   7.807 -0.1588 -1.2991  2.8750
 2530SOL    HW219050   4.264   3.781   7.813 -1.4044 -0.1957  3.3747
 2531SOL     OW19051   1.669   1.553  14.377 -0.4095 -0.0506 -0.3709
 2531SOL    HW119052   1.745   1.586  14.330  0.6115 -0.8164  0.7281
 2531SOL    HW219053   1.629   1.501  14.307 -0.8893 -0.3944  0.1593
 2532SOL     OW19054   2.420   1.730   4.069  0.0020  0.2852 -0.5569
 2532SOL    HW119055   2.482   1.803   4.071 -1.6341  1.6455 -0.3379
 2532SOL    HW219056   2.343   1.757   4.118  2.3967  1.7570  2.4134
 2533SOL     OW19057   2.813   0.320   2.867 -1.0649  0.1873 -0.1101
 2533SOL    HW119058   2.729   0.364   2.856 -1.2492 -0.7881 -2.5473
 2533SOL    HW219059   2.811   0.256   2.796  0.8838 -1.3124  1.1810
 2534SOL     OW19060   3.692   3.178   4.598  0.1627  0.0839 -0.0306
 2534SOL    HW119061   3.785   3.197   4.615  0.0534 -1.6618  2.4111
 2534SOL    HW219062   3.667   3.154   4.687 -1.5136  3.8406  0.5253
 2535SOL     OW19063   1.531   4.148   5.364 -0.2460 -0.3091 -0.2804
 2535SOL    HW119064   1.453   4.172   5.314 -0.4277 -1.4786 -0.5652
 2535SOL    HW219065   1.552   4.067   5.317 -1.5214 -0.8583  0.0912
 2536SOL     OW19066   0.573   1.971  17.331 -0.3794  0.1616 -0.0800
 2536SOL    HW119067   0.479   1.988  17.324 -0.3085  0.5345 -0.1083
 2536SOL    HW219068   0.616   2.053  17.307  2.3235 -1.3527 -0.4331
 2537SOL     OW19069   0.423   1.645   3.914 -0.3648 -0.0771 -0.2311
 2537SOL    HW119070   0.378   1.722   3.881 -1.2922 -0.5543 -0.0809
 2537SOL    HW219071   0.477   1.620   3.838 -1.6454  0.7621 -1.4127
 2538SOL     OW19072   3.516   3.873   5.189 -0.4290  0.3622 -0.2369
 2538SOL    HW119073   3.586   3.905   5.132 -0.4132  0.2299 -0.2906
 2538SOL    HW219074   3.520   3.944   5.253 -2.7823  0.2887 -0.0286
 2539SOL     OW19075   2.802   2.255   7.668 -0.2559  0.0891  0.2015
 2539SOL    HW119076   2.804   2.320   7.738  2.1030  0.3248 -0.1023
 2539SOL    HW219077   2.896   2.245   7.657 -0.3286 -0.2495 -0.0805
 2540SOL     OW19078   0.738   3.748   5.341 -0.1453 -0.2008 -0.4800
 2540SOL    HW119079   0.750   3.768   5.433 -2.3688  1.6821 -0.6024
 2540SOL    HW219080   0.707   3.832   5.306 -2.0243 -0.3130  0.9264
 2541SOL     OW19081   2.590   4.555   9.341  0.4380 -0.2751  0.1469
 2541SOL    HW119082   2.612   4.476   9.390  2.4441  0.2709  0.1209
 2541SOL    HW219083   2.679   4.592   9.340  0.3986 -0.1619  0.5406
 2542SOL     OW19084   2.056   0.761   1.452  0.0920 -0.2824 -0.2155
 2542SOL    HW119085   2.110   0.781   1.375  2.5320  0.0213  1.5660
 2542SOL    HW219086   2.085   0.833   1.508  1.6965 -2.4373  1.6788
 2543SOL     OW19087   0.844   1.889   5.045  0.8028 -0.3031 -0.8504
 2543SOL    HW119088   0.826   1.906   4.952  1.6851  0.9058 -0.7979
 2543SOL    HW219089   0.845   1.794   5.050  1.0961 -0.1874  1.3394
 2544SOL     OW19090   2.109   0.500   8.386 -0.1259 -0.8900  0.0371
 2544SOL    HW119091   2.126   0.428   8.326 -3.8293 -1.8301  0.0798
 2544SOL    HW219092   2.013   0.509   8.387 -0.2456 -2.2025  0.6834
 2545SOL     OW19093   1.927   3.595   5.460  0.6266 -0.2334  0.0452
 2545SOL    HW119094   1.893   3.528   5.519  0.2212  0.8818  1.0881
 2545SOL    HW219095   2.011   3.604   5.505  1.0385 -0.4033 -0.6924
 2546SOL     OW19096   1.199   3.172   9.846  0.6045 -0.0619 -0.7882
 2546SOL    HW119097   1.292   3.169   9.824  0.1539 -2.8583 -2.1641
 2546SOL    HW219098   1.163   3.086   9.824 -0.9325 -0.3744  2.8730
 2547SOL     OW19099   0.175   4.378   2.584  0.1501  0.2995  0.4540
 2547SOL    HW119100   0.128   4.303   2.619 -1.4963  0.7518 -0.7834
 2547SOL    HW219101   0.265   4.349   2.599 -0.0936  0.1997  1.7124
 2548SOL     OW19102   1.091   1.656  16.548 -0.5750  0.1885 -0.0096
 2548SOL    HW119103   1.133   1.700  16.622  0.8308  0.0063 -0.6960
 2548SOL    HW219104   1.099   1.732  16.491  1.4862  0.9309  1.2623
 2549SOL     OW19105   4.233   3.437   1.295 -0.1580 -0.4311 -0.0683
 2549SOL    HW119106   4.190   3.428   1.210 -1.3632  1.6234  0.3110
 2549SOL    HW219107   4.321   3.421   1.263 -0.7679  0.7703 -2.3299
 2550SOL     OW19108   4.237   4.056  17.574  0.0961  0.3710  0.3468
 2550SOL    HW119109   4.207   3.998  17.504  0.0394 -0.7299  1.2872
 2550SOL    HW219110   4.152   4.086  17.605 -0.8281  0.5562 -2.3559
 2551SOL     OW19111   0.917   2.489   5.302 -0.9829 -0.1767  0.0658
 2551SOL    HW119112   0.921   2.537   5.384  0.3227  1.9278 -1.2193
 2551SOL    HW219113   0.983   2.420   5.309  0.8669  1.8510  2.5942
 2552SOL     OW19114   4.099   0.199   7.343  0.2243 -0.0268 -0.2223
 2552SOL    HW119115   4.182   0.160   7.315  1.0419  1.2651  0.3669
 2552SOL    HW219116   4.127   0.243   7.423  1.1393 -1.3710  0.1950
 2553SOL     OW19117   3.931   0.529   4.188  0.5825 -0.2852  0.1654
 2553SOL    HW119118   3.976   0.487   4.115 -2.2494 -1.0860 -1.1361
 2553SOL    HW219119   3.905   0.614   4.151 -0.0728 -1.2064 -1.4906
 2554SOL     OW19120   3.534   3.677   9.998  0.1476 -0.1924  0.3371
 2554SOL    HW119121   3.444   3.646   9.993  0.4755 -1.0297 -0.3306
 2554SOL    HW219122   3.537   3.715   9.910  0.5463  4.3160  2.2692
 2555SOL     OW19123   0.649   1.314  10.669  0.0547  0.5699 -0.4891
 2555SOL    HW119124   0.573   1.258  10.685  1.0115 -0.1537  1.4519
 2555SOL    HW219125   0.660   1.343  10.759 -2.3443  0.8620 -0.2807
 2556SOL     OW19126   2.773   1.340   6.008  0.4075  0.8220  0.3255
 2556SOL    HW119127   2.686   1.377   6.000 -0.4805 -1.1145  1.1160
 2556SOL    HW219128   2.769   1.282   6.084 -0.0490  2.2169  1.3621
 2557SOL     OW19129   0.581   4.241  10.527 -0.5786 -0.1290  0.1307
 2557SOL    HW119130   0.673   4.256  10.506  0.0950 -2.8708  1.0554
 2557SOL    HW219131   0.542   4.322  10.495  0.5534  0.1114 -0.6322
 2558SOL     OW19132   3.099   4.701   3.894 -0.5475  0.4259 -0.6111
 2558SOL    HW119133   3.072   4.611   3.910 -2.9179  1.0455 -1.1489
 2558SOL    HW219134   3.195   4.697   3.895 -0.5956 -0.4941  0.2862
 2559SOL     OW19135   2.048   3.846  15.503 -0.3299  0.0121  0.3301
 2559SOL    HW119136   1.955   3.860  15.487 -0.3817  0.6203  1.1681
 2559SOL    HW219137   2.067   3.811  15.416  1.0491 -0.4851  0.8281
 2560SOL     OW19138   2.463   1.080   3.905 -0.1345  0.1271 -0.3511
 2560SOL    HW119139   2.427   1.070   3.994  0.1027  1.3612 -0.1112
 2560SOL    HW219140   2.535   1.142   3.919 -0.8470  0.6793  0.8848
 2561SOL     OW19141   1.880   0.119   0.305 -0.2662  0.2491  0.5878
 2561SOL    HW119142   1.796   0.072   0.312  0.3424 -0.7490  1.1273
 2561SOL    HW219143   1.863   0.182   0.376  0.2319  0.7263  0.2832
 2562SOL     OW19144   4.437   2.791   4.622  0.6726  0.3069  0.2241
 2562SOL    HW119145   4.500   2.805   4.693 -1.2955 -1.6404  2.3587
 2562SOL    HW219146   4.460   2.710   4.576  2.0470  0.8910 -0.0990
 2563SOL     OW19147   1.078   4.184  11.854 -0.1862  0.1757 -0.1556
 2563SOL    HW119148   0.988   4.164  11.830  0.2362 -3.1760  1.1016
 2563SOL    HW219149   1.111   4.097  11.875  0.8703  1.5232  3.7077
 2564SOL     OW19150   0.696   2.351   6.987 -0.5899 -0.2048 -0.1086
 2564SOL    HW119151   0.758   2.414   7.024  0.6436 -0.7779 -1.2264
 2564SOL    HW219152   0.731   2.264   7.006 -0.4122 -0.3982 -1.2785
 2565SOL     OW19153   0.869   4.270   8.214 -0.0550  0.0975 -0.1311
 2565SOL    HW119154   0.858   4.176   8.228 -1.9752  0.3942  0.4035
 2565SOL    HW219155   0.908   4.264   8.127  2.9103  0.3728  1.2112
 2566SOL     OW19156   2.347   1.397   7.710  0.5035 -0.1820  0.2319
 2566SOL    HW119157   2.304   1.315   7.686 -1.0329  1.2736 -2.0422
 2566SOL    HW219158   2.347   1.387   7.805  1.8903  1.0515  0.3575
 2567SOL     OW19159   2.622   0.874   5.414  0.3225  0.4082 -0.0911
 2567SOL    HW119160   2.716   0.891   5.408  0.0354  1.7032 -0.9046
 2567SOL    HW219161   2.598   0.895   5.324  0.6230 -2.6629 -0.8984
 2568SOL     OW19162   2.398   2.065   5.648 -0.1742 -0.2975  0.2224
 2568SOL    HW119163   2.418   2.106   5.732  0.5359  0.2798 -0.2305
 2568SOL    HW219164   2.308   2.091   5.629 -0.6559 -2.9612 -1.1731
 2569SOL     OW19165   4.461   1.512   8.168 -0.0435  0.2311 -0.3845
 2569SOL    HW119166   4.537   1.548   8.122 -1.4111  1.5929 -1.5866
 2569SOL    HW219167   4.441   1.587   8.224 -2.0476 -0.7377  0.1892
 2570SOL     OW19168   3.397   1.196  15.011 -0.0042  0.1007  0.1482
 2570SOL    HW119169   3.336   1.158  15.074  0.6035  1.5105  1.5926
 2570SOL    HW219170   3.440   1.257  15.071 -0.4866 -0.3457  0.9433
 2571SOL     OW19171   1.611   4.207   3.318  0.0369  0.0630 -0.2072
 2571SOL    HW119172   1.621   4.179   3.409 -0.2112 -0.9179 -0.4743
 2571SOL    HW219173   1.680   4.273   3.310 -0.4399  0.6324  0.3482
 2572SOL     OW19174   3.891   4.029   9.695 -0.4676  0.5690  0.2262
 2572SOL    HW119175   3.837   4.040   9.773 -0.0660  1.7809  0.3467
 2572SOL    HW219176   3.973   3.990   9.726 -1.3539 -2.0062 -0.7300
 2573SOL     OW19177   3.616   3.321   9.249 -0.1194 -0.5177  0.0246
 2573SOL    HW119178   3.534   3.300   9.205 -0.2118  0.5077 -0.2868
 2573SOL    HW219179   3.582   3.356   9.332  0.0915  0.9080 -0.4866
 2574SOL     OW19180   2.798   0.189   0.806 -1.1084 -0.0975  0.4179
 2574SOL    HW119181   2.814   0.095   0.809 -2.6871 -0.3936 -0.0275
 2574SOL    HW219182   2.737   0.192   0.880  0.5344  2.1282  1.6800
 2575SOL     OW19183   0.050   3.097   5.807  0.6484 -0.2865 -0.1561
 2575SOL    HW119184   0.093   3.183   5.808  0.4360 -0.1412 -3.2797
 2575SOL    HW219185   0.029   3.085   5.899  0.1884 -2.0997 -0.4967
 2576SOL     OW19186   2.373   2.805   8.943 -0.6165 -0.2461 -0.1083
 2576SOL    HW119187   2.364   2.874   8.878  1.3706  0.8497  0.7815
 2576SOL    HW219188   2.408   2.731   8.892 -0.4356 -0.5977  0.5264
 2577SOL     OW19189   1.390   1.438   1.553  0.0246 -1.1120 -0.1466
 2577SOL    HW119190   1.356   1.473   1.470  0.7084  0.2536  0.1384
 2577SOL    HW219191   1.403   1.344   1.544  0.2264 -1.1522  0.5583
 2578SOL     OW19192   1.471   0.757   2.761  0.3710 -0.4942 -0.2609
 2578SOL    HW119193   1.540   0.691   2.757 -0.3710 -1.3627  1.1294
 2578SOL    HW219194   1.471   0.780   2.853  0.3892  2.5469 -1.0311
 2579SOL     OW19195   4.059   3.328   4.930 -0.2843  0.0020  0.5775
 2579SOL    HW119196   4.152   3.338   4.910  0.4278 -0.0620  3.7573
 2579SOL    HW219197   4.011   3.378   4.865  1.2665  0.2640 -0.3549
 2580SOL     OW19198   2.874   0.873  17.122  0.4231  0.1832 -0.4194
 2580SOL    HW119199   2.798   0.881  17.065  0.9795  2.1883 -0.9066
 2580SOL    HW219200   2.865   0.950  17.179 -0.4151 -1.6290  1.8788
 2581SOL     OW19201   0.039   0.166   7.971  0.1837  0.3272 -0.1134
 2581SOL    HW119202   0.036   0.261   7.980  1.4426  0.5775 -2.4253
 2581SOL    HW219203   0.128   0.162   7.936  0.9009  1.0563  1.6304
 2582SOL     OW19204   3.230   3.603   2.793 -0.3000  0.2654 -0.5337
 2582SOL    HW119205   3.289   3.678   2.794  2.7878 -2.1402 -0.2297
 2582SOL    HW219206   3.294   3.532   2.784  0.5802  1.0011 -0.1297
 2583SOL     OW19207   3.160   0.990   0.001  0.3926 -0.0018 -0.3251
 2583SOL    HW119208   3.160   1.039   0.083  0.0795 -1.6934  0.6824
 2583SOL    HW219209   3.165   1.066  17.642  0.6519  0.8537  0.8183
 2584SOL     OW19210   4.345   4.454  14.317 -0.1635 -0.0240 -0.4574
 2584SOL    HW119211   4.292   4.413  14.248  1.8454 -2.3094 -0.6460
 2584SOL    HW219212   4.347   4.388  14.387 -0.5343 -0.6768 -1.0499
 2585SOL     OW19213   0.284   3.462   4.657 -0.3155  0.1163 -0.3395
 2585SOL    HW119214   0.232   3.388   4.626 -0.6265  0.3301 -0.3207
 2585SOL    HW219215   0.231   3.540   4.643 -0.0106  0.2479 -0.7733
 2586SOL     OW19216   3.868   2.663  16.985 -0.4349 -0.1818  0.1552
 2586SOL    HW119217   3.858   2.679  17.079  0.6064 -0.7237  0.3597
 2586SOL    HW219218   3.775   2.667  16.961  0.3677  2.8184 -2.4119
 2587SOL     OW19219   2.840   1.249   8.591  0.1190  0.3461 -0.6188
 2587SOL    HW119220   2.800   1.270   8.506 -1.9785 -1.5625 -0.1052
 2587SOL    HW219221   2.838   1.332   8.639  0.6812  0.7308 -1.2684
 2588SOL     OW19222   4.315   4.266  14.564  0.1413 -0.1842  0.4027
 2588SOL    HW119223   4.234   4.314  14.579  1.8385  2.2313  1.9075
 2588SOL    HW219224   4.287   4.191  14.511 -2.7330  1.8668 -0.9518
 2589SOL     OW19225   4.050   2.003  13.246  0.3620  0.6493 -0.3185
 2589SOL    HW119226   4.081   2.044  13.165  0.4702 -1.7962 -1.5254
 2589SOL    HW219227   3.964   1.979  13.211  0.4276  0.1294 -0.1285
 2590SOL     OW19228   3.213   4.364   8.733  0.5424 -0.2761 -0.4042
 2590SOL    HW119229   3.129   4.348   8.776  0.7662  0.3428  0.2659
 2590SOL    HW219230   3.264   4.421   8.791 -0.8316 -0.2380  0.7770
 2591SOL     OW19231   0.815   1.629  15.573  0.3593  0.0703 -0.0749
 2591SOL    HW119232   0.788   1.712  15.611 -2.4961 -0.4745 -0.9215
 2591SOL    HW219233   0.739   1.610  15.517  0.5023 -1.9003  0.4026
 2592SOL     OW19234   1.012   3.796  12.399 -0.3334 -0.0002 -0.2266
 2592SOL    HW119235   1.039   3.749  12.478  0.0039  0.7516  0.1013
 2592SOL    HW219236   0.963   3.872  12.431  1.0678  0.8104 -0.0129
 2593SOL     OW19237   3.631   3.407   5.995  0.4162 -0.4896 -0.6534
 2593SOL    HW119238   3.566   3.394   6.064 -0.1040 -2.1528 -1.4576
 2593SOL    HW219239   3.592   3.462   5.927 -0.2155 -1.0518 -0.7548
 2594SOL     OW19240   2.734   1.791   7.754 -0.4207  0.5823 -0.3816
 2594SOL    HW119241   2.780   1.765   7.674 -1.6508 -0.4453 -0.7478
 2594SOL    HW219242   2.672   1.856   7.721 -1.1215 -0.7243 -1.6690
 2595SOL     OW19243   2.753   0.613   9.055  1.0055  0.2085  0.5932
 2595SOL    HW119244   2.747   0.671   8.979  0.6253 -1.4100 -0.6134
 2595SOL    HW219245   2.847   0.623   9.073  0.8774 -0.1900  1.5042
 2596SOL     OW19246   0.160   2.279   4.255 -0.1201 -0.2640  0.6224
 2596SOL    HW119247   0.149   2.184   4.247  0.2981 -0.3503  1.0331
 2596SOL    HW219248   0.180   2.281   4.349 -0.5157 -0.4445  0.7110
 2597SOL     OW19249   0.274   4.148   3.834  0.0976 -0.4091 -0.2384
 2597SOL    HW119250   0.206   4.215   3.841  0.0511 -0.5112  0.2957
 2597SOL    HW219251   0.343   4.189   3.885 -0.5646 -1.5150  1.5407
 2598SOL     OW19252   3.383   2.402   8.797 -0.1270  0.9102  0.2607
 2598SOL    HW119253   3.415   2.407   8.888  0.9736  2.0840 -0.1777
 2598SOL    HW219254   3.291   2.386   8.814 -0.4171  1.0743 -1.1803
 2599SOL     OW19255   0.494   3.169   2.490  0.2462  0.0272  0.0913
 2599SOL    HW119256   0.490   3.215   2.407  3.4872 -0.5327 -0.3765
 2599SOL    HW219257   0.409   3.125   2.492 -0.1275  0.7242 -0.4281
 2600SOL     OW19258   0.745   0.910  10.661 -0.6923 -0.1696 -0.3586
 2600SOL    HW119259   0.707   0.918  10.749 -0.0265  1.0463 -0.1881
 2600SOL    HW219260   0.816   0.847  10.677 -0.2635  0.6884  1.0921
 2601SOL     OW19261   0.347   1.147   2.239 -0.0802  0.2031  0.2485
 2601SOL    HW119262   0.378   1.190   2.159  0.2617 -1.9344 -0.7414
 2601SOL    HW219263   0.256   1.140   2.209  1.1768 -2.8446 -2.6986
 2602SOL     OW19264   3.252   0.210  14.367 -0.2519  0.2152 -0.0309
 2602SOL    HW119265   3.323   0.178  14.310 -0.7397  0.7532 -0.9362
 2602SOL    HW219266   3.223   0.286  14.316  1.2678 -0.9628 -2.6578
 2603SOL     OW19267   0.661   3.197  14.796  0.4248 -0.2351 -0.7335
 2603SOL    HW119268   0.713   3.152  14.863  1.1600  1.4474 -0.1601
 2603SOL    HW219269   0.706   3.281  14.791  0.6974 -0.0554  4.1121
 2604SOL     OW19270   1.386   1.703  15.978 -0.0272 -0.5512  0.4452
 2604SOL    HW119271   1.353   1.696  15.888  0.4174  1.4812  0.1297
 2604SOL    HW219272   1.378   1.795  16.001  0.3079  0.3338 -2.8541
 2605SOL     OW19273   4.217   4.724  15.191 -0.9927  0.1461 -0.1979
 2605SOL    HW119274   4.203   4.678  15.108 -0.4389  2.0005 -1.3202
 2605SOL    HW219275   4.188   4.655  15.250 -3.0694  2.4934  1.4901
 2606SOL     OW19276   2.028   0.400   2.276  0.1901 -0.0406  0.4695
 2606SOL    HW119277   1.964   0.470   2.261  1.2604  0.4406 -1.8632
 2606SOL    HW219278   1.964   0.331   2.260 -1.8673  1.9028  0.2467
 2607SOL     OW19279   3.715   0.944   8.776 -0.0685 -0.1800  0.4753
 2607SOL    HW119280   3.783   0.878   8.789 -0.5497 -0.6669  0.5349
 2607SOL    HW219281   3.651   0.908   8.714  1.1219  0.3705 -1.0586
 2608SOL     OW19282   0.210   0.244   4.033 -0.9350  0.0448  0.0023
 2608SOL    HW119283   0.261   0.299   4.092 -1.5521  0.9678 -0.3105
 2608SOL    HW219284   0.167   0.193   4.101  2.4208 -1.4772  0.9991
 2609SOL     OW19285   4.247   4.159  10.712  0.3375 -0.3720 -0.5430
 2609SOL    HW119286   4.275   4.154  10.621 -0.9055 -0.7866 -0.9050
 2609SOL    HW219287   4.333   4.171  10.753 -0.2608  1.9290  0.0462
 2610SOL     OW19288   3.252   2.032   5.109 -0.4971  0.2184  0.0272
 2610SOL    HW119289   3.308   1.955   5.113  0.4048  0.8430 -0.4120
 2610SOL    HW219290   3.311   2.097   5.070 -1.6033  1.7397  0.8998
 2611SOL     OW19291   3.420   0.151   3.351  0.3698 -0.1420  0.3105
 2611SOL    HW119292   3.502   0.200   3.354 -0.6319  1.4304  1.8770
 2611SOL    HW219293   3.352   0.216   3.336 -0.5070 -0.8294  1.3758
 2612SOL     OW19294   1.545   0.191   9.832  0.4511  0.6037  0.6656
 2612SOL    HW119295   1.636   0.161   9.841 -0.4725 -1.6766  2.3335
 2612SOL    HW219296   1.500   0.122   9.784  1.5389 -0.8578  1.7501
 2613SOL     OW19297   3.678   4.633   0.378  0.4445  0.2438 -0.0116
 2613SOL    HW119298   3.589   4.654   0.407  0.8470 -0.5668  1.8086
 2613SOL    HW219299   3.704   4.567   0.442 -0.6289  0.5369  0.7384
 2614SOL     OW19300   1.033   1.748   0.423 -0.2942 -0.4334  0.0017
 2614SOL    HW119301   1.048   1.806   0.498  2.8122 -1.0685 -0.1498
 2614SOL    HW219302   1.119   1.707   0.425 -0.2602 -0.3982 -0.7240
 2615SOL     OW19303   1.445   2.692   7.519 -0.5683  0.1162 -0.3385
 2615SOL    HW119304   1.496   2.611   7.519  1.7013  1.5594 -2.9911
 2615SOL    HW219305   1.432   2.718   7.428 -0.9606  1.0712 -0.0153
 2616SOL     OW19306   2.514   1.125   6.635 -0.3936 -0.2713  0.1504
 2616SOL    HW119307   2.445   1.067   6.604  1.8817 -2.9689  0.1469
 2616SOL    HW219308   2.489   1.207   6.592  1.1564 -0.2796 -0.7433
 2617SOL     OW19309   3.351   1.423   5.069 -0.2355 -0.3141  0.6876
 2617SOL    HW119310   3.256   1.421   5.069 -0.2711  2.1698  0.0910
 2617SOL    HW219311   3.368   1.501   5.017 -0.8082 -0.2824  0.5541
 2618SOL     OW19312   2.862   4.192   1.953 -0.1134 -0.6742 -0.3091
 2618SOL    HW119313   2.767   4.207   1.950  0.4322  2.6008 -1.8525
 2618SOL    HW219314   2.875   4.175   1.860  1.3813 -2.0413  0.1616
 2619SOL     OW19315   4.376   1.806   2.824  0.4696  0.1318 -0.4540
 2619SOL    HW119316   4.389   1.721   2.781  0.7901  1.4939 -3.0021
 2619SOL    HW219317   4.457   1.851   2.798  0.4320 -0.9892 -2.4707
 2620SOL     OW19318   0.256   0.665   4.002  0.1624 -0.1585 -0.2974
 2620SOL    HW119319   0.250   0.664   4.098  1.8928  0.3161 -0.1930
 2620SOL    HW219320   0.173   0.628   3.972 -0.3220 -0.2673  1.1539
 2621SOL     OW19321   0.012   3.704   7.936 -0.1095 -0.0169  0.6674
 2621SOL    HW119322   4.678   3.695   8.011  0.4984 -0.8537  1.0448
 2621SOL    HW219323   0.006   3.618   7.893 -1.3328  0.6471 -0.4980
 2622SOL     OW19324   1.917   0.598  14.999  0.2339  0.2339 -0.2350
 2622SOL    HW119325   1.848   0.639  14.947 -0.4597  1.0711  1.3200
 2622SOL    HW219326   1.933   0.665  15.066 -1.9669 -0.6509  1.1808
 2623SOL     OW19327   1.659   0.784   5.073 -0.2760 -0.1895 -0.4895
 2623SOL    HW119328   1.692   0.868   5.040  1.4265 -0.7447 -0.1517
 2623SOL    HW219329   1.730   0.748   5.125 -0.2215  0.7054  0.0503
 2624SOL     OW19330   1.356   3.487   6.534 -0.0651 -0.1002  0.0180
 2624SOL    HW119331   1.361   3.552   6.604  4.4311 -0.9581  0.5396
 2624SOL    HW219332   1.264   3.463   6.524 -0.6291  2.8085 -1.8529
 2625SOL     OW19333   3.674   4.301   9.714  0.2289 -0.1574 -0.6492
 2625SOL    HW119334   3.682   4.377   9.771  0.9483 -1.8390  1.5067
 2625SOL    HW219335   3.759   4.294   9.671  0.6457  0.5262  0.0498
 2626SOL     OW19336   1.949   3.331   8.020  0.2494  0.0059 -0.2906
 2626SOL    HW119337   1.912   3.247   7.992 -0.7983  0.9437 -1.6946
 2626SOL    HW219338   1.883   3.361   8.082  0.3517  1.8905 -1.1004
 2627SOL     OW19339   0.069   0.566   0.471 -0.2296 -0.0802  0.0290
 2627SOL    HW119340   0.069   0.593   0.379 -2.2033 -0.3835 -0.0516
 2627SOL    HW219341   4.705   0.530   0.480 -0.0325 -0.2236  1.4266
 2628SOL     OW19342   1.068   4.035   3.555 -0.0716  0.5663 -0.4074
 2628SOL    HW119343   1.081   4.022   3.649 -0.3158  0.5229 -0.3800
 2628SOL    HW219344   1.139   4.090   3.523  0.1283 -0.5966 -1.9250
 2629SOL     OW19345   2.334   2.966   5.002 -0.1550 -0.2229  0.7073
 2629SOL    HW119346   2.316   3.039   4.943  1.8892 -0.5981 -0.3552
 2629SOL    HW219347   2.341   3.011   5.087  0.9236 -1.2152  1.1386
 2630SOL     OW19348   0.871   0.625   2.639  0.5490  0.3216 -0.1904
 2630SOL    HW119349   0.834   0.574   2.567 -0.7477 -1.2439  1.5539
 2630SOL    HW219350   0.946   0.667   2.599  0.8818 -1.4555 -1.4148
 2631SOL     OW19351   0.553   4.012  12.754  0.3643 -0.1921  0.1903
 2631SOL    HW119352   0.555   3.960  12.674 -0.2792 -1.0018  0.6892
 2631SOL    HW219353   0.640   4.050  12.760 -0.5304  2.0246 -1.1578
 2632SOL     OW19354   3.274   4.596   9.832  0.2488 -0.1402  0.1963
 2632SOL    HW119355   3.235   4.513   9.807 -0.6088 -0.2163  1.7437
 2632SOL    HW219356   3.364   4.585   9.800  0.0273 -0.8403 -0.1763
 2633SOL     OW19357   0.750   1.051   6.985  0.2376 -0.0157  0.1206
 2633SOL    HW119358   0.709   1.136   6.970 -0.9139 -0.6464 -0.3233
 2633SOL    HW219359   0.748   1.031   7.079 -1.9790 -1.3885 -0.2209
 2634SOL     OW19360   0.072   1.151   2.106  0.4409  0.4203 -0.7560
 2634SOL    HW119361   0.009   1.211   2.146  0.4993  0.2512 -0.4185
 2634SOL    HW219362   0.056   1.179   2.015  1.6031  1.2849 -0.6905
 2635SOL     OW19363   1.169   3.339   6.660 -0.0128  0.0617 -0.4064
 2635SOL    HW119364   1.148   3.246   6.652  2.2020 -0.6015  1.7282
 2635SOL    HW219365   1.256   3.332   6.699  0.3871 -0.7780 -1.4447
 2636SOL     OW19366   0.952   0.382   7.836  0.5597  0.0533 -0.4863
 2636SOL    HW119367   0.889   0.416   7.900  0.6242  2.6135 -1.7848
 2636SOL    HW219368   0.932   0.289   7.831 -0.2377  0.2229 -0.4531
 2637SOL     OW19369   3.673   3.767  13.353 -0.3112  0.1842  0.0989
 2637SOL    HW119370   3.747   3.796  13.406  0.4533  1.6458 -1.8051
 2637SOL    HW219371   3.718   3.763  13.269 -0.0124  0.0755  0.2649
 2638SOL     OW19372   4.238   2.741  16.163 -0.0488  0.6735  0.5727
 2638SOL    HW119373   4.253   2.647  16.152 -0.3363  0.6166  0.6720
 2638SOL    HW219374   4.323   2.760  16.203  0.2895  0.2710  0.0388
 2639SOL     OW19375   4.627   2.926   4.328 -0.1660 -0.0175  0.1381
 2639SOL    HW119376   4.535   2.954   4.324  0.0607  0.9987  2.1142
 2639SOL    HW219377   4.624   2.854   4.266  1.1123  1.5639 -1.7744
 2640SOL     OW19378   2.624   2.572   3.840  0.3079  0.3678  0.1459
 2640SOL    HW119379   2.652   2.634   3.773  0.1549 -0.2380 -0.4780
 2640SOL    HW219380   2.691   2.509   3.814  1.1910  0.6539  1.7194
 2641SOL     OW19381   2.144   4.415   3.295 -0.0659 -0.0185 -0.0340
 2641SOL    HW119382   2.172   4.396   3.206  1.8980  2.0750  0.1305
 2641SOL    HW219383   2.106   4.502   3.278  0.4818  0.6408  2.1253
 2642SOL     OW19384   1.763   4.043  11.957 -0.4977  0.7701  0.3803
 2642SOL    HW119385   1.799   3.983  12.023 -0.9525  0.4433  0.3230
 2642SOL    HW219386   1.814   4.123  11.971 -0.3589  0.3461  2.3385
 2643SOL     OW19387   1.727   4.082   5.064  0.6846  0.0203  0.4145
 2643SOL    HW119388   1.722   4.009   5.001  1.0888  1.0518 -0.8079
 2643SOL    HW219389   1.668   4.052   5.133  1.3180 -1.3969  0.3415
 2644SOL     OW19390   1.718   1.191   8.252  0.2310  0.3677 -0.8699
 2644SOL    HW119391   1.776   1.261   8.222 -0.4732  1.0568 -0.6151
 2644SOL    HW219392   1.774   1.115   8.267 -1.4050 -0.4101  1.3895
 2645SOL     OW19393   4.386   0.161   0.700 -0.2269 -0.3290 -0.0355
 2645SOL    HW119394   4.327   0.171   0.626  0.9345  0.8512 -0.8059
 2645SOL    HW219395   4.461   0.121   0.658 -0.8262 -1.3852 -0.0972
 2646SOL     OW19396   0.755   3.429   2.217 -0.6324  0.1171 -0.3025
 2646SOL    HW119397   0.734   3.336   2.228  0.2553  0.0223  0.5631
 2646SOL    HW219398   0.834   3.422   2.164  0.6240  2.2963  1.2718
 2647SOL     OW19399   4.326   3.632   8.818 -0.3246 -0.2053 -0.2725
 2647SOL    HW119400   4.401   3.578   8.844  0.6507  1.2115 -0.1264
 2647SOL    HW219401   4.357   3.721   8.830 -0.8368  0.3031 -2.6517
 2648SOL     OW19402   2.561   4.428  16.431 -0.4287  0.4222  0.4577
 2648SOL    HW119403   2.499   4.489  16.469  0.1937  0.0806  2.0714
 2648SOL    HW219404   2.647   4.465  16.450  0.2566 -0.3829 -1.1053
 2649SOL     OW19405   3.569   4.302  14.296  0.5907  0.3475  0.4487
 2649SOL    HW119406   3.613   4.358  14.232  0.0328 -0.5912 -0.7696
 2649SOL    HW219407   3.479   4.317  14.265  0.1252 -1.1820  1.0796
 2650SOL     OW19408   2.444   1.144   5.362  0.3257 -0.5359 -0.4923
 2650SOL    HW119409   2.460   1.226   5.317 -0.8177 -0.0056  0.0702
 2650SOL    HW219410   2.517   1.138   5.423  0.7720  1.1596 -0.8657
 2651SOL     OW19411   1.522   4.277   4.074  0.1327 -0.3408  0.6828
 2651SOL    HW119412   1.567   4.198   4.043 -1.6369 -0.2902 -2.0045
 2651SOL    HW219413   1.577   4.349   4.041 -0.7379  0.0317  0.0551
 2652SOL     OW19414   0.205   1.509   6.721 -0.5052  0.2775  0.1596
 2652SOL    HW119415   0.242   1.421   6.734 -0.5070  0.4932  1.7291
 2652SOL    HW219416   0.112   1.492   6.710 -0.5873 -2.2133  4.5212
 2653SOL     OW19417   3.826   1.140   5.421  0.5446 -0.1456 -0.3786
 2653SOL    HW119418   3.769   1.093   5.360  0.1616 -0.1381 -0.0243
 2653SOL    HW219419   3.799   1.231   5.407 -0.0128 -0.2401  0.0826
 2654SOL     OW19420   3.055   1.760  13.283 -0.2022 -0.1662 -0.4888
 2654SOL    HW119421   3.039   1.684  13.339 -2.3576  0.1800 -0.6275
 2654SOL    HW219422   3.124   1.805  13.332  0.5354  0.7863 -2.4018
 2655SOL     OW19423   0.964   2.711   9.490  0.0185  0.1222  0.2199
 2655SOL    HW119424   0.890   2.732   9.548 -0.8698  0.9965 -1.2389
 2655SOL    HW219425   0.961   2.616   9.503  1.5910  0.2289  1.3237
 2656SOL     OW19426   2.877   1.033   0.847 -0.1431 -0.2399 -0.7042
 2656SOL    HW119427   2.904   0.961   0.789  1.0088  0.0887 -0.5656
 2656SOL    HW219428   2.809   1.073   0.792 -0.9613 -0.2431  0.3166
 2657SOL     OW19429   2.453   2.435   7.545 -0.4158  0.2856 -0.1536
 2657SOL    HW119430   2.372   2.481   7.522  0.7469  1.1960 -2.4840
 2657SOL    HW219431   2.459   2.467   7.634 -1.3526 -2.0056  0.7259
 2658SOL     OW19432   4.464   4.632   5.961  0.2311  0.1903  0.3176
 2658SOL    HW119433   4.388   4.636   6.019 -2.1656 -0.6089 -2.7780
 2658SOL    HW219434   4.510   4.701   6.009 -0.8137 -0.6040  2.5024
 2659SOL     OW19435   0.030   4.250   3.954 -0.2005  0.0919 -0.0936
 2659SOL    HW119436   0.096   4.313   3.980 -1.1278  1.2692 -0.6082
 2659SOL    HW219437   0.066   4.181   4.010  0.0276  0.5511  0.3194
 2660SOL     OW19438   1.778   0.694  12.147 -0.3874 -0.0662 -0.3557
 2660SOL    HW119439   1.807   0.762  12.207 -1.2535 -1.0569  1.2007
 2660SOL    HW219440   1.819   0.616  12.186  2.0283  1.2526 -0.2685
 2661SOL     OW19441   0.083   3.129   4.280 -0.2307 -0.2706 -0.3076
 2661SOL    HW119442   0.071   3.162   4.191  0.9438 -2.4276 -1.2661
 2661SOL    HW219443   0.036   3.046   4.280 -1.3435  0.3627  0.1526
 2662SOL     OW19444   3.552   2.847   6.961 -0.0148 -0.1472  0.3565
 2662SOL    HW119445   3.488   2.911   6.928 -1.1938 -1.5907 -0.1555
 2662SOL    HW219446   3.555   2.787   6.887  0.9044  0.5790 -0.1964
 2663SOL     OW19447   1.501   3.993  11.061 -0.4401 -0.2604 -0.0711
 2663SOL    HW119448   1.520   4.085  11.041  0.5622 -0.5079 -0.2409
 2663SOL    HW219449   1.446   3.956  10.991  0.3443 -0.2711 -0.6866
 2664SOL     OW19450   2.525   1.363   7.322 -0.3334  0.0262 -0.3260
 2664SOL    HW119451   2.541   1.354   7.416 -0.4275 -2.3132 -0.5532
 2664SOL    HW219452   2.609   1.339   7.283 -0.8801 -2.6054  0.1409
 2665SOL     OW19453   0.738   4.484   1.239  0.1226  0.3152 -0.7849
 2665SOL    HW119454   0.722   4.440   1.323 -2.6579  1.1447 -0.8899
 2665SOL    HW219455   0.670   4.550   1.254  1.0607  1.5866 -2.2298
 2666SOL     OW19456   1.526   2.482   6.480  0.4636  0.2733  0.2174
 2666SOL    HW119457   1.506   2.404   6.428 -0.1049  1.1313 -0.8745
 2666SOL    HW219458   1.501   2.450   6.567  1.7863  0.2409  0.5865
 2667SOL     OW19459   1.253   0.738   1.809 -0.1327  0.0882  0.1466
 2667SOL    HW119460   1.271   0.644   1.817 -0.1370  0.0968  0.2630
 2667SOL    HW219461   1.330   0.782   1.846 -0.1600 -0.5907  1.0172
 2668SOL     OW19462   4.514   3.146   5.193  0.7461 -0.2301  0.0907
 2668SOL    HW119463   4.477   3.198   5.122 -0.1945 -1.8658 -0.6154
 2668SOL    HW219464   4.433   3.133   5.243 -0.3388  3.5196 -0.6857
 2669SOL     OW19465   1.113   3.905  11.849 -0.3964 -0.4192  0.4589
 2669SOL    HW119466   1.099   3.884  11.941 -0.1876  0.4703  0.6953
 2669SOL    HW219467   1.181   3.842  11.826  0.6046  0.9223 -0.2449
 2670SOL     OW19468   4.624   0.243   1.335  0.4258  0.0116  0.0931
 2670SOL    HW119469   4.677   0.323   1.341 -0.0186  0.2572  0.8228
 2670SOL    HW219470   4.676   0.178   1.382 -0.5417 -1.0754 -0.3478
 2671SOL     OW19471   3.709   3.159   3.043 -0.6300 -0.1759 -0.7637
 2671SOL    HW119472   3.681   3.250   3.027 -0.6245  0.1409  1.0485
 2671SOL    HW219473   3.632   3.109   3.016 -1.5045  2.7009 -3.6799
 2672SOL     OW19474   1.320   0.622   4.497 -0.5114 -0.0617  0.2240
 2672SOL    HW119475   1.390   0.558   4.509 -1.2333 -0.4465  2.4473
 2672SOL    HW219476   1.368   0.704   4.509  0.0895  0.0834 -3.1995
 2673SOL     OW19477   0.195   1.900   6.903 -0.4468  0.8629 -0.2414
 2673SOL    HW119478   0.125   1.855   6.855  1.1915 -3.6007  1.4639
 2673SOL    HW219479   0.250   1.822   6.917  0.1813  0.9798 -2.1632
 2674SOL     OW19480   4.211   0.627   1.304 -0.1975  0.0623 -0.2795
 2674SOL    HW119481   4.244   0.550   1.258 -2.3721 -2.4506  2.4208
 2674SOL    HW219482   4.117   0.607   1.296  0.2698 -1.1462 -2.5775
 2675SOL     OW19483   1.701   1.676   8.642 -0.5815  0.0513  0.1251
 2675SOL    HW119484   1.775   1.623   8.672  1.3444  3.1862  0.8545
 2675SOL    HW219485   1.645   1.601   8.619 -1.2454 -0.1864  2.5387
 2676SOL     OW19486   0.987   0.529   3.301  0.1664  0.5234  0.0512
 2676SOL    HW119487   1.001   0.444   3.343  2.2464  1.4390  1.2148
 2676SOL    HW219488   1.020   0.510   3.214 -1.0019  3.8682 -1.1520
 2677SOL     OW19489   2.500   0.548   1.994  0.1749 -0.3217 -0.1065
 2677SOL    HW119490   2.575   0.571   2.049 -1.5304 -1.5805  2.7437
 2677SOL    HW219491   2.431   0.569   2.058 -1.7521 -3.2469 -1.2124
 2678SOL     OW19492   4.488   3.195   2.930  0.1087  0.1133 -0.2536
 2678SOL    HW119493   4.487   3.226   2.839  1.0098  2.5190  0.5363
 2678SOL    HW219494   4.407   3.144   2.934 -0.4125  1.0049  0.5859
 2679SOL     OW19495   2.064   3.577   4.477 -0.1025  0.0520  0.0338
 2679SOL    HW119496   2.074   3.651   4.536  2.5716  0.0215 -0.3815
 2679SOL    HW219497   1.988   3.535   4.517 -1.1386 -0.1564 -2.1802
 2680SOL     OW19498   3.180   4.346   5.536  0.8690  0.1523 -0.2787
 2680SOL    HW119499   3.145   4.435   5.534 -2.7199 -1.1897  1.5172
 2680SOL    HW219500   3.254   4.354   5.477  1.3147  0.3450  0.3095
 2681SOL     OW19501   2.956   3.591   7.697  0.5577  0.6772 -0.4224
 2681SOL    HW119502   3.043   3.559   7.674 -0.1544  0.4569 -2.8417
 2681SOL    HW219503   2.905   3.515   7.670  1.2412 -0.2457  0.8808
 2682SOL     OW19504   1.878   3.142   5.363 -0.0253  0.4469  0.1608
 2682SOL    HW119505   1.921   3.098   5.290  1.8465  4.3563 -1.0892
 2682SOL    HW219506   1.824   3.211   5.324  1.7933  1.2425 -0.9594
 2683SOL     OW19507   3.713   0.263   3.652 -0.6273 -0.4345 -0.3572
 2683SOL    HW119508   3.664   0.188   3.616 -2.8351  0.7725  0.1246
 2683SOL    HW219509   3.704   0.326   3.581  1.7628  2.1018  1.6419
 2684SOL     OW19510   3.883   4.677   5.164 -0.1917 -0.1383 -0.6195
 2684SOL    HW119511   3.874   0.047   5.155 -2.5626 -0.3061  0.1131
 2684SOL    HW219512   3.965   4.680   5.213 -0.3922  3.7505 -0.4927
 2685SOL     OW19513   1.038   2.558   6.539  0.6740 -0.2122  0.3910
 2685SOL    HW119514   0.962   2.591   6.492 -0.8904 -1.3707  2.1482
 2685SOL    HW219515   1.000   2.546   6.625  1.4509  1.4297  0.9634
 2686SOL     OW19516   3.304   3.592   4.836  0.0406  0.7815  0.0301
 2686SOL    HW119517   3.384   3.615   4.788 -0.0531  0.8641 -0.0892
 2686SOL    HW219518   3.246   3.667   4.821 -1.9709 -1.1347 -1.7247
 2687SOL     OW19519   1.925   0.004   6.556  0.6242  0.1425 -0.4543
 2687SOL    HW119520   1.982   4.665   6.599 -0.8363 -1.0872 -0.3205
 2687SOL    HW219521   1.975   0.030   6.479 -0.8503  3.3099 -0.3355
 2688SOL     OW19522   4.042   2.043   4.716  0.3494 -0.0362  0.1526
 2688SOL    HW119523   4.118   1.992   4.745 -1.3702 -0.7102  3.5318
 2688SOL    HW219524   4.077   2.088   4.640  0.1227 -0.7911 -0.4014
 2689SOL     OW19525   2.959   3.747   9.071  0.0032 -0.5012 -0.2890
 2689SOL    HW119526   2.973   3.785   8.984  0.2017 -2.3067 -1.0438
 2689SOL    HW219527   3.040   3.761   9.119  1.1720 -1.7833 -1.8849
 2690SOL     OW19528   4.335   0.387   5.324 -0.8322 -0.1034  0.0262
 2690SOL    HW119529   4.325   0.473   5.365  0.7548 -0.2985  0.8309
 2690SOL    HW219530   4.283   0.398   5.245 -2.4391  0.8391  1.2185
 2691SOL     OW19531   1.898   0.976   8.303 -0.9411  0.3078  0.8281
 2691SOL    HW119532   1.935   0.895   8.266  0.2450  2.1315 -1.9525
 2691SOL    HW219533   1.913   0.967   8.397 -0.6081  0.2441  0.7708
 2692SOL     OW19534   2.683   4.417   0.904 -0.3241 -0.3656 -0.3471
 2692SOL    HW119535   2.711   4.418   0.996 -2.1603 -0.9734  0.2025
 2692SOL    HW219536   2.611   4.355   0.912  0.4196 -0.9507  2.0133
 2693SOL     OW19537   2.032   3.662   6.374 -0.0291  0.1489  0.0257
 2693SOL    HW119538   2.075   3.577   6.381 -0.4958 -0.1393 -0.5475
 2693SOL    HW219539   1.946   3.629   6.398 -0.4078  0.6101 -0.7033
 2694SOL     OW19540   2.658   0.291  16.614 -0.3356  0.4364 -0.2901
 2694SOL    HW119541   2.674   0.361  16.678 -0.1478  0.1643 -0.0415
 2694SOL    HW219542   2.702   0.219  16.658 -0.9851  0.1782 -0.0779
 2695SOL     OW19543   4.220   1.332   2.543  0.4298  0.2428  0.3851
 2695SOL    HW119544   4.203   1.238   2.550  1.8736 -0.1286 -1.0860
 2695SOL    HW219545   4.232   1.359   2.452  1.9337  1.0479  0.8142
 2696SOL     OW19546   1.475   4.568   4.417  0.5274 -0.5143 -0.4769
 2696SOL    HW119547   1.401   4.562   4.477  0.3020  2.3301 -0.4763
 2696SOL    HW219548   1.523   4.486   4.430 -0.4250 -1.1554 -1.0155
 2697SOL     OW19549   0.890   2.726   8.722  0.1828 -0.6505 -0.2934
 2697SOL    HW119550   0.857   2.765   8.641 -0.1762 -0.5969 -0.1237
 2697SOL    HW219551   0.984   2.730   8.707 -0.1742  1.2361 -2.0083
 2698SOL     OW19552   4.261   0.851   7.783 -0.4552  0.0974 -0.5370
 2698SOL    HW119553   4.261   0.799   7.702 -1.2096  0.9212 -1.0750
 2698SOL    HW219554   4.353   0.879   7.784  0.0168 -1.5872  1.5483
 2699SOL     OW19555   1.135   4.540   5.219  0.1994  0.2943 -0.2643
 2699SOL    HW119556   1.058   4.584   5.254  0.4009  0.9536 -0.6456
 2699SOL    HW219557   1.200   4.607   5.237  1.4746 -0.6466 -1.3714
 2700SOL     OW19558   0.111   0.918   7.868 -0.5497 -0.0311 -0.2536
 2700SOL    HW119559   0.190   0.973   7.864 -2.6252  2.9428  0.1352
 2700SOL    HW219560   0.068   0.934   7.784 -0.8200 -1.7139 -0.4399
 2701SOL     OW19561   0.454   2.322  12.327 -0.1563  0.0589  0.4839
 2701SOL    HW119562   0.438   2.376  12.405 -0.8701 -0.8853  0.9880
 2701SOL    HW219563   0.482   2.242  12.370 -1.3089 -1.1625 -1.0409
 2702SOL     OW19564   3.320   3.406   3.450  0.0595  0.4285 -0.0942
 2702SOL    HW119565   3.351   3.371   3.366 -2.9009  3.0973 -2.2571
 2702SOL    HW219566   3.400   3.419   3.502 -0.4265 -1.3903  1.1272
 2703SOL     OW19567   2.012   2.294  10.028 -0.2002 -0.3217 -0.2225
 2703SOL    HW119568   2.078   2.232  10.057 -0.4179 -1.7330 -2.6911
 2703SOL    HW219569   2.022   2.359  10.097 -0.4352 -0.5750  0.0503
 2704SOL     OW19570   3.151   3.631  11.752 -0.3629  0.1775 -0.3499
 2704SOL    HW119571   3.129   3.566  11.685 -0.1087  0.8189 -1.0604
 2704SOL    HW219572   3.176   3.586  11.833  1.0846  1.4137 -0.1089
 2705SOL     OW19573   0.454   3.380   2.971  0.3025 -0.2019  0.0956
 2705SOL    HW119574   0.502   3.313   3.019  0.8972 -0.1552 -0.4365
 2705SOL    HW219575   0.481   3.357   2.882  1.3957  1.4447  0.0095
 2706SOL     OW19576   4.459   2.888   8.134  0.0522  0.0739 -0.7004
 2706SOL    HW119577   4.441   2.840   8.214  0.5432  0.4013 -0.3931
 2706SOL    HW219578   4.389   2.954   8.141 -1.8718 -1.7814 -2.3841
 2707SOL     OW19579   0.073   2.282   7.000 -0.0600  0.3146 -0.5786
 2707SOL    HW119580   0.090   2.209   7.060 -0.2650 -1.1997 -2.3283
 2707SOL    HW219581   0.143   2.292   6.936  0.6224  0.4226  0.1870
 2708SOL     OW19582   0.069   2.767   3.090  0.1795 -0.7024  0.0305
 2708SOL    HW119583   0.040   2.701   3.153  0.0337 -0.4036  0.2774
 2708SOL    HW219584   0.105   2.828   3.155  1.3170 -0.0058 -1.2428
 2709SOL     OW19585   4.664   3.483  12.928  0.2914  0.3860 -0.0142
 2709SOL    HW119586   4.574   3.455  12.913 -0.1354  0.6408  1.9693
 2709SOL    HW219587   4.694   3.459  12.841  1.9001 -1.4493  1.0541
 2710SOL     OW19588   0.924   0.497   9.404  0.5369  0.0730 -0.1199
 2710SOL    HW119589   0.947   0.523   9.493 -0.7967  0.4712  0.1076
 2710SOL    HW219590   0.837   0.537   9.398  0.4863 -0.1287 -0.7965
 2711SOL     OW19591   2.748   0.336   7.301 -0.3989  0.0670 -0.2219
 2711SOL    HW119592   2.672   0.329   7.243 -1.9267 -1.4796  1.9622
 2711SOL    HW219593   2.823   0.330   7.241 -0.6365 -0.7357 -0.4384
 2712SOL     OW19594   3.481   0.064   7.046  0.5602  0.3675  0.2543
 2712SOL    HW119595   3.425   0.135   7.012  2.1520  1.3079 -0.3832
 2712SOL    HW219596   3.504   0.026   6.962 -2.2518  0.2802 -0.4897
 2713SOL     OW19597   1.926   0.440   4.434  0.1880  0.5454  0.0218
 2713SOL    HW119598   1.885   0.354   4.430 -0.4499  0.7653  1.7000
 2713SOL    HW219599   2.015   0.417   4.407  0.7996  2.3682  0.4883
 2714SOL     OW19600   3.449   0.220   2.853  0.0192  0.1517 -0.3933
 2714SOL    HW119601   3.460   0.243   2.761 -0.4413 -0.1027 -0.5127
 2714SOL    HW219602   3.374   0.278   2.864 -0.2965 -0.6850  1.8925
 2715SOL     OW19603   1.159   4.059   3.078  0.7712  0.1844 -0.2439
 2715SOL    HW119604   1.252   4.079   3.081  0.6982  0.7712 -2.1746
 2715SOL    HW219605   1.145   3.997   3.006 -1.7755 -0.5262  0.8324
 2716SOL     OW19606   1.950   2.531  10.178 -0.1277  0.0749 -0.0213
 2716SOL    HW119607   1.940   2.512  10.271 -0.0677 -0.2408 -0.0769
 2716SOL    HW219608   1.857   2.542  10.159  0.0170  1.2426 -0.0289
 2717SOL     OW19609   0.113   0.005  16.426 -0.3490 -0.5306 -0.2991
 2717SOL    HW119610   0.076   0.016  16.339  2.6849 -1.8640 -1.7385
 2717SOL    HW219611   0.196   4.683  16.414  0.5246  0.6176  1.2290
 2718SOL     OW19612   0.366   1.908  11.451 -0.1415 -0.5593  0.5730
 2718SOL    HW119613   0.439   1.854  11.482 -0.0669  0.0995  1.5359
 2718SOL    HW219614   0.394   1.916  11.360 -0.8586 -0.7346  0.3389
 2719SOL     OW19615   0.688   0.500   3.603  0.2285 -0.9836 -0.2775
 2719SOL    HW119616   0.596   0.526   3.616  0.0709 -2.3122  1.1674
 2719SOL    HW219617   0.702   0.425   3.661 -0.3240  0.9690  2.3786
 2720SOL     OW19618   0.930   1.397   1.420  0.0386  0.3109 -0.1322
 2720SOL    HW119619   1.003   1.415   1.360 -0.4801  1.9032 -0.2840
 2720SOL    HW219620   0.962   1.432   1.503 -1.0893  0.6461  0.1590
 2721SOL     OW19621   1.191   3.775   5.247 -0.3307  0.3660 -0.6802
 2721SOL    HW119622   1.187   3.681   5.264 -1.2757  0.5721  0.2270
 2721SOL    HW219623   1.168   3.773   5.154  0.6384 -1.5837 -0.8787
 2722SOL     OW19624   2.387   1.840   2.288 -0.1509 -0.5769  0.7255
 2722SOL    HW119625   2.482   1.829   2.283  0.1921  1.7641  1.7087
 2722SOL    HW219626   2.349   1.779   2.225 -1.1116  1.0885 -0.3152
 2723SOL     OW19627   4.073   4.552   2.193 -0.1746  0.4334  0.1524
 2723SOL    HW119628   3.988   4.581   2.225 -1.6387  0.3112 -3.7164
 2723SOL    HW219629   4.119   4.556   2.277  2.3066 -0.6972 -1.1380
 2724SOL     OW19630   0.532   2.863   4.049 -0.5200 -1.0773 -0.3847
 2724SOL    HW119631   0.563   2.781   4.086  1.8243 -0.1178 -0.2326
 2724SOL    HW219632   0.570   2.854   3.962 -0.3323  0.1698 -0.4399
 2725SOL     OW19633   1.160   1.453   3.539  0.2344 -0.4607 -0.6957
 2725SOL    HW119634   1.069   1.424   3.543  0.1998 -0.4251 -1.2342
 2725SOL    HW219635   1.158   1.497   3.455 -2.7880  0.1792 -0.2874
 2726SOL     OW19636   4.308   1.010   3.716  0.2564 -0.5963 -0.3534
 2726SOL    HW119637   4.285   1.102   3.727  1.1413 -0.4961  0.6916
 2726SOL    HW219638   4.307   0.998   3.621  1.4745  0.4150 -0.4835
 2727SOL     OW19639   0.781   3.602   2.406 -0.3165  0.0602 -0.8935
 2727SOL    HW119640   0.778   3.532   2.471 -2.8433  0.9294 -0.0445
 2727SOL    HW219641   0.788   3.545   2.329  0.4797  1.8255 -2.1440
 2728SOL     OW19642   2.991   0.193   9.550  0.1398 -0.0007 -0.3134
 2728SOL    HW119643   2.966   0.132   9.480 -0.2589 -0.8851  0.6055
 2728SOL    HW219644   3.035   0.134   9.611  0.1538  1.3537  0.9719
 2729SOL     OW19645   4.109   1.877  17.256 -0.0086  0.4942  0.1030
 2729SOL    HW119646   4.094   1.839  17.342  1.2414  1.6906  0.8473
 2729SOL    HW219647   4.150   1.958  17.286  0.6998 -0.4799  1.7809
 2730SOL     OW19648   0.192   2.876   3.316 -0.1933  1.0834  0.1377
 2730SOL    HW119649   0.236   2.822   3.382 -0.6998  3.0574  2.1070
 2730SOL    HW219650   0.120   2.923   3.357 -2.4619 -1.8105 -0.5323
 2731SOL     OW19651   3.932   0.465   3.506  0.0540 -0.2117 -0.7697
 2731SOL    HW119652   4.013   0.413   3.509 -0.1151 -0.4917 -1.0110
 2731SOL    HW219653   3.944   0.515   3.426 -1.1606 -0.5516 -1.1664
 2732SOL     OW19654   3.637   0.585   7.877 -0.2248 -0.3502 -0.1289
 2732SOL    HW119655   3.621   0.534   7.957 -0.4831 -1.2140 -0.7225
 2732SOL    HW219656   3.583   0.660   7.900 -0.8341 -0.6281 -0.6546
 2733SOL     OW19657   3.799   3.789   5.704  0.2851 -0.3969 -0.2549
 2733SOL    HW119658   3.782   3.795   5.610 -1.8525  0.2897  0.1672
 2733SOL    HW219659   3.733   3.851   5.736 -0.9334 -0.5052 -2.5522
 2734SOL     OW19660   4.101   1.127   9.123  0.3452  0.3046 -0.0718
 2734SOL    HW119661   4.076   1.040   9.153 -0.8172  0.9170  0.7593
 2734SOL    HW219662   4.035   1.146   9.057  1.3405 -1.7199 -1.6363
 2735SOL     OW19663   2.137   1.714   4.844 -0.3315  0.2656  0.1344
 2735SOL    HW119664   2.052   1.740   4.880 -0.7576  0.4126 -0.9647
 2735SOL    HW219665   2.110   1.656   4.774 -0.1788 -0.1451  0.4183
 2736SOL     OW19666   0.386   3.731   7.718 -0.2063 -0.2487 -0.6614
 2736SOL    HW119667   0.378   3.759   7.626 -2.2555  1.7525  0.1276
 2736SOL    HW219668   0.474   3.752   7.749  0.8667 -3.0249 -1.7198
 2737SOL     OW19669   3.951   1.925  17.028 -0.1310 -0.0441 -0.7178
 2737SOL    HW119670   4.006   1.917  17.106 -1.7382 -0.6331  0.3525
 2737SOL    HW219671   3.973   2.012  16.993 -0.8105  0.1112 -0.7649
 2738SOL     OW19672   3.008   2.571   6.915 -0.0653  0.1841  0.2390
 2738SOL    HW119673   2.996   2.572   6.820 -0.9151 -2.8657  0.3420
 2738SOL    HW219674   2.975   2.482   6.922 -1.8629  0.9410  1.5670
 2739SOL     OW19675   4.546   4.010  10.248 -0.2073  0.0884  0.2617
 2739SOL    HW119676   4.469   3.957  10.228  0.0562 -0.4408  0.6680
 2739SOL    HW219677   4.519   4.102  10.242  0.8445  0.3700 -0.3182
 2740SOL     OW19678   0.328   3.204  14.361  0.1289  1.1702 -0.1032
 2740SOL    HW119679   0.383   3.196  14.439 -0.8782 -0.3777  0.4520
 2740SOL    HW219680   0.346   3.118  14.324 -1.8820  1.1573 -1.0597
 2741SOL     OW19681   0.198   1.308  14.479 -1.0411 -1.2174 -0.3164
 2741SOL    HW119682   0.264   1.260  14.528 -0.2118  0.2104 -0.0308
 2741SOL    HW219683   0.116   1.262  14.497 -1.8816  0.0564 -0.8829
 2742SOL     OW19684   0.495   1.891   7.712  0.0882 -0.2164  0.3066
 2742SOL    HW119685   0.400   1.898   7.716 -0.1464 -2.6714 -1.1241
 2742SOL    HW219686   0.516   1.979   7.680  0.7524 -0.4563  0.0772
 2743SOL     OW19687   4.423   2.114   6.183 -0.1462 -1.0977  0.1284
 2743SOL    HW119688   4.438   2.208   6.197  0.2474 -1.7110  3.8114
 2743SOL    HW219689   4.382   2.113   6.097  1.8978 -1.0080 -0.8334
 2744SOL     OW19690   1.666   2.248   5.236 -0.1480 -0.3397 -0.7131
 2744SOL    HW119691   1.663   2.275   5.144  2.8756  3.0765  0.2028
 2744SOL    HW219692   1.719   2.169   5.235  1.9900  1.0736  1.0561
 2745SOL     OW19693   3.493   0.119   9.585 -0.3582 -0.0472 -0.0988
 2745SOL    HW119694   3.586   0.099   9.598 -0.4716 -0.2226  0.4447
 2745SOL    HW219695   3.453   0.032   9.586  0.2952 -0.3559 -1.2670
 2746SOL     OW19696   4.608   4.173   3.438  0.2237  0.4196 -0.1829
 2746SOL    HW119697   4.620   4.196   3.530 -0.3995 -0.8587  0.2181
 2746SOL    HW219698   4.683   4.229   3.418 -0.3827  0.8646 -1.2401
 2747SOL     OW19699   0.023   3.437   5.571 -0.1524  0.9533 -0.2848
 2747SOL    HW119700   0.041   3.489   5.650  0.4980  0.5264 -0.1491
 2747SOL    HW219701   4.671   3.391   5.605  0.7794 -1.7265 -1.7909
 2748SOL     OW19702   3.683   4.301   3.152  0.8145  0.4462 -0.2320
 2748SOL    HW119703   3.663   4.373   3.092  0.0427 -1.2351 -1.9708
 2748SOL    HW219704   3.778   4.291   3.140  1.2539  3.0233  0.8966
 2749SOL     OW19705   2.294   1.003   6.938 -0.1633  0.3797  0.4328
 2749SOL    HW119706   2.259   1.032   6.854  1.0272  1.5754  0.3694
 2749SOL    HW219707   2.206   0.997   6.976 -0.5046  1.3321 -0.2144
 2750SOL     OW19708   3.250   2.255   2.034  0.1568  0.3085 -0.3120
 2750SOL    HW119709   3.214   2.170   2.062  1.1031 -0.5045 -1.5579
 2750SOL    HW219710   3.333   2.272   2.079  0.8400  1.1271 -1.8899
 2751SOL     OW19711   3.349   1.573   9.497  0.3298  0.4091  0.1364
 2751SOL    HW119712   3.353   1.625   9.416  1.8334  0.4645  0.2554
 2751SOL    HW219713   3.436   1.534   9.496  1.3094  2.6025  0.1053
 2752SOL     OW19714   0.224   4.496  12.186  0.0555  0.1994  0.5427
 2752SOL    HW119715   0.159   4.448  12.135 -1.1299  0.2408  2.0192
 2752SOL    HW219716   0.229   4.449  12.269  0.6378 -2.1952 -0.8444
 2753SOL     OW19717   1.545   0.244   3.248 -0.1538  0.5580  0.1611
 2753SOL    HW119718   1.523   0.151   3.256  0.4325  0.1759 -2.6673
 2753SOL    HW219719   1.519   0.264   3.158  0.6413 -0.3966 -0.2919
 2754SOL     OW19720   4.241   3.840   6.746 -0.0321 -0.2412  0.4758
 2754SOL    HW119721   4.333   3.849   6.771  1.0632 -0.8022 -3.2417
 2754SOL    HW219722   4.206   3.913   6.796  1.3970  0.8031 -0.0346
 2755SOL     OW19723   0.613   0.941  10.414  0.2060  0.0588  0.1728
 2755SOL    HW119724   0.608   1.037  10.421 -0.6105  0.0174  0.2453
 2755SOL    HW219725   0.661   0.912  10.491  1.2117 -2.7179 -1.5159
 2756SOL     OW19726   4.647   2.104  10.818  0.0993  0.3573  0.3366
 2756SOL    HW119727   4.681   2.192  10.833  0.5076  0.5694 -1.8292
 2756SOL    HW219728   4.552   2.115  10.824  0.3238  1.3637  1.8660
 2757SOL     OW19729   4.299   0.098   5.811  0.1919  0.4797  0.5577
 2757SOL    HW119730   4.222   0.083   5.866  0.0565 -2.6107 -0.5151
 2757SOL    HW219731   4.363   0.032   5.835 -0.1574 -0.7021 -1.7987
 2758SOL     OW19732   3.152   3.080   2.543 -0.1682  0.2550  0.4946
 2758SOL    HW119733   3.099   3.134   2.485  1.2332  0.5375 -0.5255
 2758SOL    HW219734   3.081   3.024   2.576  0.8474 -1.2218  0.1975
 2759SOL     OW19735   3.811   0.196   1.093 -0.3041 -0.3052  0.2262
 2759SOL    HW119736   3.767   0.275   1.061 -1.1645 -1.1025 -0.5760
 2759SOL    HW219737   3.864   0.179   1.016 -0.9593 -0.9478 -0.0827
 2760SOL     OW19738   4.520   1.207   9.402 -0.8871  0.1878 -0.2641
 2760SOL    HW119739   4.565   1.224   9.319 -1.3146 -1.6406 -0.8730
 2760SOL    HW219740   4.451   1.149   9.371 -0.6573  0.3136 -1.0204
 2761SOL     OW19741   3.498   3.134   7.897 -0.4266  0.3851 -0.2916
 2761SOL    HW119742   3.530   3.157   7.984 -0.8995 -0.8889  0.2328
 2761SOL    HW219743   3.523   3.042   7.888 -1.5103  0.1927 -1.4669
 2762SOL     OW19744   3.092   4.227  11.114 -0.1210 -0.2999  0.5780
 2762SOL    HW119745   3.062   4.317  11.101  0.1736 -0.4286 -1.0001
 2762SOL    HW219746   3.010   4.180  11.102  0.5954 -1.7946  1.6051
 2763SOL     OW19747   4.246   3.576   6.770 -0.4124  0.0695  0.2257
 2763SOL    HW119748   4.240   3.672   6.772  0.1960  0.1555 -3.7852
 2763SOL    HW219749   4.194   3.554   6.694 -0.4745  2.2820 -0.3771
 2764SOL     OW19750   4.516   2.193   4.383 -0.0110  0.1235  0.1218
 2764SOL    HW119751   4.496   2.176   4.291 -0.2881  0.6064  0.0891
 2764SOL    HW219752   4.427   2.176   4.414  0.2522 -0.1355  0.7213
 2765SOL     OW19753   0.865   4.372   1.819 -0.1098  0.1899 -0.4719
 2765SOL    HW119754   0.942   4.321   1.843 -0.0331  0.1912 -0.7072
 2765SOL    HW219755   0.889   4.382   1.726  1.0759  0.2974 -0.1529
 2766SOL     OW19756   2.155   3.398   7.562 -0.2918 -0.2237 -0.3254
 2766SOL    HW119757   2.111   3.336   7.504 -0.4899  2.4638 -3.0785
 2766SOL    HW219758   2.152   3.352   7.646  0.5161  0.3761  0.0390
 2767SOL     OW19759   2.163   2.325  17.424 -0.4549  0.2187 -0.1554
 2767SOL    HW119760   2.075   2.295  17.449  0.0651 -0.5874  0.7108
 2767SOL    HW219761   2.164   2.419  17.439  0.9406 -0.5303  4.4779
 2768SOL     OW19762   2.075   2.877   1.395  0.5161  0.8722 -0.1054
 2768SOL    HW119763   2.109   2.789   1.407 -1.2737  0.1563 -0.3059
 2768SOL    HW219764   2.150   2.912   1.345 -0.0647  0.6535 -1.1358
 2769SOL     OW19765   4.106   2.700   2.968 -0.7631 -0.0936 -0.0513
 2769SOL    HW119766   4.022   2.722   2.927 -0.1292  0.3166 -1.1022
 2769SOL    HW219767   4.130   2.624   2.916 -0.1215 -0.4327  0.7357
 2770SOL     OW19768   1.799   2.983   2.120 -0.5090 -0.4623  0.7735
 2770SOL    HW119769   1.873   2.940   2.162  0.1703  0.1983  0.2538
 2770SOL    HW219770   1.844   3.068   2.126  0.6935 -1.0400 -0.0510
 2771SOL     OW19771   4.515   3.871   5.361 -0.4069  0.2362  0.1443
 2771SOL    HW119772   4.518   3.884   5.456  0.9302 -1.8356  0.3842
 2771SOL    HW219773   4.607   3.858   5.339 -0.6812 -1.0710 -0.1987
 2772SOL     OW19774   4.657   1.961   2.721  0.0576  0.1224 -0.1247
 2772SOL    HW119775   4.641   1.983   2.629  0.4987 -1.6510 -0.6328
 2772SOL    HW219776   4.657   2.047   2.763  2.4477  0.4355 -0.7703
 2773SOL     OW19777   1.806   3.525   9.834 -0.2513 -0.1804 -0.1156
 2773SOL    HW119778   1.762   3.440   9.839  2.8023 -1.7451 -0.1221
 2773SOL    HW219779   1.753   3.591   9.878 -0.6515 -1.7833  1.7831
 2774SOL     OW19780   2.306   2.772   7.894  0.0856 -0.2175  0.5361
 2774SOL    HW119781   2.281   2.846   7.840  1.6785 -0.3376 -0.3667
 2774SOL    HW219782   2.238   2.708   7.874  0.0953 -0.1466  0.2794
 2775SOL     OW19783   2.446   4.363   3.911  0.0913  0.0652 -0.0127
 2775SOL    HW119784   2.463   4.274   3.942  0.1150 -0.8031 -2.4663
 2775SOL    HW219785   2.481   4.360   3.822  1.6498  1.0398  0.5662
 2776SOL     OW19786   0.694   3.522   8.333  0.1620  0.3751  0.3746
 2776SOL    HW119787   0.608   3.503   8.371  0.7616 -0.2399  1.4387
 2776SOL    HW219788   0.718   3.440   8.290 -1.8610 -1.7541  3.2884
 2777SOL     OW19789   0.157   4.443   2.036 -0.6112  0.2942  0.3920
 2777SOL    HW119790   0.212   4.492   1.974 -0.1121 -0.0901  0.5374
 2777SOL    HW219791   0.110   4.519   2.070  0.2743 -0.0516  2.4096
 2778SOL     OW19792   1.647   2.180   3.159  0.5591 -0.4487  0.6846
 2778SOL    HW119793   1.553   2.191   3.169  0.2735 -1.7631 -0.5270
 2778SOL    HW219794   1.656   2.156   3.067  1.4001 -0.2090  0.6983
 2779SOL     OW19795   1.608   2.682   3.548  0.4706 -0.0147  0.5106
 2779SOL    HW119796   1.673   2.738   3.589 -0.4254  0.8705  0.7119
 2779SOL    HW219797   1.541   2.744   3.519 -0.0448  0.3655  2.5482
 2780SOL     OW19798   1.696   1.110  15.034  0.0022 -0.2942 -0.4215
 2780SOL    HW119799   1.642   1.038  15.002  0.5846  0.1111 -2.3638
 2780SOL    HW219800   1.749   1.070  15.103  1.6334  2.1890 -0.2201
 2781SOL     OW19801   3.662   2.003   8.086  0.3656  0.2817  0.5928
 2781SOL    HW119802   3.593   1.940   8.067  0.0199  0.5920  0.8469
 2781SOL    HW219803   3.683   2.028   7.996 -0.1871 -0.1976  0.3363
 2782SOL     OW19804   1.886   3.690   6.060 -0.2402  0.5725  0.3597
 2782SOL    HW119805   1.883   3.597   6.083  1.8866  0.9014  1.8961
 2782SOL    HW219806   1.826   3.692   5.985  1.8938 -1.4545 -1.3997
 2783SOL     OW19807   3.727   3.729   1.647  0.1579 -0.1916  0.6357
 2783SOL    HW119808   3.815   3.721   1.611  0.4521 -1.7351  1.6919
 2783SOL    HW219809   3.676   3.667   1.595 -0.0226  0.4971 -0.0031
 2784SOL     OW19810   4.488   3.742   5.774  0.2467  0.4339 -0.7237
 2784SOL    HW119811   4.447   3.772   5.855  1.2745  2.4551 -0.9631
 2784SOL    HW219812   4.416   3.683   5.751 -1.4101  1.2459  2.4412
 2785SOL     OW19813   0.073   2.998   9.757 -0.1203 -0.6538  0.2414
 2785SOL    HW119814   0.084   3.016   9.850  0.3631  0.6087 -0.0612
 2785SOL    HW219815   0.006   2.929   9.757  0.0517 -0.8159  1.8368
 2786SOL     OW19816   1.870   1.986  17.286 -0.8013  0.0731 -0.1546
 2786SOL    HW119817   1.960   1.961  17.307  0.0807  1.4798 -2.2073
 2786SOL    HW219818   1.885   1.975  17.192  0.2772 -2.9690  0.3659
 2787SOL     OW19819   2.347   2.576   3.870  0.1978  0.2321 -0.1523
 2787SOL    HW119820   2.443   2.566   3.870  0.0554 -1.1444 -0.5479
 2787SOL    HW219821   2.330   2.595   3.962  0.2155  2.9853 -0.7159
 2788SOL     OW19822   0.702   2.407  11.936 -0.0186 -0.0820  0.2264
 2788SOL    HW119823   0.660   2.343  11.993 -1.0928 -0.0030 -0.4783
 2788SOL    HW219824   0.671   2.489  11.976 -2.9093 -0.8644 -0.3871
 2789SOL     OW19825   0.872   0.772   1.490  0.2445  0.2984 -0.1454
 2789SOL    HW119826   0.835   0.825   1.419  0.1199 -0.4795 -0.6593
 2789SOL    HW219827   0.952   0.823   1.502  1.7075 -2.0296 -0.0416
 2790SOL     OW19828   4.554   4.529   6.985 -0.4348 -0.0656 -0.1868
 2790SOL    HW119829   4.607   4.571   6.917 -0.5810  1.5248  0.6693
 2790SOL    HW219830   4.579   4.438   6.969  3.2043  1.0515 -0.8705
 2791SOL     OW19831   0.177   3.795   8.661  0.3584  0.1254 -0.3257
 2791SOL    HW119832   0.190   3.808   8.567  0.4331 -1.2687 -0.5195
 2791SOL    HW219833   0.107   3.730   8.653  0.8334 -0.3334 -0.7651
 2792SOL     OW19834   0.505   4.257   2.113 -0.1225  0.3802 -0.1745
 2792SOL    HW119835   0.469   4.308   2.186 -0.0670  1.0438 -0.6144
 2792SOL    HW219836   0.556   4.331   2.080 -2.1775  1.8719 -0.0173
 2793SOL     OW19837   3.040   2.114   8.907  0.0608 -0.2581 -0.4182
 2793SOL    HW119838   3.091   2.036   8.887 -0.6230 -0.2002 -2.4874
 2793SOL    HW219839   2.956   2.085   8.871 -0.4703  1.4435 -0.5523
 2794SOL     OW19840   0.647   2.059   8.306  0.2107 -0.4965 -0.3379
 2794SOL    HW119841   0.552   2.052   8.308  0.0890  0.9355 -0.8605
 2794SOL    HW219842   0.676   2.042   8.396  1.6834 -1.7636 -1.0530
 2795SOL     OW19843   1.154   0.058  14.677 -0.5241 -0.1880  0.2741
 2795SOL    HW119844   1.061   0.073  14.691 -0.4376  0.0554  0.5751
 2795SOL    HW219845   1.136   4.711  14.616 -0.0728  2.5553 -3.0724
 2796SOL     OW19846   1.015   3.659   3.625 -0.0488  0.1762 -0.0852
 2796SOL    HW119847   1.048   3.620   3.543 -0.8044 -2.4971  0.8745
 2796SOL    HW219848   0.943   3.717   3.602 -1.5354 -1.7306 -0.2449
 2797SOL     OW19849   2.900   1.859   8.565  0.4610  0.1012 -0.1639
 2797SOL    HW119850   2.985   1.883   8.528  1.3842  0.9065  2.5504
 2797SOL    HW219851   2.866   1.803   8.494  2.0361 -0.9121 -0.1235
 2798SOL     OW19852   3.020   2.645   5.161  0.0452  0.1818  0.3707
 2798SOL    HW119853   3.109   2.618   5.186  0.8325  1.1381 -1.4350
 2798SOL    HW219854   3.027   2.626   5.067 -1.6381  1.6462 -0.0322
 2799SOL     OW19855   4.333   0.445  14.088 -0.0223 -0.4076 -0.2908
 2799SOL    HW119856   4.319   0.460  14.181 -0.5728 -0.4938 -0.3615
 2799SOL    HW219857   4.278   0.517  14.057 -0.4819 -0.6339  0.0021
 2800SOL     OW19858   3.564   0.376   4.200 -0.2241  0.3926 -0.1870
 2800SOL    HW119859   3.575   0.471   4.202  0.9989  0.2275  0.8229
 2800SOL    HW219860   3.539   0.362   4.109 -0.9199  0.3772  0.0069
 2801SOL     OW19861   0.363   2.209   5.751 -0.0411 -0.7235 -0.6936
 2801SOL    HW119862   0.369   2.180   5.660  1.4368  1.3325 -1.2501
 2801SOL    HW219863   0.404   2.295   5.742 -1.0575 -0.2060 -0.3211
 2802SOL     OW19864   3.264   2.611  13.874 -0.1505 -0.1941  0.3425
 2802SOL    HW119865   3.246   2.703  13.854 -0.3089 -0.3789 -0.3865
 2802SOL    HW219866   3.346   2.605  13.824  1.1438  1.9843  2.2027
 2803SOL     OW19867   1.731   3.719   7.387  0.0758 -0.2888  0.0004
 2803SOL    HW119868   1.817   3.732   7.347 -1.0344  0.0142 -2.2903
 2803SOL    HW219869   1.695   3.645   7.337 -1.4531  1.1753 -1.0877
 2804SOL     OW19870   3.804   0.038   1.504 -0.3097  0.8158 -0.1380
 2804SOL    HW119871   3.753   4.693   1.462 -1.4406  2.1757 -1.0020
 2804SOL    HW219872   3.734   0.083   1.551  1.0838  1.9317  0.9094
 2805SOL     OW19873   4.659   3.428   6.186 -0.0296  0.1316 -0.0111
 2805SOL    HW119874   0.009   3.392   6.234 -0.6039  0.2015  0.9343
 2805SOL    HW219875   4.666   3.521   6.208 -0.7278  0.5626 -1.5701
 2806SOL     OW19876   2.148   3.584   9.833 -0.0645  0.1107  1.1172
 2806SOL    HW119877   2.129   3.641   9.907 -0.8997  1.1553  0.0955
 2806SOL    HW219878   2.235   3.613   9.804 -0.0736 -1.4429 -0.4386
 2807SOL     OW19879   3.496   2.137   8.828 -0.1531  0.6263 -0.3368
 2807SOL    HW119880   3.464   2.216   8.785  0.7228  0.9253 -0.4295
 2807SOL    HW219881   3.573   2.171   8.873 -0.2274  0.1833  0.1351
 2808SOL     OW19882   1.039   3.126  16.920  0.6928 -0.2678  0.3589
 2808SOL    HW119883   0.955   3.087  16.897  1.7751 -0.6626 -2.8563
 2808SOL    HW219884   1.070   3.064  16.987 -0.2596  0.0611  1.1100
 2809SOL     OW19885   4.121   3.068   1.305  0.3980 -0.6053 -0.2204
 2809SOL    HW119886   4.060   3.038   1.237  0.0435 -0.5768  0.0848
 2809SOL    HW219887   4.170   3.139   1.263  0.6930 -0.1033  0.9659
 2810SOL     OW19888   4.561   0.967  12.252  0.4851 -0.0707  0.6832
 2810SOL    HW119889   4.485   1.024  12.263 -0.1740 -0.5633 -1.3959
 2810SOL    HW219890   4.584   0.927  12.336  0.1994  0.8238  1.1912
 2811SOL     OW19891   3.383   2.824   4.573  0.0440  0.0958  0.5706
 2811SOL    HW119892   3.378   2.866   4.659  0.1037 -0.2148  0.7256
 2811SOL    HW219893   3.476   2.832   4.554 -0.4459  1.4537 -1.3841
 2812SOL     OW19894   2.215   0.090   4.081  0.3490 -0.4892  0.3369
 2812SOL    HW119895   2.198   0.126   3.994 -0.4341 -1.2393  0.1772
 2812SOL    HW219896   2.288   0.144   4.112 -1.3256  1.7838  0.3479
 2813SOL     OW19897   0.321   1.504  10.564  0.2685 -0.1336 -0.2894
 2813SOL    HW119898   0.333   1.570  10.496 -0.0747  1.1000  0.8455
 2813SOL    HW219899   0.226   1.500  10.567  0.2568  0.4818  0.0503
 2814SOL     OW19900   1.968   2.434   2.269 -0.1376  0.6011 -0.8993
 2814SOL    HW119901   1.940   2.402   2.183 -0.8075  2.3816 -1.3613
 2814SOL    HW219902   1.949   2.528   2.270 -0.9520  0.4654 -2.4392
 2815SOL     OW19903   1.686   3.664   8.011 -0.2580  0.1048 -0.2460
 2815SOL    HW119904   1.649   3.745   8.044  1.3179  0.4907  0.5404
 2815SOL    HW219905   1.748   3.715   7.958 -2.4089  1.1071 -1.7871
 2816SOL     OW19906   0.358   3.343  13.263  0.5632 -0.1541  0.3532
 2816SOL    HW119907   0.387   3.254  13.279 -0.8112 -0.9651 -1.7979
 2816SOL    HW219908   0.275   3.329  13.217  0.3978  1.0216  0.2874
 2817SOL     OW19909   0.280   3.521   8.171 -0.5721  0.3330  0.1098
 2817SOL    HW119910   0.211   3.464   8.138 -0.5784  1.1843 -1.3173
 2817SOL    HW219911   0.313   3.563   8.092 -2.7888 -0.7639 -1.3700
 2818SOL     OW19912   4.277   4.318   8.082 -0.2786 -0.2750  0.4294
 2818SOL    HW119913   4.320   4.312   8.167 -0.0241 -1.0918  0.2359
 2818SOL    HW219914   4.294   4.235   8.039  0.9257 -0.2467  0.8529
 2819SOL     OW19915   4.674   2.709   5.895 -0.6112 -0.4804 -0.1892
 2819SOL    HW119916   4.703   2.620   5.877 -0.3571 -0.3824 -0.2551
 2819SOL    HW219917   0.003   2.758   5.833  0.2361 -2.0236 -0.6682
 2820SOL     OW19918   0.770   0.069  11.908  0.2379  0.3539 -0.5480
 2820SOL    HW119919   0.822   4.721  11.943 -0.7582  0.7635  1.7725
 2820SOL    HW219920   0.812   0.083  11.823 -0.9974 -0.2686 -1.2666
 2821SOL     OW19921   1.937   0.700  11.432  0.1886 -0.2071  0.0853
 2821SOL    HW119922   1.939   0.796  11.426  1.5128 -0.2120  0.4885
 2821SOL    HW219923   2.017   0.688  11.381  0.5683 -0.9173  0.8513
 2822SOL     OW19924   0.219   3.151   3.054  0.3368  0.1292 -0.1002
 2822SOL    HW119925   0.181   3.229   3.014 -2.2252 -0.6250  0.8150
 2822SOL    HW219926   0.171   3.079   3.012 -0.3815  0.4253  0.2035
 2823SOL     OW19927   1.223   1.102   8.682  0.6497 -0.2429 -0.4147
 2823SOL    HW119928   1.270   1.054   8.749  0.1556 -2.6832 -1.8067
 2823SOL    HW219929   1.272   1.184   8.687 -1.1509  0.8825 -0.9650
 2824SOL     OW19930   0.009   0.733   8.150 -0.2787 -0.1980 -0.2241
 2824SOL    HW119931   0.047   0.648   8.175  0.7280 -0.2545 -1.9641
 2824SOL    HW219932   4.672   0.744   8.222  0.8001  0.4759  0.5878
 2825SOL     OW19933   4.236   2.045   4.344 -0.0117  0.5216 -0.2392
 2825SOL    HW119934   4.235   1.971   4.404  0.9535 -0.3555 -1.3080
 2825SOL    HW219935   4.205   2.120   4.395  2.4954  2.5595 -1.7391
 2826SOL     OW19936   4.670   3.145  12.613  0.2661  0.3885  0.0866
 2826SOL    HW119937   4.684   3.236  12.585 -1.4514  0.3156 -1.0161
 2826SOL    HW219938   4.691   3.149  12.706  0.7037  0.1538 -0.0014
 2827SOL     OW19939   4.651   0.058  11.029 -0.5539  0.0189  0.0422
 2827SOL    HW119940   4.644   4.688  11.039 -0.5014 -0.1794 -1.7062
 2827SOL    HW219941   0.018   0.069  11.005 -0.9064  0.6403 -1.0300
 2828SOL     OW19942   1.512   0.649   7.345 -0.2897  0.5594  0.0391
 2828SOL    HW119943   1.510   0.648   7.441 -4.4084 -3.8084 -0.0946
 2828SOL    HW219944   1.571   0.582   7.312  0.7331  0.6653  1.6369
 2829SOL     OW19945   0.908   2.318   4.336  0.5733 -0.0480 -0.3173
 2829SOL    HW119946   0.923   2.263   4.258  0.4037 -0.8032  0.1845
 2829SOL    HW219947   0.900   2.397   4.283  0.0119  1.9128  2.7442
 2830SOL     OW19948   3.400   1.646   4.889 -0.2790 -0.3802  0.1221
 2830SOL    HW119949   3.432   1.619   4.803 -2.0264 -0.1962 -0.5883
 2830SOL    HW219950   3.479   1.686   4.925 -0.8144  2.1468 -1.4685
 2831SOL     OW19951   3.598   1.934   2.212 -0.6546  0.0477  0.5492
 2831SOL    HW119952   3.569   1.987   2.287 -0.4038  0.8867  0.0611
 2831SOL    HW219953   3.590   1.990   2.135  1.4685 -1.2531 -0.5819
 2832SOL     OW19954   1.436   2.560   9.855 -0.6485 -0.2523  0.6037
 2832SOL    HW119955   1.409   2.637   9.804 -2.0357 -0.4580  1.0225
 2832SOL    HW219956   1.513   2.530   9.808 -1.3978 -0.6835 -0.3304
 2833SOL     OW19957   2.125   3.198  15.355 -0.1754  0.4304  0.2341
 2833SOL    HW119958   2.125   3.147  15.436  2.8459 -2.3357 -1.5254
 2833SOL    HW219959   2.185   3.144  15.304 -0.6712  0.9208 -0.8699
 2834SOL     OW19960   1.219   1.300  15.602 -0.0153 -0.7509 -0.0492
 2834SOL    HW119961   1.147   1.301  15.539 -1.3178 -0.2400  1.4761
 2834SOL    HW219962   1.262   1.382  15.578 -0.0837 -0.7998 -0.3375
 2835SOL     OW19963   2.463   3.410   6.960  0.0663 -0.0645  0.4575
 2835SOL    HW119964   2.437   3.318   6.966  0.5364 -0.2273 -0.0248
 2835SOL    HW219965   2.503   3.416   7.047  0.3759 -0.0061  0.3111
 2836SOL     OW19966   4.686   3.755  10.276  0.0819 -0.3003  0.2051
 2836SOL    HW119967   4.672   3.848  10.257 -2.7595 -0.7122  0.3487
 2836SOL    HW219968   4.619   3.721  10.217  0.6417 -0.6625 -0.2214
 2837SOL     OW19969   3.764   0.353   2.510  0.5863 -0.2663 -0.1328
 2837SOL    HW119970   3.795   0.439   2.482 -1.6164 -0.0205 -1.7267
 2837SOL    HW219971   3.678   0.360   2.470 -0.1465  0.4254  1.5485
 2838SOL     OW19972   1.764   0.181   4.430  0.1039 -0.3395  0.3770
 2838SOL    HW119973   1.782   0.097   4.386 -1.4515  0.3933 -1.7026
 2838SOL    HW219974   1.718   0.151   4.508  0.1057 -0.0700  0.4806
 2839SOL     OW19975   2.834   4.552   4.714 -0.0977 -0.0232  0.3405
 2839SOL    HW119976   2.892   4.520   4.645  0.6220 -0.2407  1.0418
 2839SOL    HW219977   2.779   4.475   4.723  0.6668 -0.5284  0.7513
 2840SOL     OW19978   2.839   3.565   5.945  0.3512  0.1457 -0.6698
 2840SOL    HW119979   2.857   3.537   5.855  1.0010  2.7533 -1.3441
 2840SOL    HW219980   2.895   3.640   5.965  1.4386 -0.8358 -0.0670
 2841SOL     OW19981   1.201   2.287   7.865  0.1824  0.5194  0.3088
 2841SOL    HW119982   1.174   2.352   7.929 -1.5895  0.7823 -0.7009
 2841SOL    HW219983   1.153   2.208   7.889 -2.2297  1.6881 -0.6173
 2842SOL     OW19984   1.572   0.855   8.613 -0.6692 -0.5045  0.2205
 2842SOL    HW119985   1.598   0.802   8.689  0.2102  0.9352  0.9164
 2842SOL    HW219986   1.616   0.802   8.546 -2.3842 -2.6502  0.7859
 2843SOL     OW19987   0.878   2.803  15.645  0.3295 -0.3297 -0.3096
 2843SOL    HW119988   0.941   2.800  15.572  1.4058  2.5939  0.4837
 2843SOL    HW219989   0.816   2.738  15.613  0.3596 -1.7513  2.5633
 2844SOL     OW19990   0.254   0.757   8.045  0.1578 -0.5466 -0.4467
 2844SOL    HW119991   0.205   0.803   7.977  0.6621 -0.3688 -0.6832
 2844SOL    HW219992   0.177   0.766   8.101  1.3988  2.4548  0.7642
 2845SOL     OW19993   0.058   3.242   8.309  0.4968 -0.1921 -0.2337
 2845SOL    HW119994   0.002   3.166   8.296  1.2945 -0.4526 -2.1819
 2845SOL    HW219995   0.001   3.307   8.268  1.2173  0.1450 -0.7153
 2846SOL     OW19996   0.386   2.147   7.001 -0.2816 -0.6476 -0.6807
 2846SOL    HW119997   0.454   2.079   7.002 -0.5305 -0.8862  1.2576
 2846SOL    HW219998   0.365   2.147   6.908  1.9820 -0.1210 -1.2096
 2847SOL     OW19999   2.162   3.444   3.580 -0.3692 -0.2796 -0.1798
 2847SOL    HW120000   2.221   3.519   3.588  0.0738 -0.6467 -0.0276
 2847SOL    HW220001   2.074   3.481   3.568 -1.0362 -0.8459  2.7622
 2848SOL     OW20002   3.511   0.534   2.812  0.1055  0.4872 -0.3556
 2848SOL    HW120003   3.594   0.487   2.814 -0.7223 -0.9207  0.5842
 2848SOL    HW220004   3.546   0.619   2.785  1.9036 -0.2019 -0.2027
 2849SOL     OW20005   3.457   2.225   2.692 -0.3533 -0.6246 -0.2355
 2849SOL    HW120006   3.480   2.243   2.600 -2.0548  3.3759  0.1327
 2849SOL    HW220007   3.541   2.210   2.735 -0.4174 -2.5787 -0.8066
 2850SOL     OW20008   3.583   0.436   9.711 -0.2777  0.6226 -0.5309
 2850SOL    HW120009   3.502   0.442   9.762 -1.2701 -0.6856 -1.9354
 2850SOL    HW220010   3.550   0.375   9.644  1.0572 -2.0062  1.2055
 2851SOL     OW20011   2.557   1.327  12.235  0.5021  0.4680  0.7265
 2851SOL    HW120012   2.619   1.370  12.294 -1.8618  0.2274  3.4321
 2851SOL    HW220013   2.614   1.254  12.215 -1.1458  0.1974 -2.9189
 2852SOL     OW20014   4.638   0.330   6.925 -0.3128 -0.0601  0.1282
 2852SOL    HW120015   4.572   0.321   6.994 -0.3908  1.1040  0.2076
 2852SOL    HW220016   4.603   0.397   6.866  0.2948  0.1261 -0.0179
 2853SOL     OW20017   1.940   1.061   3.118 -0.0562 -0.9776  0.1457
 2853SOL    HW120018   1.848   1.086   3.110  0.4107  1.1142  1.4691
 2853SOL    HW220019   1.943   0.970   3.148 -1.6663 -1.5434 -1.3553
 2854SOL     OW20020   1.366   2.995   8.998  0.3274  0.3169 -0.5542
 2854SOL    HW120021   1.425   3.065   9.023 -1.1131  0.9421  1.0969
 2854SOL    HW220022   1.295   3.014   9.059 -0.7147 -1.1171 -1.3245
 2855SOL     OW20023   3.961   2.806   4.011  0.5306 -0.9372 -0.4171
 2855SOL    HW120024   4.001   2.798   4.098 -0.5113 -1.5882  0.0035
 2855SOL    HW220025   3.867   2.822   4.024  0.4422 -1.9429  0.1545
 2856SOL     OW20026   1.483   4.186   5.950 -0.1427  0.0820 -0.5078
 2856SOL    HW120027   1.526   4.262   5.989 -0.3918  1.3660 -2.7234
 2856SOL    HW220028   1.454   4.201   5.860  1.0456  0.3077 -0.8590
 2857SOL     OW20029   1.660   3.469   3.980  0.9456  0.4313  0.2669
 2857SOL    HW120030   1.661   3.401   3.912 -0.4235 -0.3481  1.0295
 2857SOL    HW220031   1.568   3.493   3.986  0.7860 -0.6650  2.0716
 2858SOL     OW20032   2.483   4.493   6.808  0.1024  0.6851  0.3347
 2858SOL    HW120033   2.526   4.578   6.797  0.7503  0.6868  2.8364
 2858SOL    HW220034   2.391   4.517   6.800  0.5478  1.4558 -2.2921
 2859SOL     OW20035   0.258   3.034  16.077 -0.0696  0.1126 -0.0058
 2859SOL    HW120036   0.289   3.076  16.157  1.1143  0.2856 -0.5479
 2859SOL    HW220037   0.347   3.029  16.042 -0.3285 -4.3177 -0.0581
 2860SOL     OW20038   2.647   3.494   9.645 -0.0517  0.3478  0.0010
 2860SOL    HW120039   2.705   3.455   9.710  0.4209 -0.0136 -0.6291
 2860SOL    HW220040   2.714   3.526   9.584  0.4816 -2.6091 -0.9785
 2861SOL     OW20041   0.287   0.697   1.961  0.6127  0.0111  0.2273
 2861SOL    HW120042   0.373   0.697   1.919 -1.1348 -1.9484 -3.2563
 2861SOL    HW220043   0.272   0.791   1.967 -0.4561 -0.1149 -0.5841
 2862SOL     OW20044   0.262   4.565   9.522 -0.3285  0.7413  0.1595
 2862SOL    HW120045   0.186   4.519   9.557 -0.8262  2.3235  1.1337
 2862SOL    HW220046   0.236   4.569   9.430 -0.5745 -2.4135  0.1041
 2863SOL     OW20047   2.808   1.908   4.495  0.4693 -0.1796 -0.3736
 2863SOL    HW120048   2.850   1.897   4.580  1.0851  2.3514 -0.3497
 2863SOL    HW220049   2.723   1.866   4.510  1.3921 -3.1027 -3.0342
 2864SOL     OW20050   2.574   0.907   9.628 -0.2231 -0.2106  0.1228
 2864SOL    HW120051   2.668   0.912   9.641 -0.2515 -1.3122  0.7235
 2864SOL    HW220052   2.549   0.998   9.646  0.4727 -0.5307  2.6429
 2865SOL     OW20053   1.589   2.306   7.250  0.8604 -0.0009  0.0928
 2865SOL    HW120054   1.639   2.302   7.168 -0.2887 -0.7398 -0.5704
 2865SOL    HW220055   1.513   2.359   7.228 -0.3133 -0.9364  1.8967
 2866SOL     OW20056   1.468   1.674   7.546  0.0832  0.6490 -0.3303
 2866SOL    HW120057   1.436   1.657   7.458 -0.5479 -2.0505  0.4128
 2866SOL    HW220058   1.501   1.586   7.566 -2.3728 -0.6256 -1.8330
 2867SOL     OW20059   0.100   1.738   1.945 -0.5985  0.3464  0.5857
 2867SOL    HW120060   0.099   1.642   1.954  2.1997  0.0644 -2.1220
 2867SOL    HW220061   0.010   1.751   1.915 -0.2345  2.1232  0.2940
 2868SOL     OW20062   2.254   1.308   7.967  0.6623  0.1162  0.4814
 2868SOL    HW120063   2.163   1.338   7.963  1.1324  1.4120 -0.5280
 2868SOL    HW220064   2.241   1.216   7.987  0.0148  0.1402  0.1599
 2869SOL     OW20065   3.594   1.737   5.848 -0.0960 -0.2037 -0.6843
 2869SOL    HW120066   3.551   1.803   5.793  0.9800  0.6191 -0.5380
 2869SOL    HW220067   3.520   1.680   5.869  0.0949 -0.5896 -1.0654
 2870SOL     OW20068   1.212   1.769  12.503  0.0839 -0.0823 -0.0675
 2870SOL    HW120069   1.294   1.820  12.500  0.7474 -1.2870 -2.3414
 2870SOL    HW220070   1.190   1.775  12.596  0.4469  2.0900 -0.1104
 2871SOL     OW20071   3.398   1.075   7.855  0.2005  0.2028  0.4035
 2871SOL    HW120072   3.417   1.071   7.761  1.4169  0.1818  0.6501
 2871SOL    HW220073   3.432   1.155   7.895 -0.1905  0.4997  0.1367
 2872SOL     OW20074   4.191   0.101  14.592  0.4681  0.0602  0.1173
 2872SOL    HW120075   4.274   0.058  14.574  0.8779  0.4467  1.1045
 2872SOL    HW220076   4.128   0.035  14.563 -1.1245  0.9396  1.5336
 2873SOL     OW20077   0.852   2.291  16.763  0.5235 -0.3056  0.2035
 2873SOL    HW120078   0.815   2.208  16.732  0.7033  0.2782 -1.5932
 2873SOL    HW220079   0.865   2.280  16.857 -3.1464  1.9143  0.9440
 2874SOL     OW20080   3.151   1.626   5.219 -0.6920  0.6380 -0.1290
 2874SOL    HW120081   3.234   1.664   5.246  2.5348 -4.8311 -2.3678
 2874SOL    HW220082   3.145   1.658   5.129 -2.2918  1.4075  0.2514
 2875SOL     OW20083   4.580   0.502   8.495 -0.1426  0.4346 -0.7755
 2875SOL    HW120084   4.619   0.578   8.539  0.3575 -0.0933 -0.3069
 2875SOL    HW220085   4.588   0.536   8.406 -1.9299 -1.7566 -1.7828
 2876SOL     OW20086   0.858   1.927   8.155  0.0870 -0.4982  0.7421
 2876SOL    HW120087   0.821   1.847   8.117  0.9015 -0.7050  0.3908
 2876SOL    HW220088   0.779   1.972   8.186 -0.4700 -0.5002 -0.6841
 2877SOL     OW20089   2.116   2.275   7.832  0.0362 -0.0586 -0.8854
 2877SOL    HW120090   2.022   2.291   7.834  0.2981  1.3518 -0.3511
 2877SOL    HW220091   2.130   2.189   7.791 -0.8290 -0.5253 -0.2014
 2878SOL     OW20092   0.676   0.154   4.298  0.3158 -0.0733  0.1963
 2878SOL    HW120093   0.654   0.097   4.224  0.5853  2.9154 -2.1880
 2878SOL    HW220094   0.626   0.236   4.296  0.8607  0.2984  1.9901
 2879SOL     OW20095   4.703   1.846  12.151 -0.0105  0.2488 -0.4296
 2879SOL    HW120096   0.019   1.840  12.064  0.0787  1.3375 -0.4621
 2879SOL    HW220097   4.718   1.938  12.172  0.5191  0.1262 -0.2698
 2880SOL     OW20098   1.449   1.916   3.728  0.2168 -0.5536  0.2851
 2880SOL    HW120099   1.518   1.970   3.768  0.3092  0.3110 -1.0503
 2880SOL    HW220100   1.374   1.940   3.783  0.6114  0.4001  0.4042
 2881SOL     OW20101   0.534   2.399   2.453 -0.1560  0.0117  0.0851
 2881SOL    HW120102   0.467   2.441   2.507  0.7924  0.2983  1.0384
 2881SOL    HW220103   0.518   2.442   2.369 -0.8909  0.7438  0.6003
 2882SOL     OW20104   0.181   1.980   5.571  0.2852  0.3395 -0.2065
 2882SOL    HW120105   0.254   1.921   5.589 -0.4170 -0.2878  0.6070
 2882SOL    HW220106   0.209   2.006   5.484 -2.6342 -1.3887 -1.6550
 2883SOL     OW20107   3.704   0.590  10.235 -0.4162  0.5269 -0.3798
 2883SOL    HW120108   3.643   0.520  10.259 -0.9414  0.7782 -0.9815
 2883SOL    HW220109   3.684   0.658  10.300  1.1716  1.2143 -0.6280
 2884SOL     OW20110   0.167   1.967  10.779 -0.0767  0.2675 -0.1217
 2884SOL    HW120111   0.087   2.016  10.799 -0.4001  0.4325 -1.7606
 2884SOL    HW220112   0.130   1.918  10.705 -0.8318  0.0407  0.4077
 2885SOL     OW20113   3.175   0.097  13.521  0.7378 -0.2604 -0.2945
 2885SOL    HW120114   3.257   0.141  13.498  1.5146 -1.0598  0.9953
 2885SOL    HW220115   3.116   0.137  13.457  0.8106 -0.2893 -0.3799
 2886SOL     OW20116   1.943   2.555  10.811  0.3263 -0.1627  0.0485
 2886SOL    HW120117   1.999   2.613  10.759  0.1169  0.5445  0.6115
 2886SOL    HW220118   2.005   2.522  10.877  1.5881  2.2021  0.0487
 2887SOL     OW20119   2.598   0.341  15.017  0.0298  0.0567  0.7223
 2887SOL    HW120120   2.507   0.327  14.994  0.1353  2.4332 -1.0588
 2887SOL    HW220121   2.588   0.408  15.085  1.0088 -0.4299  1.3541
 2888SOL     OW20122   4.074   2.838   5.427  0.0478 -0.3859 -0.1479
 2888SOL    HW120123   4.107   2.850   5.339  1.0961 -0.3473  0.2542
 2888SOL    HW220124   4.152   2.828   5.481 -1.3555 -1.2058  1.7558
 2889SOL     OW20125   1.544   2.991   7.676 -0.6056  0.0836 -0.1643
 2889SOL    HW120126   1.630   2.952   7.661 -1.3066 -1.3195 -0.5048
 2889SOL    HW220127   1.527   3.037   7.593  1.3591 -0.7175 -1.0023
 2890SOL     OW20128   3.765   2.120   5.071  0.2945 -0.7857 -0.9111
 2890SOL    HW120129   3.788   2.176   4.998  1.3140 -0.6348 -0.4870
 2890SOL    HW220130   3.772   2.185   5.141  2.1304  0.2570 -2.0583
 2891SOL     OW20131   1.336   3.938   5.805  0.4619 -0.8124 -0.1049
 2891SOL    HW120132   1.340   3.969   5.714  2.0911  0.5201  0.4115
 2891SOL    HW220133   1.311   4.019   5.850 -0.2078 -1.2448  0.2994
 2892SOL     OW20134   3.946   2.469   4.794 -0.3696 -0.3543  0.3030
 2892SOL    HW120135   4.036   2.494   4.815 -0.9051  1.7281  0.1518
 2892SOL    HW220136   3.943   2.393   4.851 -1.1275 -1.5288 -1.3091
 2893SOL     OW20137   1.358   4.046   3.755 -0.2899 -0.3532 -0.0415
 2893SOL    HW120138   1.412   4.112   3.713 -1.4676  0.6491  0.0382
 2893SOL    HW220139   1.368   3.975   3.691 -0.3279  0.1718 -0.6253
 2894SOL     OW20140   0.612   2.152   6.008  0.3771 -0.4718  0.4407
 2894SOL    HW120141   0.691   2.098   6.008  0.7234  0.0401 -0.5885
 2894SOL    HW220142   0.567   2.144   6.093  0.3433 -3.4850  0.1322
 2895SOL     OW20143   4.567   2.039   7.243  0.3825  0.2039  0.5792
 2895SOL    HW120144   4.609   1.952   7.246  0.9241  0.4256 -0.4438
 2895SOL    HW220145   4.496   2.031   7.307 -0.4191 -0.8986 -0.4550
 2896SOL     OW20146   3.433   4.619   5.415 -0.4734 -0.6296  0.0256
 2896SOL    HW120147   3.526   4.608   5.394 -0.0374  1.5601  0.8071
 2896SOL    HW220148   3.420   4.699   5.465  0.0603 -0.0067 -0.8327
 2897SOL     OW20149   1.189   2.412  10.237 -0.3242  0.0734  0.0493
 2897SOL    HW120150   1.197   2.346  10.167  0.1622  1.2516 -1.0055
 2897SOL    HW220151   1.282   2.425  10.257  0.4836 -1.1238 -2.9465
 2898SOL     OW20152   0.195   3.322   5.844 -0.2487  0.0046 -0.0226
 2898SOL    HW120153   0.270   3.344   5.789 -1.6217  1.2572 -1.3871
 2898SOL    HW220154   0.160   3.411   5.849 -3.1524 -1.2172  1.8752
 2899SOL     OW20155   1.865   4.565   7.184  0.3868  0.5428 -0.5009
 2899SOL    HW120156   1.839   4.524   7.266 -0.3120  3.2768  0.6376
 2899SOL    HW220157   1.781   4.567   7.138 -0.4529  0.8269  1.0285
 2900SOL     OW20158   0.791   0.149  10.865 -0.0463 -0.3776 -0.2792
 2900SOL    HW120159   0.875   0.107  10.848  0.2490 -0.5025  1.4851
 2900SOL    HW220160   0.765   0.163  10.774 -2.1192 -1.1936  0.1755
 2901SOL     OW20161   0.451   3.358   5.727  0.6979  0.2209 -0.8958
 2901SOL    HW120162   0.458   3.350   5.632  0.4257 -0.4479 -0.8591
 2901SOL    HW220163   0.538   3.378   5.762  0.6515  0.7624 -1.0940
 2902SOL     OW20164   3.542   2.874   5.178  0.1493  0.2659  0.1577
 2902SOL    HW120165   3.636   2.872   5.164 -0.0231 -2.1249 -0.5305
 2902SOL    HW220166   3.522   2.958   5.220 -0.7632  0.4784 -0.7160
 2903SOL     OW20167   1.161   0.839  14.983  0.2899 -0.2233  1.0428
 2903SOL    HW120168   1.223   0.901  15.020 -0.0512  0.0621  1.1380
 2903SOL    HW220169   1.088   0.901  14.982 -0.3218 -0.9752 -0.6234
 2904SOL     OW20170   2.789   0.999   7.407 -0.2301 -0.2062 -0.3676
 2904SOL    HW120171   2.756   1.086   7.430  0.6939 -0.1731  0.8084
 2904SOL    HW220172   2.748   0.947   7.475  0.4467  0.1100  0.2815
 2905SOL     OW20173   2.476   1.695   8.768 -0.2555  0.1113 -0.0350
 2905SOL    HW120174   2.399   1.748   8.789  0.1738  1.6785 -2.4499
 2905SOL    HW220175   2.476   1.708   8.673  3.7654 -0.5450 -0.1353
 2906SOL     OW20176   2.319   4.246   3.532 -0.2037  0.4290  0.1150
 2906SOL    HW120177   2.272   4.329   3.542  0.8965  0.7757  2.5119
 2906SOL    HW220178   2.304   4.234   3.438 -1.2054 -0.5798  0.4022
 2907SOL     OW20179   2.713   4.161   6.020  0.1282 -0.2741 -0.0263
 2907SOL    HW120180   2.719   4.148   5.925 -0.3205 -1.4975  0.1114
 2907SOL    HW220181   2.680   4.251   6.024  1.4100  0.2381 -0.8117
 2908SOL     OW20182   0.238   0.878  14.781 -0.1334  0.5151 -0.2645
 2908SOL    HW120183   0.328   0.875  14.814 -0.1320  4.4269  0.1511
 2908SOL    HW220184   0.238   0.841  14.693  1.3315  0.1882 -0.1263
 2909SOL     OW20185   2.842   3.745   9.327  0.1768  1.0829  0.1762
 2909SOL    HW120186   2.880   3.740   9.240  0.2955 -0.2337  0.2963
 2909SOL    HW220187   2.922   3.724   9.376  1.2284  3.4750 -0.5579
 2910SOL     OW20188   0.935   1.631  15.988  0.3165  0.1323  0.1772
 2910SOL    HW120189   0.965   1.702  15.931  0.4752 -0.8562 -0.9697
 2910SOL    HW220190   0.878   1.577  15.934  1.6927 -1.7603  0.6139
 2911SOL     OW20191   3.089   1.606   8.697 -0.3091  0.2960  0.0808
 2911SOL    HW120192   3.154   1.560   8.750  0.7956  0.1287 -1.3898
 2911SOL    HW220193   3.120   1.576   8.611  2.5689  2.1927  0.4377
 2912SOL     OW20194   2.318   4.626   4.301  0.4398 -0.0433 -0.4311
 2912SOL    HW120195   2.365   4.592   4.225  2.6374  0.8332  0.5228
 2912SOL    HW220196   2.282   4.707   4.266  0.0642 -0.3121 -0.6696
 2913SOL     OW20197   4.645   4.144   7.390 -0.1004 -0.4081  0.1452
 2913SOL    HW120198   4.564   4.143   7.440 -0.9221  0.3206 -1.1900
 2913SOL    HW220199   4.638   4.064   7.338  0.5499  1.8104 -3.3247
 2914SOL     OW20200   4.485   3.556   3.318 -0.1172  0.1818 -0.2280
 2914SOL    HW120201   4.475   3.526   3.227  1.0094  0.9927 -0.6250
 2914SOL    HW220202   4.404   3.596   3.349 -0.4007 -0.3270 -0.3142
 2915SOL     OW20203   0.942   2.666   1.043  0.4628 -0.0232  0.1697
 2915SOL    HW120204   0.900   2.581   1.058  1.5927 -0.2563  1.9444
 2915SOL    HW220205   1.021   2.640   0.997  0.8854  1.2492  0.1958
 2916SOL     OW20206   2.884   1.949  15.912 -0.2084  0.1918  0.1773
 2916SOL    HW120207   2.953   1.893  15.949 -0.6649 -1.4054 -1.3892
 2916SOL    HW220208   2.835   1.968  15.992 -1.5612 -0.4732 -0.4914
 2917SOL     OW20209   0.014   4.313   2.238  0.2480 -0.5762 -0.6334
 2917SOL    HW120210   0.074   4.355   2.178  1.5020 -2.5961 -0.7970
 2917SOL    HW220211   0.017   4.218   2.223  2.3361 -0.5371 -0.3868
 2918SOL     OW20212   0.728   3.964  10.546  0.1731 -0.1743 -1.2387
 2918SOL    HW120213   0.749   3.954  10.639 -1.5579 -0.3655 -0.8710
 2918SOL    HW220214   0.635   3.943  10.554  1.0623 -3.4069  0.6660
 2919SOL     OW20215   0.774   0.746   3.086  0.2987  0.4562 -0.8437
 2919SOL    HW120216   0.752   0.708   3.000  0.9074 -2.7878  0.4308
 2919SOL    HW220217   0.760   0.837   3.062 -2.0101  0.3849  0.2407
 2920SOL     OW20218   4.207   0.865   3.163  0.2818 -0.4343  0.2055
 2920SOL    HW120219   4.292   0.908   3.152 -0.8560  2.0578  1.1439
 2920SOL    HW220220   4.209   0.796   3.098 -1.0074 -0.3506  0.0869
 2921SOL     OW20221   2.807   2.066   2.760  0.3153  1.0750  0.3986
 2921SOL    HW120222   2.778   2.113   2.681 -2.2837 -3.3214 -1.2609
 2921SOL    HW220223   2.812   1.975   2.729 -2.2854  0.8022  0.7710
 2922SOL     OW20224   0.894   1.498  12.165 -0.4729  0.1386 -0.1667
 2922SOL    HW120225   0.975   1.523  12.211 -0.7469  1.3095 -0.3218
 2922SOL    HW220226   0.910   1.538  12.080  2.6716 -1.1739 -0.2259
 2923SOL     OW20227   3.738   1.266   3.822 -0.0443  0.2984  0.0872
 2923SOL    HW120228   3.680   1.338   3.797  0.1882  0.7435  0.8300
 2923SOL    HW220229   3.773   1.241   3.736  1.0516 -1.1028  0.9512
 2924SOL     OW20230   3.998   0.107   3.956 -0.3204 -0.0851 -0.0058
 2924SOL    HW120231   3.908   0.115   3.988 -0.3385  0.8055 -0.2712
 2924SOL    HW220232   3.990   0.144   3.868  3.8714  0.5903 -0.0797
 2925SOL     OW20233   4.281   1.099   8.452  0.3149 -0.4016  0.1213
 2925SOL    HW120234   4.348   1.165   8.434  0.9540 -0.3343  2.7074
 2925SOL    HW220235   4.303   1.025   8.396  0.1471  0.9247 -1.6993
 2926SOL     OW20236   1.360   1.432   9.364  0.0305  0.2894 -0.5779
 2926SOL    HW120237   1.432   1.405   9.307  2.0419  0.3759  1.9298
 2926SOL    HW220238   1.365   1.361   9.428  2.5840  1.5102  0.6137
 2927SOL     OW20239   1.338   3.220   5.170  0.5730 -0.2789 -0.4894
 2927SOL    HW120240   1.374   3.300   5.207  0.3369  0.5628 -2.1093
 2927SOL    HW220241   1.292   3.255   5.094 -1.2666 -0.2974  0.6141
 2928SOL     OW20242   2.510   1.656  13.801  0.1285 -0.1564 -0.1658
 2928SOL    HW120243   2.544   1.596  13.734 -2.8533 -1.1498 -0.7867
 2928SOL    HW220244   2.593   1.676  13.844  0.0970  0.8705 -0.5802
 2929SOL     OW20245   0.795   1.867   7.396 -0.5479  0.5024 -0.2855
 2929SOL    HW120246   0.726   1.933   7.391 -0.1818  1.0602  1.7017
 2929SOL    HW220247   0.870   1.926   7.405 -2.0936  2.0618  2.3499
 2930SOL     OW20248   2.761   1.287   8.890  0.8323 -0.2445  0.4118
 2930SOL    HW120249   2.740   1.381   8.897  4.3450  0.4000  2.1054
 2930SOL    HW220250   2.776   1.272   8.983 -2.1322  1.6180  1.1887
 2931SOL     OW20251   2.222   0.900  12.411 -0.0205  0.0961  0.2448
 2931SOL    HW120252   2.146   0.957  12.426  0.9836  1.2660  0.8548
 2931SOL    HW220253   2.199   0.821  12.461  0.5076  1.3875  2.5117
 2932SOL     OW20254   3.921   3.489   2.550  0.0786 -0.0273  0.2157
 2932SOL    HW120255   4.008   3.478   2.511  0.7537  0.4817  1.5892
 2932SOL    HW220256   3.858   3.471   2.480  0.1757  1.0882 -0.1513
 2933SOL     OW20257   4.176   1.703  17.066  0.5568 -0.5112 -0.1214
 2933SOL    HW120258   4.147   1.762  17.136 -0.4985  1.1812 -1.9843
 2933SOL    HW220259   4.232   1.767  17.022 -0.1692  1.0670  1.2570
 2934SOL     OW20260   2.268   3.609  13.632 -0.2515 -0.3554 -0.2920
 2934SOL    HW120261   2.238   3.570  13.715 -1.2240 -1.7273 -1.2832
 2934SOL    HW220262   2.362   3.611  13.651 -0.0913  1.0333 -1.2857
 2935SOL     OW20263   1.458   2.204   5.423 -0.1252 -0.3013 -0.0654
 2935SOL    HW120264   1.535   2.231   5.373 -0.0027  1.9170  1.3500
 2935SOL    HW220265   1.419   2.181   5.338  0.0795  0.9928 -0.5035
 2936SOL     OW20266   4.698   3.377   2.744 -0.3410  0.1274 -0.3201
 2936SOL    HW120267   0.043   3.423   2.792  0.2726 -0.6199 -0.4938
 2936SOL    HW220268   4.671   3.456   2.698  0.2196 -0.3589 -1.4914
 2937SOL     OW20269   1.597   3.217  10.392  0.5514  1.1173 -0.0326
 2937SOL    HW120270   1.651   3.148  10.430  0.9342  0.6285 -1.4358
 2937SOL    HW220271   1.589   3.197  10.298 -2.9566 -0.0000  0.5217
 2938SOL     OW20272   1.607   3.776   7.625 -0.0426  0.2355 -0.0067
 2938SOL    HW120273   1.527   3.811   7.585 -1.5125 -0.5352  2.3331
 2938SOL    HW220274   1.645   3.749   7.541 -0.3732 -1.7628  0.5108
 2939SOL     OW20275   2.288   2.689  13.580 -0.2356 -0.7136 -0.6461
 2939SOL    HW120276   2.356   2.756  13.574 -0.6444 -0.1394  1.3113
 2939SOL    HW220277   2.323   2.620  13.523 -3.0347 -2.4388 -0.2531
 2940SOL     OW20278   2.758   3.646   7.004  0.1920  0.0714  0.0433
 2940SOL    HW120279   2.717   3.657   6.918  1.7521  1.8936 -0.4699
 2940SOL    HW220280   2.742   3.729   7.049 -0.7510  0.9393 -1.8298
 2941SOL     OW20281   4.086   2.819  15.600 -0.0328  0.0922 -0.0736
 2941SOL    HW120282   4.007   2.768  15.620  0.9557 -1.4867 -0.2270
 2941SOL    HW220283   4.148   2.770  15.653 -1.5430 -0.9870  0.7035
 2942SOL     OW20284   4.689   0.531   2.471 -0.4098 -0.0055  0.6246
 2942SOL    HW120285   4.695   0.544   2.566 -0.6553 -0.1578  0.6616
 2942SOL    HW220286   4.602   0.491   2.468  0.5771 -2.2158  1.1266
 2943SOL     OW20287   2.192   2.976  10.100  0.1057  0.0927 -0.1733
 2943SOL    HW120288   2.176   2.890  10.062  0.6549  1.6102 -3.8503
 2943SOL    HW220289   2.138   2.963  10.178  0.1875 -2.1781 -0.4859
 2944SOL     OW20290   1.873   1.165   2.770 -0.3756  0.7774  0.4346
 2944SOL    HW120291   1.904   1.074   2.773 -3.8849 -0.4088  1.4330
 2944SOL    HW220292   1.939   1.197   2.831 -0.4342  1.9714 -0.1401
 2945SOL     OW20293   3.628   3.862  15.217 -0.2193  0.5543  0.0585
 2945SOL    HW120294   3.711   3.876  15.171  0.1274 -0.7224  0.2994
 2945SOL    HW220295   3.636   3.917  15.294  0.8354 -0.7123  0.8365
 2946SOL     OW20296   1.253   2.899  13.904 -0.3378  0.2979  0.2198
 2946SOL    HW120297   1.178   2.950  13.935  2.1491  3.6624  0.6717
 2946SOL    HW220298   1.211   2.819  13.872  0.1269 -0.0588  0.5000
 2947SOL     OW20299   2.206   2.879   5.771  0.3416 -0.4994  0.4651
 2947SOL    HW120300   2.122   2.873   5.725  1.7084 -0.9634 -1.9760
 2947SOL    HW220301   2.262   2.923   5.707  1.7377 -1.2431  1.1644
 2948SOL     OW20302   3.994   1.664   2.624 -0.0167 -0.3693 -0.2093
 2948SOL    HW120303   4.054   1.609   2.673  0.7225  0.7758  0.1781
 2948SOL    HW220304   4.055   1.714   2.570 -0.0535 -0.7045 -0.5610
 2949SOL     OW20305   2.354   3.231   4.598 -0.0075 -0.3080  0.0028
 2949SOL    HW120306   2.392   3.305   4.550 -1.7614  0.8968  0.4498
 2949SOL    HW220307   2.265   3.235   4.561  1.0496  0.7144 -2.4080
 2950SOL     OW20308   2.245   1.415   2.055 -0.3871 -0.3992 -0.1914
 2950SOL    HW120309   2.235   1.337   2.109  1.5344 -0.8306 -0.4509
 2950SOL    HW220310   2.293   1.397   1.975  1.2289  1.4117  0.3483
 2951SOL     OW20311   3.818   2.028  13.565 -0.2118  0.5147  0.2235
 2951SOL    HW120312   3.778   2.104  13.522  0.7022  1.7127  1.4942
 2951SOL    HW220313   3.878   2.069  13.626  0.0170 -1.3422  1.2540
 2952SOL     OW20314   2.545   2.858   0.802  0.3496 -0.0804  0.1652
 2952SOL    HW120315   2.502   2.784   0.760  1.1027  0.3211 -1.3003
 2952SOL    HW220316   2.473   2.898   0.851 -0.5521 -0.7604 -0.6171
 2953SOL     OW20317   2.074   4.281   9.023  0.5175  0.3464  0.0999
 2953SOL    HW120318   2.117   4.200   8.997 -1.1740 -0.4819 -0.1278
 2953SOL    HW220319   2.134   4.323   9.084 -0.4496  0.6688  0.8348
 2954SOL     OW20320   4.485   3.230   2.661 -0.7874 -0.2851  0.4272
 2954SOL    HW120321   4.554   3.292   2.685 -1.3647  0.5092  0.0081
 2954SOL    HW220322   4.492   3.250   2.567  1.4283 -0.9696  0.4328
 2955SOL     OW20323   4.231   1.419   2.275  0.3012  0.4747 -0.2765
 2955SOL    HW120324   4.296   1.446   2.210 -0.4281  1.4037 -0.6231
 2955SOL    HW220325   4.162   1.482   2.255 -0.0686 -0.5421 -2.2116
 2956SOL     OW20326   0.048   0.124   2.968  0.2115 -0.4948  0.0493
 2956SOL    HW120327   0.112   0.163   3.027 -1.8483  0.7842  1.4178
 2956SOL    HW220328   0.092   0.148   2.887  0.8264 -1.0076  0.2337
 2957SOL     OW20329   1.244   1.231   4.316 -0.8009  0.0969 -0.5085
 2957SOL    HW120330   1.287   1.205   4.397  0.4174  1.4751 -0.7216
 2957SOL    HW220331   1.151   1.232   4.339 -0.6919  0.0511 -0.0784
 2958SOL     OW20332   1.205   2.056   6.340  0.1981  0.0362  0.2686
 2958SOL    HW120333   1.163   2.128   6.387 -1.3535 -0.9828  0.4227
 2958SOL    HW220334   1.131   2.008   6.303 -1.6078  1.3895  2.0963
 2959SOL     OW20335   1.733   2.344  13.617 -0.0565 -0.1917 -0.2881
 2959SOL    HW120336   1.656   2.382  13.577 -0.7427 -0.7975  0.4578
 2959SOL    HW220337   1.782   2.423  13.641 -1.1799  0.5739 -0.5729
 2960SOL     OW20338   3.649   3.298   7.723 -0.2672 -0.0152 -0.2394
 2960SOL    HW120339   3.696   3.223   7.687  0.3670 -0.1584  0.8599
 2960SOL    HW220340   3.620   3.259   7.806 -0.1844  1.1363  0.3357
 2961SOL     OW20341   1.122   1.949   2.609  0.3082  1.5176  0.5866
 2961SOL    HW120342   1.191   1.980   2.550  0.7466  0.5087  0.5649
 2961SOL    HW220343   1.050   1.988   2.560  0.3810 -2.6591 -2.7803
 2962SOL     OW20344   4.024   3.194  12.026  0.0773 -0.3242  0.0066
 2962SOL    HW120345   4.080   3.125  11.989 -0.8069  0.8093 -3.4462
 2962SOL    HW220346   4.000   3.243  11.947 -1.0191 -0.1198  0.4679
 2963SOL     OW20347   0.178   2.681   4.329 -0.0336 -0.7447 -0.0793
 2963SOL    HW120348   0.171   2.689   4.234 -1.8915 -1.4903 -0.0119
 2963SOL    HW220349   0.216   2.767   4.343 -1.4205 -0.1822  0.2172
 2964SOL     OW20350   3.675   1.631   6.555  0.1606  0.2403 -0.1342
 2964SOL    HW120351   3.732   1.563   6.518 -0.0227 -1.4732  2.6655
 2964SOL    HW220352   3.607   1.583   6.603 -2.1472  2.3540 -1.3645
 2965SOL     OW20353   1.685   1.405  12.993  0.5198 -0.1940 -0.0007
 2965SOL    HW120354   1.665   1.426  12.901  1.6471 -0.0285 -0.2039
 2965SOL    HW220355   1.762   1.350  12.977  0.4172  0.2233 -1.9382
 2966SOL     OW20356   4.201   1.097   2.035  0.1793  0.0109 -0.4618
 2966SOL    HW120357   4.152   1.093   2.117 -2.4092 -0.1356 -2.0144
 2966SOL    HW220358   4.200   1.192   2.020 -3.3137 -0.1272 -1.1124
 2967SOL     OW20359   2.800   2.973  16.108 -0.3642  0.4201 -0.2724
 2967SOL    HW120360   2.833   2.898  16.059  2.5608  1.3922  0.1661
 2967SOL    HW220361   2.817   2.937  16.195  1.4202  0.4589 -0.5992
 2968SOL     OW20362   4.073   2.162   7.332  0.1841 -0.0246  0.0467
 2968SOL    HW120363   4.026   2.120   7.261  0.9853 -0.0528 -0.4657
 2968SOL    HW220364   4.138   2.219   7.290  1.0297 -0.8142  0.2820
 2969SOL     OW20365   3.562   1.010  14.858 -0.1459  0.5366 -0.5357
 2969SOL    HW120366   3.482   1.050  14.824 -0.5157 -0.0792 -0.3860
 2969SOL    HW220367   3.564   1.065  14.937  1.2294  0.5324 -0.5808
 2970SOL     OW20368   0.580   2.833   5.729  0.1864  0.2252  0.2220
 2970SOL    HW120369   0.589   2.928   5.725 -0.5346  0.2719 -0.2887
 2970SOL    HW220370   0.670   2.805   5.745  0.0770 -0.3979 -0.2542
 2971SOL     OW20371   0.758   3.897   4.672 -0.7963  0.0506 -0.4170
 2971SOL    HW120372   0.847   3.929   4.657 -1.3535  2.4353  1.3153
 2971SOL    HW220373   0.704   3.967   4.634  0.2071  1.0932  0.0796
 2972SOL     OW20374   2.442   0.305   5.138 -0.4539 -0.4374  0.1850
 2972SOL    HW120375   2.425   0.382   5.192  0.4429  1.0889 -1.6982
 2972SOL    HW220376   2.492   0.253   5.201  0.4113 -1.1387 -1.0747
 2973SOL     OW20377   0.624   1.802  11.450 -0.4205  0.8282  0.0827
 2973SOL    HW120378   0.666   1.879  11.488 -0.9488  0.2225  1.9095
 2973SOL    HW220379   0.694   1.742  11.478 -1.3178  0.5313  1.7001
 2974SOL     OW20380   3.511   0.932   4.367 -0.4017 -0.4149  0.1917
 2974SOL    HW120381   3.496   1.026   4.357  0.1043 -0.5396 -1.8539
 2974SOL    HW220382   3.509   0.927   4.462  1.8371 -0.7974  0.2117
 2975SOL     OW20383   1.824   1.724   6.358  0.1244 -0.2043  0.2305
 2975SOL    HW120384   1.742   1.765   6.387  0.7335  0.7907  0.5320
 2975SOL    HW220385   1.791   1.643   6.318 -1.9814  0.8185 -0.1288
 2976SOL     OW20386   2.174   2.053  16.987 -0.3198  0.2044  0.1074
 2976SOL    HW120387   2.087   2.014  16.994 -0.2397  0.2716  1.6086
 2976SOL    HW220388   2.179   2.090  17.075 -1.7689  0.1400  0.2271
 2977SOL     OW20389   0.984   4.460   3.354 -0.3482 -0.2320  0.4426
 2977SOL    HW120390   0.943   4.391   3.301  1.3901  1.1071 -2.6668
 2977SOL    HW220391   0.988   4.420   3.440  0.6698 -0.5608  0.2418
 2978SOL     OW20392   1.968   3.500  14.055 -0.2572 -0.4647 -0.6495
 2978SOL    HW120393   1.932   3.476  14.140 -1.4377 -0.3708 -1.1271
 2978SOL    HW220394   1.921   3.582  14.046  0.2176 -0.4304 -2.6881
 2979SOL     OW20395   0.231   1.986   7.904  0.0657  0.0018 -0.2058
 2979SOL    HW120396   0.160   2.043   7.934  0.6975  0.8869 -0.3556
 2979SOL    HW220397   0.232   2.002   7.810  3.1843  1.3009  0.0401
 2980SOL     OW20398   4.028   3.728   5.836 -0.1955  0.3872  0.0792
 2980SOL    HW120399   3.948   3.759   5.795 -0.3596 -1.6014 -1.1270
 2980SOL    HW220400   3.984   3.685   5.910  0.5975 -1.2766 -0.4169
 2981SOL     OW20401   0.225   4.131   1.080  0.3134 -0.2686 -0.1387
 2981SOL    HW120402   0.301   4.186   1.097  0.2883 -0.3017  0.0728
 2981SOL    HW220403   0.271   4.063   1.029 -0.8450  0.5576 -2.3012
 2982SOL     OW20404   2.645   4.544  12.077  0.3156 -0.2117 -0.0268
 2982SOL    HW120405   2.593   4.602  12.022 -1.2216 -0.6958  0.8952
 2982SOL    HW220406   2.690   4.475  12.028 -2.4146 -1.3433 -0.9912
 2983SOL     OW20407   0.290   2.694   3.509 -0.2536  0.0988  0.4908
 2983SOL    HW120408   0.332   2.616   3.545 -2.7549 -1.5607 -0.1864
 2983SOL    HW220409   0.243   2.730   3.583  0.9296 -0.8085  1.6867
 2984SOL     OW20410   2.231   0.109   8.992  0.1286 -0.5511 -0.0011
 2984SOL    HW120411   2.218   0.026   8.947  1.1740  0.8496 -2.9535
 2984SOL    HW220412   2.218   0.089   9.084  0.4859 -0.6742  0.0210
 2985SOL     OW20413   0.196   1.863   3.544  0.2125  0.3827  0.4520
 2985SOL    HW120414   0.122   1.906   3.501 -1.2791 -2.3749  0.2560
 2985SOL    HW220415   0.273   1.915   3.520  0.9770 -0.9863 -0.0873
 2986SOL     OW20416   0.904   1.017   3.494 -0.3601 -0.7127 -0.1692
 2986SOL    HW120417   0.911   0.993   3.586  0.8882 -0.8187 -0.3026
 2986SOL    HW220418   0.915   0.938   3.441 -0.4796 -1.0512  0.3194
 2987SOL     OW20419   1.365   1.472  15.127  0.1909  0.2717 -0.2362
 2987SOL    HW120420   1.292   1.522  15.164  1.8528  0.0420  3.2897
 2987SOL    HW220421   1.442   1.526  15.144  0.1634  0.9697 -2.3006
 2988SOL     OW20422   3.762   4.491   7.053 -1.0046  0.1795  0.1183
 2988SOL    HW120423   3.787   4.492   7.146 -0.8345 -1.2504  0.0843
 2988SOL    HW220424   3.761   4.585   7.037  0.2231 -0.0186 -1.1963
 2989SOL     OW20425   3.085   3.696   8.439 -0.7807 -0.0985 -0.5156
 2989SOL    HW120426   3.047   3.662   8.520 -1.9969  1.5211 -0.4050
 2989SOL    HW220427   3.087   3.789   8.462 -1.7850 -0.2552  0.1820
 2990SOL     OW20428   4.438   0.892  13.558  0.0353  0.3058  0.1650
 2990SOL    HW120429   4.343   0.903  13.554  0.0380 -0.0764 -0.8156
 2990SOL    HW220430   4.444   0.910  13.652 -1.3202 -1.0740  0.5324
 2991SOL     OW20431   1.536   2.600   9.422  0.0935 -0.2166 -0.7783
 2991SOL    HW120432   1.467   2.595   9.356 -0.1761  0.0720 -0.5229
 2991SOL    HW220433   1.550   2.510   9.452 -0.5400 -0.3697 -0.9501
 2992SOL     OW20434   0.314   2.497  11.105 -0.0630  0.0280 -0.0136
 2992SOL    HW120435   0.401   2.527  11.132  0.5628 -0.8192 -1.0884
 2992SOL    HW220436   0.325   2.403  11.120 -2.4238 -0.3823 -0.8780
 2993SOL     OW20437   3.317   3.035   4.146  0.5738 -0.1834  0.2523
 2993SOL    HW120438   3.407   3.046   4.116  0.4178 -2.6924 -1.1422
 2993SOL    HW220439   3.311   2.943   4.119 -0.3141 -0.6668  2.0870
 2994SOL     OW20440   0.685   2.618   9.373  0.3827 -0.5634 -0.2309
 2994SOL    HW120441   0.687   2.639   9.466 -0.9362 -0.9600 -0.1144
 2994SOL    HW220442   0.763   2.662   9.339  0.0731 -0.0230 -0.2566
 2995SOL     OW20443   2.589   1.531   6.691 -0.1629 -0.2444 -0.3494
 2995SOL    HW120444   2.532   1.603   6.719  2.0937  0.8346  1.5075
 2995SOL    HW220445   2.558   1.464   6.751  0.0152 -1.7961 -2.0092
 2996SOL     OW20446   2.618   3.965  12.989  0.1453  0.2278  0.1839
 2996SOL    HW120447   2.578   4.044  12.954  2.5521  1.1133 -0.5578
 2996SOL    HW220448   2.624   3.908  12.913  2.9167  2.4735 -1.2791
 2997SOL     OW20449   0.313   1.551   7.452  0.7936  0.1681 -0.4866
 2997SOL    HW120450   0.369   1.556   7.374 -2.0671  2.5477 -2.3788
 2997SOL    HW220451   0.272   1.634   7.430  2.7206  1.0844 -0.6291
 2998SOL     OW20452   4.148   2.648   8.050  0.1249 -0.6627  0.1103
 2998SOL    HW120453   4.155   2.722   8.111  1.6701 -1.1536  0.5286
 2998SOL    HW220454   4.069   2.610   8.089 -0.8059  1.3502  0.2344
 2999SOL     OW20455   0.366   3.077   5.156  0.4468  0.0467 -0.3152
 2999SOL    HW120456   0.274   3.100   5.167 -0.3342 -2.5778 -1.1967
 2999SOL    HW220457   0.390   3.018   5.228  0.8658  1.7019  0.8852
 3000SOL     OW20458   3.535   1.240   7.230  0.0753  0.4033  0.6954
 3000SOL    HW120459   3.583   1.159   7.211  1.2464  1.1082  0.5942
 3000SOL    HW220460   3.606   1.303   7.220  0.0450  0.2744 -0.3243
 3001SOL     OW20461   1.577   0.823  15.029 -0.1132 -0.5962  0.3978
 3001SOL    HW120462   1.570   0.780  14.944 -0.2371  0.3314 -0.0695
 3001SOL    HW220463   1.495   0.871  15.033  0.4978  0.3949  1.1376
 3002SOL     OW20464   0.128   2.107   7.422 -0.5122  0.6084  0.0452
 3002SOL    HW120465   0.070   2.172   7.381  0.3302  0.6455 -1.0952
 3002SOL    HW220466   0.136   2.046   7.349  2.0263 -1.2353  1.8812
 3003SOL     OW20467   3.247   3.450  12.102  0.2373 -0.2411 -0.0195
 3003SOL    HW120468   3.316   3.511  12.073  0.1449 -0.5956 -0.9740
 3003SOL    HW220469   3.283   3.369  12.066  0.4500  0.8165 -2.2330
 3004SOL     OW20470   3.593   3.623   2.385  0.6738 -0.0546 -0.4755
 3004SOL    HW120471   3.519   3.629   2.325  0.2489 -0.0602  0.0489
 3004SOL    HW220472   3.627   3.540   2.351  3.0043 -0.1662  2.1450
 3005SOL     OW20473   3.081   0.375   1.511 -0.1830  0.1546  0.7214
 3005SOL    HW120474   2.994   0.413   1.520 -0.5061 -0.3410 -0.3980
 3005SOL    HW220475   3.112   0.425   1.435 -0.9820 -0.7061 -0.1617
 3006SOL     OW20476   2.866   2.478   9.743 -0.1098  0.1198  0.3378
 3006SOL    HW120477   2.862   2.415   9.815  0.2065 -2.2747 -1.7478
 3006SOL    HW220478   2.810   2.445   9.673  0.7330  0.5675 -0.5485
 3007SOL     OW20479   4.611   3.012   3.104 -0.0525  1.0196 -0.2865
 3007SOL    HW120480   4.658   2.967   3.034  0.2999  0.8397  0.0613
 3007SOL    HW220481   4.562   3.075   3.051 -0.1760  0.8933 -0.3208
 3008SOL     OW20482   4.006   1.205   4.643 -0.1860  0.1562 -0.1467
 3008SOL    HW120483   4.102   1.199   4.642 -0.2165 -0.5136  0.6067
 3008SOL    HW220484   3.994   1.148   4.567 -2.0978  0.0878  0.2043
 3009SOL     OW20485   0.988   3.195   3.084 -0.4690 -0.0816  0.3241
 3009SOL    HW120486   0.971   3.280   3.124 -1.3962  0.3985 -1.0890
 3009SOL    HW220487   0.923   3.137   3.122  0.4109 -0.5867  1.0505
 3010SOL     OW20488   3.476   2.341   2.450 -0.0348 -0.1119  0.5284
 3010SOL    HW120489   3.426   2.418   2.479 -0.0171  0.6104 -1.3229
 3010SOL    HW220490   3.524   2.376   2.374  1.5301 -0.5971  1.2988
 3011SOL     OW20491   0.240   0.516  16.234 -0.5733  0.1695 -0.2228
 3011SOL    HW120492   0.332   0.538  16.248 -0.5318 -0.0012 -0.2274
 3011SOL    HW220493   0.254   0.422  16.226  2.4011  0.8045 -2.8809
 3012SOL     OW20494   2.968   2.718   9.052  0.0816 -0.0540 -0.1815
 3012SOL    HW120495   2.890   2.773   9.065 -0.8763 -1.4705 -0.0158
 3012SOL    HW220496   3.022   2.771   9.112 -0.9422  0.4925  0.2712
 3013SOL     OW20497   2.414   4.426   5.774 -0.6939 -0.5970  0.6524
 3013SOL    HW120498   2.341   4.368   5.751 -0.8949 -0.2781  0.4846
 3013SOL    HW220499   2.453   4.445   5.688 -0.3213 -0.9906  0.7337
 3014SOL     OW20500   3.522   3.475   2.747  0.5211  0.6201 -0.7078
 3014SOL    HW120501   3.608   3.436   2.766  0.7890  0.8478 -1.4359
 3014SOL    HW220502   3.555   3.557   2.710 -0.0473  1.6747  1.0980
 3015SOL     OW20503   1.258   3.683  17.037  0.1621  0.1610 -0.2103
 3015SOL    HW120504   1.345   3.719  17.054  0.3783 -0.8123  0.6992
 3015SOL    HW220505   1.253   3.690  16.942 -0.2299 -0.3270 -0.2279
 3016SOL     OW20506   4.051   0.136  17.000 -0.0405 -0.0707 -0.1913
 3016SOL    HW120507   3.994   0.212  17.013 -1.1388 -0.7512 -1.0915
 3016SOL    HW220508   4.022   0.124  16.910 -0.4547 -2.0062  0.2035
 3017SOL     OW20509   1.672   0.944   5.345 -0.6653 -0.2770 -0.2091
 3017SOL    HW120510   1.641   1.032   5.364 -0.8200 -0.1809 -0.8963
 3017SOL    HW220511   1.687   0.949   5.250 -1.3262 -0.1501 -0.3069
 3018SOL     OW20512   1.870   1.763   5.921  0.3906  0.0268 -0.0673
 3018SOL    HW120513   1.951   1.780   5.873 -0.5353  0.2784 -1.5259
 3018SOL    HW220514   1.842   1.851   5.946 -1.4409 -0.6282  0.1628
 3019SOL     OW20515   4.618   4.530   8.373  0.1097  0.4593  0.2577
 3019SOL    HW120516   4.678   4.485   8.313 -0.1103  1.5253 -0.7716
 3019SOL    HW220517   4.639   4.621   8.353  1.4850  0.1894  0.5299
 3020SOL     OW20518   2.775   2.232   2.247 -0.4826 -0.2168 -0.0389
 3020SOL    HW120519   2.720   2.166   2.288  0.0363 -1.4524 -1.3085
 3020SOL    HW220520   2.702   2.293   2.243 -0.1276  0.2047 -0.1056
 3021SOL     OW20521   3.263   3.127   8.997  0.2222 -0.0059  0.7767
 3021SOL    HW120522   3.339   3.089   8.953 -0.8811 -2.4059  0.9665
 3021SOL    HW220523   3.289   3.214   9.028  0.8124  1.0970 -2.7963
 3022SOL     OW20524   1.946   1.130   3.526  0.3905 -0.4598  0.9309
 3022SOL    HW120525   1.865   1.089   3.558  0.5677 -3.1604 -2.0084
 3022SOL    HW220526   1.994   1.142   3.608  1.3116  2.0369  0.0258
 3023SOL     OW20527   2.872   4.621   0.821 -0.0131 -0.7603 -0.0518
 3023SOL    HW120528   2.951   4.610   0.875  1.9099 -0.7887 -2.8782
 3023SOL    HW220529   2.825   4.539   0.840 -0.8374 -0.0534  0.9469
 3024SOL     OW20530   1.674   0.063   5.238 -0.3631 -0.2751 -0.6199
 3024SOL    HW120531   1.768   0.058   5.258 -0.3639 -0.6610 -0.6970
 3024SOL    HW220532   1.640   0.074   5.327 -0.4816 -1.4271 -0.5224
 3025SOL     OW20533   2.160   4.390  11.779 -0.7227  0.1544  0.4451
 3025SOL    HW120534   2.133   4.442  11.704  0.2831  1.6680  1.1318
 3025SOL    HW220535   2.109   4.441  11.841  1.7486  2.3234  0.6937
 3026SOL     OW20536   2.806   4.443   3.263 -0.1230 -0.1160 -0.1358
 3026SOL    HW120537   2.792   4.414   3.353 -1.6149  1.9321  0.2754
 3026SOL    HW220538   2.740   4.396   3.212 -1.3862 -1.1479  2.4735
 3027SOL     OW20539   2.051   2.398  11.100  0.7744  0.0874 -0.2756
 3027SOL    HW120540   1.955   2.395  11.103  0.8054 -0.4977  0.3726
 3027SOL    HW220541   2.067   2.459  11.172  2.7844  0.6174 -1.1943
 3028SOL     OW20542   0.581   4.635   2.618  0.4700 -0.3565 -0.7650
 3028SOL    HW120543   0.575   4.701   2.550 -2.4401  1.1416  0.9298
 3028SOL    HW220544   0.652   4.579   2.586 -0.5187 -0.1209 -3.3385
 3029SOL     OW20545   1.089   0.798   2.216 -0.0872 -0.0449 -0.0039
 3029SOL    HW120546   1.160   0.781   2.155 -0.5316  0.0357 -0.5418
 3029SOL    HW220547   1.032   0.725   2.192 -0.7106  0.3349  0.3277
 3030SOL     OW20548   2.237   2.215   1.603 -0.0992  0.4931 -0.2570
 3030SOL    HW120549   2.240   2.144   1.539  2.5673  0.1130  0.2682
 3030SOL    HW220550   2.329   2.221   1.630  0.2440  2.0044 -1.7215
 3031SOL     OW20551   0.851   2.942   6.080 -0.5094 -0.2448 -0.8870
 3031SOL    HW120552   0.813   2.878   6.020 -2.7677 -0.5770  0.9083
 3031SOL    HW220553   0.888   2.892   6.152  1.1946  1.2393 -0.7251
 3032SOL     OW20554   3.885   0.285   9.034 -0.1915  0.1583 -0.1526
 3032SOL    HW120555   3.909   0.288   9.126  1.2589  1.7080 -0.5787
 3032SOL    HW220556   3.938   0.212   9.003  0.0074  0.2550 -0.0371
 3033SOL     OW20557   2.603   1.865   3.029 -0.3992 -0.2275  0.6902
 3033SOL    HW120558   2.661   1.796   2.995 -0.1666  0.6068 -0.6330
 3033SOL    HW220559   2.658   1.943   3.017 -1.2758  0.2996  0.0832
 3034SOL     OW20560   3.785   1.336   6.760  0.6768 -0.0502 -0.5868
 3034SOL    HW120561   3.824   1.255   6.728  1.5955 -0.5820  1.8689
 3034SOL    HW220562   3.829   1.364   6.841  1.1660  1.9261 -1.5416
 3035SOL     OW20563   3.354   0.625   5.019  0.3249  0.0390  0.2260
 3035SOL    HW120564   3.320   0.687   5.084  2.1466  0.4927  0.7507
 3035SOL    HW220565   3.374   0.690   4.952 -0.8393  1.0495  0.8672
 3036SOL     OW20566   3.384   2.923   7.290 -0.3349 -0.2165  0.1028
 3036SOL    HW120567   3.352   2.933   7.201  1.7242  2.3034 -0.3453
 3036SOL    HW220568   3.311   2.884   7.338 -0.1871  0.1529  0.6352
 3037SOL     OW20569   2.807   1.311   9.166 -0.0899  0.1181  0.4753
 3037SOL    HW120570   2.769   1.395   9.189 -0.5339 -0.2600  1.1131
 3037SOL    HW220571   2.787   1.263   9.246 -0.5085 -1.9305 -0.8662
 3038SOL     OW20572   4.186   3.029  16.241  0.6146 -0.3145 -0.1034
 3038SOL    HW120573   4.220   2.961  16.182 -2.5689 -0.5152 -1.7307
 3038SOL    HW220574   4.093   3.006  16.231  0.5420 -0.0998  0.0756
 3039SOL     OW20575   0.496   4.524   7.570 -0.6741  0.2890 -0.3405
 3039SOL    HW120576   0.421   4.581   7.586 -1.1173 -0.3170 -0.2578
 3039SOL    HW220577   0.486   4.527   7.475 -2.4579  1.1395 -0.1293
 3040SOL     OW20578   3.075   4.590  11.367  0.2837 -0.1455 -0.7921
 3040SOL    HW120579   3.166   4.599  11.339  1.2359 -0.7578  2.1013
 3040SOL    HW220580   3.038   4.678  11.375 -2.2093 -1.2702 -0.0695
 3041SOL     OW20581   1.071   3.958   6.248 -0.0624  0.2040 -0.3820
 3041SOL    HW120582   1.039   3.959   6.338 -0.7111 -0.7072 -0.6127
 3041SOL    HW220583   0.994   4.003   6.214 -0.1626  0.6412  0.4192
 3042SOL     OW20584   1.459   1.434  13.138 -0.0426 -0.4096  0.1159
 3042SOL    HW120585   1.530   1.406  13.079 -1.4966 -1.1022 -1.3287
 3042SOL    HW220586   1.466   1.364  13.203 -1.7282 -0.9582 -0.2855
 3043SOL     OW20587   1.481   2.589   2.015 -0.1201  0.1017  0.6622
 3043SOL    HW120588   1.524   2.674   1.998 -0.4861  0.0983 -0.2822
 3043SOL    HW220589   1.407   2.607   2.073 -0.4094 -2.0495  0.9623
 3044SOL     OW20590   3.048   1.600   8.030 -0.1564 -0.3424 -0.3591
 3044SOL    HW120591   3.004   1.681   8.056  1.6000 -0.2497  2.3610
 3044SOL    HW220592   2.979   1.546   7.991 -0.7669 -0.3251  0.7087
 3045SOL     OW20593   0.373   4.327   5.837  0.2615  0.1775  0.2719
 3045SOL    HW120594   0.392   4.251   5.892  0.8000 -0.7534 -1.1941
 3045SOL    HW220595   0.435   4.317   5.765 -0.8027 -3.7098 -0.1039
 3046SOL     OW20596   0.253   0.827   5.773 -0.6605 -0.5663  0.0840
 3046SOL    HW120597   0.251   0.731   5.778 -1.2151 -0.6832 -2.0745
 3046SOL    HW220598   0.171   0.846   5.818 -0.4053 -2.6654  1.4123
 3047SOL     OW20599   2.656   3.267  14.365  0.5534 -0.0200 -0.3169
 3047SOL    HW120600   2.697   3.184  14.388 -0.4153 -0.4184 -0.0167
 3047SOL    HW220601   2.723   3.297  14.303  0.1669 -1.6375 -1.4931
 3048SOL     OW20602   1.290   1.655  15.716 -0.1680 -0.1617  0.5630
 3048SOL    HW120603   1.288   1.726  15.652  0.1215  0.4507  1.2298
 3048SOL    HW220604   1.307   1.584  15.655  0.5484  0.6295 -0.1565
 3049SOL     OW20605   4.127   0.866   6.998 -0.0031  0.5889 -0.1137
 3049SOL    HW120606   4.044   0.870   6.950  0.5018 -4.2220 -1.3577
 3049SOL    HW220607   4.153   0.789   6.949 -0.0891 -0.1390  0.9888
 3050SOL     OW20608   0.176   1.273   1.076  0.3970 -0.6747 -0.2235
 3050SOL    HW120609   0.090   1.266   1.033  0.4140 -1.5182 -0.1299
 3050SOL    HW220610   0.210   1.189   1.046 -2.2535 -1.9117  0.2161
 3051SOL     OW20611   2.996   2.422   7.233  0.3194  0.6077 -0.6123
 3051SOL    HW120612   3.014   2.485   7.303  0.7097 -0.4032  0.1986
 3051SOL    HW220613   3.077   2.428   7.181  1.2529 -1.7284  0.5574
 3052SOL     OW20614   1.259   1.700   0.048  0.1010  0.2561  0.0116
 3052SOL    HW120615   1.274   1.778   0.102  2.0620 -0.3362  0.3195
 3052SOL    HW220616   1.169   1.722   0.023 -0.2506 -2.0241 -0.6754
 3053SOL     OW20617   2.668   1.657  17.623  0.7014 -0.9157 -0.9256
 3053SOL    HW120618   2.663   1.752  17.636  2.3522 -1.3076  2.6544
 3053SOL    HW220619   2.588   1.641  17.572 -0.3048  1.9664 -0.2820
 3054SOL     OW20620   2.572   1.140   0.222 -0.3659 -0.2756  0.0375
 3054SOL    HW120621   2.594   1.156   0.314  0.6258 -1.0967 -0.0544
 3054SOL    HW220622   2.651   1.162   0.173 -1.7428  3.9974 -0.2124
 3055SOL     OW20623   2.419   0.237  12.052  0.0115 -0.0726  0.5237
 3055SOL    HW120624   2.484   0.228  12.121  0.4167  1.6662  0.3760
 3055SOL    HW220625   2.382   0.325  12.058  1.6130  0.6828 -0.8165
 3056SOL     OW20626   4.604   2.227   5.672  0.0334  0.7942 -0.0335
 3056SOL    HW120627   4.617   2.296   5.607 -1.4442 -0.4954 -1.6627
 3056SOL    HW220628   4.513   2.244   5.695 -0.4179  1.1700 -2.0914
 3057SOL     OW20629   1.514   1.889  15.697  0.2970  0.4576 -0.2846
 3057SOL    HW120630   1.455   1.875  15.623 -0.8200  3.5695  0.0232
 3057SOL    HW220631   1.585   1.939  15.656 -0.9235  1.7603 -0.8000
 3058SOL     OW20632   3.407   1.046   8.498 -0.0897  0.1382  0.1305
 3058SOL    HW120633   3.378   1.096   8.574 -0.1416 -1.0034  0.8500
 3058SOL    HW220634   3.394   1.109   8.427  1.4497 -0.5835 -0.7998
 3059SOL     OW20635   1.007   0.206   6.151  0.0057 -0.1153 -0.1556
 3059SOL    HW120636   0.935   0.259   6.117 -0.4507 -1.2418 -0.9474
 3059SOL    HW220637   0.959   0.125   6.169  0.3125 -0.6685 -1.8253
 3060SOL     OW20638   4.563   2.347   9.691 -0.1512  0.0986  0.4238
 3060SOL    HW120639   4.650   2.377   9.666  0.0606 -2.0213 -1.3694
 3060SOL    HW220640   4.601   2.274   9.739 -0.8515  0.1207  1.0251
 3061SOL     OW20641   2.094   3.186  10.582 -0.5158  0.4648 -0.0577
 3061SOL    HW120642   2.085   3.231  10.666  3.7547 -0.3333  0.8151
 3061SOL    HW220643   2.013   3.196  10.532 -0.6457  0.6533  0.1897
 3062SOL     OW20644   2.342   3.199   6.661  0.0040 -0.7060 -0.4428
 3062SOL    HW120645   2.336   3.118   6.711 -0.6867  0.0099  0.6263
 3062SOL    HW220646   2.265   3.249   6.687  1.4204  2.0325 -1.5233
 3063SOL     OW20647   0.669   1.345   9.602  0.2934 -0.0089 -0.4067
 3063SOL    HW120648   0.703   1.271   9.651 -2.2138 -0.1566  1.0938
 3063SOL    HW220649   0.656   1.303   9.517 -2.0679 -0.7147  0.3195
 3064SOL     OW20650   2.375   3.394   7.284  0.0685  0.1332  0.7968
 3064SOL    HW120651   2.348   3.302   7.286 -0.2603  0.1481 -2.6492
 3064SOL    HW220652   2.469   3.382   7.295  0.2260  0.2659 -0.4808
 3065SOL     OW20653   3.801   0.043  15.216 -0.1028 -0.4767 -0.3419
 3065SOL    HW120654   3.895   0.046  15.196  0.0556  1.0120  0.6265
 3065SOL    HW220655   3.766   0.043  15.127 -2.2552 -4.5201  0.4997
 3066SOL     OW20656   0.764   4.601  14.907 -0.0545 -0.5020  0.0797
 3066SOL    HW120657   0.850   4.597  14.865 -0.9383 -0.8295 -1.6719
 3066SOL    HW220658   0.709   4.556  14.843 -1.4332 -0.1510  1.0198
 3067SOL     OW20659   1.958   0.036   8.201  0.1658  0.2210 -0.3186
 3067SOL    HW120660   1.981   0.096   8.272  0.4235 -0.0627 -0.1606
 3067SOL    HW220661   2.007   0.071   8.126  0.2335 -1.9877 -1.2853
 3068SOL     OW20662   3.735   4.038  16.880  0.0328  0.1601 -0.4681
 3068SOL    HW120663   3.749   3.955  16.925  0.0718 -0.1970 -1.1360
 3068SOL    HW220664   3.814   4.039  16.826  1.0166  0.2623  0.9689
 3069SOL     OW20665   2.541   3.780   4.220 -0.0151  0.0293  0.4910
 3069SOL    HW120666   2.600   3.740   4.156 -0.9502 -2.2237  1.0260
 3069SOL    HW220667   2.459   3.773   4.171  0.4247  1.3257 -0.4387
 3070SOL     OW20668   1.402   0.787  14.787 -0.6028 -1.3213  0.1231
 3070SOL    HW120669   1.318   0.832  14.795  0.0802 -0.1334  0.6695
 3070SOL    HW220670   1.424   0.812  14.698  1.0847 -0.7559  0.6986
 3071SOL     OW20671   2.704   1.996   8.671 -0.1089  0.3655 -0.3580
 3071SOL    HW120672   2.761   2.069   8.648  0.5460  0.7133  2.4156
 3071SOL    HW220673   2.744   1.918   8.631 -1.1562 -1.1058  1.4829
 3072SOL     OW20674   3.504   4.718   1.856  0.2741 -0.1174 -0.4338
 3072SOL    HW120675   3.449   0.071   1.853  0.6587  0.1400 -1.0097
 3072SOL    HW220676   3.568   0.027   1.918 -1.6081  2.8404 -0.0995
 3073SOL     OW20677   1.290   1.940   3.980  0.1181  0.4976  0.0628
 3073SOL    HW120678   1.198   1.915   3.967  0.8095 -1.7315 -0.5241
 3073SOL    HW220679   1.333   1.871   4.029  0.2169  0.4728 -0.0589
 3074SOL     OW20680   0.790   0.082   2.733 -0.2742 -0.1010  0.1273
 3074SOL    HW120681   0.786   0.045   2.645  1.9134 -2.2859  0.9244
 3074SOL    HW220682   0.705   0.062   2.773 -0.1753  0.7265  0.7458
 3075SOL     OW20683   0.518   3.192  13.554  0.3732  0.2502 -0.2062
 3075SOL    HW120684   0.514   3.114  13.499 -0.2545  0.1803 -0.0590
 3075SOL    HW220685   0.614   3.198  13.552  0.3582  0.0386 -1.4205
 3076SOL     OW20686   1.267   0.623  12.424  0.6800  0.3615 -0.1315
 3076SOL    HW120687   1.216   0.704  12.416  2.3274  1.4232 -0.0667
 3076SOL    HW220688   1.350   0.664  12.398  0.5121 -0.1206 -1.4207
 3077SOL     OW20689   0.369   3.687   4.331  0.2423 -0.1121 -0.1209
 3077SOL    HW120690   0.347   3.746   4.404 -0.1676 -0.3542 -0.0502
 3077SOL    HW220691   0.337   3.727   4.250 -4.0443 -2.9582  0.1751
 3078SOL     OW20692   2.582   3.272   6.126 -0.3594  0.5223 -0.1379
 3078SOL    HW120693   2.572   3.224   6.044 -1.6117 -0.1021  0.3739
 3078SOL    HW220694   2.569   3.203   6.191  0.5025 -0.3629 -0.9197
 3079SOL     OW20695   0.442   3.249   2.250  0.2590 -0.2771  0.3319
 3079SOL    HW120696   0.448   3.344   2.241 -0.1759 -0.2211  0.6326
 3079SOL    HW220697   0.465   3.220   2.162 -0.5621 -0.0330  0.0408
 3080SOL     OW20698   1.819   3.029   9.268  0.5577  0.7454  0.2828
 3080SOL    HW120699   1.879   2.963   9.301 -0.5380  0.3306  1.4761
 3080SOL    HW220700   1.758   3.033   9.342  0.7198 -1.0523  0.5189
 3081SOL     OW20701   3.603   4.547   9.489  0.3398 -0.4101 -0.2869
 3081SOL    HW120702   3.524   4.572   9.441  0.4345  0.9120  0.2678
 3081SOL    HW220703   3.569   4.524   9.576  1.7391  0.5073  0.4987
 3082SOL     OW20704   3.097   1.131   8.615  0.3192  0.1217 -0.4750
 3082SOL    HW120705   3.030   1.140   8.547 -0.3773 -1.3958  0.0116
 3082SOL    HW220706   3.058   1.167   8.695  2.3782  1.6779 -0.1481
 3083SOL     OW20707   2.498   1.500   5.533 -0.5234 -0.2925 -0.2878
 3083SOL    HW120708   2.478   1.504   5.440 -1.5920 -2.3090 -0.1439
 3083SOL    HW220709   2.587   1.538   5.537 -0.7259  0.1661 -0.1008
 3084SOL     OW20710   0.508   2.105   2.029 -0.5460 -0.1773  0.2994
 3084SOL    HW120711   0.444   2.176   2.043  0.1132  0.6507 -0.8444
 3084SOL    HW220712   0.450   2.039   1.992  0.8668 -1.0037 -0.3949
 3085SOL     OW20713   2.197   1.177   5.578  0.2388  0.0736 -0.4623
 3085SOL    HW120714   2.202   1.164   5.673  1.5218 -1.6282 -0.7614
 3085SOL    HW220715   2.287   1.186   5.548 -0.0022 -0.2947 -1.2956
 3086SOL     OW20716   2.604   1.731   7.110  0.1865 -0.2881  0.1149
 3086SOL    HW120717   2.554   1.760   7.033  1.6734 -2.5640 -1.7273
 3086SOL    HW220718   2.693   1.715   7.077 -0.1577 -1.3089 -0.3275
 3087SOL     OW20719   1.637   2.450   6.804  0.0699 -0.5337  0.1513
 3087SOL    HW120720   1.560   2.423   6.754  1.5741  2.1405 -3.5775
 3087SOL    HW220721   1.699   2.409   6.743 -0.3523  1.6535 -1.7312
 3088SOL     OW20722   2.320   1.640   5.053 -0.2985  0.2811  0.4910
 3088SOL    HW120723   2.377   1.594   4.991 -0.0997  1.7321 -0.3847
 3088SOL    HW220724   2.281   1.698   4.988 -0.1814  2.0394  1.9897
 3089SOL     OW20725   2.185   3.789   1.589 -0.6384 -0.4764  0.1492
 3089SOL    HW120726   2.140   3.844   1.525 -0.3240 -2.8330 -2.0955
 3089SOL    HW220727   2.116   3.766   1.651 -0.8617 -0.8382 -0.2320
 3090SOL     OW20728   1.972   0.956   6.951 -0.2352  0.3028  0.4752
 3090SOL    HW120729   1.897   0.916   6.907  0.6332  0.3995 -1.1271
 3090SOL    HW220730   1.998   0.884   7.008 -0.4180 -0.0313  0.1392
 3091SOL     OW20731   1.823   3.881  14.830 -0.1068  0.0134  0.3720
 3091SOL    HW120732   1.791   3.914  14.914 -0.6899  0.8959 -0.1999
 3091SOL    HW220733   1.848   3.964  14.790 -3.0272 -0.1923 -1.8924
 3092SOL     OW20734   2.145   4.622   7.900  0.0569 -0.6684  0.1277
 3092SOL    HW120735   2.240   4.626   7.887  0.1470 -1.9868  0.4665
 3092SOL    HW220736   2.113   4.616   7.810 -0.1750  1.4256  0.0676
 3093SOL     OW20737   2.780   4.375  11.932 -0.4253  0.0611 -0.2910
 3093SOL    HW120738   2.760   4.320  11.857  2.7126 -1.8728  0.2967
 3093SOL    HW220739   2.817   4.455  11.897  0.3887 -0.9895 -1.8057
 3094SOL     OW20740   0.332   4.226   7.163 -0.0120  0.0728 -0.2830
 3094SOL    HW120741   0.277   4.181   7.227  0.1932  0.5559  0.2431
 3094SOL    HW220742   0.387   4.152   7.137 -0.7468 -0.4277 -0.4032
 3095SOL     OW20743   4.477   0.169   7.929 -0.3366 -0.3160 -0.5019
 3095SOL    HW120744   4.546   0.105   7.913 -0.5102 -0.9012  1.1013
 3095SOL    HW220745   4.438   0.170   7.842 -1.0032 -3.9214 -0.2228
 3096SOL     OW20746   4.507   2.589   3.836 -0.2477  0.1620  0.1537
 3096SOL    HW120747   4.521   2.636   3.753  2.1391  1.5100  1.3233
 3096SOL    HW220748   4.598   2.568   3.857 -0.5556  1.4077  2.6518
 3097SOL     OW20749   0.003   4.190  15.458  0.2994  0.0666  0.1636
 3097SOL    HW120750   4.683   4.274  15.462  2.1220  1.1113 -1.8194
 3097SOL    HW220751   4.721   4.184  15.363  1.7005 -0.6530  0.1053
 3098SOL     OW20752   1.331   0.402  12.641 -0.2498 -0.2572  0.4978
 3098SOL    HW120753   1.273   0.458  12.693  1.2263  1.9196 -0.1889
 3098SOL    HW220754   1.353   0.458  12.566  1.1476  3.7547  3.8920
 3099SOL     OW20755   2.416   3.635   9.749  0.3726  0.0881 -0.1865
 3099SOL    HW120756   2.463   3.612   9.669 -0.1517 -0.3270 -0.3713
 3099SOL    HW220757   2.471   3.600   9.820  0.0917 -1.5306 -0.7777
 3100SOL     OW20758   3.013   0.811   8.124  0.4586  0.3994 -0.5005
 3100SOL    HW120759   3.027   0.755   8.048  1.7163  0.3964 -0.2688
 3100SOL    HW220760   3.065   0.886   8.095 -2.3910  2.2307 -0.8392
 3101SOL     OW20761   1.788   4.333   4.904 -0.1759  0.0187 -0.1271
 3101SOL    HW120762   1.716   4.391   4.931  1.6161  3.1900 -2.1077
 3101SOL    HW220763   1.741   4.252   4.924 -0.1073 -0.3190 -1.3015
 3102SOL     OW20764   3.201   0.780   5.297  0.2445 -0.2050  0.4543
 3102SOL    HW120765   3.149   0.702   5.278  1.1228 -0.5102 -0.7277
 3102SOL    HW220766   3.199   0.784   5.393  2.1172 -1.0992  0.5506
 3103SOL     OW20767   0.910   3.355   5.506 -0.0951 -0.0398  0.1864
 3103SOL    HW120768   0.958   3.338   5.425 -2.8743  0.5278 -1.5815
 3103SOL    HW220769   0.941   3.444   5.524 -0.9707  0.5939 -1.4471
 3104SOL     OW20770   2.905   4.683   8.573 -0.0196  0.2659 -0.5160
 3104SOL    HW120771   2.952   0.041   8.559  0.2065  0.0769 -0.8595
 3104SOL    HW220772   2.816   4.713   8.552  0.3363  1.7407  0.0170
 3105SOL     OW20773   2.390   3.507   8.515 -0.3473  0.0323 -0.2962
 3105SOL    HW120774   2.354   3.576   8.459 -3.0679 -0.2067  1.1905
 3105SOL    HW220775   2.468   3.485   8.464 -0.5919 -2.0463  0.2272
 3106SOL     OW20776   4.369   2.764   4.947  0.5733  0.1607  0.0082
 3106SOL    HW120777   4.432   2.813   4.894  0.0929 -0.6704 -1.3128
 3106SOL    HW220778   4.396   2.812   5.026  0.7086 -0.0171  0.0712
 3107SOL     OW20779   4.325   2.032   3.751 -0.1359 -0.7837 -0.1880
 3107SOL    HW120780   4.409   1.994   3.779  0.4439  1.8032  1.6286
 3107SOL    HW220781   4.342   2.125   3.733 -1.3163 -0.1879  1.7874
 3108SOL     OW20782   0.732   1.207   1.476  0.1530  0.2054  0.4880
 3108SOL    HW120783   0.799   1.274   1.490  0.2097  0.2977 -0.2445
 3108SOL    HW220784   0.754   1.155   1.554  0.3052 -1.4603 -0.6661
 3109SOL     OW20785   3.389   3.816  13.265  0.0830 -0.2744 -0.0684
 3109SOL    HW120786   3.394   3.756  13.190  2.4999 -1.2136  0.8428
 3109SOL    HW220787   3.478   3.804  13.300  0.1136 -0.3547 -0.1717
 3110SOL     OW20788   3.800   2.795   3.311  0.1149  0.1711 -0.5306
 3110SOL    HW120789   3.857   2.871   3.318  1.2652 -0.8294  0.8935
 3110SOL    HW220790   3.869   2.731   3.326  1.3549  1.2234 -1.7465
 3111SOL     OW20791   1.054   1.221  16.874  0.5602  0.8123 -0.1010
 3111SOL    HW120792   0.980   1.256  16.824  0.4177  0.1375 -0.3717
 3111SOL    HW220793   0.996   1.174  16.935  1.0190  1.5809  0.9175
 3112SOL     OW20794   0.196   0.790   3.666  0.1375 -0.6013  0.1979
 3112SOL    HW120795   0.153   0.714   3.625 -0.5192  0.3736 -0.9092
 3112SOL    HW220796   0.280   0.779   3.622  0.6085  1.1931  0.6743
 3113SOL     OW20797   2.226   4.352   7.337  0.2891  0.2916 -0.1290
 3113SOL    HW120798   2.269   4.436   7.324  0.0290  0.4811  0.2267
 3113SOL    HW220799   2.213   4.325   7.246 -1.3918  0.2621  0.1276
 3114SOL     OW20800   2.044   0.475   4.912  0.3789 -0.9735  0.4005
 3114SOL    HW120801   2.126   0.494   4.958  0.0273  1.0238  0.1777
 3114SOL    HW220802   1.988   0.463   4.988  1.9024 -0.2988  1.6336
 3115SOL     OW20803   2.272   0.180   7.474  0.8146  0.2123  0.0615
 3115SOL    HW120804   2.280   0.258   7.529  0.3510  0.1890  0.1594
 3115SOL    HW220805   2.365   0.156   7.471  1.4216  2.7006 -1.2553
 3116SOL     OW20806   2.417   3.238  14.240  0.1449 -0.1593  0.0080
 3116SOL    HW120807   2.497   3.257  14.287 -0.1145  1.5039 -0.2177
 3116SOL    HW220808   2.347   3.264  14.300 -0.7814 -1.3821 -0.5335
 3117SOL     OW20809   2.423   2.780   4.201 -0.1440  0.0531  0.4962
 3117SOL    HW120810   2.391   2.869   4.184  0.2614  0.3992  1.5365
 3117SOL    HW220811   2.463   2.792   4.287 -2.4546 -0.9718  1.7034
 3118SOL     OW20812   3.770   2.575   6.308  0.4117  0.3411 -0.2699
 3118SOL    HW120813   3.826   2.640   6.350 -1.7190 -0.3501  3.6751
 3118SOL    HW220814   3.805   2.489   6.332  2.1353  0.2820 -3.0755
 3119SOL     OW20815   0.126   0.547  13.062  0.0931  0.1607  0.2571
 3119SOL    HW120816   0.052   0.579  13.113 -0.4164  3.7237 -2.7875
 3119SOL    HW220817   0.080   0.468  13.035 -0.1666  0.0593  0.9878
 3120SOL     OW20818   1.731   2.563   4.253  0.5297  0.6901  0.1075
 3120SOL    HW120819   1.745   2.628   4.184 -1.5741 -0.3489 -1.3088
 3120SOL    HW220820   1.637   2.551   4.247  0.7436  0.0651 -2.1430
 3121SOL     OW20821   3.546   4.429  11.446  0.5309  0.7129 -0.1979
 3121SOL    HW120822   3.535   4.476  11.363  1.5949  1.6760  0.2078
 3121SOL    HW220823   3.625   4.378  11.431  1.9556  3.6092 -2.6829
 3122SOL     OW20824   2.550   1.728   4.848  0.6861  0.7826 -0.2543
 3122SOL    HW120825   2.614   1.662   4.876 -1.5685  0.0249  3.0667
 3122SOL    HW220826   2.613   1.799   4.838  0.8597  0.6634 -0.0154
 3123SOL     OW20827   4.393   3.394   5.309 -0.7812  1.2689 -0.3376
 3123SOL    HW120828   4.430   3.478   5.281  0.3545  0.5829 -0.9024
 3123SOL    HW220829   4.405   3.404   5.404  2.1875  0.5742 -0.6130
 3124SOL     OW20830   1.335   0.154  14.343 -0.4638 -0.3076 -0.1081
 3124SOL    HW120831   1.373   0.089  14.283 -0.0962  0.8835 -1.1872
 3124SOL    HW220832   1.270   0.200  14.289  0.6627  1.7606  0.2551
 3125SOL     OW20833   1.346   1.199   9.542  0.5246 -0.3890  0.4200
 3125SOL    HW120834   1.387   1.207   9.628  2.0073  0.9116 -0.4091
 3125SOL    HW220835   1.300   1.120   9.573 -0.2232 -0.0409  0.1938
 3126SOL     OW20836   2.829   0.476   8.466 -0.0155  0.2649 -0.5412
 3126SOL    HW120837   2.806   0.562   8.432 -0.8078 -0.0064 -0.7060
 3126SOL    HW220838   2.923   0.488   8.482 -0.7687  3.8869  1.2831
 3127SOL     OW20839   3.773   1.655  13.827  0.3553 -0.0364 -0.5759
 3127SOL    HW120840   3.691   1.619  13.860 -0.3074  0.4795 -1.6736
 3127SOL    HW220841   3.819   1.667  13.910 -0.3286 -0.8846 -0.0807
 3128SOL     OW20842   1.222   3.027   4.452 -0.1854  0.1564 -0.3389
 3128SOL    HW120843   1.287   3.067   4.395 -1.1792 -2.1068 -3.1044
 3128SOL    HW220844   1.238   3.084   4.526 -0.0902 -1.3097  0.7695
 3129SOL     OW20845   4.371   0.685  11.889 -0.4136 -0.6437 -0.2298
 3129SOL    HW120846   4.302   0.728  11.940  1.8760  1.4668  1.1242
 3129SOL    HW220847   4.442   0.750  11.888  0.1724 -1.2496  1.5641
 3130SOL     OW20848   3.353   1.340   1.670  0.1996  0.7448 -0.0464
 3130SOL    HW120849   3.290   1.270   1.651  0.3458  0.9272 -1.1701
 3130SOL    HW220850   3.425   1.287   1.704 -1.1176 -0.0933  1.4465
 3131SOL     OW20851   0.867   2.593   3.875  0.0773  0.6219  0.1102
 3131SOL    HW120852   0.821   2.674   3.896  0.7143  0.4419  2.1271
 3131SOL    HW220853   0.800   2.543   3.828  2.2482 -1.2181 -1.0696
 3132SOL     OW20854   1.481   3.696   6.090  0.0445  0.2354  0.1371
 3132SOL    HW120855   1.436   3.731   6.167 -0.6855 -0.9288  0.2403
 3132SOL    HW220856   1.555   3.756   6.090  0.1272  0.1406 -1.1820
 3133SOL     OW20857   1.231   1.624   3.319 -0.3376  0.2804 -0.1861
 3133SOL    HW120858   1.268   1.585   3.240 -0.2417 -1.5087  0.7587
 3133SOL    HW220859   1.288   1.701   3.322  0.4735 -0.3555  0.3806
 3134SOL     OW20860   3.853   0.013   8.587 -0.1243  0.4600 -0.3185
 3134SOL    HW120861   3.941   0.047   8.601 -0.4644  0.4085  1.8276
 3134SOL    HW220862   3.872   4.675   8.516 -0.9910 -0.0221 -0.1279
 3135SOL     OW20863   4.592   0.904   4.829 -0.8183  0.4176  0.5287
 3135SOL    HW120864   4.664   0.957   4.862  1.0990 -1.9985  0.1924
 3135SOL    HW220865   4.589   0.931   4.738  0.3362  1.6522  0.8654
 3136SOL     OW20866   2.610   0.136   9.086 -0.1725  0.2745 -0.1193
 3136SOL    HW120867   2.680   0.197   9.065 -0.3261 -0.3490 -2.3484
 3136SOL    HW220868   2.566   0.190   9.152  0.8786  0.3046  0.5435
 3137SOL     OW20869   0.818   1.561   8.274 -0.0653  0.6760  0.6657
 3137SOL    HW120870   0.785   1.619   8.206 -0.3561  1.0888  1.1573
 3137SOL    HW220871   0.862   1.496   8.220 -1.2528 -0.9483  1.6437
 3138SOL     OW20872   4.141   2.994   6.409  0.2775  0.6055  0.0680
 3138SOL    HW120873   4.113   3.008   6.319  0.9381  0.1445 -0.2074
 3138SOL    HW220874   4.207   2.928   6.390 -0.1090  0.6671 -1.4590
 3139SOL     OW20875   0.542   2.080  15.635  0.4134 -0.1729 -0.4801
 3139SOL    HW120876   0.460   2.046  15.600 -0.1170  0.2688  0.3400
 3139SOL    HW220877   0.542   2.175  15.622 -1.4453  0.0585  1.3514
 3140SOL     OW20878   1.604   3.108   4.143  0.0143  0.2692  0.2191
 3140SOL    HW120879   1.694   3.105   4.108 -0.6562  1.3345 -1.6237
 3140SOL    HW220880   1.557   3.161   4.078 -0.7783 -0.6289  0.0615
 3141SOL     OW20881   4.672   4.697  17.630 -0.6827  0.0371  0.2069
 3141SOL    HW120882   4.710   0.058  17.648 -0.3793 -0.4252  1.7559
 3141SOL    HW220883   4.592   0.000  17.586 -0.0257  2.9267  0.8570
 3142SOL     OW20884   3.023   3.041   6.574  0.1605  0.1288 -0.2191
 3142SOL    HW120885   3.080   3.082   6.509 -0.4624 -0.3627 -1.0632
 3142SOL    HW220886   3.084   2.981   6.617  1.0601  0.0264 -1.6441
 3143SOL     OW20887   2.804   1.090   6.570 -0.0625 -0.4333 -0.5077
 3143SOL    HW120888   2.710   1.084   6.584 -0.4591 -1.2288 -3.5286
 3143SOL    HW220889   2.834   1.156   6.632  1.6993 -0.1883 -1.6114
 3144SOL     OW20890   0.574   0.661   3.282 -0.1349 -0.2694 -0.2526
 3144SOL    HW120891   0.624   0.696   3.208 -2.2481 -0.2002 -1.6474
 3144SOL    HW220892   0.608   0.573   3.266  0.2469  0.0775 -1.3719
 3145SOL     OW20893   1.507   2.364  10.013  0.2957  1.0775  0.2847
 3145SOL    HW120894   1.488   2.288   9.957  2.1950 -0.3553  1.5964
 3145SOL    HW220895   1.467   2.434   9.961  1.3314  0.9618 -0.6603
 3146SOL     OW20896   2.866   0.485  16.330 -0.2675  0.3457  0.4461
 3146SOL    HW120897   2.889   0.544  16.402  1.0804 -0.2982  0.5368
 3146SOL    HW220898   2.956   0.473  16.299 -0.6617  0.7541 -0.8498
 3147SOL     OW20899   1.523   3.436   6.173 -0.5807  0.7736  0.0749
 3147SOL    HW120900   1.502   3.519   6.131 -1.0157  0.2834 -0.6936
 3147SOL    HW220901   1.443   3.388   6.153  0.4542 -1.9443  2.4700
 3148SOL     OW20902   3.851   4.515   0.080 -0.6313 -0.5474  0.2417
 3148SOL    HW120903   3.832   4.505   0.173  1.7179 -0.0322  0.7808
 3148SOL    HW220904   3.766   4.488   0.046  0.7680 -2.9429 -1.3707
 3149SOL     OW20905   1.067   4.213  17.357 -0.1291  0.2419  0.1478
 3149SOL    HW120906   1.106   4.129  17.334  0.6781  1.0276 -1.3421
 3149SOL    HW220907   1.046   4.242  17.268  0.4418  0.8914  0.2251
 3150SOL     OW20908   4.624   3.363   4.759 -0.2165  0.0858 -0.3851
 3150SOL    HW120909   4.539   3.401   4.782  0.3827  1.5452 -0.5162
 3150SOL    HW220910   4.661   3.437   4.710  0.0026 -0.5959 -1.2403
 3151SOL     OW20911   0.524   1.507   1.857 -0.2268 -0.1508  0.4557
 3151SOL    HW120912   0.564   1.426   1.889  0.0862  0.0313  0.5259
 3151SOL    HW220913   0.518   1.566   1.932  1.0242  0.5832 -0.0095
 3152SOL     OW20914   1.841   0.083   2.964  0.4125  0.2992  0.6515
 3152SOL    HW120915   1.766   0.108   2.911  1.1604 -0.4811 -0.7793
 3152SOL    HW220916   1.841   0.159   3.022  1.7528  1.7495 -1.2421
 3153SOL     OW20917   3.684   4.302   3.614  0.0291  0.2029  0.1234
 3153SOL    HW120918   3.605   4.319   3.563  0.0943  1.9068  0.5890
 3153SOL    HW220919   3.708   4.216   3.578  2.2801  0.8532  0.1260
 3154SOL     OW20920   2.423   4.095   7.642 -0.0111  0.0241 -0.0039
 3154SOL    HW120921   2.345   4.042   7.626 -0.5379  1.2222 -1.4064
 3154SOL    HW220922   2.487   4.026   7.625 -0.2175  0.4445 -2.4700
 3155SOL     OW20923   3.967   4.680   7.339 -0.0824 -0.5141 -0.8437
 3155SOL    HW120924   4.007   0.039   7.314 -0.7441 -0.2444 -1.0090
 3155SOL    HW220925   4.034   4.628   7.383  0.0488 -2.2608 -3.0985
 3156SOL     OW20926   2.791   1.786   2.662 -0.0716  0.0858 -0.1149
 3156SOL    HW120927   2.817   1.738   2.741  3.0860  0.1344 -1.1239
 3156SOL    HW220928   2.853   1.745   2.602  0.4871  2.1984 -0.9675
 3157SOL     OW20929   4.574   3.165  15.375 -0.2102 -0.1908 -0.1913
 3157SOL    HW120930   4.487   3.165  15.335 -0.3885 -1.8292  0.2007
 3157SOL    HW220931   4.564   3.122  15.460 -3.1653  2.4387  0.8102
 3158SOL     OW20932   0.397   0.335  10.731 -0.2992  0.0078  0.2567
 3158SOL    HW120933   0.307   0.362  10.711 -0.4885 -0.6290  0.2678
 3158SOL    HW220934   0.404   0.258  10.676  0.1854  0.8574 -0.8624
 3159SOL     OW20935   1.572   0.822  13.307  0.4140 -0.1047  0.1666
 3159SOL    HW120936   1.536   0.904  13.342  0.6821  0.4964 -0.9789
 3159SOL    HW220937   1.601   0.789  13.393 -1.6754  0.7580  1.2110
 3160SOL     OW20938   4.030   3.840   5.194  0.4722  0.1978 -0.2220
 3160SOL    HW120939   3.964   3.772   5.185 -0.3639  1.0100 -0.2409
 3160SOL    HW220940   3.985   3.911   5.240 -0.0252 -1.1440  1.3609
 3161SOL     OW20941   3.507   1.341  15.210 -0.3326  1.1824  0.0076
 3161SOL    HW120942   3.584   1.361  15.157 -0.4806  0.5074 -0.4624
 3161SOL    HW220943   3.546   1.323  15.295  0.9359  2.0670 -0.3846
 3162SOL     OW20944   0.644   2.764   4.461 -0.8260  0.2907 -0.2133
 3162SOL    HW120945   0.658   2.842   4.515 -0.2366  0.0573 -0.0283
 3162SOL    HW220946   0.697   2.690   4.493 -0.6544  0.2000 -0.6987
 3163SOL     OW20947   3.323   4.461   3.040 -0.3934  0.0322  0.2997
 3163SOL    HW120948   3.419   4.454   3.037 -0.5131 -1.8887  1.3393
 3163SOL    HW220949   3.311   4.554   3.021 -2.2094  0.0128  1.3850
 3164SOL     OW20950   1.784   1.433   2.206 -0.2401 -0.3062 -0.2041
 3164SOL    HW120951   1.800   1.475   2.291 -2.1933  0.5932 -0.2963
 3164SOL    HW220952   1.864   1.453   2.158  0.3170 -2.3551 -0.1606
 3165SOL     OW20953   2.802   1.314   0.695  0.5244 -0.1237 -0.3729
 3165SOL    HW120954   2.885   1.295   0.738  0.1410 -2.6922 -0.7489
 3165SOL    HW220955   2.784   1.397   0.739  0.9303 -0.5076  0.5142
 3166SOL     OW20956   0.401   4.652   7.326  0.1196 -0.2617  0.1793
 3166SOL    HW120957   0.432   0.011   7.359 -1.3115 -0.1546  1.2254
 3166SOL    HW220958   0.323   4.679   7.277 -1.1570 -0.3592  2.1650
 3167SOL     OW20959   3.497   2.411   9.053  0.8590 -0.1032  0.3293
 3167SOL    HW120960   3.524   2.503   9.045 -2.4446  0.7183 -1.0390
 3167SOL    HW220961   3.548   2.391   9.132 -0.1180 -1.2540  0.6686
 3168SOL     OW20962   2.358   0.515  17.099  0.2160  0.1835 -0.0563
 3168SOL    HW120963   2.308   0.474  17.170  0.0684  2.1335  0.9648
 3168SOL    HW220964   2.437   0.462  17.100  0.4607  0.5717  1.2864
 3169SOL     OW20965   3.876   0.524   6.362 -0.4976  0.5416  0.5567
 3169SOL    HW120966   3.807   0.495   6.302 -0.7098  1.4482  0.3489
 3169SOL    HW220967   3.888   0.447   6.417 -0.0231  0.3337  0.1709
 3170SOL     OW20968   1.238   3.338   3.329 -0.5571 -0.3483  0.8736
 3170SOL    HW120969   1.176   3.398   3.369  1.1640  1.0945  1.3830
 3170SOL    HW220970   1.314   3.360   3.383 -0.0798 -1.2429  0.5743
 3171SOL     OW20971   2.792   4.678  17.313  0.0941 -0.2879  0.1344
 3171SOL    HW120972   2.854   0.007  17.362 -0.8329  0.4690  0.4853
 3171SOL    HW220973   2.721   0.015  17.294  0.6463 -0.3966 -2.1940
 3172SOL     OW20974   3.745   2.702  16.072 -0.9749 -0.0308 -0.0743
 3172SOL    HW120975   3.784   2.672  15.990  2.8314  2.5535  0.7809
 3172SOL    HW220976   3.662   2.654  16.064 -0.8949  0.2438 -2.2816
 3173SOL     OW20977   2.545   2.308   9.143 -0.1693 -0.1206  0.2390
 3173SOL    HW120978   2.591   2.358   9.075 -0.6713  0.3707  0.2698
 3173SOL    HW220979   2.531   2.374   9.210 -1.5213  0.7914 -0.9449
 3174SOL     OW20980   0.176   3.981  10.852 -0.0464 -0.1410  0.5633
 3174SOL    HW120981   0.181   3.956  10.944  0.5288  0.6890  0.7615
 3174SOL    HW220982   0.121   4.058  10.840 -2.3600 -2.1293 -1.7245
 3175SOL     OW20983   1.369   0.040   3.767 -0.2376  0.2611 -0.1331
 3175SOL    HW120984   1.370   0.133   3.791  2.3529  0.6247 -1.6194
 3175SOL    HW220985   1.294   0.041   3.707 -1.8311 -1.1699  1.8375
 3176SOL     OW20986   4.607   1.784   0.268 -0.3783 -0.7077 -0.2651
 3176SOL    HW120987   4.696   1.755   0.290  0.1175  1.4425  0.5330
 3176SOL    HW220988   4.602   1.768   0.174  0.3128 -0.0417 -0.4120
 3177SOL     OW20989   3.784   2.218  15.406 -0.7724 -0.3282 -0.0584
 3177SOL    HW120990   3.712   2.279  15.425  0.0815  1.4529 -2.5713
 3177SOL    HW220991   3.749   2.141  15.362 -0.0335 -0.1733 -0.9112
 3178SOL     OW20992   1.472   4.449   5.393  0.1948 -0.2397  0.2810
 3178SOL    HW120993   1.560   4.419   5.370 -0.5487 -2.6753  0.6310
 3178SOL    HW220994   1.441   4.497   5.316 -0.3847  1.0794  1.3199
 3179SOL     OW20995   2.035   4.242   5.693  0.0698 -0.6544 -0.5632
 3179SOL    HW120996   2.092   4.174   5.728 -1.3392 -0.8463  1.3939
 3179SOL    HW220997   2.036   4.217   5.600  1.7749 -1.6969 -0.2689
 3180SOL     OW20998   3.523   2.564   3.989 -0.0763  0.1594  0.0658
 3180SOL    HW120999   3.566   2.489   3.948 -2.2248 -0.2082 -1.4793
 3180SOL    HW221000   3.497   2.623   3.919  2.4294  0.5453 -0.5332
 3181SOL     OW21001   1.009   3.637   5.535  0.4214 -0.0664  0.3043
 3181SOL    HW121002   1.013   3.706   5.601  2.1344 -0.4183  0.5670
 3181SOL    HW221003   0.934   3.678   5.492  0.6188 -0.4546 -0.3989
 3182SOL     OW21004   3.725   2.953   6.740 -0.0272 -0.0527  0.7561
 3182SOL    HW121005   3.677   3.018   6.689 -0.9932 -3.4009 -2.5967
 3182SOL    HW221006   3.658   2.885   6.749 -0.8426  0.7988  1.1303
 3183SOL     OW21007   1.413   1.177  13.942  0.3207 -0.2609  0.6585
 3183SOL    HW121008   1.336   1.159  13.996  0.6199 -0.3669  1.0486
 3183SOL    HW221009   1.492   1.169  13.995 -1.3828 -0.4358  3.2040
 3184SOL     OW21010   4.673   0.554   8.934 -0.0927 -0.2123 -0.3825
 3184SOL    HW121011   4.676   0.493   9.007  0.2022  1.0917  0.6821
 3184SOL    HW221012   0.016   0.517   8.877  2.1056  1.2220  1.3266
 3185SOL     OW21013   2.474   0.530   4.356  0.7572  0.1966 -0.8016
 3185SOL    HW121014   2.474   0.435   4.362 -0.5188  0.3137  1.3689
 3185SOL    HW221015   2.380   0.550   4.367  0.4816 -2.2432  1.2421
 3186SOL     OW21016   0.659   0.862   6.360 -0.0547 -0.1024  0.2062
 3186SOL    HW121017   0.738   0.901   6.398 -1.2509  2.2432  0.2505
 3186SOL    HW221018   0.692   0.798   6.296 -1.0457 -0.7043  0.2972
 3187SOL     OW21019   0.956   4.669   5.365 -0.6392 -0.1515 -0.1842
 3187SOL    HW121020   0.996   4.693   5.449  0.1439 -3.3567  0.3495
 3187SOL    HW221021   0.940   0.033   5.333  0.5946  0.3200  0.4704
 3188SOL     OW21022   2.546   1.244   5.644  0.3895  0.1025  0.4500
 3188SOL    HW121023   2.626   1.224   5.595  1.6965  2.0277  1.7835
 3188SOL    HW221024   2.533   1.333   5.611 -1.9510 -0.2635  0.3923
 3189SOL     OW21025   1.320   2.413   7.298 -0.1503 -0.2132 -0.0713
 3189SOL    HW121026   1.299   2.505   7.284 -0.3504 -0.3082 -0.4023
 3189SOL    HW221027   1.265   2.388   7.373 -1.2673  0.5002 -0.6435
 3190SOL     OW21028   2.247   3.928   7.885  0.2523  0.3749 -0.1749
 3190SOL    HW121029   2.228   3.913   7.978  1.8439 -2.9481 -0.4082
 3190SOL    HW221030   2.310   4.000   7.884 -0.7118  1.2081 -1.0500
 3191SOL     OW21031   4.565   4.570   5.177 -0.0588  0.5655 -0.1294
 3191SOL    HW121032   4.562   4.648   5.122 -0.4694  1.7604  1.5822
 3191SOL    HW221033   4.621   4.593   5.251 -0.6475 -2.1622  1.1862
 3192SOL     OW21034   4.332   1.991   6.415  0.6494 -0.3642 -0.0603
 3192SOL    HW121035   4.368   2.029   6.336 -1.0976  0.7953 -0.3038
 3192SOL    HW221036   4.259   1.936   6.385  0.8845 -0.4128 -0.5341
 3193SOL     OW21037   4.508   1.664   1.185 -0.1827  0.3111 -0.0614
 3193SOL    HW121038   4.580   1.691   1.127 -0.5092  2.4788  0.5307
 3193SOL    HW221039   4.495   1.746   1.234 -1.9284  1.6370 -2.7336
 3194SOL     OW21040   1.290   2.830  11.119 -0.8087  0.0498 -0.2864
 3194SOL    HW121041   1.222   2.766  11.140  1.4179 -2.3399 -0.3365
 3194SOL    HW221042   1.243   2.896  11.068  0.5045 -0.1021 -1.7059
 3195SOL     OW21043   3.311   2.012   8.580 -0.2964 -0.3257  0.0671
 3195SOL    HW121044   3.252   2.085   8.597  1.1340  1.3623 -2.2239
 3195SOL    HW221045   3.393   2.057   8.559  0.1599 -0.9631  0.4788
 3196SOL     OW21046   2.392   0.329  12.447 -0.5826  0.1120  0.2558
 3196SOL    HW121047   2.409   0.238  12.473 -0.3242 -1.0165 -3.9168
 3196SOL    HW221048   2.354   0.367  12.527 -0.7077 -3.1661  1.7361
 3197SOL     OW21049   4.057   0.699  10.186  0.1150 -0.0372  0.0488
 3197SOL    HW121050   4.089   0.775  10.137 -2.2035  1.6206  1.1115
 3197SOL    HW221051   4.011   0.645  10.121  0.1683  0.4675 -0.4131
 3198SOL     OW21052   2.258   4.553  10.058  0.0716 -0.6369 -0.4592
 3198SOL    HW121053   2.240   4.562  10.152 -0.9092  0.6750 -0.7924
 3198SOL    HW221054   2.227   4.465  10.036  0.9156 -0.9131 -0.5480
 3199SOL     OW21055   0.583   3.916  14.133 -0.0729  0.3750 -0.3691
 3199SOL    HW121056   0.516   3.894  14.198  1.6878  0.4797  1.4773
 3199SOL    HW221057   0.533   3.952  14.060  1.1190  3.0634  0.1547
 3200SOL     OW21058   1.872   3.708   2.856  0.0376  0.0761 -0.1777
 3200SOL    HW121059   1.817   3.693   2.779 -0.1778  2.3811 -0.4666
 3200SOL    HW221060   1.848   3.800   2.870 -1.4642 -0.1787 -1.0653
 3201SOL     OW21061   4.249   1.822   4.533 -0.0694 -0.1290 -0.1135
 3201SOL    HW121062   4.340   1.805   4.556 -0.5791 -2.0930  0.4279
 3201SOL    HW221063   4.206   1.737   4.534  0.3603 -0.3529 -1.7873
 3202SOL     OW21064   4.352   0.093   1.312 -0.0293 -0.1968  0.1205
 3202SOL    HW121065   4.393   0.007   1.297  3.2718  1.5184 -0.7483
 3202SOL    HW221066   4.425   0.130   1.362 -0.7708  2.0968 -0.5026
 3203SOL     OW21067   0.497   3.186   8.070  0.0759 -0.0797 -0.8003
 3203SOL    HW121068   0.430   3.183   8.138  1.7569  1.3216  0.9612
 3203SOL    HW221069   0.448   3.210   7.992  0.2666  2.8462 -0.0244
 3204SOL     OW21070   3.492   4.474  15.304 -0.4350 -0.7394  0.4151
 3204SOL    HW121071   3.533   4.519  15.378 -1.2877 -1.5717  1.3880
 3204SOL    HW221072   3.473   4.553  15.253  0.3320  1.1267  3.0406
 3205SOL     OW21073   0.942   3.591   8.500  0.4615  0.2596  0.1277
 3205SOL    HW121074   0.862   3.579   8.448  2.0350 -0.8339 -2.0292
 3205SOL    HW221075   0.998   3.525   8.460 -0.8573 -0.0528 -1.2281
 3206SOL     OW21076   0.432   3.797   5.385 -0.5129  0.2689 -0.0469
 3206SOL    HW121077   0.476   3.753   5.458 -0.5575 -0.2601 -0.3337
 3206SOL    HW221078   0.476   3.881   5.380  3.4129 -1.7426  0.9518
 3207SOL     OW21079   1.419   4.261   7.420  0.0605 -0.1200 -0.4090
 3207SOL    HW121080   1.378   4.344   7.397  0.6157  0.6393  1.3636
 3207SOL    HW221081   1.343   4.204   7.404 -1.1575  1.5134 -0.4725
 3208SOL     OW21082   2.130   4.543   6.568  0.0480 -0.2434  0.3918
 3208SOL    HW121083   2.068   4.477   6.538 -0.5897 -0.0207  1.2196
 3208SOL    HW221084   2.204   4.508   6.518  0.4348 -1.0379  1.5163
 3209SOL     OW21085   2.277   0.048   6.495 -0.1644  0.4667  0.0902
 3209SOL    HW121086   2.225   0.030   6.417 -1.3875  2.4067  0.4787
 3209SOL    HW221087   2.358   0.004   6.469  0.0527  0.4614  0.7769
 3210SOL     OW21088   1.900   3.647   2.378  0.2574  0.0500 -0.5324
 3210SOL    HW121089   1.988   3.664   2.342  0.1014 -0.5724 -1.2246
 3210SOL    HW221090   1.838   3.672   2.310 -0.2808  1.6475  0.5625
 3211SOL     OW21091   0.473   3.276  16.483  0.2434  0.3174  0.7966
 3211SOL    HW121092   0.427   3.353  16.516 -0.7257 -0.6146  1.6196
 3211SOL    HW221093   0.455   3.206  16.546 -1.1149  1.1669  1.3358
 3212SOL     OW21094   1.938   0.096   8.488  0.2110  0.7255  0.2581
 3212SOL    HW121095   1.927   0.005   8.516  2.9470  0.6088  0.9770
 3212SOL    HW221096   2.032   0.103   8.502  0.3443  0.8857 -0.7272
 3213SOL     OW21097   1.025   4.165   6.847  0.5336 -0.2337  0.5167
 3213SOL    HW121098   1.078   4.166   6.767  0.3966 -1.0897  0.4148
 3213SOL    HW221099   0.941   4.189   6.807  0.3088 -2.5164 -0.3543
 3214SOL     OW21100   1.548   3.060   5.263 -0.2840  0.1549 -0.6108
 3214SOL    HW121101   1.478   3.123   5.249 -0.0015  0.7826  0.8159
 3214SOL    HW221102   1.630   3.110   5.260  0.5361 -1.2926 -2.3148
 3215SOL     OW21103   1.027   1.453  15.449 -0.6058  0.3734 -0.3971
 3215SOL    HW121104   0.990   1.453  15.360  1.6702  0.2799 -1.3456
 3215SOL    HW221105   0.986   1.527  15.492  0.2011  1.0876 -0.8580
 3216SOL     OW21106   2.707   2.722  13.327 -0.1303 -0.1360 -0.0520
 3216SOL    HW121107   2.777   2.725  13.262  1.4999 -0.7564  1.6673
 3216SOL    HW221108   2.652   2.796  13.305  2.1013  1.2587 -0.9126
 3217SOL     OW21109   1.848   0.412   1.165 -0.1613 -0.3943  0.6218
 3217SOL    HW121110   1.760   0.399   1.201  1.1749 -3.8709  2.5778
 3217SOL    HW221111   1.900   0.394   1.243  2.8725  1.5047 -0.9579
 3218SOL     OW21112   2.195   0.629   5.399 -0.7843 -0.0016  0.2077
 3218SOL    HW121113   2.137   0.641   5.474 -0.7922  4.0982 -0.4771
 3218SOL    HW221114   2.132   0.577   5.349 -1.7648  1.6186 -0.2401
 3219SOL     OW21115   2.975   0.640   3.993 -0.0183  0.3128 -0.4155
 3219SOL    HW121116   2.948   0.613   4.080 -1.6619 -0.5444 -1.2001
 3219SOL    HW221117   3.049   0.698   4.014  0.8706 -0.9907  0.0245
 3220SOL     OW21118   3.294   4.155   2.369  0.0726 -0.0640 -0.1175
 3220SOL    HW121119   3.381   4.156   2.329  0.4776 -3.3422  0.7002
 3220SOL    HW221120   3.251   4.098   2.305 -0.6073  0.3339 -0.0158
 3221SOL     OW21121   4.479   0.810   0.632  0.4312  0.2137  0.2587
 3221SOL    HW121122   4.486   0.874   0.561  0.1124  0.3462  0.3460
 3221SOL    HW221123   4.496   0.864   0.709 -0.3054  2.8556 -1.4526
 3222SOL     OW21124   2.448   4.723  11.943 -0.0198  0.4738  0.0468
 3222SOL    HW121125   2.437   0.087  11.976 -0.3707  0.1588  0.7812
 3222SOL    HW221126   2.360   4.687  11.944 -0.4558  1.5855  1.0939
 3223SOL     OW21127   0.185   4.582   0.807  0.3506  0.3683 -0.5223
 3223SOL    HW121128   0.197   4.574   0.712 -1.1478  0.9004 -0.7578
 3223SOL    HW221129   0.203   4.492   0.836 -1.2847 -0.3024 -1.5457
 3224SOL     OW21130   3.392   2.203   7.777 -0.2312  0.5680  0.6182
 3224SOL    HW121131   3.432   2.236   7.857  0.9915 -1.1177  0.7033
 3224SOL    HW221132   3.422   2.263   7.709 -1.7678 -0.8921 -1.3679
 3225SOL     OW21133   1.332   0.734   3.682  0.0084  0.2100  0.1766
 3225SOL    HW121134   1.426   0.753   3.681  0.0610 -0.0896 -0.3181
 3225SOL    HW221135   1.323   0.652   3.634  1.2265  0.5260 -0.5965
 3226SOL     OW21136   2.879   1.057   5.608  0.5587 -0.1695 -0.3998
 3226SOL    HW121137   2.860   0.986   5.670 -1.8928 -0.7782 -1.8590
 3226SOL    HW221138   2.937   1.009   5.549  0.0993 -0.3379 -0.7172
 3227SOL     OW21139   0.424   4.068  10.655 -0.1280  0.3694 -0.0779
 3227SOL    HW121140   0.490   4.134  10.637  0.5960 -0.8419 -1.8383
 3227SOL    HW221141   0.356   4.103  10.597 -1.7279  0.4894  1.8813
 3228SOL     OW21142   4.637   0.643   0.159 -0.0179  0.0550  0.3444
 3228SOL    HW121143   4.579   0.708   0.199  1.1055  0.3241  1.5479
 3228SOL    HW221144   4.625   0.647   0.064  0.5364 -1.5339  0.2063
 3229SOL     OW21145   0.974   2.718  13.557 -0.2109 -0.3807 -0.6542
 3229SOL    HW121146   0.883   2.749  13.555  0.5513  1.9724  0.4706
 3229SOL    HW221147   0.995   2.741  13.648 -0.9245 -1.3309 -0.2413
 3230SOL     OW21148   3.841   1.528   6.157 -0.0517 -0.3528 -0.5781
 3230SOL    HW121149   3.797   1.460   6.105 -0.5356 -2.0623  2.0575
 3230SOL    HW221150   3.788   1.606   6.143 -0.9797 -0.6665  1.2398
 3231SOL     OW21151   4.705   1.806   5.616 -0.5119 -0.0281  0.4113
 3231SOL    HW121152   0.003   1.780   5.705 -0.7007  0.6595  0.6534
 3231SOL    HW221153   0.047   1.870   5.593  0.2172 -0.1827  2.0721
 3232SOL     OW21154   3.585   2.965  14.868 -0.3418 -0.0483  0.0919
 3232SOL    HW121155   3.642   2.940  14.796  0.0259  1.3827 -0.1102
 3232SOL    HW221156   3.527   3.031  14.829 -1.2097 -0.7421  0.1966
 3233SOL     OW21157   3.782   4.007   1.695 -0.0226  0.3643 -0.7537
 3233SOL    HW121158   3.713   4.073   1.692 -1.4278 -1.1645 -2.7506
 3233SOL    HW221159   3.743   3.927   1.659  0.9954 -1.1825  1.5937
 3234SOL     OW21160   2.843   0.848   6.059 -0.2129 -0.5612 -0.0859
 3234SOL    HW121161   2.833   0.852   5.964  0.8962  0.7752 -0.1477
 3234SOL    HW221162   2.763   0.893   6.083 -0.3441 -1.3937  1.0308
 3235SOL     OW21163   0.791   4.574   9.056 -0.1429 -1.0293 -0.0699
 3235SOL    HW121164   0.867   4.524   9.025  0.9294  0.9649 -0.6980
 3235SOL    HW221165   0.837   4.650   9.092 -2.2620  1.5725 -2.8480
 3236SOL     OW21166   2.820   1.516   8.670 -0.4665 -0.5493 -0.3031
 3236SOL    HW121167   2.760   1.551   8.736 -2.0994 -2.4600 -0.7756
 3236SOL    HW221168   2.902   1.561   8.691 -0.2924 -0.6502 -0.7628
 3237SOL     OW21169   4.387   1.594   0.467 -0.2556 -0.1964 -0.6333
 3237SOL    HW121170   4.363   1.686   0.483  1.8588  0.3088 -0.3051
 3237SOL    HW221171   4.342   1.542   0.533 -0.5801  0.7381 -0.1048
 3238SOL     OW21172   3.761   2.071   7.837  0.3255  0.0865 -0.1047
 3238SOL    HW121173   3.723   2.067   7.749 -1.8945  0.1817  0.8437
 3238SOL    HW221174   3.773   2.166   7.848 -1.2474  0.3126 -0.3165
 3239SOL     OW21175   0.798   3.643   2.749 -0.0153  0.3786  0.3247
 3239SOL    HW121176   0.852   3.564   2.754  0.5324  0.6794 -0.7464
 3239SOL    HW221177   0.855   3.717   2.728  0.2689  0.0501 -0.0697
 3240SOL     OW21178   1.761   3.621  13.290 -0.0315 -0.5581 -0.0088
 3240SOL    HW121179   1.708   3.698  13.271  2.3030  1.9071  3.5245
 3240SOL    HW221180   1.687   3.570  13.325  0.4940 -0.3897  1.3468
 3241SOL     OW21181   2.995   3.177  12.986 -0.0745  0.2744  0.1541
 3241SOL    HW121182   3.032   3.094  13.015 -1.2037 -0.2974 -0.0520
 3241SOL    HW221183   2.917   3.139  12.944  0.8158 -0.0895 -1.1821
 3242SOL     OW21184   3.498   0.583   3.719  0.0414 -0.1276  0.2300
 3242SOL    HW121185   3.405   0.595   3.700 -0.2301 -2.5120  0.0664
 3242SOL    HW221186   3.494   0.572   3.814  0.1261  0.0025  0.2479
 3243SOL     OW21187   0.594   0.239  13.128  0.0608  0.0531  0.4371
 3243SOL    HW121188   0.504   0.227  13.096  0.7827 -0.5615 -1.3506
 3243SOL    HW221189   0.630   0.285  13.052 -0.2441 -1.8129 -0.8435
 3244SOL     OW21190   1.425   0.563   2.325 -0.0580  0.1404  0.0753
 3244SOL    HW121191   1.340   0.521   2.312  1.6734 -3.8448  1.5461
 3244SOL    HW221192   1.451   0.561   2.232 -2.1839  1.8818 -0.5412
 3245SOL     OW21193   1.501   4.704   3.242 -0.1792  0.0580  0.0027
 3245SOL    HW121194   1.462   4.662   3.318  1.6915 -2.2741 -0.3494
 3245SOL    HW221195   1.468   4.644   3.175 -0.6162  0.0321  0.2440
 3246SOL     OW21196   2.951   0.766   5.497 -0.3230 -0.2855 -0.5480
 3246SOL    HW121197   2.947   0.671   5.485  2.0400 -0.6263  1.5334
 3246SOL    HW221198   3.042   0.779   5.524  0.2269  0.5773 -2.8219
 3247SOL     OW21199   1.909   0.118   4.751  0.2105 -0.0214  0.5102
 3247SOL    HW121200   1.951   0.203   4.734 -1.0606  0.7016  0.9510
 3247SOL    HW221201   1.919   0.065   4.672  0.8339  0.8236  0.0188
 3248SOL     OW21202   1.721   2.221   9.609  0.2990 -0.1734 -0.2880
 3248SOL    HW121203   1.753   2.290   9.551 -1.3992 -0.6182 -1.7597
 3248SOL    HW221204   1.652   2.192   9.549  0.9115  1.0506 -1.5771
 3249SOL     OW21205   2.172   3.924   4.417 -0.3603  0.3455 -0.2542
 3249SOL    HW121206   2.172   3.968   4.502  0.0172  0.1802 -0.1696
 3249SOL    HW221207   2.182   3.998   4.357  1.3380  1.0890  0.9431
 3250SOL     OW21208   2.442   1.429  15.705  0.2562  0.1373  0.5120
 3250SOL    HW121209   2.410   1.340  15.688 -1.0139  0.7932 -0.4969
 3250SOL    HW221210   2.495   1.410  15.782  0.5463 -1.4551 -0.0866
 3251SOL     OW21211   2.683   0.836  13.958  0.1824  0.8465  0.3220
 3251SOL    HW121212   2.771   0.805  13.980  0.5967  1.2834 -0.7482
 3251SOL    HW221213   2.707   0.897  13.889 -1.5313  1.9943  0.7519
 3252SOL     OW21214   1.631   4.542   1.196  0.1219 -0.3292 -0.2919
 3252SOL    HW121215   1.721   4.518   1.219  0.1393 -1.6727 -1.7705
 3252SOL    HW221216   1.645   4.594   1.117  1.9735  1.0933  0.9653
 3253SOL     OW21217   2.491   0.092   3.966 -0.8281 -0.0985  0.2295
 3253SOL    HW121218   2.560   0.148   3.929  0.1240 -0.6586  1.1420
 3253SOL    HW221219   2.419   0.097   3.904  1.0152  0.5215 -1.8940
 3254SOL     OW21220   3.827   4.324   6.866 -0.0357  0.2593  0.4552
 3254SOL    HW121221   3.806   4.386   6.936 -1.0767 -0.5265  0.8263
 3254SOL    HW221222   3.745   4.275   6.865  0.9898 -1.4340 -0.7045
 3255SOL     OW21223   1.908   0.422   7.539 -0.7412  0.1766 -0.4459
 3255SOL    HW121224   1.825   0.442   7.581  0.5215  1.5611  1.4321
 3255SOL    HW221225   1.950   0.360   7.598 -0.7166  0.0158 -0.6307
 3256SOL     OW21226   4.074   4.482   3.995 -0.2037  0.1375 -0.6773
 3256SOL    HW121227   3.987   4.469   3.958 -0.1512  2.6908 -1.6926
 3256SOL    HW221228   4.126   4.521   3.925 -0.9120 -0.8651 -1.7696
 3257SOL     OW21229   2.197   0.785   2.881  0.5300  0.8641 -0.4017
 3257SOL    HW121230   2.255   0.741   2.819 -1.5313 -0.7446 -1.1767
 3257SOL    HW221231   2.244   0.867   2.899  1.4200  0.1222  0.6306
 3258SOL     OW21232   2.572   1.592   3.588  0.6778 -0.1060 -0.0660
 3258SOL    HW121233   2.487   1.598   3.632 -0.0500 -1.3173 -1.2906
 3258SOL    HW221234   2.570   1.499   3.566  0.3470 -0.2395  0.5445
 3259SOL     OW21235   0.481   2.256  10.569  0.4000  0.8961 -0.4718
 3259SOL    HW121236   0.556   2.219  10.616  0.0499  2.2290  1.1275
 3259SOL    HW221237   0.488   2.214  10.483 -2.0208  0.6896 -0.5488
 3260SOL     OW21238   2.560   2.746  17.301  0.1214 -0.2332  0.1514
 3260SOL    HW121239   2.549   2.681  17.231  0.2265 -0.4225  0.3082
 3260SOL    HW221240   2.656   2.740  17.305 -0.1765 -4.2927  1.4328
 3261SOL     OW21241   0.080   4.391   8.202  0.5354 -0.1561 -0.1452
 3261SOL    HW121242   0.118   4.416   8.118  2.5881  0.1583  0.8736
 3261SOL    HW221243   0.061   4.299   8.184  0.0184  0.1122 -0.9678
 3262SOL     OW21244   3.183   3.250   9.673 -0.1123  0.0553  0.3599
 3262SOL    HW121245   3.208   3.158   9.682 -0.7148  0.0237  1.8081
 3262SOL    HW221246   3.187   3.278   9.765  2.9523  0.9256 -0.0670
 3263SOL     OW21247   2.914   2.398   3.337  0.6248 -0.2251 -0.0033
 3263SOL    HW121248   2.971   2.393   3.414  0.6030 -0.6623 -0.0147
 3263SOL    HW221249   2.915   2.492   3.323  0.0139 -0.1089  0.7476
 3264SOL     OW21250   1.473   0.789   3.394 -0.1502  0.5794  0.0875
 3264SOL    HW121251   1.446   0.708   3.352  2.9663  0.4272 -1.6372
 3264SOL    HW221252   1.390   0.835   3.388  0.0624  0.9629  0.0630
 3265SOL     OW21253   1.145   2.806   2.384  0.1596 -0.6173 -0.9473
 3265SOL    HW121254   1.128   2.871   2.316  0.3031 -0.6825 -1.0441
 3265SOL    HW221255   1.067   2.752   2.370 -0.8346  1.1443 -2.2691
 3266SOL     OW21256   1.827   1.308   0.324 -0.5440 -0.3260 -0.1819
 3266SOL    HW121257   1.906   1.271   0.283  0.2013  1.2029 -0.1384
 3266SOL    HW221258   1.825   1.394   0.282  0.0311 -1.8676 -3.3947
 3267SOL     OW21259   1.086   3.799   4.988  0.1727 -0.0742 -0.3285
 3267SOL    HW121260   1.099   3.712   4.950  0.3561 -0.2398  0.1191
 3267SOL    HW221261   0.993   3.790   5.008  0.0369  0.2390 -0.8394
 3268SOL     OW21262   0.672   1.015   0.552 -0.7297 -0.0816  0.0856
 3268SOL    HW121263   0.713   1.028   0.637 -0.1966 -2.0464  0.1391
 3268SOL    HW221264   0.616   0.939   0.565 -1.0552  0.3195  0.9623
 3269SOL     OW21265   0.422   4.375   8.946  0.3115  0.3936  0.0240
 3269SOL    HW121266   0.332   4.348   8.928  1.6693 -3.6010 -0.7950
 3269SOL    HW221267   0.462   4.290   8.926 -0.1611 -0.0627  1.0081
 3270SOL     OW21268   2.497   3.024   3.204 -0.3877 -0.3148 -0.0896
 3270SOL    HW121269   2.527   2.935   3.183 -0.5548 -0.6888  1.2061
 3270SOL    HW221270   2.404   3.004   3.200 -0.5529  1.0552 -3.0125
 3271SOL     OW21271   0.782   2.186  12.247 -0.6062 -0.2988 -0.6088
 3271SOL    HW121272   0.784   2.189  12.342 -3.6637 -0.2040 -0.5537
 3271SOL    HW221273   0.808   2.095  12.233  1.1483  0.2196 -0.7293
 3272SOL     OW21274   3.564   3.611   5.768  0.0098 -0.2525  0.4939
 3272SOL    HW121275   3.655   3.642   5.773 -0.6312  1.7050 -0.0120
 3272SOL    HW221276   3.501   3.678   5.794 -1.6089 -1.1850 -1.0493
 3273SOL     OW21277   2.283   1.478   8.444  0.5631  0.0862  0.2530
 3273SOL    HW121278   2.377   1.457   8.445  0.7020  0.6445 -1.2529
 3273SOL    HW221279   2.251   1.440   8.526 -0.0260  2.7498  1.2464
 3274SOL     OW21280   1.770   1.379  14.817  0.1664  0.3049  0.1320
 3274SOL    HW121281   1.834   1.321  14.858 -0.7291  0.3907  1.6607
 3274SOL    HW221282   1.726   1.402  14.899  1.1380  0.8319  0.5006
 3275SOL     OW21283   4.175   0.360  14.552  0.3265  0.4358 -0.3163
 3275SOL    HW121284   4.087   0.391  14.574  0.2637  0.4311 -0.5516
 3275SOL    HW221285   4.178   0.266  14.565 -0.1669  0.3378 -0.8712
 3276SOL     OW21286   1.899   4.120  14.732 -0.2755  0.3815 -0.0622
 3276SOL    HW121287   1.889   4.195  14.673 -0.8443 -0.1934 -0.7012
 3276SOL    HW221288   1.994   4.123  14.744 -0.3481  3.0874 -0.0825
 3277SOL     OW21289   1.827   2.576  13.703 -0.1298 -0.0886 -0.2730
 3277SOL    HW121290   1.914   2.610  13.681  0.5323 -1.1028  0.7615
 3277SOL    HW221291   1.809   2.609  13.791 -0.3828  0.4735 -0.5374
 3278SOL     OW21292   2.778   2.589  14.462 -0.0605  0.0462 -0.2687
 3278SOL    HW121293   2.810   2.499  14.454 -2.5964 -0.8285 -0.7281
 3278SOL    HW221294   2.710   2.590  14.394 -0.5441 -0.4516  0.2042
 3279SOL     OW21295   1.659   4.061  13.781 -0.1285 -1.1115 -0.5420
 3279SOL    HW121296   1.614   4.021  13.856  2.8722 -0.2636  1.7517
 3279SOL    HW221297   1.701   4.137  13.822 -2.9501 -0.6144  1.4463
 3280SOL     OW21298   4.052   0.468  13.954  0.2961 -0.0799 -0.3676
 3280SOL    HW121299   4.061   0.384  13.999  2.0657  0.5221  0.3820
 3280SOL    HW221300   4.065   0.531  14.025 -1.5355  1.8796 -1.7661
 3281SOL     OW21301   1.740   2.885   9.590  0.1424  0.2083  1.0692
 3281SOL    HW121302   1.724   2.979   9.584  0.9422  0.2682 -0.1564
 3281SOL    HW221303   1.826   2.878   9.631  1.0603  1.7614 -0.6044
 3282SOL     OW21304   2.932   0.702  10.393  0.3491  0.4145  0.0314
 3282SOL    HW121305   3.009   0.662  10.434  0.9728 -0.8698 -2.4379
 3282SOL    HW221306   2.894   0.628  10.347 -1.2392  2.7713 -2.3958
 3283SOL     OW21307   0.217   3.401   7.675 -0.4075  0.0187  0.0565
 3283SOL    HW121308   0.250   3.357   7.596 -1.0851  3.3498 -2.0608
 3283SOL    HW221309   0.302   3.407   7.718  0.0579  1.1248 -0.9991
 3284SOL     OW21310   2.488   3.233   9.654  0.0195 -0.1976  0.3628
 3284SOL    HW121311   2.536   3.304   9.612  1.3734 -0.0386  2.1893
 3284SOL    HW221312   2.550   3.193   9.715 -0.7854 -1.4876  0.3440
 3285SOL     OW21313   4.717   0.936   1.296 -0.7055  0.3685  0.1081
 3285SOL    HW121314   4.687   0.969   1.211 -0.7329  2.2224  0.8320
 3285SOL    HW221315   4.643   0.887   1.330  0.9880 -1.7418  0.7096
 3286SOL     OW21316   2.697   1.995  10.372 -0.2083 -0.2350  0.6358
 3286SOL    HW121317   2.653   1.950  10.444 -1.5545  1.1199  0.6653
 3286SOL    HW221318   2.788   1.969  10.361 -0.3111 -0.2698 -0.1380
 3287SOL     OW21319   1.752   4.204   8.173  0.1728 -0.4449 -0.4484
 3287SOL    HW121320   1.734   4.115   8.142 -0.8374 -0.3022 -0.2545
 3287SOL    HW221321   1.805   4.198   8.253  0.1681  0.2587 -0.3957
 3288SOL     OW21322   1.241   4.229   3.460 -0.8810 -0.2432 -0.5392
 3288SOL    HW121323   1.246   4.306   3.402 -1.1521 -0.6776 -1.1462
 3288SOL    HW221324   1.324   4.219   3.507 -1.1784  1.3536  0.3275
 3289SOL     OW21325   2.128   1.339   8.634 -0.6715 -0.0562 -0.0746
 3289SOL    HW121326   2.152   1.293   8.714 -2.6484 -0.2930  0.3699
 3289SOL    HW221327   2.055   1.391   8.667 -0.0339  0.5180  0.4202
 3290SOL     OW21328   4.294   2.686   3.448 -0.0122  0.3318  0.3228
 3290SOL    HW121329   4.383   2.700   3.416 -0.1938  0.3515 -0.1761
 3290SOL    HW221330   4.300   2.597   3.484 -1.0852  0.1994  0.1803
 3291SOL     OW21331   0.448   0.395  10.438 -0.1749 -0.2937  0.1795
 3291SOL    HW121332   0.368   0.357  10.402 -0.9106  0.8386  0.6175
 3291SOL    HW221333   0.516   0.334  10.409 -0.6597 -1.3210  1.2517
 3292SOL     OW21334   3.402   0.553   9.172  0.3778 -0.6569  0.0925
 3292SOL    HW121335   3.356   0.478   9.134  0.4308 -1.4571  1.5927
 3292SOL    HW221336   3.384   0.625   9.112  4.9826  1.3390  1.1301
 3293SOL     OW21337   3.658   1.816   5.308  0.6561 -0.2153  0.3371
 3293SOL    HW121338   3.726   1.817   5.376  0.6671 -0.0119  0.3231
 3293SOL    HW221339   3.672   1.723   5.288 -0.4953  0.1526 -2.1373
 3294SOL     OW21340   1.002   4.185   7.639  0.1885 -0.2456 -0.0028
 3294SOL    HW121341   0.961   4.131   7.707  1.0872 -2.1634 -0.9983
 3294SOL    HW221342   0.998   4.134   7.558  1.4910 -1.5637  0.7785
 3295SOL     OW21343   0.976   2.642   5.516 -0.4208  0.0776  0.8753
 3295SOL    HW121344   1.007   2.728   5.544  1.5146 -0.4288  0.2496
 3295SOL    HW221345   1.048   2.592   5.553  0.4437  1.0182  0.4622
 3296SOL     OW21346   4.146   3.940   8.841  0.3795  0.4560  0.3523
 3296SOL    HW121347   4.217   4.001   8.860  1.9681 -0.6489 -2.1355
 3296SOL    HW221348   4.159   3.874   8.909  2.8601  0.7204  0.1149
 3297SOL     OW21349   1.839   1.782   4.548  0.1714  0.0328 -0.1919
 3297SOL    HW121350   1.756   1.831   4.551  1.3809  1.9953  1.0169
 3297SOL    HW221351   1.909   1.846   4.564 -0.5562 -0.1570  3.6935
 3298SOL     OW21352   2.237   2.435   1.770  0.5518  0.1128 -0.1354
 3298SOL    HW121353   2.316   2.406   1.815  0.7600  2.5505  1.0612
 3298SOL    HW221354   2.214   2.359   1.717  0.6841 -0.1792  0.2296
 3299SOL     OW21355   1.877   3.216   9.917  0.0031 -0.2153 -0.3547
 3299SOL    HW121356   1.955   3.180   9.960 -1.2646 -2.9296 -0.3217
 3299SOL    HW221357   1.911   3.283   9.857 -2.1751 -0.3557 -1.7316
 3300SOL     OW21358   0.854   1.707   6.012  0.1030 -0.3407  0.3925
 3300SOL    HW121359   0.758   1.699   6.015  0.0105  0.6321 -0.0160
 3300SOL    HW221360   0.876   1.616   6.031  0.4512 -0.3724 -0.1607
 3301SOL     OW21361   2.584   4.373  14.096  0.3568  0.6907 -0.1190
 3301SOL    HW121362   2.652   4.419  14.046  0.1755  1.0613 -0.0289
 3301SOL    HW221363   2.624   4.286  14.095 -2.1348 -0.4372 -1.0146
 3302SOL     OW21364   3.097   2.946   4.896 -0.3798 -0.4627  0.1619
 3302SOL    HW121365   3.191   2.965   4.891  0.1372 -2.6782  1.2645
 3302SOL    HW221366   3.082   2.873   4.837 -1.8763  0.5110 -0.6665
 3303SOL     OW21367   2.907   2.177   8.608 -0.6145  0.1505  0.4216
 3303SOL    HW121368   2.960   2.157   8.530  0.2919 -1.3228  1.4274
 3303SOL    HW221369   2.945   2.263   8.626  0.6265 -0.1876 -0.5302
 3304SOL     OW21370   1.506   2.339   9.408  0.6119 -0.1773  0.2752
 3304SOL    HW121371   1.423   2.299   9.432  0.3902 -0.1780 -0.4963
 3304SOL    HW221372   1.552   2.268   9.363  1.0400 -0.2426  0.8100
 3305SOL     OW21373   0.593   0.416   4.332  0.1380 -0.2609 -0.2049
 3305SOL    HW121374   0.618   0.502   4.299 -1.2225  0.4070  0.4942
 3305SOL    HW221375   0.537   0.431   4.408  0.0380 -2.6657  0.1904
 3306SOL     OW21376   3.571   0.560   4.813  0.2474  0.4690 -0.5446
 3306SOL    HW121377   3.512   0.528   4.745  0.8616 -2.5452  0.3544
 3306SOL    HW221378   3.511   0.624   4.851  1.5054 -0.3287  2.8094
 3307SOL     OW21379   0.206   0.792   7.477 -0.2079 -0.0715  0.5259
 3307SOL    HW121380   0.199   0.755   7.565 -0.5613  0.6038  0.7808
 3307SOL    HW221381   0.267   0.729   7.437 -3.3232 -2.5096 -0.4106
 3308SOL     OW21382   2.888   1.618   7.024  0.4813  0.3936  0.2590
 3308SOL    HW121383   2.855   1.616   6.934 -0.7979  2.8533  0.6907
 3308SOL    HW221384   2.948   1.544   7.032  1.4660  1.2985  1.0889
 3309SOL     OW21385   4.228   3.844   3.695  0.1865 -0.1936 -0.4665
 3309SOL    HW121386   4.256   3.935   3.685 -2.6262  0.3462 -3.4914
 3309SOL    HW221387   4.300   3.808   3.748 -1.2136 -0.7234  1.0759
 3310SOL     OW21388   3.016   3.261   3.018 -0.7121 -0.1744 -0.0563
 3310SOL    HW121389   2.940   3.312   2.990 -1.8907 -1.7615  0.2955
 3310SOL    HW221390   3.034   3.301   3.103 -2.0240  0.4578 -0.0641
 3311SOL     OW21391   1.234   1.102   6.701 -0.1177 -0.6550  0.3431
 3311SOL    HW121392   1.186   1.089   6.619 -1.5670  1.7254  0.8273
 3311SOL    HW221393   1.265   1.014   6.724  0.9104 -1.2687 -3.3882
 3312SOL     OW21394   0.770   0.065  12.989  0.0527 -0.3192  0.5288
 3312SOL    HW121395   0.729   4.713  13.029 -0.1803  0.1266  1.1343
 3312SOL    HW221396   0.718   0.138  13.023 -0.0504  0.0284 -0.3795
 3313SOL     OW21397   3.999   2.052  11.760  0.1866 -0.1325  0.4773
 3313SOL    HW121398   3.994   2.103  11.679  1.9145  0.0516  0.4873
 3313SOL    HW221399   3.938   2.104  11.812 -0.5404 -0.6521  0.1444
 3314SOL     OW21400   3.671   4.182   6.642 -0.4942  0.7831 -0.0432
 3314SOL    HW121401   3.724   4.104   6.660  0.6151  1.8965  1.5879
 3314SOL    HW221402   3.628   4.184   6.727 -1.0784 -1.1958 -0.2935
 3315SOL     OW21403   1.858   1.678   8.383  0.6706 -0.4578 -0.2030
 3315SOL    HW121404   1.829   1.674   8.474 -0.3734  2.0742 -0.4186
 3315SOL    HW221405   1.951   1.692   8.395  0.3226  1.2545  0.4119
 3316SOL     OW21406   0.727   4.643   0.957  0.0649  0.1216  0.1737
 3316SOL    HW121407   0.636   4.614   0.950 -0.2298  0.5536  2.4531
 3316SOL    HW221408   0.719   0.009   0.985 -1.8594  1.5191 -4.8104
 3317SOL     OW21409   2.971   2.214   7.390 -0.6462  0.3002 -0.4263
 3317SOL    HW121410   2.985   2.282   7.324  0.8718  1.3794  1.0166
 3317SOL    HW221411   2.992   2.264   7.469  0.8580  0.0642 -0.6888
 3318SOL     OW21412   4.428   1.758   7.895  0.0362 -0.6801 -0.1076
 3318SOL    HW121413   4.522   1.748   7.878  0.4474  2.2363  0.5271
 3318SOL    HW221414   4.405   1.668   7.916 -0.6879 -0.1919  1.1910
 3319SOL     OW21415   3.974   1.533  17.603 -0.3100  0.2305 -0.1803
 3319SOL    HW121416   4.044   1.472  17.581 -0.8969 -0.3112 -0.5448
 3319SOL    HW221417   4.017   1.614  17.576 -2.2788  1.0278 -0.9282
 3320SOL     OW21418   0.744   4.578  11.649 -0.1921  0.1872 -0.2033
 3320SOL    HW121419   0.688   4.539  11.716 -0.4619 -0.8703 -1.0299
 3320SOL    HW221420   0.785   4.499  11.611 -0.5200 -0.4495  0.7662
 3321SOL     OW21421   1.217   2.463  15.951 -0.6846 -0.8560 -0.2336
 3321SOL    HW121422   1.206   2.506  15.866 -0.9244  0.1755  0.3174
 3321SOL    HW221423   1.152   2.394  15.938 -1.2358 -0.3242 -0.3083
 3322SOL     OW21424   4.121   3.828   9.086 -0.8830 -0.3697 -0.0528
 3322SOL    HW121425   4.187   3.874   9.138 -0.3219 -0.2238 -0.8844
 3322SOL    HW221426   4.045   3.871   9.126 -1.2466  0.0604 -1.1955
 3323SOL     OW21427   3.750   3.887   8.622 -0.0613 -0.2987  0.0591
 3323SOL    HW121428   3.761   3.960   8.560  0.6865  0.1883  0.7669
 3323SOL    HW221429   3.669   3.850   8.586 -1.0766  1.2063  0.7887
 3324SOL     OW21430   0.934   2.638   2.417 -0.4224 -0.1574  0.0253
 3324SOL    HW121431   0.893   2.554   2.440 -0.7003 -0.0763 -0.1714
 3324SOL    HW221432   0.876   2.702   2.459 -0.1107 -0.8224  1.4449
 3325SOL     OW21433   1.636   1.134  14.081  0.1825 -0.2428 -0.2523
 3325SOL    HW121434   1.646   1.058  14.139 -1.0141  1.6937  2.5166
 3325SOL    HW221435   1.715   1.129  14.027  0.9604  3.1191  0.6095
 3326SOL     OW21436   3.700   2.491   2.876  0.3698  0.1676 -0.2481
 3326SOL    HW121437   3.779   2.474   2.824  2.8318  0.2929  3.4585
 3326SOL    HW221438   3.658   2.553   2.817  0.9473  1.0429  0.2662
 3327SOL     OW21439   3.183   2.729  15.177 -0.2781 -0.0164  0.2764
 3327SOL    HW121440   3.269   2.754  15.144 -0.6836 -1.0663 -1.6014
 3327SOL    HW221441   3.215   2.664  15.239 -1.1996  0.0195  0.7942
 3328SOL     OW21442   1.269   1.486   5.084  0.7846  0.0050  0.1183
 3328SOL    HW121443   1.332   1.442   5.028  0.4390 -1.5011  0.9038
 3328SOL    HW221444   1.241   1.565   5.037  1.0533  0.9681  1.5881
 3329SOL     OW21445   2.504   0.544   2.459  0.6634 -0.5145 -0.5141
 3329SOL    HW121446   2.590   0.537   2.500  0.3158  1.0803  0.4981
 3329SOL    HW221447   2.467   0.456   2.468  0.4665 -0.2877  0.9095
 3330SOL     OW21448   0.038   2.545   2.127 -0.0673  0.4860 -0.6221
 3330SOL    HW121449   4.688   2.577   2.178 -1.2934 -0.9303 -1.5186
 3330SOL    HW221450   0.080   2.522   2.210 -0.6272 -0.8122 -0.7087
 3331SOL     OW21451   3.768   3.466  13.507 -0.0795  0.0667 -0.6655
 3331SOL    HW121452   3.827   3.541  13.499  0.1973  0.0952  1.5762
 3331SOL    HW221453   3.725   3.498  13.586  4.3505 -3.9553  3.4462
 3332SOL     OW21454   2.922   4.325   7.856 -0.0226  0.7014  0.3325
 3332SOL    HW121455   2.950   4.233   7.860 -0.9242  0.4536  0.9768
 3332SOL    HW221456   2.961   4.350   7.772 -0.0200  1.7687  0.6592
 3333SOL     OW21457   1.195   3.136   8.286  0.5588 -0.0413 -0.6237
 3333SOL    HW121458   1.103   3.154   8.267  1.5041  2.2323 -3.0053
 3333SOL    HW221459   1.207   3.181   8.370  0.9756 -1.9603  0.3393
 3334SOL     OW21460   2.187   3.818   4.897 -0.0267 -0.4232 -0.2851
 3334SOL    HW121461   2.220   3.868   4.972 -1.7641 -0.6072  0.5959
 3334SOL    HW221462   2.217   3.877   4.828  1.0038 -1.0982 -0.4165
 3335SOL     OW21463   4.502   2.084  16.537 -0.1019  0.6196  0.1701
 3335SOL    HW121464   4.459   2.002  16.512  0.4017  0.5088 -0.3428
 3335SOL    HW221465   4.591   2.054  16.556 -0.1515  0.2102 -0.2448
 3336SOL     OW21466   0.822   0.768  17.665  0.5310 -0.2591 -0.4310
 3336SOL    HW121467   0.807   0.710   0.040 -1.0921  1.6562  0.7456
 3336SOL    HW221468   0.909   0.735  17.644  0.4353  0.1138 -1.4602
 3337SOL     OW21469   3.193   2.614   4.947  0.0062  0.1820  0.1664
 3337SOL    HW121470   3.272   2.589   4.900 -0.0423 -1.7706  1.1163
 3337SOL    HW221471   3.223   2.702   4.972 -0.5952  0.3576  0.2712
 3338SOL     OW21472   1.827   2.141   3.497 -0.4473  0.4504 -0.1935
 3338SOL    HW121473   1.882   2.213   3.529  1.4310 -1.1657  0.1842
 3338SOL    HW221474   1.820   2.105   3.585 -1.9479  0.0505 -0.4719
 3339SOL     OW21475   3.738   2.967   8.338  0.2316 -0.3422  0.8261
 3339SOL    HW121476   3.771   2.886   8.376  1.6442  0.1406  0.6397
 3339SOL    HW221477   3.643   2.956   8.337  0.0860  0.8311  1.4667
 3340SOL     OW21478   1.059   2.778  14.927  0.0674 -0.5634 -0.3538
 3340SOL    HW121479   1.048   2.864  14.887 -1.2105  1.1291  3.5814
 3340SOL    HW221480   1.144   2.744  14.898 -0.3675  0.0029 -2.2984
 3341SOL     OW21481   4.339   2.270   7.451  0.0149 -0.9076  0.6687
 3341SOL    HW121482   4.366   2.190   7.406  1.1141 -0.0055 -0.2901
 3341SOL    HW221483   4.348   2.337   7.383  2.3088  0.0263  1.8589
 3342SOL     OW21484   3.143   0.230   2.797 -0.3248  0.0282 -0.0392
 3342SOL    HW121485   3.158   0.248   2.890 -1.3462 -3.5849  0.8312
 3342SOL    HW221486   3.073   0.167   2.811  2.3436 -2.9871 -0.2185
 3343SOL     OW21487   1.740   2.317   7.019 -0.4371 -0.2771 -0.4018
 3343SOL    HW121488   1.836   2.310   7.027 -0.4904 -0.4550  0.0961
 3343SOL    HW221489   1.728   2.371   6.941  2.4779 -0.4455 -0.9889
 3344SOL     OW21490   3.315   2.560   9.640  0.3668  0.3076 -0.3455
 3344SOL    HW121491   3.317   2.566   9.735 -0.7619  1.5354 -0.4027
 3344SOL    HW221492   3.384   2.494   9.628  1.0179  1.2631 -1.9150
 3345SOL     OW21493   4.529   3.940   7.214  0.0888  0.3164  0.4169
 3345SOL    HW121494   4.576   3.880   7.156 -0.7543 -0.9210  1.0148
 3345SOL    HW221495   4.469   3.871   7.241  1.2417 -1.8208 -2.5946
 3346SOL     OW21496   3.521   1.168   0.831  0.7098 -0.5189 -0.2304
 3346SOL    HW121497   3.616   1.157   0.833  0.7905 -0.0356 -1.8988
 3346SOL    HW221498   3.514   1.254   0.791  0.8697  0.5815  2.1259
 3347SOL     OW21499   1.898   3.049   7.491  0.4935 -0.8667 -0.3421
 3347SOL    HW121500   1.856   3.040   7.405  0.1270  0.7578 -0.3345
 3347SOL    HW221501   1.885   3.143   7.499  0.6299 -0.6991 -2.0480
 3348SOL     OW21502   0.194   1.311   3.216 -0.2602 -0.0115 -0.4041
 3348SOL    HW121503   0.143   1.388   3.242  0.2856 -0.0403  0.7054
 3348SOL    HW221504   0.277   1.351   3.191 -0.2834  0.8226  0.8787
 3349SOL     OW21505   2.262   0.724  10.627  0.4683  0.2919  0.1173
 3349SOL    HW121506   2.295   0.795  10.682 -1.7417  1.1742  0.2721
 3349SOL    HW221507   2.270   0.647  10.684  1.2920  2.0759  2.4395
 3350SOL     OW21508   1.425   3.001   3.675 -0.3318  0.4997 -0.0265
 3350SOL    HW121509   1.333   2.977   3.689  0.0470  0.1016  1.7678
 3350SOL    HW221510   1.451   2.939   3.607  1.0162  0.1494  0.8157
 3351SOL     OW21511   2.234   2.163  10.779 -0.6393  0.1460  0.6812
 3351SOL    HW121512   2.235   2.259  10.790  0.8392  0.3356 -1.1301
 3351SOL    HW221513   2.310   2.138  10.830 -0.5119 -3.0973 -1.1473
 3352SOL     OW21514   3.402   1.181  16.014 -0.0619 -1.0105  0.4041
 3352SOL    HW121515   3.396   1.095  15.972  0.2893 -1.4833  1.3056
 3352SOL    HW221516   3.488   1.213  15.986 -0.6871  0.5233  0.2235
 3353SOL     OW21517   4.616   3.929  11.071 -0.7795  0.5061  0.4452
 3353SOL    HW121518   4.559   3.969  11.136 -1.3969 -0.4319  0.4839
 3353SOL    HW221519   4.568   3.945  10.990 -0.1233  0.2519  0.0024
 3354SOL     OW21520   4.168   2.868   9.422 -0.5666 -0.2115  0.2252
 3354SOL    HW121521   4.249   2.897   9.465  0.4120 -0.6683 -1.3312
 3354SOL    HW221522   4.132   2.808   9.488 -0.6256 -0.0187  0.3678
 3355SOL     OW21523   2.067   0.228   7.276 -0.4912  0.4049 -0.0394
 3355SOL    HW121524   2.091   0.159   7.213 -1.3652 -0.5659  0.6891
 3355SOL    HW221525   2.118   0.196   7.350  0.6767  2.3156 -0.0419
 3356SOL     OW21526   0.542   2.256   4.497  0.2858  0.7394 -0.1844
 3356SOL    HW121527   0.617   2.302   4.535  0.4113  1.2924 -1.1177
 3356SOL    HW221528   0.467   2.307   4.528  0.5485  1.2350 -0.3655
 3357SOL     OW21529   4.688   2.075  12.310  0.0670  0.5105  0.0473
 3357SOL    HW121530   4.619   2.095  12.247 -0.8087  1.2677  1.2531
 3357SOL    HW221531   0.010   2.158  12.317 -1.4000  1.4803 -1.7991
 3358SOL     OW21532   1.406   1.058   4.926  0.1849  0.3137  0.0248
 3358SOL    HW121533   1.365   1.063   5.012  1.0200  0.1475  0.4351
 3358SOL    HW221534   1.388   0.970   4.894  1.2561  0.4395 -0.9461
 3359SOL     OW21535   0.763   2.311  13.190  0.1769 -0.2703 -0.0086
 3359SOL    HW121536   0.793   2.228  13.228  0.2116 -1.1234 -1.8697
 3359SOL    HW221537   0.732   2.283  13.103  1.3948 -2.4036  0.2409
 3360SOL     OW21538   0.586   4.545   3.382  0.4095  0.1263  0.1646
 3360SOL    HW121539   0.589   4.450   3.386  2.0013  0.1320 -0.9703
 3360SOL    HW221540   0.636   4.572   3.460 -1.5321  1.8343  0.8209
 3361SOL     OW21541   4.355   4.304   0.826  0.5461  0.5945  0.0583
 3361SOL    HW121542   4.449   4.285   0.826  0.5317  0.5393 -1.3474
 3361SOL    HW221543   4.340   4.396   0.806 -0.3441  0.4777  0.2213
 3362SOL     OW21544   4.205   3.498   2.565  1.0292  0.7700  0.4874
 3362SOL    HW121545   4.201   3.588   2.598  0.7944  1.6794 -2.0116
 3362SOL    HW221546   4.256   3.519   2.487  0.5345  1.5855  0.3903
 3363SOL     OW21547   0.817   4.446   4.064  0.8276  0.1091 -0.5132
 3363SOL    HW121548   0.782   4.469   4.150  2.4586 -0.2951  0.2707
 3363SOL    HW221549   0.899   4.495   4.053  1.0056  0.4903  2.5480
 3364SOL     OW21550   0.922   4.669   6.290 -0.2255  0.0144 -0.2876
 3364SOL    HW121551   0.896   4.629   6.208 -0.6587  0.6403 -0.4540
 3364SOL    HW221552   0.990   4.606   6.314 -1.8799 -1.2678  0.9914
 3365SOL     OW21553   0.233   1.992   0.321 -0.1062  0.1289 -0.3369
 3365SOL    HW121554   0.267   2.006   0.409 -1.0081 -1.7034  0.3134
 3365SOL    HW221555   0.147   2.033   0.319  0.0828  0.5303 -0.2069
 3366SOL     OW21556   2.832   3.755   8.184  0.0031 -0.1451  0.3633
 3366SOL    HW121557   2.828   3.784   8.093  0.6072  1.2643  0.7922
 3366SOL    HW221558   2.876   3.670   8.176 -0.0477 -0.2458  1.1132
 3367SOL     OW21559   1.490   0.875   1.594  0.1280  0.1498 -0.0478
 3367SOL    HW121560   1.584   0.886   1.585  0.2442  1.2248  2.3173
 3367SOL    HW221561   1.475   0.871   1.500  1.7551 -3.4118 -0.1356
 3368SOL     OW21562   0.876   4.076   7.849  0.8251 -0.2508  0.5058
 3368SOL    HW121563   0.866   4.009   7.916 -2.0550  0.3287  0.6760
 3368SOL    HW221564   0.918   4.150   7.893  1.3966 -1.3081  1.7356
 3369SOL     OW21565   0.854   0.265   7.405 -0.3373  0.2717 -0.7962
 3369SOL    HW121566   0.816   0.177   7.409  1.7029 -0.4090  3.3931
 3369SOL    HW221567   0.945   0.237   7.392 -0.4744 -1.1341  1.3012
 3370SOL     OW21568   0.755   0.457   6.912  0.2110 -0.0309  0.6834
 3370SOL    HW121569   0.763   0.437   7.005 -1.6481  0.8661  1.0235
 3370SOL    HW221570   0.660   0.459   6.905  0.4132  1.4527 -2.1006
 3371SOL     OW21571   1.613   0.197   5.018 -0.1363  0.4949  0.3991
 3371SOL    HW121572   1.632   0.158   5.103 -0.0819  2.4558  1.3042
 3371SOL    HW221573   1.581   0.120   4.973  1.4299  0.2028 -0.2383
 3372SOL     OW21574   3.314   3.558  13.692 -0.1291  0.3876 -0.0862
 3372SOL    HW121575   3.260   3.583  13.767 -0.8179 -1.3270  0.0105
 3372SOL    HW221576   3.295   3.625  13.627 -1.1951 -1.0002 -1.1896
 3373SOL     OW21577   2.127   2.847   4.874  0.1989 -0.1735  0.2120
 3373SOL    HW121578   2.064   2.918   4.860  0.6754  0.3079  0.5137
 3373SOL    HW221579   2.198   2.887   4.924  2.8164  0.3403 -3.8832
 3374SOL     OW21580   1.416   3.405   7.434  0.4240  0.1915  0.3182
 3374SOL    HW121581   1.396   3.392   7.526  1.1588  2.5606  0.7854
 3374SOL    HW221582   1.444   3.494   7.412  1.6301 -0.1402  0.5178
 3375SOL     OW21583   1.800   4.374  13.625 -0.5080  0.5397  0.1775
 3375SOL    HW121584   1.842   4.433  13.562  0.9621 -0.1123  0.5525
 3375SOL    HW221585   1.744   4.331  13.561 -0.4156 -1.4977  1.4524
 3376SOL     OW21586   3.383   3.012   4.777  0.0592 -0.4814 -0.1116
 3376SOL    HW121587   3.346   3.095   4.746  2.1470  1.4698  2.6201
 3376SOL    HW221588   3.468   3.039   4.810  0.3711 -2.7680  0.9718
 3377SOL     OW21589   1.970   2.299  11.373 -0.3022 -0.5629 -0.6460
 3377SOL    HW121590   2.049   2.276  11.324 -0.3165 -0.1705 -0.8537
 3377SOL    HW221591   1.926   2.358  11.311 -0.5398 -0.9955 -0.8881
 3378SOL     OW21592   2.280   3.001   6.301  0.7497  0.1014 -0.1590
 3378SOL    HW121593   2.233   2.973   6.379  1.3220 -1.3035 -0.3236
 3378SOL    HW221594   2.230   3.074   6.263  0.6511 -0.0834 -0.3914
 3379SOL     OW21595   0.717   1.869   6.299 -0.0332  0.3007  0.7027
 3379SOL    HW121596   0.751   1.869   6.389 -1.4835 -2.0496  1.2588
 3379SOL    HW221597   0.628   1.882   6.333 -1.0287 -1.2990 -1.3120
 3380SOL     OW21598   1.831   0.834  15.180  0.4479  0.4510 -0.0647
 3380SOL    HW121599   1.803   0.785  15.257  2.8946  1.0094  1.2043
 3380SOL    HW221600   1.750   0.830  15.129  0.7899 -0.5638 -0.5130
 3381SOL     OW21601   3.925   1.300   9.623 -0.2762 -0.1148 -0.6285
 3381SOL    HW121602   3.890   1.228   9.675 -1.3552  1.9071  1.4735
 3381SOL    HW221603   4.017   1.276   9.627 -0.9156 -2.3939  1.0480
 3382SOL     OW21604   2.517   0.382   3.074 -0.3072 -0.0759 -0.0267
 3382SOL    HW121605   2.471   0.367   2.992 -0.5389  0.6115 -0.0278
 3382SOL    HW221606   2.560   0.461   3.042 -0.3464 -0.0636 -0.0494
 3383SOL     OW21607   1.103   1.050   6.458  0.1469 -0.6678 -0.2138
 3383SOL    HW121608   1.036   0.984   6.440  1.5616 -1.5540 -2.2643
 3383SOL    HW221609   1.176   1.019   6.404  1.8949 -1.7134  2.7575
 3384SOL     OW21610   0.687   1.457   7.772  0.3146  0.1058 -1.1334
 3384SOL    HW121611   0.613   1.441   7.713 -0.7608 -3.7120  1.2352
 3384SOL    HW221612   0.699   1.371   7.813  0.3251  1.1367  0.9692
 3385SOL     OW21613   2.405   0.384   7.580  0.1607  0.1200  0.1233
 3385SOL    HW121614   2.424   0.430   7.662  1.4769 -0.4699  0.1551
 3385SOL    HW221615   2.448   0.444   7.520  0.2461  1.3964  1.4424
 3386SOL     OW21616   1.097   4.128   1.337  0.2311  0.3306 -0.4547
 3386SOL    HW121617   1.028   4.173   1.289 -1.1721  0.4254  1.6565
 3386SOL    HW221618   1.173   4.185   1.340 -0.3304  0.9983  0.9212
 3387SOL     OW21619   1.483   1.388   4.931 -0.2955 -1.1175  0.4021
 3387SOL    HW121620   1.530   1.392   4.848  2.3432  0.9670  2.0106
 3387SOL    HW221621   1.464   1.294   4.933 -0.7107 -1.0254  0.9913
 3388SOL     OW21622   4.511   2.576   8.576  0.4017 -0.1072  0.0731
 3388SOL    HW121623   4.487   2.649   8.633  0.8956  0.7436 -0.8062
 3388SOL    HW221624   4.599   2.602   8.548  0.1285  1.8790  1.0660
 3389SOL     OW21625   3.777   3.999   6.034 -0.4113 -0.1778  0.9097
 3389SOL    HW121626   3.858   4.044   6.059 -0.1111 -1.7624  2.8043
 3389SOL    HW221627   3.736   4.070   5.985 -0.4431 -0.6636  0.2419
 3390SOL     OW21628   2.272   4.175   4.359 -0.3459  0.0458 -0.3940
 3390SOL    HW121629   2.295   4.260   4.395  0.1017 -0.8697  1.4501
 3390SOL    HW221630   2.265   4.202   4.267 -1.3838  1.0043 -0.0261
 3391SOL     OW21631   3.491   4.451   4.972 -0.3459  0.4154 -0.4996
 3391SOL    HW121632   3.533   4.386   5.028  0.8816  0.9638 -0.7740
 3391SOL    HW221633   3.494   4.528   5.030 -0.0871  0.5667 -0.7121
 3392SOL     OW21634   4.564   4.357   6.605  0.6165 -0.1130  0.0410
 3392SOL    HW121635   4.488   4.351   6.547  1.2523  2.5008 -1.0981
 3392SOL    HW221636   4.618   4.416   6.552 -0.2516  2.0565  1.5425
 3393SOL     OW21637   4.458   1.435   9.085  0.1557  0.1084  0.2526
 3393SOL    HW121638   4.515   1.448   9.010 -3.6729 -0.9383 -2.8641
 3393SOL    HW221639   4.521   1.388   9.139 -0.4080  1.3421  2.0100
 3394SOL     OW21640   0.663   1.591  10.282 -0.0253 -0.0419 -0.5264
 3394SOL    HW121641   0.716   1.585  10.361  0.6043  2.4206 -0.7558
 3394SOL    HW221642   0.612   1.666  10.315  0.8850 -0.2669  1.4171
 3395SOL     OW21643   4.672   4.285   2.805  0.3298  0.1457 -0.1536
 3395SOL    HW121644   0.012   4.344   2.844  0.7511 -0.5042  0.1303
 3395SOL    HW221645   4.718   4.221   2.750 -0.3287 -0.9238  0.5464
 3396SOL     OW21646   3.110   0.550  14.525  0.2436  0.5008 -0.5634
 3396SOL    HW121647   3.171   0.481  14.552 -0.0743  1.2107  1.9617
 3396SOL    HW221648   3.125   0.619  14.589 -1.5351  0.6229 -0.2992
 3397SOL     OW21649   2.146   0.947  11.562 -0.5714  0.0937  0.0123
 3397SOL    HW121650   2.121   0.987  11.645 -1.5485 -0.0914 -0.1869
 3397SOL    HW221651   2.170   0.857  11.585 -2.0145 -0.5488 -0.9954
 3398SOL     OW21652   2.577   2.053   0.407  1.1264  0.2559 -0.1952
 3398SOL    HW121653   2.638   2.116   0.369  1.0682  0.9632  0.8685
 3398SOL    HW221654   2.546   2.094   0.488  0.6915  0.1535 -0.3114
 3399SOL     OW21655   4.160   2.317   9.116  0.0026 -0.3176  0.2701
 3399SOL    HW121656   4.209   2.235   9.126 -0.4415 -1.2396 -5.1568
 3399SOL    HW221657   4.217   2.383   9.156  0.4892 -0.2685 -0.4953
 3400SOL     OW21658   4.297   4.485   2.961  0.0123 -0.0648  0.0177
 3400SOL    HW121659   4.362   4.530   2.908  1.2812 -0.4275  1.2489
 3400SOL    HW221660   4.224   4.499   2.901  1.1169  1.2612 -0.9806
 3401SOL     OW21661   2.378   2.413   5.916 -0.4315 -0.3404 -0.6511
 3401SOL    HW121662   2.316   2.485   5.921  1.2059  1.1665 -2.0722
 3401SOL    HW221663   2.440   2.463   5.863  1.1301  0.9574  2.3903
 3402SOL     OW21664   4.177   4.663   5.464 -0.0881  0.0273 -0.5508
 3402SOL    HW121665   4.176   0.029   5.496 -1.2836  1.1624 -3.8833
 3402SOL    HW221666   4.210   4.606   5.533 -0.5511  1.2782  0.7109
 3403SOL     OW21667   1.468   2.760   2.638  0.4392 -0.0460  0.4712
 3403SOL    HW121668   1.379   2.792   2.652  0.4076  0.2241 -0.3431
 3403SOL    HW221669   1.478   2.755   2.543  1.5380 -0.0950  0.5857
 3404SOL     OW21670   0.599   0.721   2.487  0.1437  0.8988 -0.0245
 3404SOL    HW121671   0.664   0.665   2.445 -1.2163  0.0278 -0.9618
 3404SOL    HW221672   0.575   0.774   2.412 -0.5050 -1.3168 -1.3797
 3405SOL     OW21673   1.795   2.608   2.613  0.1943 -0.1409  0.4591
 3405SOL    HW121674   1.725   2.656   2.568 -0.1152 -0.4720  0.5914
 3405SOL    HW221675   1.800   2.660   2.694  3.1388  2.5254 -1.4607
 3406SOL     OW21676   1.135   4.169  14.798 -0.1356 -0.0218  0.3463
 3406SOL    HW121677   1.159   4.138  14.886  1.6862  1.5148  0.3819
 3406SOL    HW221678   1.178   4.252  14.778  0.4825 -0.5497 -0.4951
 3407SOL     OW21679   2.386   2.230   8.939  0.2017  0.2958 -0.3893
 3407SOL    HW121680   2.449   2.233   9.012 -0.2896 -0.1333  0.0567
 3407SOL    HW221681   2.425   2.171   8.875  0.9947 -0.2491  0.5879
 3408SOL     OW21682   4.371   1.565   4.978  0.0183  0.5303 -0.5237
 3408SOL    HW121683   4.280   1.562   4.947 -1.5278  2.5998  3.8103
 3408SOL    HW221684   4.409   1.480   4.956 -0.4862 -0.1350  1.1797
 3409SOL     OW21685   1.701   2.933   3.714  0.0775 -0.3283 -0.6827
 3409SOL    HW121686   1.616   2.969   3.737  0.8753  0.9988  0.2114
 3409SOL    HW221687   1.729   2.998   3.650 -2.2217  1.2808 -0.0565
 3410SOL     OW21688   1.924   4.052   7.893 -0.2495  0.2665 -0.3005
 3410SOL    HW121689   2.013   4.023   7.913 -0.2965 -1.5191 -2.6260
 3410SOL    HW221690   1.874   3.976   7.864  0.8491 -0.8736  0.7849
 3411SOL     OW21691   0.494   3.096  15.907  0.4226 -0.1580  0.3076
 3411SOL    HW121692   0.535   3.174  15.943  0.6972  0.1310 -0.6205
 3411SOL    HW221693   0.417   3.134  15.865  0.1261 -0.6311  0.4299
 3412SOL     OW21694   0.406   2.001   7.271  0.3130  0.4041 -0.0579
 3412SOL    HW121695   0.476   1.993   7.207  0.7205  0.4318  0.3796
 3412SOL    HW221696   0.331   2.028   7.218 -0.8921  0.2081  1.5228
 3413SOL     OW21697   2.571   1.956   9.059 -0.1534 -0.6043 -0.7025
 3413SOL    HW121698   2.628   2.016   9.107  3.3309 -2.7127 -2.2176
 3413SOL    HW221699   2.629   1.881   9.058  0.1411 -0.3981  0.8393
 3414SOL     OW21700   1.432   2.593   3.731  0.3911 -0.1102  0.1786
 3414SOL    HW121701   1.477   2.563   3.810 -1.1107 -0.1356  1.0307
 3414SOL    HW221702   1.507   2.607   3.673  1.0199 -0.1431  0.9936
 3415SOL     OW21703   3.579   2.265   2.966  0.2105  0.8321 -0.0388
 3415SOL    HW121704   3.653   2.207   2.984 -0.3935 -0.1154 -0.6508
 3415SOL    HW221705   3.623   2.337   2.920 -0.4103  0.5034 -1.1260
 3416SOL     OW21706   0.539   3.030   0.004  0.3305  0.0451  0.0461
 3416SOL    HW121707   0.591   3.047  17.624 -0.2706  2.9441  0.2915
 3416SOL    HW221708   0.535   2.934   0.011  1.8324  0.0091  0.5337
 3417SOL     OW21709   4.436   2.673   7.398  0.3339 -0.1992 -0.5642
 3417SOL    HW121710   4.432   2.642   7.488 -0.3987  1.2214 -0.1097
 3417SOL    HW221711   4.362   2.733   7.396 -2.0230 -3.0911 -0.4488
 3418SOL     OW21712   2.105   1.787   6.108 -0.2983  0.1819  0.4283
 3418SOL    HW121713   2.026   1.805   6.057 -0.7109  1.1578  1.3991
 3418SOL    HW221714   2.144   1.872   6.125  1.3031 -0.2516 -1.1588
 3419SOL     OW21715   3.109   2.520   7.785 -0.2777 -0.1675  0.2721
 3419SOL    HW121716   3.027   2.499   7.830 -0.2892 -0.8467 -0.0736
 3419SOL    HW221717   3.076   2.578   7.716  2.7550  2.3150  0.9118
 3420SOL     OW21718   3.654   4.443   6.529  0.1691 -0.0657  0.4851
 3420SOL    HW121719   3.648   4.368   6.589 -0.6280  1.3615  2.1754
 3420SOL    HW221720   3.735   4.417   6.484 -0.0932 -0.8878  0.4896
 3421SOL     OW21721   2.129   1.685   9.220  0.2401 -0.4769  0.4714
 3421SOL    HW121722   2.216   1.713   9.191  0.0988 -1.7293 -1.1311
 3421SOL    HW221723   2.082   1.759   9.182  1.1001 -0.2866 -0.2231
 3422SOL     OW21724   3.110   4.342  15.467 -0.5413 -0.1375  0.4910
 3422SOL    HW121725   3.132   4.411  15.405  1.9666 -0.9097  0.4943
 3422SOL    HW221726   3.041   4.292  15.424 -0.1841  1.3480 -1.8024
 3423SOL     OW21727   0.333   2.027  12.289  0.7577  0.0719 -0.3349
 3423SOL    HW121728   0.421   2.005  12.260 -0.3241 -2.5229 -1.7216
 3423SOL    HW221729   0.282   2.045  12.210  0.5942 -2.0348 -0.7067
 3424SOL     OW21730   2.235   2.456   2.740 -0.0460 -0.1400  0.2645
 3424SOL    HW121731   2.212   2.469   2.648  1.5363 -0.2070 -0.1330
 3424SOL    HW221732   2.219   2.361   2.739 -1.9933  0.1530  2.5509
 3425SOL     OW21733   3.743   1.070  10.863  0.8841  0.1646 -0.0718
 3425SOL    HW121734   3.801   1.144  10.843  0.0237  1.3096  1.7350
 3425SOL    HW221735   3.787   0.995  10.822 -1.6488 -1.7719  0.8102
 3426SOL     OW21736   4.437   4.344   4.221  0.0769  0.2469 -0.0528
 3426SOL    HW121737   4.448   4.270   4.161 -1.0234 -1.3473  1.7152
 3426SOL    HW221738   4.479   4.415   4.173 -0.7760  0.1285 -0.9823
 3427SOL     OW21739   0.108   1.967  17.527  0.1339  0.0591 -0.3904
 3427SOL    HW121740   0.185   2.010  17.489 -0.1596 -1.6104 -2.8970
 3427SOL    HW221741   0.148   1.913  17.595  0.5184 -1.6993 -2.0176
 3428SOL     OW21742   2.669   4.500   1.728  0.5030 -0.3946 -0.5235
 3428SOL    HW121743   2.724   4.529   1.801 -0.9463  1.0533  0.0064
 3428SOL    HW221744   2.617   4.434   1.774  1.3029 -1.5777 -1.3242
 3429SOL     OW21745   2.118   3.910   8.116 -0.4691  0.1209 -0.0165
 3429SOL    HW121746   2.146   3.877   8.201 -3.0976 -2.6526 -0.2204
 3429SOL    HW221747   2.056   3.838   8.102  0.2296 -0.0428 -2.2037
 3430SOL     OW21748   3.800   4.446   7.517  0.5092 -0.1057  0.0076
 3430SOL    HW121749   3.751   4.474   7.595 -1.2266 -0.4663 -0.9591
 3430SOL    HW221750   3.757   4.494   7.446 -0.2881 -1.5991 -0.5226
 3431SOL     OW21751   3.521   2.742   6.700  0.0577  1.0542  0.3249
 3431SOL    HW121752   3.528   2.767   6.608  0.9990  0.4287  0.2242
 3431SOL    HW221753   3.535   2.648   6.687 -0.9473  0.8422  0.7807
 3432SOL     OW21754   0.116   4.058  13.288 -0.9105  0.8454 -0.4979
 3432SOL    HW121755   0.035   4.025  13.248  1.2142 -3.1814 -1.4607
 3432SOL    HW221756   0.100   4.024  13.376 -1.6595  0.1423 -0.9085
 3433SOL     OW21757   2.445   3.685   6.257  0.2676 -0.5080  0.3093
 3433SOL    HW121758   2.529   3.703   6.299  0.7059  0.5669 -1.0382
 3433SOL    HW221759   2.447   3.589   6.248  1.0842 -0.3151 -1.5578
 3434SOL     OW21760   3.392   0.153  14.592 -0.3105  0.6151  0.5087
 3434SOL    HW121761   3.372   0.247  14.599 -0.5099  0.8170 -2.5691
 3434SOL    HW221762   3.333   0.130  14.521  0.3137 -0.0160  0.1977
 3435SOL     OW21763   1.817   4.596  11.942 -0.2630 -0.0135 -0.1240
 3435SOL    HW121764   1.788   4.667  11.999 -0.8278 -1.3835  1.2793
 3435SOL    HW221765   1.881   4.553  11.998 -1.5658 -1.4982  0.2110
 3436SOL     OW21766   4.596   4.471   4.039  0.0564  0.3615  0.2332
 3436SOL    HW121767   4.576   4.507   3.952  0.9070 -2.2608 -1.0517
 3436SOL    HW221768   4.665   4.412   4.009  0.6113  0.0614  2.0908
 3437SOL     OW21769   3.610   0.331   3.896 -0.5271  0.7043  0.3006
 3437SOL    HW121770   3.657   0.331   3.812 -1.2212  2.9056 -0.0911
 3437SOL    HW221771   3.676   0.278   3.942 -0.0076 -0.1452 -1.4328
 3438SOL     OW21772   1.753   0.832   4.572  0.1009  0.0297 -0.3251
 3438SOL    HW121773   1.775   0.804   4.661 -1.2607 -2.3795 -0.7347
 3438SOL    HW221774   1.792   0.919   4.565  1.4181 -0.5321  0.1139
 3439SOL     OW21775   3.925   2.480   1.652  0.4011 -0.2420 -0.1542
 3439SOL    HW121776   3.866   2.423   1.701  2.3536  1.2183  3.9010
 3439SOL    HW221777   3.918   2.569   1.687  0.1677 -0.2160 -0.2650
 3440SOL     OW21778   4.090   0.199   7.651 -0.3523  1.0920  0.4752
 3440SOL    HW121779   4.068   0.288   7.680 -2.3687  0.4830  0.8423
 3440SOL    HW221780   4.172   0.172   7.691  1.0438  1.2425 -2.3135
 3441SOL     OW21781   1.917   0.893   7.562 -0.1776  0.4807 -0.1473
 3441SOL    HW121782   1.972   0.815   7.569  0.1898  0.6037 -1.5177
 3441SOL    HW221783   1.973   0.966   7.589  0.3519 -0.4099  1.1637
 3442SOL     OW21784   2.928   1.534  13.894 -0.1800 -0.3060 -0.0587
 3442SOL    HW121785   2.993   1.560  13.959 -1.0989  1.4931  0.1581
 3442SOL    HW221786   2.849   1.584  13.917  1.5876  0.9232  3.3507
 3443SOL     OW21787   1.551   1.997  11.382  0.0931  0.1194  0.1493
 3443SOL    HW121788   1.512   2.084  11.370 -1.4167 -0.8368 -1.9119
 3443SOL    HW221789   1.523   1.976  11.471 -1.1796  3.4680  0.5385
 3444SOL     OW21790   3.209   4.308   3.699  0.0318  0.3444 -0.0602
 3444SOL    HW121791   3.198   4.276   3.610  2.0882 -0.5721  0.0131
 3444SOL    HW221792   3.262   4.235   3.731 -0.0236  0.2999 -0.0702
 3445SOL     OW21793   2.059   0.143   1.977  0.0155  0.3922  0.4925
 3445SOL    HW121794   2.089   0.183   1.896  1.2175 -3.2412 -0.8363
 3445SOL    HW221795   1.969   0.123   1.951 -0.1237 -0.3174  1.5190
 3446SOL     OW21796   3.526   2.955   3.424 -0.1394 -0.3063 -0.4675
 3446SOL    HW121797   3.441   2.998   3.434  1.2703  2.2320  0.6069
 3446SOL    HW221798   3.509   2.902   3.346 -0.6892  0.1950 -0.6855
 3447SOL     OW21799   1.532   0.721   1.833  0.1869 -0.5018 -0.0347
 3447SOL    HW121800   1.539   0.749   1.742  0.5323 -3.3508 -0.8899
 3447SOL    HW221801   1.626   0.731   1.848  0.0598  1.2633 -0.4383
 3448SOL     OW21802   1.706   0.255   8.251  0.3640 -0.5197 -0.5469
 3448SOL    HW121803   1.800   0.255   8.270  0.0973  0.9991  0.8212
 3448SOL    HW221804   1.715   0.279   8.159 -0.4665 -0.1864 -0.5441
 3449SOL     OW21805   3.043   2.855   9.538 -0.3278 -0.1012  0.4914
 3449SOL    HW121806   3.111   2.846   9.471  0.5562  1.7578  1.1196
 3449SOL    HW221807   3.036   2.762   9.560  2.3574 -0.9334 -2.1316
 3450SOL     OW21808   1.273   1.291  14.950 -0.8167  0.0820  0.0973
 3450SOL    HW121809   1.306   1.367  14.901  0.2921  0.2667  1.1251
 3450SOL    HW221810   1.264   1.334  15.035  1.1942  0.9570 -0.1344
 3451SOL     OW21811   2.331   4.130   3.270  0.2863  0.5964  0.0595
 3451SOL    HW121812   2.419   4.167   3.265  1.0075 -1.0973  0.3320
 3451SOL    HW221813   2.317   4.101   3.180 -3.1980  0.0580  0.7673
 3452SOL     OW21814   4.509   3.871   6.761 -0.4102  0.5508 -0.0240
 3452SOL    HW121815   4.531   3.918   6.681 -1.2839  1.6668  0.3872
 3452SOL    HW221816   4.595   3.837   6.785  0.2331  0.1519 -2.9227
 3453SOL     OW21817   4.505   4.537  17.194  0.4509  0.3429  0.2325
 3453SOL    HW121818   4.411   4.527  17.178  0.4263  2.6316 -0.9158
 3453SOL    HW221819   4.511   4.525  17.289  1.1886  0.8519  0.2459
 3454SOL     OW21820   2.187   3.522  13.871 -0.1432 -0.1580 -0.2535
 3454SOL    HW121821   2.247   3.467  13.922  0.2950  1.1163  0.6183
 3454SOL    HW221822   2.114   3.520  13.933 -0.5190  2.4343 -0.6117
 3455SOL     OW21823   1.248   0.058   2.278 -0.5263 -0.6185  0.0213
 3455SOL    HW121824   1.295   0.120   2.223 -0.3674 -1.1930 -0.4964
 3455SOL    HW221825   1.196   0.113   2.337 -0.1310 -1.4916  1.1798
 3456SOL     OW21826   3.775   2.831   2.183 -0.0263 -0.0504  0.0755
 3456SOL    HW121827   3.839   2.813   2.115  0.9687 -0.7343  1.1851
 3456SOL    HW221828   3.721   2.898   2.142  1.6841  0.6422 -1.0109
 3457SOL     OW21829   3.330   0.661   2.568 -0.7843 -0.8642  0.3772
 3457SOL    HW121830   3.373   0.613   2.639 -0.2236 -0.0903  0.5535
 3457SOL    HW221831   3.402   0.688   2.512  0.3556 -3.2896  0.6661
 3458SOL     OW21832   0.695   4.493   9.297 -0.3655  0.1403  0.3877
 3458SOL    HW121833   0.744   4.420   9.332  0.4014  0.2348 -0.5020
 3458SOL    HW221834   0.710   4.487   9.203 -2.9107  2.0920 -0.1557
 3459SOL     OW21835   3.479   4.345   3.446  0.0339 -0.5677 -0.0611
 3459SOL    HW121836   3.393   4.308   3.426 -0.3305  0.5835 -0.6689
 3459SOL    HW221837   3.458   4.420   3.503  0.1484  0.1606 -0.9806
 3460SOL     OW21838   4.498   0.097   0.336  0.1076 -0.0912 -0.2285
 3460SOL    HW121839   4.406   0.107   0.361 -0.2780 -2.3639 -0.7441
 3460SOL    HW221840   4.488   0.122   0.244  2.5820  0.2731 -0.3937
 3461SOL     OW21841   1.674   1.510   6.323  0.7399  0.1881 -0.5091
 3461SOL    HW121842   1.726   1.456   6.383  0.5706  0.3543 -0.2184
 3461SOL    HW221843   1.647   1.444   6.258  1.2983 -0.3991 -0.1489
 3462SOL     OW21844   2.099   1.897  15.813  0.6449  0.2612 -0.4781
 3462SOL    HW121845   2.071   1.988  15.810  0.1777  0.1344 -0.0619
 3462SOL    HW221846   2.147   1.892  15.731 -0.6915 -0.5777 -1.2186
 3463SOL     OW21847   2.175   0.198  11.262  0.2637 -0.7091  0.6278
 3463SOL    HW121848   2.131   0.283  11.262 -0.4294 -1.0543  2.2334
 3463SOL    HW221849   2.134   0.155  11.187  2.5967  0.8179 -1.5152
 3464SOL     OW21850   2.193   1.713  12.560  0.3543  0.1523  0.2606
 3464SOL    HW121851   2.174   1.649  12.492  0.1485 -0.2446  0.6948
 3464SOL    HW221852   2.107   1.755  12.568  0.2322 -0.3356  1.5546
 3465SOL     OW21853   0.474   0.737  10.003 -0.0275 -0.4915 -0.5025
 3465SOL    HW121854   0.380   0.743   9.984 -0.8285 -2.0766  2.8819
 3465SOL    HW221855   0.479   0.757  10.097 -0.8425  1.3458 -0.8568
 3466SOL     OW21856   0.394   1.382  15.042 -0.2437  0.1870 -0.5034
 3466SOL    HW121857   0.315   1.404  15.092 -0.0359 -1.3714  0.5082
 3466SOL    HW221858   0.424   1.462  15.000  0.2014 -0.7528 -1.9788
 3467SOL     OW21859   3.768   0.036   6.998 -0.4861  0.2464 -0.1762
 3467SOL    HW121860   3.828   0.099   7.039 -3.1242  1.7901  1.2616
 3467SOL    HW221861   3.677   0.063   7.009 -1.2315 -2.5644  0.6715
 3468SOL     OW21862   1.039   0.053   6.771  0.1131 -0.3604 -0.7564
 3468SOL    HW121863   0.952   0.092   6.773  1.3101  2.3389 -0.9508
 3468SOL    HW221864   1.052   0.056   6.676  3.2532 -1.8327 -0.3833
 3469SOL     OW21865   1.279   1.411   7.160 -0.1091  0.1253 -0.2314
 3469SOL    HW121866   1.214   1.431   7.092 -0.1362 -1.9278 -0.7981
 3469SOL    HW221867   1.310   1.328   7.124  0.8712  1.0457 -1.4863
 3470SOL     OW21868   0.349   4.193   9.724 -0.1677  0.2751  0.5582
 3470SOL    HW121869   0.429   4.144   9.741  1.3700  3.2690  1.9564
 3470SOL    HW221870   0.372   4.267   9.781  4.7527 -0.4013 -0.5679
 3471SOL     OW21871   3.926   1.454   3.020  0.5270 -0.1687 -0.6168
 3471SOL    HW121872   3.845   1.404   3.027  0.5461 -0.0441  0.4590
 3471SOL    HW221873   3.978   1.407   2.954  1.5005  1.2181 -0.8274
 3472SOL     OW21874   1.341   3.284   4.639 -0.2000 -0.1856 -0.4606
 3472SOL    HW121875   1.430   3.255   4.616 -0.8559 -0.6095 -2.4633
 3472SOL    HW221876   1.357   3.376   4.616  0.6288 -0.5556 -1.3877
 3473SOL     OW21877   1.840   2.759   4.699  0.0211 -0.4657 -0.1187
 3473SOL    HW121878   1.907   2.820   4.670 -0.0873 -0.0338  0.5352
 3473SOL    HW221879   1.844   2.690   4.633 -1.2306 -0.3162 -0.3523
 3474SOL     OW21880   3.754   2.580   8.968  0.1849  0.0546 -0.3030
 3474SOL    HW121881   3.831   2.619   9.008 -0.6342  1.3175  0.0216
 3474SOL    HW221882   3.712   2.662   8.942 -1.8071 -1.3680 -1.5840
 3475SOL     OW21883   3.738   0.452   2.064  0.5854 -0.4466 -0.4856
 3475SOL    HW121884   3.694   0.486   1.985 -0.4048  1.8013  1.0423
 3475SOL    HW221885   3.669   0.466   2.129 -0.0713  2.3097 -1.7227
 3476SOL     OW21886   1.403   4.643  13.224  0.2347 -0.2404  0.3548
 3476SOL    HW121887   1.449   4.563  13.248  2.9476  0.9296 -0.8060
 3476SOL    HW221888   1.353   4.661  13.303 -0.4856 -0.9480  0.0625
 3477SOL     OW21889   3.519   4.116   2.206 -0.1449 -0.4849  0.5999
 3477SOL    HW121890   3.578   4.188   2.225  0.8461 -1.1795  0.1270
 3477SOL    HW221891   3.546   4.105   2.115 -0.7268  0.5848  0.3020
 3478SOL     OW21892   3.361   2.534   2.240 -0.6867 -0.1523 -0.3996
 3478SOL    HW121893   3.388   2.625   2.233 -0.0102 -0.1118  2.6434
 3478SOL    HW221894   3.383   2.499   2.154  1.6099 -0.4579  0.3160
 3479SOL     OW21895   4.631   2.715   3.576  0.1701 -0.2330 -0.3859
 3479SOL    HW121896   4.673   2.629   3.575 -2.6676 -1.6122 -0.5562
 3479SOL    HW221897   4.639   2.745   3.485  1.7097 -1.7220 -0.7496
 3480SOL     OW21898   2.874   3.024   4.341 -0.2487  0.1479 -0.2254
 3480SOL    HW121899   2.794   3.027   4.289 -1.2249  1.6377  1.3700
 3480SOL    HW221900   2.881   2.930   4.356  1.7786  0.3749  0.3628
 3481SOL     OW21901   2.157   3.987   2.154 -0.3726  0.0554  0.3252
 3481SOL    HW121902   2.062   4.004   2.147 -0.6259 -1.6722 -0.4899
 3481SOL    HW221903   2.186   4.013   2.241  0.4307 -0.7507  0.2936
 3482SOL     OW21904   1.271   1.691   9.418 -0.4483  0.6867 -0.5104
 3482SOL    HW121905   1.283   1.599   9.441  1.1078  0.6745 -1.3864
 3482SOL    HW221906   1.258   1.721   9.508  2.2420 -0.7173  0.3392
 3483SOL     OW21907   2.980   0.041   6.094  0.0930  0.2123 -0.7436
 3483SOL    HW121908   2.940   4.679   6.102  1.3296 -0.1873  1.0678
 3483SOL    HW221909   3.034   0.033   6.015 -1.0875  0.2131 -1.5596
 3484SOL     OW21910   2.100   3.860   6.179  0.7600 -0.1800 -0.1086
 3484SOL    HW121911   2.076   3.800   6.250  1.4153 -0.8753 -0.4712
 3484SOL    HW221912   2.081   3.803   6.104 -1.8066  1.3034 -0.5614
 3485SOL     OW21913   0.192   0.120  10.662 -0.5499  0.4791  0.4244
 3485SOL    HW121914   0.123   0.058  10.687 -0.5013  0.4138  0.3972
 3485SOL    HW221915   0.158   0.200  10.702  0.1301  0.7482  0.4604
 3486SOL     OW21916   1.453   0.162  12.715  0.1636  0.4274  0.0764
 3486SOL    HW121917   1.485   0.222  12.782  2.4781 -3.7286  2.6698
 3486SOL    HW221918   1.425   0.230  12.653 -1.5495 -0.7135 -0.4089
 3487SOL     OW21919   2.412   3.403  11.097  0.0601  0.2922  0.5317
 3487SOL    HW121920   2.431   3.309  11.099  2.0294  0.6821  0.1027
 3487SOL    HW221921   2.329   3.426  11.139 -0.7137 -1.2480 -0.1465
 3488SOL     OW21922   1.706   4.487   4.022 -0.0949  0.5516 -0.7993
 3488SOL    HW121923   1.776   4.494   3.958 -1.3350  0.3812 -2.1887
 3488SOL    HW221924   1.652   4.560   3.992  3.9657  2.8243 -2.5362
 3489SOL     OW21925   0.030   2.722   8.539  0.4224  0.6306  0.1619
 3489SOL    HW121926   0.050   2.809   8.575 -0.6034  0.1092  2.0040
 3489SOL    HW221927   0.057   2.733   8.448 -2.4213 -1.8952 -0.9911
 3490SOL     OW21928   1.374   0.423   6.061  0.2486  0.3703 -0.0481
 3490SOL    HW121929   1.335   0.450   6.144 -2.6622  1.1918 -1.6763
 3490SOL    HW221930   1.309   0.364   6.021 -0.4981  1.3694 -0.3269
 3491SOL     OW21931   4.320   1.145   2.915  0.0192  0.0080  0.3568
 3491SOL    HW121932   4.387   1.212   2.902  0.2558 -0.5660 -1.4885
 3491SOL    HW221933   4.284   1.178   2.997 -0.1133 -1.5293  0.9148
 3492SOL     OW21934   1.912   0.714   5.244 -0.1538 -0.6751 -0.0709
 3492SOL    HW121935   1.944   0.627   5.268  1.0821  0.7543  3.4296
 3492SOL    HW221936   1.951   0.773   5.308 -0.6301 -1.3441  0.8473
 3493SOL     OW21937   0.562   4.065  10.316  0.7188 -0.2156 -0.2899
 3493SOL    HW121938   0.656   4.059  10.333  0.5105  0.8624  1.2297
 3493SOL    HW221939   0.542   4.117  10.394 -0.5573 -0.3888 -0.5082
 3494SOL     OW21940   1.544   1.896   8.640 -0.9076 -0.3390  0.3141
 3494SOL    HW121941   1.591   1.813   8.627 -1.3585 -0.3835 -1.0141
 3494SOL    HW221942   1.500   1.877   8.723  0.1018  2.6804  1.5337
 3495SOL     OW21943   3.872   1.897   3.914  0.5459 -0.4161  0.2270
 3495SOL    HW121944   3.839   1.945   3.989  2.6562 -0.4036  1.1288
 3495SOL    HW221945   3.934   1.967   3.892  0.1679 -0.3848 -0.7537
 3496SOL     OW21946   3.941   2.425   4.529  0.0193  0.2810 -0.1744
 3496SOL    HW121947   3.939   2.451   4.621 -0.9764 -0.3523 -0.0188
 3496SOL    HW221948   3.999   2.492   4.492  1.5055 -0.8836  0.0239
 3497SOL     OW21949   3.320   0.218   8.450  0.0934  0.3810 -0.3673
 3497SOL    HW121950   3.332   0.165   8.528  0.2572  1.2903  0.2193
 3497SOL    HW221951   3.350   0.300   8.488  1.6665  0.5359 -1.9427
 3498SOL     OW21952   0.496   1.161   7.640 -0.1951  0.5792 -0.5655
 3498SOL    HW121953   0.435   1.138   7.570  0.4465 -1.3007 -0.5054
 3498SOL    HW221954   0.472   1.252   7.656 -2.9882 -0.7270  2.6006
 3499SOL     OW21955   4.214   4.440   0.221  0.6162 -0.5646  0.3734
 3499SOL    HW121956   4.215   4.378   0.295  1.1082 -0.8642  0.1135
 3499SOL    HW221957   4.155   4.503   0.263  0.7494 -0.5415  0.5259
 3500SOL     OW21958   0.880   2.461  13.376 -0.0336 -0.4855  0.1548
 3500SOL    HW121959   0.816   2.469  13.447  1.4833 -0.3709  1.5045
 3500SOL    HW221960   0.836   2.419  13.302  0.5643 -0.5326 -0.1754
 3501SOL     OW21961   4.205   2.233   8.669 -0.6336  0.9335 -0.4021
 3501SOL    HW121962   4.138   2.201   8.730  0.5192 -0.4277  0.1431
 3501SOL    HW221963   4.259   2.291   8.723 -0.4567  1.0314 -0.6890
 3502SOL     OW21964   1.753   4.313   5.754 -0.4744  0.3282  0.1810
 3502SOL    HW121965   1.815   4.240   5.752  2.3031  2.6491  0.6377
 3502SOL    HW221966   1.818   4.382   5.771 -1.1715  1.2900 -0.9878
 3503SOL     OW21967   2.494   0.951  10.526 -0.8304 -0.3018 -0.3284
 3503SOL    HW121968   2.474   0.972  10.618  2.2853 -1.1940  0.5646
 3503SOL    HW221969   2.584   0.919  10.523 -1.1125 -0.7875 -3.0704
 3504SOL     OW21970   0.192   1.540   5.152  0.0000 -0.7970 -0.0642
 3504SOL    HW121971   0.215   1.541   5.245 -0.2853 -0.3183  0.0007
 3504SOL    HW221972   0.238   1.619   5.124  0.6898 -1.3105 -0.3783
 3505SOL     OW21973   1.311   0.160  16.341  0.4794 -0.3019  1.5009
 3505SOL    HW121974   1.383   0.199  16.390 -0.0442  0.3365  1.7525
 3505SOL    HW221975   1.302   0.218  16.266 -1.1885 -0.1628  1.8119
 3506SOL     OW21976   1.800   1.356   3.349  0.5875 -0.1435  0.3691
 3506SOL    HW121977   1.879   1.302   3.357  0.5876 -0.3783 -1.1234
 3506SOL    HW221978   1.733   1.289   3.338 -0.1128  0.9206 -1.9384
 3507SOL     OW21979   3.886   3.880   9.322  0.0396 -0.1294 -0.3404
 3507SOL    HW121980   3.912   3.822   9.393  0.0299  0.5629  0.2288
 3507SOL    HW221981   3.954   3.947   9.329 -2.6851  2.6270 -0.1990
 3508SOL     OW21982   1.250   3.300   4.916 -0.1122  0.2667  0.3120
 3508SOL    HW121983   1.173   3.246   4.903 -0.4363  0.3732  1.7828
 3508SOL    HW221984   1.293   3.286   4.831 -0.7382  1.9347 -0.2887
 3509SOL     OW21985   2.024   2.940  11.035 -0.2072 -0.4080  0.0054
 3509SOL    HW121986   2.001   2.936  10.942 -0.4107  0.2365  0.0333
 3509SOL    HW221987   1.986   3.025  11.056  2.1433  0.0899  2.1962
 3510SOL     OW21988   1.662   0.442   7.645 -0.3333 -0.4442  0.2212
 3510SOL    HW121989   1.628   0.531   7.643 -0.8828 -0.7049 -1.7731
 3510SOL    HW221990   1.622   0.413   7.727 -0.0169  1.3540  1.0116
 3511SOL     OW21991   3.414   2.319  16.353 -0.4305 -0.2719 -0.4401
 3511SOL    HW121992   3.330   2.321  16.400  0.1087  0.8777  0.4653
 3511SOL    HW221993   3.470   2.257  16.399  0.3884  0.7904  0.0100
 3512SOL     OW21994   1.429   2.591   7.087 -0.3638 -0.4542 -1.1508
 3512SOL    HW121995   1.347   2.611   7.132  0.6649  0.5190  0.2906
 3512SOL    HW221996   1.408   2.510   7.039  0.0218 -0.2130 -1.7288
 3513SOL     OW21997   1.197   1.125   3.111  0.3701 -1.0108  0.3593
 3513SOL    HW121998   1.149   1.054   3.070  1.4447 -0.6996 -1.4479
 3513SOL    HW221999   1.158   1.127   3.199  1.7575 -1.5346  0.9895
 3514SOL     OW22000   2.070   0.841   0.438  0.2342  0.2185 -0.0289
 3514SOL    HW122001   2.030   0.864   0.354 -1.5583  2.1127  1.3612
 3514SOL    HW222002   1.999   0.789   0.477  1.3215  0.2333  1.9524
 3515SOL     OW22003   2.642   2.846   1.061  0.2033 -0.1397  0.2347
 3515SOL    HW122004   2.600   2.926   1.092 -0.8798 -1.0334  1.0487
 3515SOL    HW222005   2.600   2.838   0.975  0.6400  0.7243 -0.0690
 3516SOL     OW22006   0.864   2.984   8.013 -0.6575  0.2587  0.3772
 3516SOL    HW122007   0.818   2.900   8.013  0.1685 -0.1942  0.8252
 3516SOL    HW222008   0.829   3.016   8.096  2.1017 -0.0681  1.6803
 3517SOL     OW22009   1.255   4.317   8.875  0.1543  0.4428 -0.2964
 3517SOL    HW122010   1.255   4.304   8.970  0.5917 -0.1291 -0.3743
 3517SOL    HW222011   1.177   4.271   8.846  0.9758 -1.9404  1.3023
 3518SOL     OW22012   4.412   1.726   7.237 -0.1990  0.4623  0.2818
 3518SOL    HW122013   4.463   1.717   7.318 -2.6789 -4.6672  1.3224
 3518SOL    HW222014   4.414   1.634   7.208 -1.0554  0.2422  0.9062
 3519SOL     OW22015   0.965   4.108  14.286 -0.0708  0.0694 -0.7269
 3519SOL    HW122016   0.973   4.044  14.357 -0.1377  0.1717 -0.6277
 3519SOL    HW222017   0.901   4.061  14.233 -0.6997 -0.9081  0.9345
 3520SOL     OW22018   3.227   2.040   5.940  0.4937  0.0967  0.1525
 3520SOL    HW122019   3.147   2.064   5.891 -0.3688 -0.9463  1.0646
 3520SOL    HW222020   3.247   2.117   5.993  3.2801 -0.4828 -0.0966
 3521SOL     OW22021   3.576   1.456   9.151  0.4129 -0.0341  0.3154
 3521SOL    HW122022   3.660   1.438   9.109  0.2850  0.7257 -0.2696
 3521SOL    HW222023   3.516   1.411   9.092  0.0329 -0.6995  1.2221
 3522SOL     OW22024   4.639   2.357   4.708 -0.3012  0.1993  0.5583
 3522SOL    HW122025   0.004   2.391   4.713 -0.8096  1.4547  1.1631
 3522SOL    HW222026   4.628   2.314   4.793 -0.9467 -0.3351  0.1989
 3523SOL     OW22027   1.799   0.211   6.640  0.2420  0.3690  0.0244
 3523SOL    HW122028   1.711   0.178   6.655  0.5052 -0.8499 -1.0871
 3523SOL    HW222029   1.848   0.132   6.616  1.5039  1.2921 -0.4893
 3524SOL     OW22030   0.247   3.854  10.542  0.2452 -0.5875 -0.0088
 3524SOL    HW122031   0.153   3.872  10.548  0.2485 -0.4821 -0.2450
 3524SOL    HW222032   0.255   3.905  10.461 -0.9698  2.7707  1.9750
 3525SOL     OW22033   2.395   1.263   2.859 -0.3820 -0.3579 -0.3235
 3525SOL    HW122034   2.447   1.342   2.848 -2.8999  1.3143 -0.0520
 3525SOL    HW222035   2.408   1.248   2.952 -0.1336 -0.7750 -0.4224
 3526SOL     OW22036   2.162   4.431   3.862  0.1076  0.8298 -0.0811
 3526SOL    HW122037   2.254   4.432   3.888  0.6594 -1.2820 -1.9941
 3526SOL    HW222038   2.167   4.468   3.774 -1.1290  0.4753 -0.2934
 3527SOL     OW22039   2.007   3.637   3.197  0.8017  0.0294  0.2793
 3527SOL    HW122040   1.931   3.580   3.203  1.5035 -1.1684 -1.9735
 3527SOL    HW222041   2.009   3.660   3.289  2.0586  2.2164 -0.2960
 3528SOL     OW22042   1.484   2.935   6.927  0.1540  0.4454  0.1597
 3528SOL    HW122043   1.529   2.923   6.843 -0.3615 -0.5579  0.0311
 3528SOL    HW222044   1.520   2.858   6.969  2.2938  1.9386  1.0823
 3529SOL     OW22045   4.711   1.378  17.359  0.4599  0.1981  0.2896
 3529SOL    HW122046   0.027   1.407  17.278 -0.9094  0.2264 -0.3958
 3529SOL    HW222047   0.031   1.297  17.386 -1.7415 -1.3551 -0.6965
 3530SOL     OW22048   1.251   2.421   6.951  0.5090  0.0030 -0.2150
 3530SOL    HW122049   1.186   2.352   6.962 -0.2474  0.4525 -1.8759
 3530SOL    HW222050   1.207   2.505   6.941 -0.6159 -0.9230 -3.1208
 3531SOL     OW22051   2.147   2.053   3.746  0.1785  0.5111 -0.0255
 3531SOL    HW122052   2.170   2.101   3.667  1.0293 -0.5175 -0.3990
 3531SOL    HW222053   2.210   2.094   3.807 -0.5263  0.0658  1.0061
 3532SOL     OW22054   4.208   3.079   2.985 -0.0253  0.3158  0.2026
 3532SOL    HW122055   4.200   2.990   3.019  0.6299 -0.1130 -0.7839
 3532SOL    HW222056   4.121   3.106   2.958 -0.4111 -1.9910 -0.8490
 3533SOL     OW22057   2.288   0.109   6.786  0.2635  0.0097  0.1310
 3533SOL    HW122058   2.275   0.110   6.691  0.0814 -0.6854  0.1494
 3533SOL    HW222059   2.281   0.015   6.803  1.2623 -0.2670 -0.9284
 3534SOL     OW22060   0.961   3.764   7.523  0.2215 -0.6838  0.2871
 3534SOL    HW122061   0.952   3.707   7.447 -2.3768 -0.7095  0.6097
 3534SOL    HW222062   1.052   3.748   7.549  0.2576 -0.6380  0.1891
 3535SOL     OW22063   3.835   0.327   6.553 -0.4026  0.0455  0.1984
 3535SOL    HW122064   3.858   0.249   6.603 -0.6867  0.5773  1.1493
 3535SOL    HW222065   3.750   0.353   6.588  0.2525 -0.5544  2.2148
 3536SOL     OW22066   1.116   1.763   1.188  0.0134  0.6476 -0.0083
 3536SOL    HW122067   1.024   1.757   1.214  0.2154  3.0007  1.2452
 3536SOL    HW222068   1.102   1.747   1.095  1.3368  0.1518 -0.1151
 3537SOL     OW22069   4.553   4.366   0.024  0.1592  0.4124 -0.3077
 3537SOL    HW122070   4.559   4.271   0.014  2.7903  0.5486 -0.0286
 3537SOL    HW222071   4.645   4.392   0.034  0.2527  0.2991 -0.9088
 3538SOL     OW22072   1.696   1.399  11.871  0.2389 -0.2182 -0.2366
 3538SOL    HW122073   1.623   1.361  11.822  0.6640 -1.6779  0.2594
 3538SOL    HW222074   1.691   1.350  11.953  0.2309  0.2686  0.0533
 3539SOL     OW22075   3.066   1.989   7.245  0.1231 -0.0791  0.2105
 3539SOL    HW122076   3.031   2.063   7.295 -3.4606 -0.9454 -1.0018
 3539SOL    HW222077   3.067   1.923   7.314  1.1911  0.5462  0.7987
 3540SOL     OW22078   0.639   0.047   3.960 -0.4328 -0.7242 -0.1690
 3540SOL    HW122079   0.563   0.081   3.913 -0.3909  1.6971  1.4915
 3540SOL    HW222080   0.682   0.131   3.979  3.9070 -2.8495 -0.5324
 3541SOL     OW22081   1.898   1.804   0.975  0.6231 -0.3222 -0.4913
 3541SOL    HW122082   1.853   1.722   0.994  0.0443 -0.1932 -1.2969
 3541SOL    HW222083   1.945   1.804   0.891  2.7547  2.5147  0.6903
 3542SOL     OW22084   0.079   1.405  12.019 -1.0452  0.2403 -0.7935
 3542SOL    HW122085   0.059   1.489  12.061 -2.5133 -0.7044  0.3528
 3542SOL    HW222086   0.172   1.408  11.996 -0.7974 -0.0436  0.1948
 3543SOL     OW22087   1.936   2.400  16.602 -0.4069 -0.3538 -0.2001
 3543SOL    HW122088   2.008   2.338  16.594  0.4844  0.4770  1.5337
 3543SOL    HW222089   1.969   2.480  16.559 -0.6555 -0.3131 -0.3155
 3544SOL     OW22090   4.092   4.390   2.683  0.0222 -0.3777  0.3152
 3544SOL    HW122091   4.129   4.321   2.738 -3.3097 -4.2320 -2.2921
 3544SOL    HW222092   4.035   4.439   2.742 -1.1178  0.3449 -1.3895
 3545SOL     OW22093   3.580   0.848  13.951  0.3729  0.5903  0.5144
 3545SOL    HW122094   3.583   0.880  14.041 -0.4777  0.4091  0.6033
 3545SOL    HW222095   3.606   0.757  13.965 -0.4089  0.4186  0.8159
 3546SOL     OW22096   3.011   1.687   2.490  0.4321  0.1810 -0.2399
 3546SOL    HW122097   3.039   1.729   2.409  2.3153 -1.6760 -0.5448
 3546SOL    HW222098   3.074   1.616   2.505 -1.5065 -1.4235  0.4523
 3547SOL     OW22099   0.763   1.928   9.096 -0.6210  0.1419 -0.6761
 3547SOL    HW122100   0.714   1.980   9.032  1.6283  2.9262 -0.1147
 3547SOL    HW222101   0.707   1.940   9.173  0.6464 -0.5138  0.3624
 3548SOL     OW22102   2.592   0.181  12.261 -0.0164 -0.1884 -0.0222
 3548SOL    HW122103   2.599   0.184  12.356  0.3979  2.1315 -0.1200
 3548SOL    HW222104   2.646   0.104  12.248 -0.4912 -0.2705 -1.5916
 3549SOL     OW22105   3.623   3.281  13.020  0.6071 -0.4995 -0.6997
 3549SOL    HW122106   3.652   3.312  13.105 -0.4012  0.3160 -0.6636
 3549SOL    HW222107   3.589   3.366  12.993 -0.2889 -0.8018 -0.5051
 3550SOL     OW22108   0.876   0.087  11.658  0.2476  0.1041 -0.5432
 3550SOL    HW122109   0.837   0.002  11.636 -0.5369  0.3613 -0.1493
 3550SOL    HW222110   0.962   0.064  11.623 -0.1942 -0.8213 -1.0181
 3551SOL     OW22111   2.387   3.194  13.603 -0.5113  0.4356 -0.3689
 3551SOL    HW122112   2.329   3.172  13.676  0.2169 -1.7993 -0.4801
 3551SOL    HW222113   2.446   3.257  13.644 -1.4098  1.0333  0.0067
 3552SOL     OW22114   2.604   3.332   3.507  0.4257 -0.7097 -0.1593
 3552SOL    HW122115   2.580   3.424   3.502  0.0918 -0.8606 -1.2868
 3552SOL    HW222116   2.699   3.334   3.495  0.4487 -2.4974 -0.3497
 3553SOL     OW22117   0.301   0.774   0.860  0.2224  0.4627  0.4231
 3553SOL    HW122118   0.273   0.734   0.777 -0.9610  1.7598  0.2091
 3553SOL    HW222119   0.217   0.800   0.897  0.8705  1.8140  0.9149
 3554SOL     OW22120   2.676   2.323   3.224  0.4765 -0.7262 -0.4961
 3554SOL    HW122121   2.762   2.362   3.243  0.8740 -1.8011 -0.0996
 3554SOL    HW222122   2.630   2.394   3.178  0.8249 -0.5022 -0.5017
 3555SOL     OW22123   1.650   3.181   4.651  0.9077 -0.1239  0.2265
 3555SOL    HW122124   1.608   3.199   4.735 -2.2105 -1.5178 -1.0243
 3555SOL    HW222125   1.608   3.099   4.626 -0.6471  0.4157  1.0940
 3556SOL     OW22126   1.879   2.318   7.330 -0.2855  0.1664  0.0638
 3556SOL    HW122127   1.888   2.230   7.368  0.3256  0.8561  1.5213
 3556SOL    HW222128   1.789   2.314   7.300 -0.6022  1.0774  0.9041
 3557SOL     OW22129   2.757   2.990   6.616 -0.1179  0.1885 -0.5894
 3557SOL    HW122130   2.852   3.004   6.607  0.1713  0.3229  2.4380
 3557SOL    HW222131   2.724   3.076   6.592  2.8028  1.3699 -0.3798
 3558SOL     OW22132   2.742   0.346   7.635 -0.2860 -0.0250 -0.0181
 3558SOL    HW122133   2.671   0.311   7.581  0.1682  0.8250 -1.1644
 3558SOL    HW222134   2.741   0.273   7.698  1.5073  0.8632  1.0304
 3559SOL     OW22135   3.452   2.242   3.297 -0.1034  0.0946 -0.2144
 3559SOL    HW122136   3.428   2.331   3.271  2.2814  1.1414  1.1374
 3559SOL    HW222137   3.426   2.185   3.225  0.0675  0.6129 -0.6808
 3560SOL     OW22138   0.919   1.121   5.474  0.1535 -0.1127 -0.5275
 3560SOL    HW122139   0.983   1.160   5.414 -0.1471  0.9664 -0.1374
 3560SOL    HW222140   0.859   1.074   5.417  1.0663 -1.8822 -0.0639
 3561SOL     OW22141   3.136   1.176   4.833  0.0438 -0.3506 -0.4582
 3561SOL    HW122142   3.195   1.107   4.864  1.1520  0.7499 -0.1091
 3561SOL    HW222143   3.133   1.160   4.739 -1.8463 -0.0639 -0.4500
 3562SOL     OW22144   3.116   1.591   8.392  0.6845 -0.0089  0.3420
 3562SOL    HW122145   3.143   1.590   8.300  0.0390 -1.5892  0.1667
 3562SOL    HW222146   3.028   1.554   8.393  0.3440  0.7754 -0.9473
 3563SOL     OW22147   3.191   3.840   9.260 -0.1537 -0.5785  0.1949
 3563SOL    HW122148   3.168   3.921   9.307  0.8215  0.3443 -0.9093
 3563SOL    HW222149   3.283   3.827   9.285 -0.2970 -0.0116  1.0359
 3564SOL     OW22150   3.168   2.793   0.648 -0.0646  0.7014 -0.4912
 3564SOL    HW122151   3.242   2.849   0.623  2.4465 -0.9048  3.2462
 3564SOL    HW222152   3.108   2.813   0.576 -0.2041  1.8437 -0.0582
 3565SOL     OW22153   1.023   4.304   7.964  0.2995  0.0730  0.1459
 3565SOL    HW122154   0.979   4.387   7.943  1.2388  0.2820 -0.9775
 3565SOL    HW222155   1.116   4.328   7.969  0.9298 -2.1343 -1.2114
 3566SOL     OW22156   1.028   1.497   4.819  0.0405  0.3425 -0.6509
 3566SOL    HW122157   1.031   1.489   4.724 -0.5152  0.9720 -0.7223
 3566SOL    HW222158   1.063   1.416   4.857 -0.1713 -0.1160 -1.4362
 3567SOL     OW22159   2.510   3.869   7.251  0.0899 -0.0772  0.4462
 3567SOL    HW122160   2.416   3.881   7.269  0.3707  0.6430  1.4731
 3567SOL    HW222161   2.543   3.959   7.252  0.8263 -0.3490  0.2045
 3568SOL     OW22162   4.612   2.360   1.955 -0.1242 -0.0711  0.0662
 3568SOL    HW122163   4.652   2.306   1.887  1.4592  0.5600  0.4924
 3568SOL    HW222164   4.573   2.434   1.907 -1.0843  0.2276  1.3081
 3569SOL     OW22165   0.416   0.856   3.848  0.0271  0.3308 -0.2320
 3569SOL    HW122166   0.387   0.883   3.761 -0.4199 -1.1119 -0.5291
 3569SOL    HW222167   0.351   0.787   3.866  0.6289  0.2074  1.4882
 3570SOL     OW22168   1.723   0.131   7.298  0.7719 -0.5532 -0.4501
 3570SOL    HW122169   1.788   0.127   7.228 -1.2702 -0.3838 -2.3618
 3570SOL    HW222170   1.775   0.124   7.378 -0.3309  1.6717  0.4386
 3571SOL     OW22171   0.343   0.869   6.390 -0.1889 -0.1866 -0.2918
 3571SOL    HW122172   0.376   0.837   6.306  0.9130  0.5690 -0.1460
 3571SOL    HW222173   0.429   0.896   6.421  0.3168 -0.5333 -1.4248
 3572SOL     OW22174   4.297   0.268   6.883  0.5841  0.0092  0.0712
 3572SOL    HW122175   4.351   0.315   6.947  3.1092  0.4213 -2.3557
 3572SOL    HW222176   4.353   0.191   6.874  0.5156  0.0710 -0.8913
 3573SOL     OW22177   0.077   1.101  17.337  0.2348 -0.2459 -0.1036
 3573SOL    HW122178   0.099   1.015  17.302 -0.7551 -0.2619 -0.7091
 3573SOL    HW222179   0.168   1.129  17.347  0.6977 -1.5466 -0.7271
 3574SOL     OW22180   3.316   2.589   9.897 -0.0880  0.1122  0.6003
 3574SOL    HW122181   3.342   2.562   9.985  1.4725  0.2021  0.1642
 3574SOL    HW222182   3.281   2.677   9.914  1.7080  1.1558 -1.1764
 3575SOL     OW22183   2.665   4.212  14.475  0.7429  0.3850  0.1482
 3575SOL    HW122184   2.704   4.138  14.521  1.3635 -0.3047 -1.4887
 3575SOL    HW222185   2.577   4.183  14.449  1.5968 -1.8280 -0.2968
 3576SOL     OW22186   4.288   1.843   3.319 -0.1326  0.0787  0.1721
 3576SOL    HW122187   4.211   1.850   3.264  0.4173 -1.7988 -0.8410
 3576SOL    HW222188   4.353   1.861   3.251  0.3163 -1.0016  0.3117
 3577SOL     OW22189   3.285   2.515   1.781  0.8485  0.4799 -0.2283
 3577SOL    HW122190   3.208   2.535   1.727  1.0310 -0.7832 -0.9764
 3577SOL    HW222191   3.260   2.551   1.866 -1.6191 -2.0227  0.1065
 3578SOL     OW22192   1.877   0.390   3.566 -0.4443 -0.0220  0.4344
 3578SOL    HW122193   1.849   0.303   3.538  1.1510 -0.6767  0.8959
 3578SOL    HW222194   1.805   0.445   3.535  0.2240  0.8113  0.3539
 3579SOL     OW22195   2.257   4.266   0.074  0.4626  0.1861  0.1841
 3579SOL    HW122196   2.194   4.338   0.079  0.3080 -0.0037  0.8656
 3579SOL    HW222197   2.241   4.214   0.152 -2.0267 -0.2542 -0.6166
 3580SOL     OW22198   1.704   1.628   5.740  0.1357 -0.4900 -0.3568
 3580SOL    HW122199   1.763   1.673   5.801  0.8310  0.2253 -1.5576
 3580SOL    HW222200   1.620   1.673   5.745  0.6467  0.0767  3.8607
 3581SOL     OW22201   1.752   3.787   1.385 -0.0552 -0.3395  0.4516
 3581SOL    HW122202   1.813   3.717   1.361 -0.2430 -0.8030  1.3371
 3581SOL    HW222203   1.687   3.746   1.442 -0.2475  2.7822  2.4476
 3582SOL     OW22204   3.129   1.845   4.315 -0.0621  0.2220  0.5133
 3582SOL    HW122205   3.126   1.912   4.247  0.0346 -0.5254 -0.2258
 3582SOL    HW222206   3.193   1.878   4.378 -0.3682  2.7401 -0.5058
 3583SOL     OW22207   2.745   2.828  16.337 -0.1576  0.5359 -0.3112
 3583SOL    HW122208   2.769   2.737  16.320 -0.2314  0.5608 -0.5480
 3583SOL    HW222209   2.651   2.817  16.352  0.3556 -0.8801  1.9024
 3584SOL     OW22210   1.972   2.979   5.130 -0.1205 -0.1259 -0.9327
 3584SOL    HW122211   1.987   2.885   5.132 -1.3906 -0.3536 -1.8102
 3584SOL    HW222212   1.882   2.976   5.096 -0.2306 -2.3683 -0.4185
 3585SOL     OW22213   4.337   3.464  15.583 -0.1480 -0.2796  0.3965
 3585SOL    HW122214   4.423   3.500  15.605 -0.8579  1.5958  0.1176
 3585SOL    HW222215   4.301   3.521  15.515 -0.0785 -0.6784  0.0245
 3586SOL     OW22216   3.265   0.555   7.778 -0.1063  0.3291  0.0628
 3586SOL    HW122217   3.245   0.462   7.789 -0.0978  0.4928  1.4316
 3586SOL    HW222218   3.272   0.542   7.684 -0.1446 -2.0901  0.3937
 3587SOL     OW22219   4.681   2.593   2.750 -0.4840  0.3267 -0.4547
 3587SOL    HW122220   0.031   2.630   2.703  1.7063 -0.3000  2.5348
 3587SOL    HW222221   4.617   2.576   2.680  0.4283  2.3361 -1.7629
 3588SOL     OW22222   1.252   4.123   7.110 -0.2999 -0.1255  0.3625
 3588SOL    HW122223   1.211   4.161   7.188 -0.2237  0.1515  0.2676
 3588SOL    HW222224   1.266   4.034   7.142  1.8171  0.8183  2.0618
 3589SOL     OW22225   4.449   0.191   7.446  0.0933 -0.7186 -0.4172
 3589SOL    HW122226   4.534   0.148   7.439  0.8958  1.0556 -1.6002
 3589SOL    HW222227   4.395   0.150   7.378  0.3810 -0.0599 -1.0559
 3590SOL     OW22228   0.192   4.421   6.229  0.1915  0.7746 -0.1800
 3590SOL    HW122229   0.142   4.403   6.150  0.9085 -0.3203 -0.3882
 3590SOL    HW222230   0.136   4.480   6.280 -0.7983 -0.1209 -0.2349
 3591SOL     OW22231   0.324   0.046   8.988 -0.3144  0.3147 -0.2054
 3591SOL    HW122232   0.399   0.002   8.950 -1.3484 -2.2228  0.6618
 3591SOL    HW222233   0.266   4.695   9.004 -0.8319  0.7059 -0.2148
 3592SOL     OW22234   2.530   4.621   3.564  0.3321  0.1222  0.7245
 3592SOL    HW122235   2.605   4.645   3.618  0.1117 -1.6047  1.7981
 3592SOL    HW222236   2.585   4.624   3.485  0.6655  1.3472  0.9979
 3593SOL     OW22237   3.156   4.576  15.325 -0.1702 -0.4481  0.1532
 3593SOL    HW122238   3.187   4.577  15.234  1.0267 -0.2845  0.5592
 3593SOL    HW222239   3.224   4.620  15.376 -1.7780  1.1011  0.9702
 3594SOL     OW22240   3.684   3.066   5.821 -0.1118 -0.0568 -0.4694
 3594SOL    HW122241   3.670   3.136   5.757 -3.1315  1.3870  1.7649
 3594SOL    HW222242   3.747   3.011   5.774 -0.3248 -0.0547 -0.7580
 3595SOL     OW22243   1.967   3.646   1.296  0.4291  0.1312  0.0028
 3595SOL    HW122244   2.020   3.726   1.294 -0.4122  0.7424  1.9081
 3595SOL    HW222245   2.011   3.605   1.222 -0.3314  0.6969 -0.7578
 3596SOL     OW22246   3.037   1.389   7.002  0.3288  0.0008 -0.5039
 3596SOL    HW122247   3.110   1.424   7.053 -0.0640 -0.5487  0.4318
 3596SOL    HW222248   3.019   1.304   7.041  2.7776  0.5226  1.8058
 3597SOL     OW22249   1.531   3.158   7.445  0.1722 -0.5102  0.0512
 3597SOL    HW122250   1.594   3.146   7.373  1.0144  2.7676  0.2367
 3597SOL    HW222251   1.527   3.253   7.452  0.2800 -0.3997 -1.3375
 3598SOL     OW22252   0.309   1.654   6.956 -0.2917  0.1387 -0.3408
 3598SOL    HW122253   0.274   1.617   6.875  1.3555 -2.1568 -0.0012
 3598SOL    HW222254   0.237   1.625   7.012 -1.5923 -0.2603 -2.1913
 3599SOL     OW22255   3.254   4.518   9.161  0.4401  0.2042  0.0884
 3599SOL    HW122256   3.336   4.473   9.140  0.3560  0.7597 -1.4280
 3599SOL    HW222257   3.263   4.569   9.081  1.5995  0.0306  0.1039
 3600SOL     OW22258   2.814   0.944   9.722 -0.4978 -0.2484  0.0295
 3600SOL    HW122259   2.880   1.001   9.761  0.1425 -0.2076 -1.0926
 3600SOL    HW222260   2.853   0.858   9.736 -0.4560 -0.4770 -1.4636
 3601SOL     OW22261   2.400   4.094   6.069 -0.3664  0.3732 -0.2167
 3601SOL    HW122262   2.455   4.103   6.147  1.1286 -1.6144 -1.0211
 3601SOL    HW222263   2.314   4.096   6.110 -0.1233  0.8387  0.2564
 3602SOL     OW22264   0.289   3.070   4.863  0.3294  0.5373  0.1710
 3602SOL    HW122265   0.207   3.116   4.884  0.1890  0.8466 -1.0636
 3602SOL    HW222266   0.335   3.103   4.940 -0.6884 -0.2575  1.1219
 3603SOL     OW22267   1.021   0.914   6.985  0.3478 -0.1632 -0.1662
 3603SOL    HW122268   0.991   1.001   7.012  1.6524  0.7667 -1.6483
 3603SOL    HW222269   0.934   0.875   6.981 -1.1933  3.6051 -3.5721
 3604SOL     OW22270   0.138   1.609  17.585  0.0538 -0.4092  0.0171
 3604SOL    HW122271   0.185   1.595  17.502 -1.1328  1.5460 -0.9861
 3604SOL    HW222272   0.144   1.515  17.605  0.8391 -0.3644  0.0083
 3605SOL     OW22273   3.425   1.293   8.979  0.2227  0.3762  0.6184
 3605SOL    HW122274   3.491   1.287   8.909 -0.1272  2.9166  0.0471
 3605SOL    HW222275   3.357   1.238   8.941  1.4399 -0.2294 -0.7246
 3606SOL     OW22276   0.650   0.212   1.088 -0.0590 -0.9436 -0.3384
 3606SOL    HW122277   0.735   0.254   1.101 -0.2599 -0.1371 -1.7261
 3606SOL    HW222278   0.583   0.275   1.113 -0.4104 -1.0608 -0.9946
 3607SOL     OW22279   3.170   2.025   7.680  0.1600 -0.3927 -1.3862
 3607SOL    HW122280   3.256   2.066   7.685  0.3370 -1.0297  1.1904
 3607SOL    HW222281   3.111   2.099   7.692  0.5087 -0.3051 -0.2178
 3608SOL     OW22282   4.327   0.593   4.681 -0.1356  0.4192  0.1473
 3608SOL    HW122283   4.316   0.548   4.598  0.8800  0.5663 -0.0606
 3608SOL    HW222284   4.298   0.683   4.664  2.6192  1.1932 -0.4493
 3609SOL     OW22285   2.167   3.012   3.567  0.1279 -0.0987  0.0620
 3609SOL    HW122286   2.191   2.924   3.596 -1.0693 -0.3968  0.1489
 3609SOL    HW222287   2.094   2.989   3.510  1.8059  3.1741 -3.3959
 3610SOL     OW22288   1.862   1.963   7.178  0.6029 -0.2567  0.1143
 3610SOL    HW122289   1.907   2.044   7.156 -0.8759 -0.2615 -2.8674
 3610SOL    HW222290   1.782   1.980   7.228  1.3412 -2.0580  1.9473
 3611SOL     OW22291   0.036   0.196  11.229  0.5529 -0.0678  0.4806
 3611SOL    HW122292   4.713   0.150  11.160  0.1300 -0.5487  1.1026
 3611SOL    HW222293   0.099   0.238  11.170  0.3388 -1.7178 -0.9122
 3612SOL     OW22294   3.046   1.904   3.673  0.2457  0.3340  0.1064
 3612SOL    HW122295   3.000   1.900   3.757 -0.9270  2.3231 -0.4369
 3612SOL    HW222296   3.109   1.975   3.685 -0.2633  0.8681 -0.3809
 3613SOL     OW22297   4.486   2.454   4.131 -0.2551  0.0241  0.1991
 3613SOL    HW122298   4.500   2.455   4.226 -1.3967 -0.1178  0.3731
 3613SOL    HW222299   4.511   2.365   4.106 -0.5998 -0.1225  0.3813
 3614SOL     OW22300   3.995   2.978  15.217 -0.3946  0.4644  0.6170
 3614SOL    HW122301   3.990   3.073  15.203 -1.6933  0.2180 -0.5623
 3614SOL    HW222302   3.909   2.944  15.192  0.0565 -1.6859  2.0197
 3615SOL     OW22303   3.916   0.366  15.104  0.1080 -0.0914  0.1559
 3615SOL    HW122304   3.952   0.302  15.165 -1.1512 -1.4044 -0.4793
 3615SOL    HW222305   3.994   0.412  15.073  0.1634  0.1693  0.6944
 3616SOL     OW22306   0.677   3.303  13.130 -0.3171  0.7218 -0.5210
 3616SOL    HW122307   0.664   3.360  13.205 -0.5128 -1.4396  1.0709
 3616SOL    HW222308   0.768   3.325  13.106  0.2177  1.1802  1.9935
 3617SOL     OW22309   2.162   3.046  13.174  0.1591 -0.1536  0.0157
 3617SOL    HW122310   2.167   2.958  13.136  4.9574  0.1368 -0.0430
 3617SOL    HW222311   2.226   3.087  13.116  1.5982 -1.5986  0.5699
 3618SOL     OW22312   4.257   2.211  10.255 -0.1009 -0.4098  0.3014
 3618SOL    HW122313   4.288   2.247  10.338  1.6674 -0.6583 -0.2629
 3618SOL    HW222314   4.231   2.291  10.208  0.6391 -1.0330 -1.1627
 3619SOL     OW22315   1.815   2.061   7.483 -0.0524 -0.5700  0.2811
 3619SOL    HW122316   1.739   2.058   7.424 -1.5004  1.3252  2.0313
 3619SOL    HW222317   1.772   2.027   7.561  0.0453  0.9497  0.9984
 3620SOL     OW22318   0.134   3.623  16.351 -0.0248  0.1049  0.4969
 3620SOL    HW122319   0.144   3.694  16.414  0.8589  1.3523 -1.0779
 3620SOL    HW222320   0.079   3.664  16.284 -0.0591 -0.2884  0.2834
 3621SOL     OW22321   3.063   3.986  13.999 -0.4200 -0.6446  0.0303
 3621SOL    HW122322   3.035   4.071  13.964 -2.0485 -1.3295 -0.3379
 3621SOL    HW222323   2.989   3.969  14.057 -2.3915 -1.6875 -2.7846
 3622SOL     OW22324   2.431   3.910   9.966  0.1762  0.4839 -0.1930
 3622SOL    HW122325   2.420   3.901  10.061  2.0487  0.8667  0.0649
 3622SOL    HW222326   2.457   3.819   9.952 -1.3526  0.1621 -0.9292
 3623SOL     OW22327   3.028   4.691   7.537 -0.1445  0.8757  0.1475
 3623SOL    HW122328   3.067   4.719   7.454  1.5613 -2.3154 -0.1237
 3623SOL    HW222329   2.933   4.698   7.542  0.0229  3.2629  0.0667
 3624SOL     OW22330   3.090   3.616   9.361  0.5472 -0.3954 -0.4422
 3624SOL    HW122331   3.129   3.615   9.449 -0.4393  2.7577  0.0197
 3624SOL    HW222332   3.141   3.685   9.320 -0.8306 -0.1319 -1.7133
 3625SOL     OW22333   4.136   2.495   2.114 -0.1879 -0.0898 -0.0457
 3625SOL    HW122334   4.226   2.462   2.116  0.2594  1.0348 -1.3925
 3625SOL    HW222335   4.163   2.582   2.142 -2.2387  2.0940 -4.7713
 3626SOL     OW22336   1.312   3.782   5.501  0.6020  0.1139 -0.1822
 3626SOL    HW122337   1.309   3.830   5.419  0.7430  1.7718  0.7877
 3626SOL    HW222338   1.243   3.715   5.502  2.9078 -2.3083 -0.7300
 3627SOL     OW22339   3.866   4.048   5.313 -0.0200  0.0724 -0.6202
 3627SOL    HW122340   3.946   4.056   5.364 -0.8119  0.0220  0.6490
 3627SOL    HW222341   3.851   4.142   5.297  2.4202  0.3971 -0.9324
 3628SOL     OW22342   2.104   1.571   0.862  0.3331 -0.1533  0.0333
 3628SOL    HW122343   2.140   1.496   0.816  0.4582 -0.8972  1.3571
 3628SOL    HW222344   2.079   1.629   0.790  1.6198 -2.2039 -2.0480
 3629SOL     OW22345   3.633   0.654   4.167  1.2875 -0.0756  0.1700
 3629SOL    HW122346   3.581   0.725   4.205 -0.2318 -1.5288  0.8312
 3629SOL    HW222347   3.633   0.669   4.072 -0.4695 -1.0284  0.0146
 3630SOL     OW22348   3.969   3.431  14.727 -0.4658  0.4066  0.2328
 3630SOL    HW122349   3.965   3.358  14.665 -1.6505 -0.5700  1.4693
 3630SOL    HW222350   3.985   3.505  14.669 -1.2034  2.1077  2.2468
 3631SOL     OW22351   4.512   2.152   3.234  0.0719 -0.2899  0.7912
 3631SOL    HW122352   4.497   2.127   3.143  0.9287 -0.8710  0.8087
 3631SOL    HW222353   4.529   2.065   3.270  0.7403 -1.0186 -1.2967
 3632SOL     OW22354   2.078   1.508   3.145  0.0247  0.1907  0.6080
 3632SOL    HW122355   2.120   1.592   3.126 -1.6297  0.5015 -1.8493
 3632SOL    HW222356   2.128   1.486   3.222  0.8352  0.4218  0.1455
 3633SOL     OW22357   2.536   2.201   4.501  0.3433  0.1267 -0.0211
 3633SOL    HW122358   2.624   2.230   4.478  0.2508  0.4480  0.0278
 3633SOL    HW222359   2.516   2.266   4.569  0.6503 -0.5616  0.7293
 3634SOL     OW22360   2.790   3.594  15.231  0.2875 -0.6924  0.8686
 3634SOL    HW122361   2.769   3.644  15.310 -0.7742 -1.8938  1.3500
 3634SOL    HW222362   2.849   3.529  15.269  0.4235 -0.9173  0.2741
 3635SOL     OW22363   0.802   1.783   1.943  0.3453 -0.0165  0.1228
 3635SOL    HW122364   0.780   1.758   1.853  0.8757  0.1535 -0.0562
 3635SOL    HW222365   0.859   1.709   1.962 -2.0051 -1.7084  0.6038
 3636SOL     OW22366   0.841   1.176  14.330  0.0240 -0.1231 -0.5498
 3636SOL    HW122367   0.815   1.165  14.238 -0.2688  0.2999 -0.5181
 3636SOL    HW222368   0.916   1.232  14.311  1.3347 -0.8287  2.6067
 3637SOL     OW22369   1.344   1.141   9.250  0.6889  0.0115  0.0933
 3637SOL    HW122370   1.254   1.161   9.225  0.6300 -0.2658  0.0794
 3637SOL    HW222371   1.340   1.139   9.346 -0.7681  1.9074  0.0748
 3638SOL     OW22372   2.387   1.103  12.496 -0.1626 -0.1645  0.0828
 3638SOL    HW122373   2.421   1.083  12.583  0.8673 -1.1369 -0.5489
 3638SOL    HW222374   2.327   1.029  12.484  0.6069 -0.5895 -1.1777
 3639SOL     OW22375   3.141   2.692   8.778  0.6282 -0.2313  0.2469
 3639SOL    HW122376   3.063   2.737   8.746 -0.0902 -0.7170  1.3164
 3639SOL    HW222377   3.113   2.684   8.869 -1.4667 -4.5164 -0.7925
 3640SOL     OW22378   2.854   2.745   7.051  0.3487  0.3702  0.3623
 3640SOL    HW122379   2.913   2.687   7.003 -0.6808 -1.2518  1.0674
 3640SOL    HW222380   2.796   2.763   6.977  2.7462  0.0950 -1.5821
 3641SOL     OW22381   0.003   1.244   8.331  0.1017 -0.1130 -0.6409
 3641SOL    HW122382   4.666   1.203   8.271 -1.1232  1.6539 -0.6094
 3641SOL    HW222383   4.705   1.194   8.409 -0.1185 -2.6190 -2.3380
 3642SOL     OW22384   1.090   0.913   1.945 -0.9658 -0.3276 -0.4665
 3642SOL    HW122385   1.175   0.937   1.982 -1.0905  0.7436 -0.8896
 3642SOL    HW222386   1.117   0.845   1.883  1.1136 -0.2202  0.3227
 3643SOL     OW22387   1.625   0.711   3.675  0.6071  0.1853 -0.3248
 3643SOL    HW122388   1.668   0.795   3.657 -0.2680  1.1046  1.8927
 3643SOL    HW222389   1.676   0.675   3.748 -0.9287 -0.3305  0.4867
 3644SOL     OW22390   4.322   1.135   3.457  0.4419 -0.5090  0.2539
 3644SOL    HW122391   4.261   1.202   3.425  1.4261 -0.3302 -1.2241
 3644SOL    HW222392   4.351   1.099   3.374  1.2963 -1.8016  1.1099
 3645SOL     OW22393   1.781   4.090   4.226 -0.0566  0.0663 -1.2711
 3645SOL    HW122394   1.797   4.002   4.191  1.3171  0.0401 -0.5574
 3645SOL    HW222395   1.748   4.068   4.313 -0.6480 -1.2487 -1.8184
 3646SOL     OW22396   2.756   1.538   4.858  0.3244  0.1835  0.2970
 3646SOL    HW122397   2.845   1.569   4.869 -0.3022  1.8418  0.7483
 3646SOL    HW222398   2.737   1.501   4.945 -0.0776  0.9023  0.5151
 3647SOL     OW22399   3.048   1.220   8.865 -0.1680 -0.8660  0.1386
 3647SOL    HW122400   3.075   1.277   8.937 -0.4489  0.7285 -1.0169
 3647SOL    HW222401   2.953   1.232   8.864 -0.3217 -2.0165  0.7873
 3648SOL     OW22402   4.477   1.192  12.681 -0.4634  0.3042  0.2596
 3648SOL    HW122403   4.504   1.208  12.590  0.2267 -1.4464  0.1543
 3648SOL    HW222404   4.400   1.135  12.674 -0.9714  1.2941 -2.3735
 3649SOL     OW22405   2.287   3.930   2.741  0.2556 -0.3180  0.0436
 3649SOL    HW122406   2.361   3.872   2.721 -1.8618 -2.4017 -1.7000
 3649SOL    HW222407   2.219   3.867   2.720  1.2658 -1.5918  0.5784
 3650SOL     OW22408   1.133   2.888   3.605 -0.0498  0.2478  0.0769
 3650SOL    HW122409   1.135   2.854   3.516 -1.6221  1.3535 -0.3712
 3650SOL    HW222410   1.118   2.981   3.590  2.2814  0.5995 -0.1866
 3651SOL     OW22411   4.634   0.444   3.702  0.3880  0.1155  0.4275
 3651SOL    HW122412   4.673   0.373   3.752 -2.3834 -0.9127  1.1143
 3651SOL    HW222413   4.641   0.517   3.764 -1.2228  0.8724 -0.2696
 3652SOL     OW22414   3.966   2.720  12.803  0.1415 -0.2135 -0.1404
 3652SOL    HW122415   4.059   2.702  12.817 -0.4515 -1.5641  2.0015
 3652SOL    HW222416   3.919   2.669  12.869  1.6081 -1.7214 -0.2657
 3653SOL     OW22417   1.362   3.168   9.403 -0.6309  0.7173  0.5251
 3653SOL    HW122418   1.282   3.215   9.426 -0.7721  0.6633  0.1511
 3653SOL    HW222419   1.376   3.217   9.322 -2.1510  0.4395  0.0951
 3654SOL     OW22420   3.747   0.600   4.426  0.3331  0.0387 -0.5934
 3654SOL    HW122421   3.724   0.594   4.333  2.5957 -1.6577 -1.0609
 3654SOL    HW222422   3.724   0.514   4.461  1.5092  0.8835  2.2079
 3655SOL     OW22423   2.212   1.427  16.709  0.0167 -0.5605  0.0709
 3655SOL    HW122424   2.138   1.484  16.729  1.2581  1.4538 -1.0589
 3655SOL    HW222425   2.161   1.363  16.658  2.5596 -1.1895 -1.7279
 3656SOL     OW22426   0.937   0.571  15.467  0.5223  0.2595  0.0077
 3656SOL    HW122427   0.996   0.575  15.543  0.4233  0.1350  0.0917
 3656SOL    HW222428   1.005   0.573  15.401  0.6372  2.3974  0.1960
 3657SOL     OW22429   4.077   0.770   9.556  0.3536 -0.1473  0.2654
 3657SOL    HW122430   4.062   0.675   9.550  3.4243 -0.5909 -0.3552
 3657SOL    HW222431   4.115   0.758   9.643  1.3239  0.0227 -0.1441
 3658SOL     OW22432   4.687   3.775  10.834  0.0535 -0.0377 -0.5408
 3658SOL    HW122433   0.056   3.795  10.830 -0.1748  0.8782 -1.3341
 3658SOL    HW222434   4.654   3.861  10.805  1.2072  1.8157  3.7128
 3659SOL     OW22435   3.012   0.240   5.595 -0.0735 -0.0251 -0.0145
 3659SOL    HW122436   3.011   0.206   5.684 -1.0556  0.1051  0.0258
 3659SOL    HW222437   3.101   0.222   5.565  0.3663  0.1061  1.2007
 3660SOL     OW22438   2.867   1.652   2.913 -0.5540  0.1182  0.0318
 3660SOL    HW122439   2.934   1.720   2.900  0.8199 -0.9721  1.2538
 3660SOL    HW222440   2.890   1.631   3.004  3.0992 -0.8397 -1.1052
 3661SOL     OW22441   2.947   2.852   8.115 -0.2907 -1.0536  0.3211
 3661SOL    HW122442   2.918   2.775   8.164 -0.1081 -0.9099  0.6548
 3661SOL    HW222443   2.858   2.871   8.087  0.9979  0.5514 -2.7665
 3662SOL     OW22444   0.010   2.134   6.452  0.7237  0.0138  0.1106
 3662SOL    HW122445   4.666   2.106   6.513 -1.0014  1.6536 -1.0763
 3662SOL    HW222446   0.082   2.120   6.514  1.4761 -1.5091 -1.0924
 3663SOL     OW22447   1.708   3.251   6.146 -0.2295 -0.2307  0.3125
 3663SOL    HW122448   1.651   3.327   6.148 -2.5637 -1.9932  0.4150
 3663SOL    HW222449   1.798   3.281   6.135 -0.0235 -0.6439  0.8380
 3664SOL     OW22450   3.539   1.390   8.634  0.0926 -0.2785  0.4559
 3664SOL    HW122451   3.621   1.340   8.630  0.0235 -0.2068 -1.7820
 3664SOL    HW222452   3.569   1.479   8.648  1.6331 -0.7066 -0.1453
 3665SOL     OW22453   1.605   4.035   3.942  0.6606 -0.5511  0.2903
 3665SOL    HW122454   1.638   4.093   3.874  1.2334  0.3860  1.3465
 3665SOL    HW222455   1.631   3.952   3.902  0.0998  0.0275 -1.2557
 3666SOL     OW22456   2.899   4.453   5.003  0.3930 -0.1807  0.7383
 3666SOL    HW122457   2.983   4.484   5.038  0.9479  0.1574 -0.9184
 3666SOL    HW222458   2.914   4.359   5.015 -0.4648 -0.4175 -0.1027
 3667SOL     OW22459   0.174   2.371   4.005  0.5965  0.1602  1.0459
 3667SOL    HW122460   0.157   2.354   4.098 -0.4625 -0.4802  0.7382
 3667SOL    HW222461   0.269   2.383   4.011  0.1666  3.4372  1.2953
 3668SOL     OW22462   2.184   2.882   7.683  0.6702 -0.3843 -0.1611
 3668SOL    HW122463   2.182   2.919   7.595 -0.3701 -2.8482 -1.1846
 3668SOL    HW222464   2.198   2.961   7.736  0.2820 -0.9802  0.8365
 3669SOL     OW22465   3.036   3.122  15.926  0.2695 -0.0945 -0.2655
 3669SOL    HW122466   2.943   3.126  15.904 -0.0435  0.9318  1.2506
 3669SOL    HW222467   3.026   3.124  16.021 -0.5447  0.2265 -0.3619
 3670SOL     OW22468   2.510   3.823   9.465 -0.5123  0.2494  0.4678
 3670SOL    HW122469   2.596   3.851   9.495  0.7271 -3.0357  0.0006
 3670SOL    HW222470   2.520   3.730   9.445  1.2501  0.5329  0.0870
 3671SOL     OW22471   1.930   2.596   6.602  0.3754  0.3455 -0.3355
 3671SOL    HW122472   1.955   2.521   6.655 -1.2851 -0.4412 -0.6520
 3671SOL    HW222473   1.985   2.588   6.524 -1.1290 -1.1308 -1.2564
 3672SOL     OW22474   2.341   1.844  12.739 -0.5614 -0.1767 -0.1049
 3672SOL    HW122475   2.297   1.782  12.681 -3.1776  3.0366 -1.5310
 3672SOL    HW222476   2.269   1.899  12.769  0.6822  0.6251  1.4477
 3673SOL     OW22477   3.041   4.122   9.687 -0.3051 -0.2243 -0.4612
 3673SOL    HW122478   3.039   4.100   9.594 -2.7500  1.6944 -0.8719
 3673SOL    HW222479   3.046   4.030   9.711  0.8024 -0.3180 -1.0868
 3674SOL     OW22480   2.840   2.990   6.260  0.0072  0.7769 -0.0164
 3674SOL    HW122481   2.754   3.002   6.300  0.9672  2.2162  1.6211
 3674SOL    HW222482   2.911   3.025   6.313 -1.6694  1.0049  2.0650
 3675SOL     OW22483   1.100   0.200   4.033  0.3097  0.7033 -0.0215
 3675SOL    HW122484   1.089   0.155   4.117  0.6360 -2.6318 -1.7364
 3675SOL    HW222485   1.196   0.194   4.032  0.3185  1.0047 -2.0070
 3676SOL     OW22486   4.052   2.956   4.222 -0.7042 -0.0742  0.2778
 3676SOL    HW122487   4.124   2.988   4.169 -2.4774  2.5530 -0.5305
 3676SOL    HW222488   3.977   3.002   4.183 -1.8873 -2.6610 -0.5908
 3677SOL     OW22489   2.381   1.314   3.346 -0.2091  0.3305  0.6796
 3677SOL    HW122490   2.393   1.256   3.422 -0.6696 -0.2396  0.3153
 3677SOL    HW222491   2.290   1.338   3.363 -0.8444 -0.6249 -1.3722
 3678SOL     OW22492   0.876   0.242   2.399 -0.1347  0.5153 -0.8777
 3678SOL    HW122493   0.900   0.159   2.441 -2.2809  0.3009 -0.0248
 3678SOL    HW222494   0.834   0.201   2.323 -1.9919  0.1145  0.3414
 3679SOL     OW22495   2.946   0.010   8.241  0.4595 -0.3591 -0.4761
 3679SOL    HW122496   2.986   4.665   8.190 -0.7223 -0.2237 -1.5800
 3679SOL    HW222497   2.937   4.691   8.326  3.7964 -0.6992 -0.3196
 3680SOL     OW22498   1.701   2.979  12.885 -0.0065 -0.5299 -0.0839
 3680SOL    HW122499   1.767   3.027  12.935 -2.3894  1.4897  1.1561
 3680SOL    HW222500   1.706   2.890  12.918 -1.0139  0.2247  2.0963
 3681SOL     OW22501   4.581   1.176   2.665  0.1766  0.0196 -0.1479
 3681SOL    HW122502   4.542   1.254   2.704 -0.3701 -0.4952  0.3397
 3681SOL    HW222503   4.660   1.169   2.719  0.6817 -0.3080 -0.9302
 3682SOL     OW22504   4.605   2.928   7.644  0.4021 -0.0449 -0.7067
 3682SOL    HW122505   4.636   2.951   7.556  3.6658  1.7609  0.9264
 3682SOL    HW222506   4.625   2.835   7.650 -0.7817 -0.1719  1.2358
 3683SOL     OW22507   1.946   0.449   6.843 -0.2432 -0.5300  0.5825
 3683SOL    HW122508   1.998   0.381   6.886 -0.9423 -2.5034 -1.6761
 3683SOL    HW222509   2.012   0.487   6.786  1.2518 -2.5877  0.9357
 3684SOL     OW22510   0.707   0.700   1.695 -0.0661 -0.3887  0.0433
 3684SOL    HW122511   0.687   0.627   1.636  2.0184 -0.8796 -0.0915
 3684SOL    HW222512   0.771   0.729   1.630 -0.1763  0.1638  0.1811
 3685SOL     OW22513   3.211   2.870  13.776  0.1594  0.2348  0.4054
 3685SOL    HW122514   3.154   2.911  13.841 -0.8501 -1.5067  0.6367
 3685SOL    HW222515   3.298   2.901  13.800 -1.2653  3.8849  0.7762
 3686SOL     OW22516   1.696   1.059   0.198 -0.6228 -0.4252  0.1623
 3686SOL    HW122517   1.638   1.028   0.267 -1.5534  1.9777  0.4662
 3686SOL    HW222518   1.726   1.143   0.232  1.8601 -0.7793 -1.1777
 3687SOL     OW22519   3.460   2.304   8.008  0.5094 -0.0339  0.3183
 3687SOL    HW122520   3.413   2.383   8.035 -0.8832  0.1212 -2.4622
 3687SOL    HW222521   3.436   2.243   8.078  1.8130  0.7018  1.3993
 3688SOL     OW22522   1.532   4.362   4.988 -0.3431 -0.3768 -0.4683
 3688SOL    HW122523   1.485   4.445   4.999  1.7124  0.6277  0.8029
 3688SOL    HW222524   1.470   4.307   5.036  0.2024 -0.1636  0.4897
 3689SOL     OW22525   1.420   0.854   0.318  0.0049  0.4429 -0.3195
 3689SOL    HW122526   1.340   0.804   0.335  2.5532 -3.2990  0.7559
 3689SOL    HW222527   1.447   0.807   0.239 -1.1846 -2.3001  0.8967
 3690SOL     OW22528   0.180   1.675   4.596 -0.5762  0.3113  0.3308
 3690SOL    HW122529   0.176   1.762   4.636  1.9478 -0.1140  1.5108
 3690SOL    HW222530   0.097   1.634   4.620 -0.5627 -0.4177 -0.8585
 3691SOL     OW22531   0.308   4.036   2.632 -0.1307  0.0980 -0.5228
 3691SOL    HW122532   0.290   3.969   2.697  0.5158 -0.0689 -0.5127
 3691SOL    HW222533   0.320   3.985   2.552  0.8310  0.2278 -0.4589
 3692SOL     OW22534   1.990   0.780  12.732 -0.1197  0.7765  0.0598
 3692SOL    HW122535   2.020   0.868  12.754  1.5151 -0.1088  1.4409
 3692SOL    HW222536   2.061   0.754  12.674  1.2880  1.2914  1.5389
 3693SOL     OW22537   0.474   4.145   5.040  0.4341  0.6518 -0.0569
 3693SOL    HW122538   0.517   4.201   5.104  1.6311  0.4704 -0.7015
 3693SOL    HW222539   0.387   4.133   5.079 -0.1340  0.1490 -1.4516
 3694SOL     OW22540   2.265   4.685   5.539 -0.1566  0.2109 -0.4602
 3694SOL    HW122541   2.282   0.008   5.457  1.1968 -0.9210 -0.8397
 3694SOL    HW222542   2.311   4.603   5.524  1.1321  0.6262  1.3696
 3695SOL     OW22543   0.499   3.470  15.849  0.5590  0.1514 -0.4554
 3695SOL    HW122544   0.543   3.424  15.920 -3.2363  0.0005  1.7812
 3695SOL    HW222545   0.513   3.421  15.768 -1.7471  1.8549 -1.8997
 3696SOL     OW22546   1.315   4.485   6.807  0.0542  0.0595  0.2375
 3696SOL    HW122547   1.252   4.457   6.873 -0.3159  1.6609  0.5734
 3696SOL    HW222548   1.333   4.576   6.829  0.4995  0.2561 -0.9569
 3697SOL     OW22549   0.068   4.512   8.789 -0.4856 -0.2536  0.4181
 3697SOL    HW122550   0.006   4.452   8.749 -1.7192  0.8664  0.6309
 3697SOL    HW222551   0.151   4.463   8.791 -0.7777 -0.7377  0.6578
 3698SOL     OW22552   4.088   2.744   2.242  0.3025  0.2308 -0.1320
 3698SOL    HW122553   4.044   2.806   2.299 -1.1979 -1.9196  1.0513
 3698SOL    HW222554   4.044   2.780   2.165  2.1181  2.2268 -0.2176
 3699SOL     OW22555   2.768   1.248   5.452  0.6123 -0.5042 -0.2938
 3699SOL    HW122556   2.796   1.255   5.361  1.8416  1.2241  0.2103
 3699SOL    HW222557   2.834   1.188   5.487 -2.5644 -3.4930  0.5010
 3700SOL     OW22558   3.074   3.930  12.863 -0.0240  0.0294  0.3873
 3700SOL    HW122559   3.134   4.003  12.879 -0.9560  0.8176  0.2802
 3700SOL    HW222560   3.075   3.920  12.768  2.5678  0.1189  0.4111
 3701SOL     OW22561   4.442   1.184  11.988  0.0394 -0.0175  0.4749
 3701SOL    HW122562   4.386   1.235  12.047 -0.1769  1.1457 -0.7340
 3701SOL    HW222563   4.377   1.116  11.969  0.6328 -0.6806  0.8194
 3702SOL     OW22564   1.946   2.302   9.722  0.5532 -0.5196  0.2591
 3702SOL    HW122565   1.972   2.247   9.796 -0.5613  0.5584  1.4483
 3702SOL    HW222566   1.858   2.276   9.694  0.4464 -0.3165  0.4116
 3703SOL     OW22567   1.353   3.561   3.434 -0.4933 -0.5880  0.3514
 3703SOL    HW122568   1.369   3.649   3.469  0.4223 -0.4671 -0.3922
 3703SOL    HW222569   1.315   3.585   3.350 -2.4750 -0.3593  1.3123
 3704SOL     OW22570   0.988   3.012   8.760  0.1259  0.9559  0.1266
 3704SOL    HW122571   1.053   2.949   8.729  0.9263  2.0656 -0.4633
 3704SOL    HW222572   0.923   2.994   8.692 -0.7469  2.0788  0.6528
 3705SOL     OW22573   3.024   0.124   6.780  0.0479  0.2167 -0.2010
 3705SOL    HW122574   3.101   0.107   6.726  0.2750 -0.6806  0.4060
 3705SOL    HW222575   2.958   0.145   6.714 -0.5731  0.1329  0.4008
 3706SOL     OW22576   2.122   2.374   4.084 -0.1755 -0.1166  0.0294
 3706SOL    HW122577   2.034   2.349   4.112 -0.0155 -2.1463 -1.3005
 3706SOL    HW222578   2.139   2.467   4.099 -0.7492 -0.6542  4.1646
 3707SOL     OW22579   1.501   4.694   8.226  0.2814 -0.1976 -0.0883
 3707SOL    HW122580   1.469   0.023   8.153 -0.1864  0.6143  0.7260
 3707SOL    HW222581   1.419   4.655   8.255 -0.0314  1.2091  0.8733
 3708SOL     OW22582   2.293   3.150  10.336  0.5072 -0.2981  0.1232
 3708SOL    HW122583   2.301   3.089  10.409 -0.9175 -2.8490 -1.8243
 3708SOL    HW222584   2.355   3.117  10.271  0.7364 -1.8916  1.1458
 3709SOL     OW22585   1.477   0.680   0.131  0.0173  0.1991  0.4815
 3709SOL    HW122586   1.521   0.600   0.159 -0.7739  0.4166  2.3826
 3709SOL    HW222587   1.425   0.656   0.055 -0.8133 -0.5959  1.3035
 3710SOL     OW22588   3.901   2.474   0.944 -0.2259  0.3092  0.7979
 3710SOL    HW122589   3.945   2.556   0.921  0.5235 -0.5062 -0.7029
 3710SOL    HW222590   3.831   2.515   0.995  0.1283  0.4498  1.1620
 3711SOL     OW22591   0.004   0.062   9.477  0.2601  0.6687 -0.0272
 3711SOL    HW122592   4.701   0.036   9.565  0.3165  1.4231  0.2185
 3711SOL    HW222593   0.095   0.091   9.479 -0.0767  1.6698  0.8791
 3712SOL     OW22594   2.924   0.200   6.539 -0.3860 -0.2699 -0.2513
 3712SOL    HW122595   2.871   0.280   6.541  0.0689  0.0329 -0.1853
 3712SOL    HW222596   2.927   0.192   6.443 -0.1103 -0.6592 -0.2087
 3713SOL     OW22597   0.927   3.495   6.685  0.0452 -0.0236  0.0192
 3713SOL    HW122598   0.911   3.504   6.779 -0.7856 -2.1009  0.0800
 3713SOL    HW222599   0.998   3.430   6.685 -0.5936 -0.7314  2.0475
 3714SOL     OW22600   0.273   1.206   4.302 -0.1013 -0.0758 -0.3517
 3714SOL    HW122601   0.268   1.161   4.218  1.2678 -0.5471 -0.1835
 3714SOL    HW222602   0.223   1.286   4.284 -0.9198 -0.4278  0.4143
 3715SOL     OW22603   0.802   3.400   2.610 -0.2489  0.1885 -0.6358
 3715SOL    HW122604   0.813   3.317   2.563  1.2349 -0.5283  0.9674
 3715SOL    HW222605   0.731   3.384   2.673 -0.5619  0.4144 -0.9311
 3716SOL     OW22606   4.594   4.596   7.517 -0.4757  0.1959  0.1011
 3716SOL    HW122607   4.653   4.665   7.489 -0.1143  0.6553  1.9612
 3716SOL    HW222608   4.614   4.535   7.446  1.2747  0.9673 -0.0670
 3717SOL     OW22609   1.015   0.455   1.911 -0.3886 -0.5568  0.1769
 3717SOL    HW122610   0.990   0.445   1.820 -0.2289 -1.2056  0.2064
 3717SOL    HW222611   1.110   0.469   1.907 -0.3347 -0.6244  1.1695
 3718SOL     OW22612   4.512   3.856   3.085 -0.0074  0.1420  0.2128
 3718SOL    HW122613   4.561   3.785   3.126  0.5303  0.2685 -0.2076
 3718SOL    HW222614   4.534   3.941   3.123  1.5525  0.4227 -1.3433
 3719SOL     OW22615   2.173   0.610   6.722  0.1685 -0.4565 -0.3765
 3719SOL    HW122616   2.236   0.642   6.658 -0.2620  1.7220  0.3106
 3719SOL    HW222617   2.233   0.561   6.778 -0.4313  0.7617  1.3083
 3720SOL     OW22618   3.905   1.314   9.343  0.0443 -0.0269 -0.0600
 3720SOL    HW122619   3.999   1.327   9.330  0.1592  0.7553  1.5695
 3720SOL    HW222620   3.907   1.292   9.436 -1.0571 -0.4962 -0.1577
 3721SOL     OW22621   0.732   2.189  17.257  0.5632  0.1823  0.2597
 3721SOL    HW122622   0.789   2.262  17.282  1.6172 -0.4408 -0.2921
 3721SOL    HW222623   0.647   2.232  17.261  1.6565  2.3239  0.8142
 3722SOL     OW22624   1.482   2.760   9.646  0.3541 -0.2956 -0.9640
 3722SOL    HW122625   1.566   2.806   9.648 -0.2286  0.7989 -1.5829
 3722SOL    HW222626   1.496   2.688   9.584 -0.8578 -1.4757  0.1400
 3723SOL     OW22627   1.833   3.354   4.506 -0.2102 -0.3823  0.0125
 3723SOL    HW122628   1.787   3.390   4.431  2.5545 -0.5039 -1.7148
 3723SOL    HW222629   1.761   3.303   4.543 -0.3614  0.7180  1.2505
 3724SOL     OW22630   0.808   4.075  14.948 -0.4355  0.4069  0.7772
 3724SOL    HW122631   0.743   4.144  14.933 -1.4112 -1.0069 -1.3703
 3724SOL    HW222632   0.854   4.083  14.864 -0.1472 -0.2550  0.8738
 3725SOL     OW22633   1.951   4.231   2.385 -0.3157 -0.0752  0.7899
 3725SOL    HW122634   2.034   4.184   2.382  0.3674  1.1527  0.2882
 3725SOL    HW222635   1.894   4.154   2.384 -0.7432  0.2709 -0.8737
 3726SOL     OW22636   4.073   3.572  16.707  0.6325  0.4663 -0.2514
 3726SOL    HW122637   4.126   3.556  16.629  0.7560 -1.2427  0.1697
 3726SOL    HW222638   3.991   3.567  16.658  1.4392  1.5597 -1.6961
 3727SOL     OW22639   3.899   2.831   9.312  0.4398  0.3514 -0.1322
 3727SOL    HW122640   3.885   2.737   9.317  1.5444  0.2296  0.6579
 3727SOL    HW222641   3.976   2.843   9.257 -1.2017 -0.0559 -2.5422
 3728SOL     OW22642   0.921   2.024   1.792 -0.7968 -0.2256  0.4293
 3728SOL    HW122643   0.833   2.016   1.755 -0.6504  0.1300  0.0023
 3728SOL    HW222644   0.963   2.070   1.719 -1.5978  2.1648  1.4716
 3729SOL     OW22645   2.117   0.528   1.569  0.2042 -0.1982 -0.7440
 3729SOL    HW122646   2.103   0.603   1.511  1.5658  0.2230 -0.5394
 3729SOL    HW222647   2.208   0.547   1.591 -0.3674  1.7974 -0.1272
 3730SOL     OW22648   3.863   4.352   5.325  0.3287 -0.4970 -0.3333
 3730SOL    HW122649   3.892   4.382   5.238  1.4241  2.1311  0.9474
 3730SOL    HW222650   3.929   4.389   5.383  1.7918 -2.3699 -0.7978
 3731SOL     OW22651   3.594   4.048   8.103  0.1765 -0.2810  0.0383
 3731SOL    HW122652   3.579   4.116   8.169  1.7484 -0.1560  0.2605
 3731SOL    HW222653   3.671   3.998   8.130  0.3271  0.3695  0.7973
 3732SOL     OW22654   3.467   3.952  14.993  0.3088 -0.1867  0.0145
 3732SOL    HW122655   3.491   3.930  15.083 -1.3885 -1.0030  0.2696
 3732SOL    HW222656   3.497   4.043  14.991 -1.8158  0.5670  1.6662
 3733SOL     OW22657   1.998   0.801   2.341  0.0206 -0.2975 -0.0630
 3733SOL    HW122658   2.051   0.866   2.387 -0.5220 -2.5820  3.8722
 3733SOL    HW222659   2.042   0.724   2.377 -0.7592 -1.2330 -1.0993
 3734SOL     OW22660   4.524   3.447   8.465 -0.1913 -0.2442 -0.2993
 3734SOL    HW122661   4.539   3.361   8.504 -1.5757 -0.4302 -0.1626
 3734SOL    HW222662   4.431   3.461   8.447 -0.1185  1.9454  0.9632
 3735SOL     OW22663   2.474   0.192   6.127 -0.1850 -0.0513 -0.0133
 3735SOL    HW122664   2.452   0.235   6.045  1.7175  0.1474 -0.4109
 3735SOL    HW222665   2.422   0.112   6.124  2.1497 -1.5326 -0.6763
 3736SOL     OW22666   3.477   3.719   3.206  0.0800 -0.4203  0.4341
 3736SOL    HW122667   3.518   3.775   3.272  0.3884  0.4638 -0.4964
 3736SOL    HW222668   3.386   3.706   3.229  0.0547 -2.3740 -0.7389
 3737SOL     OW22669   3.356   3.016  10.728 -0.2167 -0.2818  0.7249
 3737SOL    HW122670   3.375   3.107  10.747 -0.9259 -0.4962  2.4021
 3737SOL    HW222671   3.416   2.989  10.797 -1.3724 -1.5467  1.2441
 3738SOL     OW22672   0.833   4.218   0.410 -0.0967  0.2884 -0.2996
 3738SOL    HW122673   0.856   4.253   0.496  0.8377  0.2679 -0.5397
 3738SOL    HW222674   0.904   4.155   0.402  2.1727  2.5050  2.2543
 3739SOL     OW22675   1.893   1.601   1.381 -0.3749 -0.5265  0.2390
 3739SOL    HW122676   1.930   1.564   1.301  2.5034  0.4831  1.0939
 3739SOL    HW222677   1.975   1.636   1.416  1.2996 -2.4680 -1.7413
 3740SOL     OW22678   0.703   0.925   2.644  0.0522  0.5527 -0.1787
 3740SOL    HW122679   0.620   0.967   2.623 -1.5717 -0.8655  3.3784
 3740SOL    HW222680   0.700   0.842   2.597  0.1586  0.5898 -0.2526
 3741SOL     OW22681   1.246   0.683   0.886  0.6072  0.1756  0.1157
 3741SOL    HW122682   1.192   0.743   0.937  1.4180  0.4049  0.7063
 3741SOL    HW222683   1.318   0.663   0.946  0.5534 -1.8091 -0.4684
 3742SOL     OW22684   2.918   3.824   3.774  0.6253 -0.1568 -0.4116
 3742SOL    HW122685   2.913   3.787   3.686  3.9253 -0.1236 -0.6086
 3742SOL    HW222686   2.869   3.760   3.826  0.3217  0.1371 -0.3364
 3743SOL     OW22687   4.584   3.441  16.342  0.0357  0.5256 -0.0262
 3743SOL    HW122688   4.653   3.480  16.289  0.4353  1.1752  0.9510
 3743SOL    HW222689   4.601   3.350  16.319 -2.1754 -0.1692  1.1003
 3744SOL     OW22690   4.453   1.460  16.389 -0.0990 -0.3818  0.2894
 3744SOL    HW122691   4.514   1.495  16.325  0.2072  0.0531  0.8154
 3744SOL    HW222692   4.481   1.514  16.463  1.9775 -1.3952  0.2195
 3745SOL     OW22693   2.798   4.274   3.865  0.0293 -0.6830  0.0094
 3745SOL    HW122694   2.725   4.248   3.922  0.0486  0.6727  0.6455
 3745SOL    HW222695   2.746   4.306   3.791 -1.9153 -0.0540  1.6448
 3746SOL     OW22696   3.476   1.796  13.529 -0.0605  0.4459 -0.2069
 3746SOL    HW122697   3.415   1.859  13.567 -0.2455  0.7396 -0.9880
 3746SOL    HW222698   3.525   1.774  13.608 -0.6036  1.9851  0.5633
 3747SOL     OW22699   1.251   1.954   0.178 -0.2860 -0.1567  0.4809
 3747SOL    HW122700   1.326   1.977   0.233 -1.7966  2.4420  1.4425
 3747SOL    HW222701   1.180   1.942   0.241  1.0892 -2.1018  1.6685
 3748SOL     OW22702   1.507   0.321   6.956  0.4376  0.2317 -0.0395
 3748SOL    HW122703   1.522   0.416   6.961 -2.7796  0.6387  1.6063
 3748SOL    HW222704   1.503   0.304   7.050 -3.3062  1.3569 -0.0242
 3749SOL     OW22705   0.528   1.519   6.559  0.0919 -0.0244  0.1916
 3749SOL    HW122706   0.510   1.515   6.465 -1.0814 -1.5835  0.4869
 3749SOL    HW222707   0.441   1.511   6.596  0.4015  0.8319  1.0852
 3750SOL     OW22708   2.311   4.472   4.710  0.2874  0.1091 -0.1758
 3750SOL    HW122709   2.313   4.417   4.789  2.5323  0.3731 -0.0393
 3750SOL    HW222710   2.378   4.433   4.654 -0.8619 -1.3419 -0.5418
 3751SOL     OW22711   3.532   3.618   7.409  0.3826 -0.2670  0.4421
 3751SOL    HW122712   3.467   3.608   7.479 -0.3632 -2.0627 -0.5253
 3751SOL    HW222713   3.548   3.526   7.389  1.3786 -0.4450  2.0095
 3752SOL     OW22714   2.443   2.999   0.476  0.7337  0.3456  0.2637
 3752SOL    HW122715   2.432   2.904   0.467 -1.1317  0.8080 -2.6194
 3752SOL    HW222716   2.537   3.013   0.479  0.4926  1.9792 -0.1396
 3753SOL     OW22717   1.960   2.702  14.130 -0.1609 -0.2422  0.6610
 3753SOL    HW122718   1.897   2.774  14.120 -0.6395 -0.4992  1.8518
 3753SOL    HW222719   1.895   2.631  14.133  0.5191 -0.9324 -1.0910
 3754SOL     OW22720   2.984   0.894  14.730 -0.2089  0.3909  0.1207
 3754SOL    HW122721   2.948   0.891  14.819 -0.6395 -0.3906 -0.0805
 3754SOL    HW222722   2.956   0.981  14.700  1.4715  1.1887  0.8492
 3755SOL     OW22723   0.618   0.752  12.652  0.4224  0.4224 -0.5406
 3755SOL    HW122724   0.669   0.672  12.642 -2.1302 -1.0940 -1.2461
 3755SOL    HW222725   0.648   0.810  12.581 -1.2877 -0.2984 -1.8399
 3756SOL     OW22726   1.489   2.654   4.123 -0.2450 -0.1975  0.0857
 3756SOL    HW122727   1.476   2.747   4.109  0.8666 -0.3609 -1.9584
 3756SOL    HW222728   1.554   2.629   4.058  1.3723  0.1112  1.5937
 3757SOL     OW22729   4.389   3.989  10.514  0.3352  0.2338 -0.0207
 3757SOL    HW122730   4.362   3.903  10.482 -1.0829  0.9910 -0.8784
 3757SOL    HW222731   4.385   4.042  10.434  0.1217  3.1276  1.9025
 3758SOL     OW22732   2.724   3.222   4.707  0.3554 -0.7011  0.2052
 3758SOL    HW122733   2.727   3.276   4.628 -0.3956  1.2369  1.4835
 3758SOL    HW222734   2.651   3.265   4.752  0.1659 -0.4106 -0.3703
 3759SOL     OW22735   4.032   1.589   6.593 -0.2090 -0.9805 -0.5112
 3759SOL    HW122736   4.057   1.625   6.508 -0.1506 -0.2960 -0.2087
 3759SOL    HW222737   4.091   1.635   6.653 -0.1176 -0.0778 -1.2969
 3760SOL     OW22738   2.605   3.269   3.952  0.1342 -0.2482  0.4070
 3760SOL    HW122739   2.647   3.352   3.928  0.8636 -0.7704 -0.1505
 3760SOL    HW222740   2.558   3.241   3.874 -0.2044  0.2371  0.4349
 3761SOL     OW22741   3.108   3.397   4.964 -0.0346 -0.0387 -0.0420
 3761SOL    HW122742   3.158   3.464   4.918  0.0069 -0.5072 -0.6862
 3761SOL    HW222743   3.161   3.318   4.952 -1.0853 -0.5597 -1.2968
 3762SOL     OW22744   0.364   1.948   4.156  0.6683  0.3069  0.4639
 3762SOL    HW122745   0.358   2.040   4.183 -1.1839 -0.0305  1.2256
 3762SOL    HW222746   0.454   1.937   4.127  0.2492  0.3347 -0.8595
 3763SOL     OW22747   4.096   3.565   9.012 -0.0552  0.1488 -0.2701
 3763SOL    HW122748   4.176   3.581   8.961 -0.2948  0.0809 -0.6711
 3763SOL    HW222749   4.102   3.653   9.048  1.0250 -1.6079  3.7584
 3764SOL     OW22750   0.954   0.408   5.537  0.0272 -0.2119 -0.0637
 3764SOL    HW122751   0.929   0.496   5.562 -2.0425 -0.4499 -1.2341
 3764SOL    HW222752   0.869   0.364   5.527  0.8150 -1.6981 -0.3402
 3765SOL     OW22753   1.498   2.134   7.014 -0.0128 -0.5075  0.3797
 3765SOL    HW122754   1.502   2.049   6.971 -2.2938 -1.4097  1.9196
 3765SOL    HW222755   1.567   2.180   6.967 -0.7375  1.1826  0.9523
 3766SOL     OW22756   1.698   4.577  12.557  0.5880 -0.2675 -0.8487
 3766SOL    HW122757   1.691   4.544  12.468 -0.7483  1.1122 -1.2528
 3766SOL    HW222758   1.758   4.650  12.544  0.1729  0.0111 -1.2351
 3767SOL     OW22759   1.951   1.362   5.574  0.6324  0.7305  0.0480
 3767SOL    HW122760   1.985   1.417   5.645 -2.4390  0.2642  1.9135
 3767SOL    HW222761   2.030   1.315   5.550 -1.2671 -2.1597 -0.6071
 3768SOL     OW22762   2.361   3.168  16.112  0.5531  0.1581  0.3170
 3768SOL    HW122763   2.407   3.108  16.053  0.8910  1.6968 -0.9859
 3768SOL    HW222764   2.384   3.252  16.073 -0.1967 -0.4324 -1.4258
 3769SOL     OW22765   3.921   2.444   7.307 -0.4175  0.2907  0.1644
 3769SOL    HW122766   3.995   2.383   7.318 -0.9729 -0.1393  1.5729
 3769SOL    HW222767   3.855   2.383   7.339 -0.3205 -0.1044 -0.3916
 3770SOL     OW22768   3.673   2.061   5.640  0.0740 -0.2760  0.1060
 3770SOL    HW122769   3.658   1.998   5.569 -3.5574  1.1700 -0.3976
 3770SOL    HW222770   3.590   2.056   5.686  0.6271  0.3346  1.1730
 3771SOL     OW22771   4.293   0.205  16.699  0.5087  0.5058 -0.3528
 3771SOL    HW122772   4.271   0.184  16.609  3.0811  1.6686 -1.2621
 3771SOL    HW222773   4.334   0.123  16.727 -1.9986 -0.3648  0.7495
 3772SOL     OW22774   1.060   4.537   4.103 -0.0403 -0.0262  0.3874
 3772SOL    HW122775   1.143   4.563   4.142  0.2856 -1.0461  0.3743
 3772SOL    HW222776   1.048   4.618   4.054  0.6929  0.6153  1.2815
 3773SOL     OW22777   0.960   1.606  13.200 -0.0534 -0.1629  0.3252
 3773SOL    HW122778   1.017   1.599  13.276  0.7795  1.5151 -0.1626
 3773SOL    HW222779   0.970   1.697  13.172 -1.1071  0.3381  1.5733
 3774SOL     OW22780   0.734   1.133   9.150 -0.4091 -0.3919  0.1369
 3774SOL    HW122781   0.761   1.051   9.107  0.7116 -0.8475  1.7416
 3774SOL    HW222782   0.667   1.161   9.087  0.3276  0.9347 -0.0454
 3775SOL     OW22783   4.658   2.171   9.886 -0.2788 -0.0739 -0.1473
 3775SOL    HW122784   4.633   2.198   9.974 -2.4197 -1.6250 -0.2676
 3775SOL    HW222785   4.607   2.090   9.881 -2.1264  0.9926  1.5375
 3776SOL     OW22786   4.618   2.296   9.312 -0.6395 -0.4180  0.6031
 3776SOL    HW122787   4.564   2.370   9.341 -1.1525 -1.1813  1.5875
 3776SOL    HW222788   4.563   2.264   9.241  0.6950  0.6030 -0.8798
 3777SOL     OW22789   3.118   1.483   6.717  0.1780 -0.8446  0.2051
 3777SOL    HW122790   3.043   1.541   6.708  0.5057 -0.8097 -2.4245
 3777SOL    HW222791   3.118   1.447   6.806  0.6556 -0.4432  0.3634
 3778SOL     OW22792   3.213   3.999   2.168 -0.0509 -0.4679  0.2915
 3778SOL    HW122793   3.281   3.932   2.162 -2.0577 -2.2832 -2.1009
 3778SOL    HW222794   3.217   4.045   2.084  2.1732 -0.7572  0.2521
 3779SOL     OW22795   2.090   2.196   2.798 -0.1827  0.5120 -0.0876
 3779SOL    HW122796   2.169   2.170   2.846 -0.7585 -1.3607 -0.1475
 3779SOL    HW222797   2.034   2.244   2.859 -1.1399 -0.1932 -0.4054
 3780SOL     OW22798   0.749   2.461   2.160  0.2257  0.9309 -0.1181
 3780SOL    HW122799   0.743   2.464   2.065 -1.8334 -0.6271 -0.0289
 3780SOL    HW222800   0.837   2.426   2.176  0.2371  0.2346 -1.7067
 3781SOL     OW22801   1.481   2.891  10.206 -0.1077  0.4597  0.0005
 3781SOL    HW122802   1.442   2.972  10.172  0.8278  1.0895  0.4180
 3781SOL    HW222803   1.442   2.831  10.142  0.3806  0.9001 -0.7198
 3782SOL     OW22804   4.133   3.606  11.088 -0.2844 -0.0935  0.4351
 3782SOL    HW122805   4.042   3.623  11.064 -0.0740 -0.1501 -0.4143
 3782SOL    HW222806   4.122   3.553  11.167 -0.6988  2.2060  1.9120
 3783SOL     OW22807   1.829   0.536   6.316 -0.2001  0.4737 -0.3959
 3783SOL    HW122808   1.869   0.452   6.294  1.7138  0.7471  2.1539
 3783SOL    HW222809   1.796   0.517   6.404 -1.6329  1.3637 -0.7482
 3784SOL     OW22810   0.425   0.952  15.068  0.0022 -0.3080 -0.1167
 3784SOL    HW122811   0.458   1.017  15.005 -0.7023  0.4708  0.3118
 3784SOL    HW222812   0.375   1.015  15.120  1.1495  0.3168  0.2467
 3785SOL     OW22813   0.262   0.290  10.084 -0.4775 -0.5210 -0.1799
 3785SOL    HW122814   0.263   0.283  10.179 -0.3616 -0.0783 -0.1453
 3785SOL    HW222815   0.353   0.265  10.069 -1.4031 -3.4568 -0.7867
 3786SOL     OW22816   2.832   0.888  16.645 -0.3237 -0.1795  0.0848
 3786SOL    HW122817   2.778   0.858  16.718  0.3603  1.8982  1.4509
 3786SOL    HW222818   2.866   0.969  16.683 -2.3834 -0.2532  2.0887
 3787SOL     OW22819   2.030   3.672  16.606  0.3747  1.2697  0.5269
 3787SOL    HW122820   1.936   3.655  16.611  0.3570  0.8834 -1.0848
 3787SOL    HW222821   2.026   3.756  16.561 -1.6766  1.4963  1.1315
 3788SOL     OW22822   1.271   2.942  15.992 -0.3806 -0.2786 -0.3885
 3788SOL    HW122823   1.318   2.860  16.006  0.6560  0.8836  2.9625
 3788SOL    HW222824   1.330   2.997  16.044  0.0756  0.0057 -1.2064
 3789SOL     OW22825   0.968   1.623   9.304  0.7487 -0.5284  0.4431
 3789SOL    HW122826   1.062   1.631   9.287  0.3183  0.8851 -1.2292
 3789SOL    HW222827   0.960   1.528   9.297 -0.0996 -0.4169 -0.1685
 3790SOL     OW22828   0.707   3.684  15.902 -0.0036  0.0790 -0.3351
 3790SOL    HW122829   0.649   3.608  15.891  0.5227 -0.2573 -0.8006
 3790SOL    HW222830   0.793   3.650  15.875  0.7417 -0.5989  2.8750
 3791SOL     OW22831   2.806   3.646   8.752 -0.0741  0.2229 -0.2538
 3791SOL    HW122832   2.768   3.679   8.833  2.0040  1.6283  0.1583
 3791SOL    HW222833   2.779   3.710   8.687  0.0702  1.9414  1.3745
 3792SOL     OW22834   4.335   1.124  12.339  0.2108 -0.8842 -0.4438
 3792SOL    HW122835   4.280   1.081  12.405  1.0011 -0.0571  0.7496
 3792SOL    HW222836   4.280   1.201  12.328 -0.3877 -1.5404 -2.1618
 3793SOL     OW22837   3.684   0.002   8.814  0.6431 -0.1784 -0.2119
 3793SOL    HW122838   3.761   4.697   8.863  0.4821 -1.2357 -0.6157
 3793SOL    HW222839   3.719   0.000   8.725  0.7219  1.1919 -0.2142
 3794SOL     OW22840   2.037   2.109   2.550  0.0289  0.4049  0.5225
 3794SOL    HW122841   2.118   2.057   2.549 -0.4676 -0.3691  0.5797
 3794SOL    HW222842   2.036   2.154   2.634  1.5747  2.9982 -0.8560
 3795SOL     OW22843   1.489   4.154  14.993 -0.2596  0.0135 -0.1791
 3795SOL    HW122844   1.565   4.120  15.041  0.3924 -1.8377 -2.4772
 3795SOL    HW222845   1.479   4.236  15.040 -0.9187 -0.5014  0.5694
 3796SOL     OW22846   3.677   2.845   1.908 -0.0461 -0.0711 -0.7245
 3796SOL    HW122847   3.743   2.791   1.865  0.2200  1.4556 -2.2236
 3796SOL    HW222848   3.681   2.922   1.852 -2.2844  2.1811  2.2105
 3797SOL     OW22849   3.919   3.837   2.553 -0.3792 -0.0810 -1.0205
 3797SOL    HW122850   3.955   3.850   2.465  0.3538 -0.6206 -0.7957
 3797SOL    HW222851   3.982   3.776   2.590 -0.3890  1.5951  1.6943
 3798SOL     OW22852   2.915   3.248   6.914  0.1192 -0.0494  0.0433
 3798SOL    HW122853   2.827   3.264   6.879  0.1357  1.8938  0.8913
 3798SOL    HW222854   2.974   3.263   6.840  0.8380 -0.1242  0.6020
 3799SOL     OW22855   1.796   2.035   2.980 -0.0653  0.3632  0.1530
 3799SOL    HW122856   1.805   1.942   2.959 -2.1729 -0.1892  1.6904
 3799SOL    HW222857   1.880   2.054   3.021 -0.3714  0.8351  0.5635
 3800SOL     OW22858   1.097   1.613  12.316 -0.5432  0.4923  0.1515
 3800SOL    HW122859   1.136   1.685  12.366 -3.3404  2.6606 -0.8061
 3800SOL    HW222860   1.064   1.567  12.393  0.1118  1.1202  0.8076
 3801SOL     OW22861   3.558   2.496   6.601 -0.0388 -0.2732  0.0055
 3801SOL    HW122862   3.610   2.469   6.676  1.5442 -0.2864 -1.0929
 3801SOL    HW222863   3.591   2.429   6.542  2.5801  0.7321  0.3310
 3802SOL     OW22864   4.320   2.438   0.228  0.5096 -0.3892 -0.0914
 3802SOL    HW122865   4.247   2.425   0.168  0.3703  1.6137 -0.3784
 3802SOL    HW222866   4.281   2.503   0.287 -1.1627 -1.4754 -0.0029
 3803SOL     OW22867   2.499   4.340  13.120 -0.3806 -0.7803  0.2438
 3803SOL    HW122868   2.578   4.393  13.109 -0.8447  0.0283  0.8257
 3803SOL    HW222869   2.453   4.400  13.179  0.2477 -0.3665  0.3130
 3804SOL     OW22870   4.288   0.576  11.101 -0.1081 -0.4808  1.1702
 3804SOL    HW122871   4.267   0.608  11.013  0.6115  0.9289  1.5100
 3804SOL    HW222872   4.362   0.630  11.126  0.8874 -1.3511  0.0771
 3805SOL     OW22873   1.772   1.872   5.567 -0.5464  0.5684  0.0135
 3805SOL    HW122874   1.821   1.931   5.624  1.6552 -2.5699  1.3606
 3805SOL    HW222875   1.697   1.853   5.623 -0.7567 -1.5344 -0.9653
 3806SOL     OW22876   4.702   0.238  13.154  0.5918 -0.9972 -0.3325
 3806SOL    HW122877   4.625   0.265  13.204  1.1645  3.0106 -1.5824
 3806SOL    HW222878   4.700   0.293  13.075 -2.3859 -0.4065  0.1587
 3807SOL     OW22879   2.876   4.444   2.739 -0.0064 -0.2410  0.4327
 3807SOL    HW122880   2.955   4.483   2.702  0.9909 -0.4968  2.2483
 3807SOL    HW222881   2.916   4.377   2.794 -0.6978 -0.0184  1.2146
 3808SOL     OW22882   1.641   3.560   0.392 -0.2119  0.4018  0.0337
 3808SOL    HW122883   1.665   3.472   0.363 -0.5287 -0.0509  1.1491
 3808SOL    HW222884   1.549   3.543   0.415 -0.2989 -0.4730 -0.9630
 3809SOL     OW22885   2.687   4.075   0.257  0.1513 -0.0816 -0.7488
 3809SOL    HW122886   2.670   4.156   0.304 -0.2820 -1.0656  0.7984
 3809SOL    HW222887   2.725   4.097   0.172 -1.8647  0.5595 -1.4673
 3810SOL     OW22888   1.166   2.090   4.302 -0.4110 -0.1431 -0.1026
 3810SOL    HW122889   1.260   2.080   4.288 -0.5159 -0.9316 -0.2696
 3810SOL    HW222890   1.154   2.042   4.384  2.7594  1.1826  1.1410
 3811SOL     OW22891   0.002   0.456   1.223  0.0536 -0.0885 -0.6929
 3811SOL    HW122892   4.641   0.477   1.186  0.6379  1.6665 -1.1069
 3811SOL    HW222893   0.056   0.489   1.150 -0.6686  1.0031 -0.7279
 3812SOL     OW22894   0.805   2.874   2.551  0.5279  0.4636 -0.6029
 3812SOL    HW122895   0.817   2.811   2.623  1.1006  0.6599 -0.5321
 3812SOL    HW222896   0.711   2.886   2.565  0.6911  1.5129 -0.4652
 3813SOL     OW22897   4.024   4.348  16.417 -0.2608 -0.7046  0.0043
 3813SOL    HW122898   3.972   4.320  16.492 -0.6233  1.3994  0.5307
 3813SOL    HW222899   4.088   4.276  16.412  3.0493  2.2585 -0.3675
 3814SOL     OW22900   4.629   0.988   0.763  0.2146  0.3243  0.2542
 3814SOL    HW122901   4.666   1.055   0.821  0.5003  0.9562 -0.6691
 3814SOL    HW222902   4.671   1.024   0.685 -0.3388  0.3234 -0.0401
 3815SOL     OW22903   3.798   2.078   9.301 -0.3434 -0.4329 -0.2155
 3815SOL    HW122904   3.893   2.080   9.291 -0.3611 -3.7686 -0.9306
 3815SOL    HW222905   3.785   1.991   9.339  1.9533  0.2820  2.1777
 3816SOL     OW22906   0.448   0.992   1.346 -0.0003 -0.4466  0.5274
 3816SOL    HW122907   0.385   0.937   1.393 -0.3591  0.0982  0.6841
 3816SOL    HW222908   0.415   0.985   1.256 -1.5618  0.0649  1.0586
 3817SOL     OW22909   0.157   0.818  15.417 -0.9588  0.1634 -0.0993
 3817SOL    HW122910   0.239   0.768  15.417  0.1183  1.9453 -0.0973
 3817SOL    HW222911   0.147   0.833  15.511  0.1525 -2.3938  0.4293
 3818SOL     OW22912   0.102   4.645   5.993 -0.1690 -0.8611 -0.0292
 3818SOL    HW122913   0.183   4.646   5.943 -0.2283  1.8981 -0.1090
 3818SOL    HW222914   0.053   4.567   5.968 -0.9975 -0.1980 -0.5057
 3819SOL     OW22915   0.706   1.955   4.808  0.1743 -0.1561  0.2973
 3819SOL    HW122916   0.744   2.041   4.793 -2.8644  1.1683  0.0857
 3819SOL    HW222917   0.741   1.896   4.741  1.0153 -1.2304  1.6631
 3820SOL     OW22918   2.636   2.811  10.832  0.2832  0.1749  0.6951
 3820SOL    HW122919   2.640   2.906  10.830 -0.8633  0.2013 -0.6493
 3820SOL    HW222920   2.541   2.802  10.822  0.7111  0.8856 -3.8561
 3821SOL     OW22921   4.513   2.662  11.718 -0.3433 -0.0704  0.1896
 3821SOL    HW122922   4.544   2.652  11.628  0.9060 -0.3983  0.6588
 3821SOL    HW222923   4.557   2.587  11.756  1.8014  0.0637 -2.0525
 3822SOL     OW22924   2.227   2.439   9.880 -0.0479  0.3397 -0.1271
 3822SOL    HW122925   2.162   2.375   9.909  0.9269 -0.5362  0.1515
 3822SOL    HW222926   2.243   2.498   9.953  0.8325  1.5110 -1.2704
 3823SOL     OW22927   4.505   2.330   6.850 -0.2972 -0.0942  0.8625
 3823SOL    HW122928   4.499   2.249   6.900  1.1125 -0.7855 -0.0614
 3823SOL    HW222929   4.459   2.310   6.768  0.1183  2.6593 -0.0544
 3824SOL     OW22930   3.100   4.055   8.889  0.2730 -0.3149 -0.5388
 3824SOL    HW122931   3.009   4.029   8.876  0.9231 -3.8217  2.1030
 3824SOL    HW222932   3.091   4.150   8.898  3.2998 -0.1324  0.3337
 3825SOL     OW22933   4.251   1.628   8.382  0.1409 -0.1912 -0.1732
 3825SOL    HW122934   4.233   1.596   8.470 -0.8343  1.8338  0.3633
 3825SOL    HW222935   4.199   1.566   8.332  0.2303 -0.8560  0.5534
 3826SOL     OW22936   3.580   2.879   7.992 -0.1177  0.1645  0.3843
 3826SOL    HW122937   3.587   2.887   7.897 -0.7892 -1.2554  0.2306
 3826SOL    HW222938   3.499   2.830   7.999 -0.3223  0.6030  1.0408
 3827SOL     OW22939   2.042   0.897  15.005  0.6345  0.3410 -0.4587
 3827SOL    HW122940   1.975   0.886  15.072  2.5684  0.6008  1.5050
 3827SOL    HW222941   2.070   0.984  15.031  0.5358  0.8011 -1.8763
 3828SOL     OW22942   1.931   4.523   7.607  0.0332  0.2850  0.1543
 3828SOL    HW122943   2.018   4.558   7.589  0.1824 -1.0376 -1.6822
 3828SOL    HW222944   1.950   4.430   7.597 -1.4582  0.0579 -0.6329
 3829SOL     OW22945   2.739   4.375   8.259 -0.2473  0.4104  0.0148
 3829SOL    HW122946   2.701   4.463   8.264  0.6114  0.8550 -1.2770
 3829SOL    HW222947   2.719   4.346   8.348  0.4015 -0.7659 -0.2257
 3830SOL     OW22948   3.274   4.621  11.763  0.1287 -0.1822 -0.0482
 3830SOL    HW122949   3.257   4.708  11.729 -0.2925 -1.3393 -2.8070
 3830SOL    HW222950   3.258   4.565  11.687 -3.6495 -1.0506  1.3915
 3831SOL     OW22951   1.894   2.193   9.097 -0.5619  0.6706  0.0811
 3831SOL    HW122952   1.804   2.224   9.084  0.5254  3.2456 -1.2221
 3831SOL    HW222953   1.943   2.220   9.020  2.4304  0.0729  1.7995
 3832SOL     OW22954   1.897   0.882   0.225 -0.0285 -0.5063 -0.1545
 3832SOL    HW122955   1.827   0.947   0.220 -0.0238 -0.6214 -2.0539
 3832SOL    HW222956   1.931   0.887   0.135 -1.2386  0.3177 -0.5612
 3833SOL     OW22957   0.918   2.554   4.165  0.2229 -0.2245 -0.6730
 3833SOL    HW122958   0.916   2.547   4.069  1.1102 -0.4339 -0.6735
 3833SOL    HW222959   0.982   2.623   4.184  0.4580 -1.1016  1.7207
 3834SOL     OW22960   2.304   3.211   4.863  0.0593  0.5009  0.0472
 3834SOL    HW122961   2.312   3.221   4.768  0.0571  1.4488  0.1419
 3834SOL    HW222962   2.248   3.285   4.887 -0.5075  0.3670 -0.8700
 3835SOL     OW22963   0.449   1.762   2.825  0.4910 -0.1864  0.4343
 3835SOL    HW122964   0.527   1.715   2.794  0.4468 -0.1089  0.2082
 3835SOL    HW222965   0.402   1.777   2.744  1.6010 -1.3572 -0.4356
 3836SOL     OW22966   0.968   0.010   4.816  0.0113 -0.1031 -0.3769
 3836SOL    HW122967   0.983   4.644   4.788 -0.6121 -0.5383  0.6975
 3836SOL    HW222968   1.043   0.024   4.873 -1.2350  1.8102  0.7542
 3837SOL     OW22969   2.385   3.195   2.815 -0.0409  0.0071  0.2569
 3837SOL    HW122970   2.473   3.223   2.789 -0.7295  1.2090 -0.7898
 3837SOL    HW222971   2.338   3.188   2.732 -0.0115  2.9479  0.0138
 3838SOL     OW22972   4.179   2.441   6.669 -0.4533 -0.2347 -0.0745
 3838SOL    HW122973   4.166   2.435   6.574  1.5916 -3.2325 -0.1756
 3838SOL    HW222974   4.229   2.359   6.678 -0.4380 -0.6208 -3.7509
 3839SOL     OW22975   0.515   3.138   1.017 -0.1783  0.0463 -0.3299
 3839SOL    HW122976   0.601   3.101   0.998  0.6923  2.2322 -0.6047
 3839SOL    HW222977   0.538   3.229   1.001  0.4586 -0.3500 -1.7532
 3840SOL     OW22978   3.563   3.388   2.116  0.5024 -0.1303 -0.6360
 3840SOL    HW122979   3.571   3.394   2.021 -0.9866  0.1092 -0.7546
 3840SOL    HW222980   3.481   3.436   2.133  0.4873  0.0221 -1.1305
 3841SOL     OW22981   1.917   3.985   9.501  0.0132 -0.1684  0.5248
 3841SOL    HW122982   1.981   3.948   9.440  0.4328 -0.5255  1.1794
 3841SOL    HW222983   1.899   3.905   9.550 -2.3279  0.5890  0.8811
 3842SOL     OW22984   0.040   0.959   5.957  0.4698 -0.1504  0.1847
 3842SOL    HW122985   0.080   1.043   5.932  0.7359 -0.3016  0.1017
 3842SOL    HW222986   4.677   0.967   5.920  0.9578 -0.5266 -1.0648
 3843SOL     OW22987   2.529   3.872   6.933 -0.8062  0.4301 -0.4192
 3843SOL    HW122988   2.437   3.861   6.909  0.2366  0.4077 -4.4054
 3843SOL    HW222989   2.538   3.841   7.023  2.4556 -0.1195 -0.9165
 3844SOL     OW22990   2.126   4.671   8.664 -0.2569  0.3396  0.0457
 3844SOL    HW122991   2.154   0.037   8.660 -1.1474  0.5539 -1.3851
 3844SOL    HW222992   2.170   4.643   8.744  2.2483  1.5755 -0.9230
 3845SOL     OW22993   4.571   0.907   6.955  0.1309  0.0205 -0.0365
 3845SOL    HW122994   4.540   0.871   7.038  1.8834 -0.6922  0.3036
 3845SOL    HW222995   4.515   0.852   6.900 -0.0248  0.6644 -0.5188
 3846SOL     OW22996   3.977   3.035   6.159  0.0449  0.0753 -0.0878
 3846SOL    HW122997   4.044   3.000   6.101 -0.8362  0.0456 -1.1018
 3846SOL    HW222998   3.970   3.129   6.139  1.2286  0.2326  0.2370
 3847SOL     OW22999   3.425   2.087   6.588 -0.3803 -0.3626  0.3549
 3847SOL    HW123000   3.398   2.058   6.675  0.8493  1.5727  1.4048
 3847SOL    HW223001   3.433   2.002   6.545  6.0550  0.8259 -0.8004
 3848SOL     OW23002   2.961   1.474   5.331 -0.0059 -0.3071  0.1471
 3848SOL    HW123003   3.035   1.519   5.291 -0.2299  0.4161  0.5337
 3848SOL    HW223004   3.008   1.411   5.385  0.5015  0.8344  1.0539
 3849SOL     OW23005   2.710   2.494  14.853 -0.8267 -0.3963  0.1242
 3849SOL    HW123006   2.793   2.513  14.896 -0.4695 -0.5291 -0.4955
 3849SOL    HW223007   2.709   2.402  14.827  0.2251  0.0858 -1.6296
 3850SOL     OW23008   1.622   1.491   6.698 -0.5530  0.6282  0.6571
 3850SOL    HW123009   1.544   1.528   6.656  0.3811  0.8131 -0.8781
 3850SOL    HW223010   1.577   1.445   6.770 -2.0004  0.2681 -0.4700
 3851SOL     OW23011   0.081   2.840  14.872 -0.3321  0.1538  0.2250
 3851SOL    HW123012   0.097   2.924  14.830 -1.9356  0.4280  0.1311
 3851SOL    HW223013   0.024   2.878  14.940  0.4126 -0.7511  1.3558
 3852SOL     OW23014   3.554   4.144   6.315  0.1424 -0.6141 -0.2516
 3852SOL    HW123015   3.503   4.211   6.362  0.0395  1.2257 -2.9817
 3852SOL    HW223016   3.597   4.197   6.248 -1.7370  0.1073 -0.8881
 3853SOL     OW23017   2.003   3.921   5.461  0.5374  0.6357  0.7103
 3853SOL    HW123018   2.078   3.861   5.465  0.6952  0.9043  1.6719
 3853SOL    HW223019   1.972   3.920   5.551 -0.6618  2.2887  0.3264
 3854SOL     OW23020   3.520   2.168   8.478 -0.7129  0.3856  0.5338
 3854SOL    HW123021   3.615   2.154   8.482 -0.8729 -0.6494  0.7161
 3854SOL    HW223022   3.509   2.259   8.504 -0.3984 -0.0117  2.0640
 3855SOL     OW23023   1.770   2.961  10.449 -0.1103  0.3582  0.3124
 3855SOL    HW123024   1.711   2.885  10.446  0.9065 -0.5361  2.5150
 3855SOL    HW223025   1.773   2.980  10.543  1.7923 -0.9834  0.5399
 3856SOL     OW23026   2.410   4.386   4.448 -0.0093  0.6932  0.3876
 3856SOL    HW123027   2.492   4.353   4.486  0.8141  0.0519 -1.9068
 3856SOL    HW223028   2.421   4.475   4.417  1.5854  0.3649 -0.0135
 3857SOL     OW23029   0.987   1.593   8.789 -0.0856 -0.2677  0.6348
 3857SOL    HW123030   0.942   1.623   8.710 -0.8903 -0.4508  1.0143
 3857SOL    HW223031   0.957   1.658   8.853  2.3519 -0.3477  1.8613
 3858SOL     OW23032   2.725   1.224   6.244  0.0867  0.4028 -0.3705
 3858SOL    HW123033   2.812   1.238   6.281  1.0450 -4.4608 -0.6871
 3858SOL    HW223034   2.686   1.303   6.281 -0.1515 -0.0331  0.3163
 3859SOL     OW23035   2.365   3.153   7.012  0.2265 -0.6139  0.1067
 3859SOL    HW123036   2.325   3.077   6.968  1.2435 -1.0835 -0.0027
 3859SOL    HW223037   2.452   3.114   7.016  1.0735  1.4448  1.4171
 3860SOL     OW23038   1.824   3.198   3.245 -0.5550  0.2388  0.4127
 3860SOL    HW123039   1.917   3.212   3.260 -0.4426  0.0334 -0.1151
 3860SOL    HW223040   1.817   3.124   3.185 -2.5908  1.6507 -1.1011
 3861SOL     OW23041   2.403   1.525  12.823 -0.2536  0.2870  0.0947
 3861SOL    HW123042   2.428   1.512  12.915 -1.1112  2.5513  0.6494
 3861SOL    HW223043   2.479   1.571  12.787  0.5903 -0.7691  0.5224
 3862SOL     OW23044   1.640   4.345  13.933  0.1174  1.3519 -0.0332
 3862SOL    HW123045   1.578   4.392  13.877 -1.6565  2.4863  2.9427
 3862SOL    HW223046   1.582   4.308  13.999  1.1787 -0.8429 -0.3389
 3863SOL     OW23047   2.298   4.098   0.626 -0.1894  0.6589  0.5117
 3863SOL    HW123048   2.383   4.138   0.645  2.0551 -2.6785 -2.6151
 3863SOL    HW223049   2.318   4.086   0.533  0.0930  1.7410  0.4286
 3864SOL     OW23050   0.324   3.788   9.031  0.0177 -0.4829 -0.0929
 3864SOL    HW123051   0.360   3.846   9.098  0.4413 -1.2219  0.3236
 3864SOL    HW223052   0.237   3.795   9.070 -0.7214 -1.4257 -1.5586
 3865SOL     OW23053   4.354   3.448   4.800  0.3475  0.3917 -0.0738
 3865SOL    HW123054   4.290   3.442   4.730 -0.7981  0.7152  0.9513
 3865SOL    HW223055   4.351   3.542   4.818  0.7830  0.3510  0.2246
 3866SOL     OW23056   4.170   2.162   0.191  0.0665  0.0761 -0.5631
 3866SOL    HW123057   4.265   2.163   0.199 -0.0819  0.9446  1.0228
 3866SOL    HW223058   4.151   2.092   0.254 -0.9157  1.7865  1.0195
 3867SOL     OW23059   2.973   2.256  12.525  0.0281 -0.3813 -0.0887
 3867SOL    HW123060   2.904   2.308  12.483  0.2317 -0.4150 -0.4629
 3867SOL    HW223061   2.919   2.199  12.580 -0.9714  0.1789 -0.4875
 3868SOL     OW23062   0.510   3.099   2.042  0.0597 -0.3030  0.5458
 3868SOL    HW123063   0.597   3.060   2.044 -0.0071 -0.4928 -0.5804
 3868SOL    HW223064   0.482   3.054   1.962  0.1080  1.1760 -0.2929
 3869SOL     OW23065   3.776   0.492  13.151 -0.0586  0.0633  0.1472
 3869SOL    HW123066   3.723   0.506  13.072  2.8596 -0.2656 -1.8741
 3869SOL    HW223067   3.714   0.431  13.191 -0.0078 -0.7469 -1.0158
 3870SOL     OW23068   4.286   1.512  17.217 -0.0406  0.3055  0.3681
 3870SOL    HW123069   4.233   1.577  17.171  0.3329  0.8330  0.6852
 3870SOL    HW223070   4.371   1.554  17.223  0.5938 -1.0321  0.7644
 3871SOL     OW23071   0.864   1.121   0.351  0.3507 -0.1148  0.7720
 3871SOL    HW123072   0.935   1.069   0.388  0.9684  0.1766  0.0007
 3871SOL    HW223073   0.788   1.076   0.387  0.3655 -1.1031 -0.4348
 3872SOL     OW23074   0.444   2.087  11.863 -0.0218 -0.5320  0.2810
 3872SOL    HW123075   0.528   2.050  11.834 -0.0054 -0.6659  0.5029
 3872SOL    HW223076   0.481   2.140  11.933  1.2507  0.7890 -1.3731
 3873SOL     OW23077   0.607   1.249   4.664  0.2535 -0.4291 -0.5572
 3873SOL    HW123078   0.512   1.236   4.669  0.4101 -1.7654 -1.1619
 3873SOL    HW223079   0.627   1.315   4.731 -3.1502 -0.9877  1.0197
 3874SOL     OW23080   2.570   3.352   5.554 -0.1820  0.5406  0.0173
 3874SOL    HW123081   2.588   3.285   5.488 -1.5163 -0.3941  0.5890
 3874SOL    HW223082   2.613   3.319   5.632 -0.1332  2.0395  0.6274
 3875SOL     OW23083   2.576   2.528   3.427 -0.5567  0.4009 -0.4835
 3875SOL    HW123084   2.512   2.586   3.385 -1.1783 -0.9289 -1.3791
 3875SOL    HW223085   2.605   2.471   3.356 -0.3966  0.0680 -0.1499
 3876SOL     OW23086   4.191   1.195  15.050  0.2306 -0.1370 -0.4050
 3876SOL    HW123087   4.107   1.150  15.057  0.2558 -0.3957 -1.7451
 3876SOL    HW223088   4.156   1.284  15.052 -1.8433 -0.9378 -1.0218
 3877SOL     OW23089   4.404   3.827  14.121  0.2948  0.6838 -0.2541
 3877SOL    HW123090   4.412   3.741  14.081  1.7863  1.8160 -2.4035
 3877SOL    HW223091   4.333   3.864  14.068 -2.0275 -1.5124  1.3299
 3878SOL     OW23092   3.289   2.871   3.133  0.1375 -0.3485 -0.1213
 3878SOL    HW123093   3.234   2.848   3.208 -1.4561  0.7543 -0.9536
 3878SOL    HW223094   3.374   2.832   3.155  0.0197 -0.3644  0.3114
 3879SOL     OW23095   2.240   2.022   1.420 -0.2272  0.0511  0.0629
 3879SOL    HW123096   2.333   2.001   1.420 -0.6476 -1.7342 -2.7003
 3879SOL    HW223097   2.192   1.940   1.417 -0.7775  0.4195 -1.0027
 3880SOL     OW23098   1.434   0.766   1.088  0.2504  0.0564  0.0189
 3880SOL    HW123099   1.368   0.741   1.153  2.5356  3.4651  3.7047
 3880SOL    HW223100   1.463   0.678   1.063 -2.2431 -0.3382 -1.3838
 3881SOL     OW23101   0.480   0.815   0.442 -0.1613 -0.2357  0.3495
 3881SOL    HW123102   0.393   0.825   0.482  0.6544 -0.2558  2.1324
 3881SOL    HW223103   0.485   0.891   0.385 -0.5029  0.9722  1.9323
 3882SOL     OW23104   3.619   1.530   9.448  0.0992 -0.2155 -0.3326
 3882SOL    HW123105   3.655   1.484   9.372  1.2758 -0.1274  0.1664
 3882SOL    HW223106   3.693   1.536   9.509  0.6826  1.0785 -1.1548
 3883SOL     OW23107   4.177   3.168  14.963 -0.2932 -0.2564  0.7351
 3883SOL    HW123108   4.193   3.074  14.978  3.5532  0.1045 -1.2103
 3883SOL    HW223109   4.098   3.159  14.910 -0.0743 -2.3516  0.7569
 3884SOL     OW23110   1.389   2.884   5.134  0.3393  0.3213 -0.2208
 3884SOL    HW123111   1.435   2.956   5.176  0.8931 -0.4502  0.4944
 3884SOL    HW223112   1.326   2.935   5.082 -0.0070  0.1313  0.0115
 3885SOL     OW23113   2.141   1.449   3.395 -0.1908  0.4886  0.7090
 3885SOL    HW123114   2.095   1.420   3.474 -1.0275  2.1187  0.8137
 3885SOL    HW223115   2.131   1.539   3.426  1.3394  0.5254  1.0757
 3886SOL     OW23116   0.951   2.511  14.949  0.1866  0.0059 -0.1150
 3886SOL    HW123117   0.955   2.603  14.925 -2.2342  0.0576 -0.2894
 3886SOL    HW223118   0.881   2.487  14.889  0.3467 -2.2549  0.6091
 3887SOL     OW23119   1.189   2.552   3.023  0.0670 -0.0918  0.6942
 3887SOL    HW123120   1.168   2.460   3.003  1.7928  0.0231 -1.5814
 3887SOL    HW223121   1.272   2.533   3.067  1.0528  2.9316  0.1263
 3888SOL     OW23122   0.742   3.345   5.728 -0.2122 -0.1264  0.0204
 3888SOL    HW123123   0.798   3.354   5.650  0.5011  2.0588  0.7812
 3888SOL    HW223124   0.801   3.370   5.799 -1.8496 -0.6012  1.5386
 3889SOL     OW23125   0.446   0.663   7.420 -0.3575  0.0250 -0.1752
 3889SOL    HW123126   0.472   0.752   7.444 -0.7183  0.0027  0.2827
 3889SOL    HW223127   0.535   0.630   7.409 -0.2783  0.4314 -0.7959
 3890SOL     OW23128   1.349   2.796   5.417 -0.5909  0.1283 -0.3479
 3890SOL    HW123129   1.299   2.877   5.422  0.5538  0.7564  1.1651
 3890SOL    HW223130   1.383   2.791   5.328  1.0844  1.9510  0.1888
 3891SOL     OW23131   0.639   1.702   5.752 -0.7147  0.1944 -0.0009
 3891SOL    HW123132   0.622   1.687   5.845  0.8011 -0.5786  0.1442
 3891SOL    HW223133   0.660   1.795   5.742  0.9851 -0.1913 -0.0635
 3892SOL     OW23134   4.450   2.229   0.347 -0.1003  0.4907  0.7860
 3892SOL    HW123135   4.398   2.308   0.336 -1.2366 -0.6883 -2.1942
 3892SOL    HW223136   4.470   2.215   0.254 -1.2024  0.2188  0.5864
 3893SOL     OW23137   4.403   1.072   4.964  0.7121 -0.2127  0.1998
 3893SOL    HW123138   4.476   1.013   4.947  2.3165  1.5812  0.9204
 3893SOL    HW223139   4.332   1.009   4.953  1.2992 -0.3560 -2.8047
 3894SOL     OW23140   2.783   0.149   1.989  0.3752  0.0055  0.0816
 3894SOL    HW123141   2.843   0.168   1.917  0.1920 -0.8743 -0.2927
 3894SOL    HW223142   2.824   0.203   2.057  1.3718 -0.1102 -0.4193
 3895SOL     OW23143   3.893   1.791  16.783 -0.0927  0.4508  0.3838
 3895SOL    HW123144   3.865   1.831  16.865  0.0038 -1.2112  1.2253
 3895SOL    HW223145   3.985   1.771  16.801 -0.8317 -0.3809  3.3106
 3896SOL     OW23146   1.813   2.386   9.419  0.5276  0.3008  0.2411
 3896SOL    HW123147   1.822   2.473   9.457 -0.5466  0.8949 -0.8731
 3896SOL    HW223148   1.792   2.416   9.331 -3.2263 -2.0625  0.3152
 3897SOL     OW23149   1.843   0.708   0.540 -0.4042  0.1847  0.6932
 3897SOL    HW123150   1.786   0.659   0.480  0.0180  2.1271 -1.3176
 3897SOL    HW223151   1.840   0.648   0.614  0.9153  1.2420  1.5965
 3898SOL     OW23152   3.997   4.500   5.905  0.4220  0.0628  0.2303
 3898SOL    HW123153   4.032   4.588   5.917  0.7144  0.0342 -0.4252
 3898SOL    HW223154   3.905   4.506   5.932  0.0368 -0.9679 -0.8063
 3899SOL     OW23155   3.684   1.602   7.847 -0.4278 -0.0610 -0.3100
 3899SOL    HW123156   3.670   1.610   7.941  1.4311 -0.2465 -0.0174
 3899SOL    HW223157   3.736   1.522   7.853  1.9229  1.6326  1.9834
 3900SOL     OW23158   3.699   0.067  11.795  0.4303  0.2402 -0.4966
 3900SOL    HW123159   3.651   4.712  11.772  2.1499 -0.4575 -1.6831
 3900SOL    HW223160   3.639   0.134  11.763  0.6084  1.0910  0.9866
 3901SOL     OW23161   3.339   0.922  13.789  0.5277  0.4599 -0.0632
 3901SOL    HW123162   3.298   0.932  13.703 -1.3819  2.0720  1.0472
 3901SOL    HW223163   3.407   0.990  13.790  0.4537  0.5228  0.7893
 3902SOL     OW23164   1.998   0.460   0.393 -0.2017  0.0140 -0.2385
 3902SOL    HW123165   1.959   0.382   0.431  2.3048 -1.0427  0.2162
 3902SOL    HW223166   2.037   0.492   0.475 -2.1567 -0.6770  0.9553
 3903SOL     OW23167   4.479   4.671  16.140  0.2810  0.5992  0.2256
 3903SOL    HW123168   4.429   4.687  16.060 -1.0714  0.1583  0.9797
 3903SOL    HW223169   4.503   4.580  16.125  0.3977  0.6570  0.0587
 3904SOL     OW23170   1.070   3.364   2.563 -0.7762  0.1292 -0.0744
 3904SOL    HW123171   1.092   3.279   2.602  0.4993 -0.0480 -1.1862
 3904SOL    HW223172   1.011   3.411   2.622 -1.3883 -1.0636  0.2472
 3905SOL     OW23173   3.479   2.159   5.023  0.2726 -0.0593  0.1460
 3905SOL    HW123174   3.472   2.232   5.084  3.3123  1.9722 -1.9379
 3905SOL    HW223175   3.573   2.142   5.016  0.4665  1.2979 -0.4410
 3906SOL     OW23176   4.025   0.060   5.945 -0.1299  0.0755 -0.1051
 3906SOL    HW123177   3.949   0.105   5.909 -0.1896  0.7235  0.8379
 3906SOL    HW223178   4.023   0.093   6.034 -0.0296  0.8323 -0.3808
 3907SOL     OW23179   2.804   3.335   9.422 -0.0177  0.1606  0.0127
 3907SOL    HW123180   2.888   3.374   9.399  0.3951 -0.9958 -0.3815
 3907SOL    HW223181   2.797   3.253   9.375 -0.3277  0.2675 -0.1280
 3908SOL     OW23182   1.846   4.439   8.468  0.3142 -0.5374  0.2647
 3908SOL    HW123183   1.769   4.382   8.477 -0.0197 -0.1980 -0.4489
 3908SOL    HW223184   1.847   4.461   8.375  2.3300  0.8994  0.6357
 3909SOL     OW23185   2.469   2.152   8.407 -0.3530 -0.0442  0.5599
 3909SOL    HW123186   2.559   2.181   8.392 -1.5638  3.1160 -0.4417
 3909SOL    HW223187   2.442   2.118   8.322  2.8756  2.3842 -1.4155
 3910SOL     OW23188   1.008   3.458   2.894  0.5668  0.2298 -0.2129
 3910SOL    HW123189   1.098   3.432   2.912  0.4102 -0.3597 -0.2661
 3910SOL    HW223190   0.965   3.374   2.877  0.3845 -0.1927  2.3510
 3911SOL     OW23191   1.004   2.209   6.558  0.1332 -0.4646 -0.3878
 3911SOL    HW123192   1.066   2.264   6.607  0.6172  0.0648 -1.6148
 3911SOL    HW223193   1.019   2.120   6.589  0.0899 -0.0547  0.8213
 3912SOL     OW23194   1.264   2.921  17.656  0.9212  0.1447 -0.1604
 3912SOL    HW123195   1.357   2.897  17.651  1.0968  1.2399 -2.2329
 3912SOL    HW223196   1.264   2.994  17.594 -0.4014 -0.9087 -1.4169
 3913SOL     OW23197   0.490   0.716   7.882 -0.0278  0.2838  0.1851
 3913SOL    HW123198   0.520   0.806   7.875  0.4906  0.0942 -0.0285
 3913SOL    HW223199   0.403   0.727   7.919  0.3416  0.2821  1.0687
 3914SOL     OW23200   4.331   1.980   7.994  0.6599  0.5365 -0.3610
 3914SOL    HW123201   4.385   1.904   7.973 -1.0075 -1.2132  1.7377
 3914SOL    HW223202   4.274   1.940   8.060 -1.9774  1.5222 -2.0153
 3915SOL     OW23203   4.359   3.858  15.177  0.3355  0.2522  0.2638
 3915SOL    HW123204   4.354   3.910  15.097  0.0900 -0.3774 -0.1307
 3915SOL    HW223205   4.455   3.855  15.183  0.1941  0.5733  2.7130
 3916SOL     OW23206   0.047   4.398   9.584 -0.5688 -0.2234  0.3108
 3916SOL    HW123207   4.698   4.443   9.626  1.4182  2.9756  0.4208
 3916SOL    HW223208   0.063   4.331   9.650 -1.1376  1.2045  1.9197
 3917SOL     OW23209   3.202   2.100   4.622  0.6939  0.3405  0.2251
 3917SOL    HW123210   3.146   2.178   4.627  0.9583  0.5925 -0.7860
 3917SOL    HW223211   3.270   2.134   4.680  2.9762 -1.5860 -1.3267
 3918SOL     OW23212   1.950   2.619   5.699 -0.5106 -0.1133 -0.3145
 3918SOL    HW123213   1.925   2.646   5.787  1.4960  0.6775 -0.0015
 3918SOL    HW223214   1.944   2.700   5.647  1.3767 -1.1238 -2.1206
 3919SOL     OW23215   0.009   4.627   6.269 -0.8114 -0.6179  0.0718
 3919SOL    HW123216   0.012   4.622   6.173  1.2483  3.4336 -0.0691
 3919SOL    HW223217   0.008   4.723   6.278  3.7287 -0.5813  0.0259
 3920SOL     OW23218   4.299   4.023   3.352 -0.6064  0.4490 -0.2110
 3920SOL    HW123219   4.373   3.983   3.397  0.0332  1.0439 -0.7401
 3920SOL    HW223220   4.285   3.962   3.280 -0.9020  1.3243 -0.8876
 3921SOL     OW23221   0.355   0.244  14.049  0.4557  0.1075 -0.0704
 3921SOL    HW123222   0.296   0.320  14.052 -0.3456 -0.5204 -0.0117
 3921SOL    HW223223   0.342   0.210  13.961  0.2134  0.6161 -0.2329
 3922SOL     OW23224   2.640   0.658   4.183  0.9109  0.1137  0.1938
 3922SOL    HW123225   2.598   0.709   4.114  2.0719  0.5235 -0.2167
 3922SOL    HW223226   2.563   0.621   4.226  0.7106 -0.9490 -1.0826
 3923SOL     OW23227   1.263   2.607  15.708 -0.2497 -0.3100  0.1838
 3923SOL    HW123228   1.344   2.634  15.665 -1.8693 -0.1209 -2.7541
 3923SOL    HW223229   1.210   2.686  15.718  0.7898  0.6345 -1.9136
 3924SOL     OW23230   1.035   1.740   7.996  0.1451 -0.0445 -0.1349
 3924SOL    HW123231   1.046   1.815   8.054  0.4112 -0.3806  0.2528
 3924SOL    HW223232   1.062   1.783   7.915  0.1038  0.3997  0.0912
 3925SOL     OW23233   4.505   0.941   3.203 -0.1367 -0.0548 -0.4003
 3925SOL    HW123234   4.535   1.013   3.258 -0.5881  1.5543 -2.2534
 3925SOL    HW223235   4.575   0.878   3.217 -0.7414 -1.0062 -1.6523
 3926SOL     OW23236   3.958   1.164   7.871 -0.1866  0.3784  0.0660
 3926SOL    HW123237   4.021   1.151   7.800  0.8332  0.7210  0.9005
 3926SOL    HW223238   3.904   1.089   7.847  0.6685 -0.3139  0.2717
 3927SOL     OW23239   1.719   0.727  12.707  0.2612  0.3539  0.2937
 3927SOL    HW123240   1.679   0.672  12.775 -1.0531  3.1233  1.7321
 3927SOL    HW223241   1.810   0.739  12.735 -0.2150  0.8807  1.6126
 3928SOL     OW23242   3.375   3.938   8.909  0.6425  0.0451  0.0963
 3928SOL    HW123243   3.280   3.927   8.904  0.5701  0.0200  1.6396
 3928SOL    HW223244   3.383   4.001   8.837  0.5294  0.0760  0.1108
 3929SOL     OW23245   1.521   1.905   8.373  0.3161  0.1334 -0.2102
 3929SOL    HW123246   1.435   1.867   8.354  0.5112  0.0760 -0.9907
 3929SOL    HW223247   1.518   1.905   8.468 -0.1693 -0.6944 -0.2323
 3930SOL     OW23248   2.747   4.665   3.726 -0.7783  0.1245 -0.2846
 3930SOL    HW123249   2.790   0.011   3.774 -2.9492  3.0273 -2.5855
 3930SOL    HW223250   2.823   4.610   3.708 -3.2730 -3.0018 -1.2174
 3931SOL     OW23251   0.748   3.396   5.088 -0.0585 -0.5539  0.1470
 3931SOL    HW123252   0.667   3.419   5.133  0.6653 -2.1046  2.2149
 3931SOL    HW223253   0.787   3.483   5.079 -0.0710 -0.3036  2.4955
 3932SOL     OW23254   4.224   0.273   4.274  0.0838 -0.4758 -0.5187
 3932SOL    HW123255   4.154   0.222   4.314 -1.0809  1.3859 -0.1675
 3932SOL    HW223256   4.175   0.318   4.205 -0.3218  0.7933  0.6079
 3933SOL     OW23257   4.162   4.341   8.998 -0.2171 -0.4365 -0.3042
 3933SOL    HW123258   4.215   4.390   8.936  0.2462  0.1655  0.5810
 3933SOL    HW223259   4.219   4.268   9.025  1.3193  0.7746 -0.2910
 3934SOL     OW23260   1.950   3.015  11.849  0.8941 -0.0733 -0.5075
 3934SOL    HW123261   1.942   2.940  11.907  1.4782  0.1663 -0.1199
 3934SOL    HW223262   2.013   3.068  11.898  2.8662 -2.0341 -0.9642
 3935SOL     OW23263   2.875   3.896  11.037  0.2748  0.1510  0.1314
 3935SOL    HW123264   2.872   3.911  10.942 -0.5862 -4.1496 -0.4909
 3935SOL    HW223265   2.958   3.850  11.047  0.9094  1.0245 -1.0905
 3936SOL     OW23266   0.416   2.543   9.322  0.6613  0.5906 -0.4592
 3936SOL    HW123267   0.437   2.504   9.237 -0.5524 -0.8632 -0.0913
 3936SOL    HW223268   0.501   2.583   9.339  0.0384  0.5978  2.5609
 3937SOL     OW23269   1.561   3.385   0.041  0.0486 -0.0779  0.0887
 3937SOL    HW123270   1.511   3.363   0.120 -2.3438  2.0657 -0.8501
 3937SOL    HW223271   1.653   3.407   0.056 -0.7268  3.3053 -0.1433
 3938SOL     OW23272   1.293   0.230   7.709  0.1455  0.2282  0.1714
 3938SOL    HW123273   1.262   0.227   7.619  0.7960 -0.4894 -0.0289
 3938SOL    HW223274   1.264   0.144   7.741 -1.5815  0.7678  0.0612
 3939SOL     OW23275   0.445   0.214   1.864 -0.2452  0.3157  0.0316
 3939SOL    HW123276   0.368   0.159   1.848 -1.5246  1.4650  2.2699
 3939SOL    HW223277   0.405   0.278   1.922 -0.6755  0.5122 -0.4836
 3940SOL     OW23278   3.142   4.675   4.225  0.2126  0.3857 -1.1349
 3940SOL    HW123279   3.076   4.717   4.171 -2.2329 -1.6377  0.2752
 3940SOL    HW223280   3.213   0.013   4.209  2.9450 -1.5934  3.1441
 3941SOL     OW23281   1.608   2.368   8.622 -0.1798  0.2501 -0.3404
 3941SOL    HW123282   1.543   2.351   8.690  0.9683 -2.0602  0.2071
 3941SOL    HW223283   1.602   2.288   8.570 -0.4732  0.0815 -0.0427
 3942SOL     OW23284   1.618   3.411   8.610 -0.5593  0.0957 -0.5685
 3942SOL    HW123285   1.608   3.347   8.681 -2.0536  0.1430 -0.7479
 3942SOL    HW223286   1.663   3.483   8.654  1.7227 -0.5469 -1.8484
 3943SOL     OW23287   3.569   0.469   8.815  0.3087  0.4817 -0.7076
 3943SOL    HW123288   3.598   0.389   8.859 -2.3737 -0.1845 -0.1334
 3943SOL    HW223289   3.652   0.516   8.805  0.8526 -0.3530 -0.1471
 3944SOL     OW23290   1.028   4.017   2.210 -0.4978  0.8105  0.1502
 3944SOL    HW123291   0.994   4.000   2.298 -0.6317  0.1320 -0.0377
 3944SOL    HW223292   0.979   3.948   2.166 -0.6279  2.3325 -2.0793
 3945SOL     OW23293   2.219   3.343   7.996  0.0594  0.8490 -0.5063
 3945SOL    HW123294   2.126   3.327   8.010  0.6294 -3.3129 -1.7588
 3945SOL    HW223295   2.207   3.430   7.957 -1.3395  1.0684  0.4287
 3946SOL     OW23296   4.420   1.274  17.192  0.5016  0.0778 -0.1375
 3946SOL    HW123297   4.489   1.324  17.149 -1.6042  1.4360 -1.9227
 3946SOL    HW223298   4.360   1.347  17.205 -0.8517 -0.8281 -1.3748
 3947SOL     OW23299   0.411   1.392   0.836 -0.4315  0.0321 -0.6098
 3947SOL    HW123300   0.433   1.309   0.792 -0.4560 -2.2886  3.7450
 3947SOL    HW223301   0.458   1.370   0.916 -1.7291  1.5117  0.5399
 3948SOL     OW23302   3.295   1.680   6.158  0.2813 -0.7480 -0.2255
 3948SOL    HW123303   3.201   1.684   6.174  0.3413  0.4871 -0.1708
 3948SOL    HW223304   3.323   1.753   6.214  1.4045 -1.1418 -0.2688
 3949SOL     OW23305   4.261   2.884   7.408 -0.0724 -0.1807 -0.2348
 3949SOL    HW123306   4.249   2.901   7.501 -0.2704  1.6901 -0.5931
 3949SOL    HW223307   4.185   2.936   7.379 -1.1705 -0.4281  2.1668
 3950SOL     OW23308   0.678   0.264   9.245  0.3831 -0.2586  0.5929
 3950SOL    HW123309   0.583   0.250   9.250  0.3043  0.0166 -0.1861
 3950SOL    HW223310   0.686   0.340   9.302 -0.0580 -1.0818  1.7719
 3951SOL     OW23311   2.652   1.739   2.317 -0.5940  0.5160  0.5259
 3951SOL    HW123312   2.735   1.696   2.293  0.0326  1.8745  0.2723
 3951SOL    HW223313   2.626   1.698   2.399 -0.4783  1.9743  1.2873
 3952SOL     OW23314   1.986   1.633  17.548  0.2237 -0.3129 -0.1478
 3952SOL    HW123315   1.935   1.605  17.473  0.5661 -3.6519  0.8749
 3952SOL    HW223316   1.955   1.719  17.576 -1.1084 -0.7731 -0.2223
 3953SOL     OW23317   1.532   4.637   5.697 -0.7579 -0.3904 -0.5323
 3953SOL    HW123318   1.445   4.617   5.730 -1.1169 -1.9566 -2.4154
 3953SOL    HW223319   1.568   4.549   5.705 -0.5038 -0.1824  0.5641
 3954SOL     OW23320   0.326   2.876   0.891 -0.0169 -0.1757  0.2462
 3954SOL    HW123321   0.344   2.786   0.865 -0.6463  0.2608 -1.7193
 3954SOL    HW223322   0.399   2.884   0.952 -1.0992 -0.1457  1.5284
 3955SOL     OW23323   4.067   4.200   3.941  0.2419 -0.1811 -0.3186
 3955SOL    HW123324   4.045   4.292   3.956  0.7043 -0.1340  0.0641
 3955SOL    HW223325   4.045   4.194   3.848 -0.7695  1.0264 -0.1578
 3956SOL     OW23326   3.762   0.955  10.295  0.1558  0.4722 -1.0953
 3956SOL    HW123327   3.759   0.894  10.221 -0.9543  0.9160 -1.4310
 3956SOL    HW223328   3.807   1.021  10.243  2.4822  0.5693  1.0680
 3957SOL     OW23329   1.155   0.051   5.010 -0.0460 -0.2790 -0.1531
 3957SOL    HW123330   1.158   0.062   5.106 -0.1229  0.8720 -0.2772
 3957SOL    HW223331   1.207   0.123   4.974 -1.5904  1.2813  0.7069
 3958SOL     OW23332   4.347   0.873   2.505 -0.0034  0.0655  0.9469
 3958SOL    HW123333   4.381   0.950   2.461  2.0260 -1.6402 -0.4991
 3958SOL    HW223334   4.367   0.909   2.591  0.4229  3.9442 -0.7704
 3959SOL     OW23335   4.509   1.343   2.857  0.1399  0.3611  0.3731
 3959SOL    HW123336   4.553   1.335   2.941 -0.8943 -0.8970  0.7808
 3959SOL    HW223337   4.528   1.436   2.840 -1.4561  0.7045  0.4724
 3960SOL     OW23338   0.193   2.192   3.654  0.4741 -0.0521 -0.3168
 3960SOL    HW123339   0.277   2.156   3.684  1.6527  2.6480 -0.4138
 3960SOL    HW223340   0.204   2.172   3.561  0.1678 -0.1890 -0.3215
 3961SOL     OW23341   3.084   4.559   2.594 -0.1422 -0.4017 -0.2025
 3961SOL    HW123342   3.098   4.504   2.517  1.9088  0.8012 -0.7067
 3961SOL    HW223343   3.147   4.629   2.573  0.6321 -0.7232  1.0111
 3962SOL     OW23344   3.445   4.096  16.904 -0.2697 -0.0856 -0.3245
 3962SOL    HW123345   3.535   4.078  16.878 -0.6588 -1.0589 -0.9755
 3962SOL    HW223346   3.456   4.161  16.974  0.5234  2.0479 -2.4130
 3963SOL     OW23347   0.539   2.785   3.755 -0.1567 -0.1209  0.2067
 3963SOL    HW123348   0.628   2.777   3.721 -0.3077 -2.9045  0.5070
 3963SOL    HW223349   0.512   2.829   3.674  0.1447 -0.5378 -0.1212
 3964SOL     OW23350   3.484   0.596   0.901 -0.2103  0.0785 -0.2117
 3964SOL    HW123351   3.508   0.622   0.990  4.1651  0.6764 -1.5387
 3964SOL    HW223352   3.488   0.680   0.854  0.8722  0.4762  0.5878
 3965SOL     OW23353   3.547   3.073   2.124  0.1401  0.3548 -0.1151
 3965SOL    HW123354   3.495   3.035   2.194 -0.2071 -0.8672 -1.0373
 3965SOL    HW223355   3.543   3.166   2.145 -2.3883 -0.4342  2.8220
 3966SOL     OW23356   0.924   2.751   5.141  0.1212  0.4144 -0.1946
 3966SOL    HW123357   0.933   2.663   5.177 -1.7561 -0.0715 -0.8901
 3966SOL    HW223358   0.966   2.728   5.058  0.9107 -0.0474  0.3340
 3967SOL     OW23359   1.579   3.726   6.928  0.7720  0.0034  0.0547
 3967SOL    HW123360   1.606   3.817   6.940  0.0613  0.2561 -0.2644
 3967SOL    HW223361   1.651   3.690   6.876  0.4633  0.3373 -0.6094
 3968SOL     OW23362   3.264   4.154  16.712  0.2940 -0.1851  0.3152
 3968SOL    HW123363   3.330   4.115  16.769 -0.1763  0.5721  1.3566
 3968SOL    HW223364   3.191   4.164  16.773  0.2827 -1.7371  0.5603
 3969SOL     OW23365   2.695   0.185  10.919 -0.7110 -0.5047  0.5455
 3969SOL    HW123366   2.711   0.118  10.986  3.2172  1.5222  1.6523
 3969SOL    HW223367   2.772   0.165  10.865  1.0794  1.0256  2.5451
 3970SOL     OW23368   0.371   1.057   7.065 -0.2813  0.4049  0.1975
 3970SOL    HW123369   0.403   1.035   7.153  0.4044 -0.8655 -0.3748
 3970SOL    HW223370   0.425   1.132   7.041 -1.1329  0.8720 -0.2689
 3971SOL     OW23371   1.038   2.064  16.575  0.5855  0.6459 -0.2940
 3971SOL    HW123372   1.039   2.148  16.528  1.6823  0.7969  0.0036
 3971SOL    HW223373   1.064   2.002  16.506 -2.3231 -0.0162 -0.8072
 3972SOL     OW23374   1.168   1.795   7.059  0.2831  0.0394  0.3036
 3972SOL    HW123375   1.146   1.721   7.003  2.8026 -0.4394 -0.0161
 3972SOL    HW223376   1.263   1.791   7.066  0.3338 -0.2083 -0.5096
 3973SOL     OW23377   2.790   2.315   2.589  0.4668  0.1002 -0.0312
 3973SOL    HW123378   2.744   2.362   2.519  2.2908  0.3754 -1.0222
 3973SOL    HW223379   2.728   2.330   2.661 -0.1160  0.4629 -0.6034
 3974SOL     OW23380   0.789   0.217  12.643 -0.2299  0.0745  0.8273
 3974SOL    HW123381   0.759   0.130  12.618 -1.8337  0.9704 -0.3970
 3974SOL    HW223382   0.773   0.265  12.562 -1.3711 -1.2860  0.2442
 3975SOL     OW23383   4.017   3.900  11.649 -0.5708 -0.5355 -0.7988
 3975SOL    HW123384   3.996   3.919  11.558 -1.3982 -1.1288 -0.7378
 3975SOL    HW223385   4.104   3.863  11.635  0.2938  1.3035 -0.1759
 3976SOL     OW23386   4.028   2.175   3.714 -0.0536  0.1549 -0.0774
 3976SOL    HW123387   4.037   2.270   3.713 -1.1837  0.2616 -0.2435
 3976SOL    HW223388   4.045   2.151   3.804 -0.4444 -0.8002 -0.2595
 3977SOL     OW23389   2.077   2.416   5.522  0.0340  0.2433  0.1108
 3977SOL    HW123390   2.044   2.428   5.433  2.1972  1.5437 -0.5405
 3977SOL    HW223391   2.004   2.449   5.574  0.1644 -0.7091  0.9062
 3978SOL     OW23392   4.057   0.540   3.257 -0.1509 -0.4156  0.0825
 3978SOL    HW123393   3.982   0.569   3.206  0.5956 -2.7463 -2.3286
 3978SOL    HW223394   4.087   0.468   3.202 -0.0771  1.7490 -2.6975
 3979SOL     OW23395   1.288   2.638   5.904 -0.1465 -0.3803  0.2952
 3979SOL    HW123396   1.363   2.669   5.954 -0.0609 -0.3935  0.1745
 3979SOL    HW223397   1.315   2.675   5.819  0.4083  0.1401  0.6993
 3980SOL     OW23398   0.470   2.155   8.003 -0.0159  0.4239 -0.3839
 3980SOL    HW123399   0.407   2.132   7.936 -1.1767  2.9206 -0.1375
 3980SOL    HW223400   0.417   2.153   8.083 -0.2062 -1.3898 -0.5412
 3981SOL     OW23401   2.399   1.982   7.458 -0.5791 -0.0023  0.2757
 3981SOL    HW123402   2.409   2.028   7.374 -1.8684 -2.5079 -1.2429
 3981SOL    HW223403   2.472   2.027   7.501  0.8256 -2.3768  0.3285
 3982SOL     OW23404   0.109   1.729   9.431  0.4883 -0.0329  0.3761
 3982SOL    HW123405   0.199   1.705   9.451  0.2103 -1.1180  0.3314
 3982SOL    HW223406   0.065   1.644   9.438 -0.4154  0.4236  0.1850
 3983SOL     OW23407   3.128   2.809   0.939  0.1770  0.3128 -0.0373
 3983SOL    HW123408   3.079   2.732   0.969  0.7914  0.2951  0.9216
 3983SOL    HW223409   3.134   2.795   0.844 -1.0786 -2.7161  0.3118
 3984SOL     OW23410   0.232   3.111   6.372  0.0832  0.1035 -0.4494
 3984SOL    HW123411   0.213   3.067   6.454 -0.8580  0.0689 -0.6827
 3984SOL    HW223412   0.328   3.111   6.372  0.0831 -0.1884 -0.9004
 3985SOL     OW23413   1.244   2.237   1.772 -0.5107 -0.9808  0.4496
 3985SOL    HW123414   1.296   2.316   1.790  1.5985 -2.2327 -0.1729
 3985SOL    HW223415   1.313   2.177   1.746 -0.1392 -0.5184  0.3525
 3986SOL     OW23416   4.667   0.052   3.667 -0.2430  0.0600  0.3586
 3986SOL    HW123417   0.033   0.025   3.652 -0.5907  0.2717 -1.9961
 3986SOL    HW223418   4.685   0.118   3.734 -0.6342 -0.4731  0.9889
 3987SOL     OW23419   0.320   2.723   6.353 -0.1541  0.0484 -0.2855
 3987SOL    HW123420   0.276   2.658   6.298  1.2477 -1.7376  0.6826
 3987SOL    HW223421   0.256   2.732   6.423  1.9347 -2.3094  1.9260
 3988SOL     OW23422   1.885   4.385   1.137 -0.5640 -0.5318 -0.5603
 3988SOL    HW123423   1.939   4.459   1.108 -0.5401  0.0586  1.0261
 3988SOL    HW223424   1.892   4.321   1.066 -0.3446 -0.9027 -0.2055
 3989SOL     OW23425   1.552   1.400   2.084 -0.5507 -0.0854  0.0506
 3989SOL    HW123426   1.637   1.412   2.126 -0.8354 -1.6171  1.0474
 3989SOL    HW223427   1.564   1.435   1.996  2.4841 -0.6447  0.2530
 3990SOL     OW23428   1.279   0.704   5.613 -0.2647 -0.1335 -0.2473
 3990SOL    HW123429   1.251   0.690   5.523 -0.4332 -0.7556 -0.0952
 3990SOL    HW223430   1.317   0.791   5.598 -0.0927 -0.6070 -2.5136
 3991SOL     OW23431   1.857   0.690   4.318 -0.0071  0.5586 -0.0508
 3991SOL    HW123432   1.874   0.731   4.403 -1.0952  1.5197 -0.2903
 3991SOL    HW223433   1.848   0.600   4.346 -0.7789  0.1450 -1.6090
 3992SOL     OW23434   3.115   1.317  15.364 -0.0747  0.4435  0.6489
 3992SOL    HW123435   3.157   1.290  15.446  0.6452  0.4119  0.2706
 3992SOL    HW223436   3.187   1.364  15.322 -0.0440 -0.5473 -0.3896
 3993SOL     OW23437   2.440   1.034   4.611 -0.3413 -0.2323  0.5912
 3993SOL    HW123438   2.528   1.069   4.625  0.0900 -0.6019 -1.1893
 3993SOL    HW223439   2.457   0.979   4.535 -0.7753  0.4602 -0.0036
 3994SOL     OW23440   3.579   1.264   4.756  0.3195  0.0848  0.2677
 3994SOL    HW123441   3.513   1.310   4.703 -0.5787 -1.1964  0.2883
 3994SOL    HW223442   3.657   1.319   4.746  0.1966  0.2797  0.3791
 3995SOL     OW23443   1.042   4.500   2.917  0.0415  0.1823 -0.5220
 3995SOL    HW123444   1.125   4.454   2.902  0.0812 -0.2543  1.0605
 3995SOL    HW223445   1.038   4.561   2.844 -1.2970  0.2054 -0.4333
 3996SOL     OW23446   3.381   0.443  15.531  0.0099 -0.5009 -0.0985
 3996SOL    HW123447   3.469   0.421  15.560  0.4971 -2.0257 -2.7088
 3996SOL    HW223448   3.326   0.407  15.602  0.5195  4.1907  2.6660
 3997SOL     OW23449   1.090   1.458  16.353  0.1484  0.1735  0.4899
 3997SOL    HW123450   1.109   1.497  16.268 -3.6831 -1.8318 -1.2574
 3997SOL    HW223451   1.108   1.532  16.411 -2.6648  1.5662 -0.4687
 3998SOL     OW23452   1.145   1.952   6.846 -0.4980 -0.6872  0.4022
 3998SOL    HW123453   1.138   1.891   6.920  0.5730 -2.0308 -0.6012
 3998SOL    HW223454   1.204   1.900   6.792  0.1375  1.4708 -1.0017
 3999SOL     OW23455   1.959   0.822   6.640 -0.2551  0.2633  0.0958
 3999SOL    HW123456   1.874   0.784   6.661 -0.1031 -0.3048 -0.3141
 3999SOL    HW223457   2.014   0.747   6.663  1.1966  0.2037 -3.5022
 4000SOL     OW23458   2.853   3.795  16.495 -0.3321 -0.4213 -0.3469
 4000SOL    HW123459   2.912   3.742  16.441  0.3673  1.1935 -1.1550
 4000SOL    HW223460   2.920   3.847  16.538  0.4464 -0.7412 -1.1675
 4001SOL     OW23461   2.117   3.590   7.890 -0.5641 -0.1347  0.1957
 4001SOL    HW123462   2.075   3.597   7.804 -0.7881  0.0847  0.3252
 4001SOL    HW223463   2.051   3.625   7.950 -0.3821 -0.8939  0.8263
 4002SOL     OW23464   1.753   0.779   6.775 -0.1609  0.3952 -0.3485
 4002SOL    HW123465   1.728   0.718   6.844  0.1125 -2.4978 -2.8112
 4002SOL    HW223466   1.696   0.850   6.803  1.9254  1.4793  1.0805
 4003SOL     OW23467   4.073   3.441   0.705  0.3735  0.6462  0.1048
 4003SOL    HW123468   4.142   3.478   0.760 -0.3744 -0.1059  1.5554
 4003SOL    HW223469   4.132   3.398   0.643  0.1989 -2.2067  1.9057
 4004SOL     OW23470   2.088   2.525   9.048 -0.4101 -0.1045  0.1022
 4004SOL    HW123471   2.126   2.518   9.136  3.4296 -1.6450 -1.7185
 4004SOL    HW223472   1.998   2.554   9.067 -0.1025  0.3687  0.8514
 4005SOL     OW23473   4.528   4.482   0.584  0.4259 -0.5630  0.0605
 4005SOL    HW123474   4.581   4.422   0.637  0.3692 -1.1099 -0.4933
 4005SOL    HW223475   4.508   4.428   0.507 -1.0693 -0.6766  0.5395
 4006SOL     OW23476   0.896   2.849  12.750  0.0218  0.6379 -0.1895
 4006SOL    HW123477   0.837   2.854  12.674 -0.6156 -2.1917  0.1020
 4006SOL    HW223478   0.843   2.791  12.804 -3.1665  1.3926 -2.5256
 4007SOL     OW23479   0.530   1.576   8.982 -0.2472  0.2872  0.0610
 4007SOL    HW123480   0.598   1.600   9.045 -1.1229  0.4657  0.9466
 4007SOL    HW223481   0.466   1.647   8.986 -0.5552 -0.0618  1.3177
 4008SOL     OW23482   4.491   2.640   6.086 -0.5201  0.1293 -0.5557
 4008SOL    HW123483   4.528   2.677   6.006  1.1186  0.2727  0.2884
 4008SOL    HW223484   4.405   2.682   6.091 -0.6445 -0.0660 -1.0458
 4009SOL     OW23485   0.166   1.536   1.651  0.3209 -0.2754 -0.0468
 4009SOL    HW123486   0.206   1.454   1.680 -1.1541 -0.9333  0.1269
 4009SOL    HW223487   0.086   1.528   1.703  0.4960 -1.0007  0.1067
 4010SOL     OW23488   3.265   0.092   5.040 -0.3720 -0.1198 -0.2435
 4010SOL    HW123489   3.257   0.169   4.984  1.2822  0.2176 -0.0158
 4010SOL    HW223490   3.181   0.053   5.015 -1.4467  1.5256  0.8064
 4011SOL     OW23491   0.585   0.064   2.935  0.1034 -0.1360  0.2620
 4011SOL    HW123492   0.619   0.022   3.014 -0.2788  0.0894  0.5470
 4011SOL    HW223493   0.540   0.139   2.974 -3.1611 -1.9208 -0.0712
 4012SOL     OW23494   2.315   3.593   2.828  0.1675  0.3144 -0.2470
 4012SOL    HW123495   2.259   3.628   2.759  0.2577 -1.3021 -1.1446
 4012SOL    HW223496   2.254   3.543   2.882 -1.4426  1.6167 -0.8438
 4013SOL     OW23497   0.740   2.297   0.797  0.0179  0.0536  0.0337
 4013SOL    HW123498   0.788   2.259   0.724  0.7275 -2.3444  1.7194
 4013SOL    HW223499   0.668   2.236   0.812 -0.2152 -0.4586 -3.1859
 4014SOL     OW23500   2.288   3.662   8.328  0.1617 -0.3673  0.1578
 4014SOL    HW123501   2.196   3.637   8.328  0.6873 -2.2590 -0.9173
 4014SOL    HW223502   2.296   3.731   8.394 -0.8110  1.0664 -1.2276
 4015SOL     OW23503   2.989   1.722   3.183 -1.1610 -0.4800 -0.4446
 4015SOL    HW123504   2.945   1.807   3.175  1.3557  0.7767 -0.9565
 4015SOL    HW223505   2.988   1.704   3.277 -0.1266 -0.0861 -0.3526
 4016SOL     OW23506   0.581   1.582  10.589 -0.5224  0.3840 -0.4946
 4016SOL    HW123507   0.506   1.524  10.575 -0.7413  0.1597  1.6061
 4016SOL    HW223508   0.651   1.525  10.620 -0.2374  0.0620 -1.7378
 4017SOL     OW23509   4.305   4.511   8.829 -0.1259  0.2992  0.1554
 4017SOL    HW123510   4.300   4.468   8.744 -0.7219  1.4600 -0.3946
 4017SOL    HW223511   4.367   4.579   8.805  0.5536  0.1553  1.4830
 4018SOL     OW23512   0.088   2.128   5.867 -0.0908  0.1846 -0.2687
 4018SOL    HW123513   0.181   2.132   5.846 -0.7976  0.8586 -3.3578
 4018SOL    HW223514   0.041   2.152   5.787 -2.8862  1.7386  1.8296
 4019SOL     OW23515   1.939   2.351   3.622 -0.3730 -0.2106 -0.3548
 4019SOL    HW123516   1.913   2.416   3.687  1.3199 -0.2254  0.3480
 4019SOL    HW223517   2.031   2.342   3.646 -0.2183  0.0507 -0.8623
 4020SOL     OW23518   1.953   2.218   4.714 -0.1763 -0.0723 -0.1498
 4020SOL    HW123519   1.894   2.239   4.641 -0.3509 -0.8367 -0.2352
 4020SOL    HW223520   2.035   2.208   4.666 -1.1029  0.7763 -1.9195
 4021SOL     OW23521   4.479   0.526   1.676  0.3023  0.0396  0.8861
 4021SOL    HW123522   4.386   0.519   1.658 -0.0869  0.3694  2.6976
 4021SOL    HW223523   4.521   0.495   1.596  0.1275  0.6148  0.5669
 4022SOL     OW23524   2.334   1.217  12.910 -0.0704  0.2650  0.1534
 4022SOL    HW123525   2.387   1.293  12.888 -0.4769  0.1816 -1.1280
 4022SOL    HW223526   2.381   1.159  12.850  3.6572  1.3855  1.9861
 4023SOL     OW23527   1.422   0.010  15.388 -0.1351 -0.1959  0.1218
 4023SOL    HW123528   1.334   4.721  15.353 -0.3870 -0.0211  0.6868
 4023SOL    HW223529   1.420   4.666  15.455  1.9521 -1.5176 -1.1785
 4024SOL     OW23530   2.715   1.849   1.413  0.2923 -0.0133  0.2634
 4024SOL    HW123531   2.804   1.861   1.379  0.1738 -1.3060 -0.5037
 4024SOL    HW223532   2.729   1.824   1.505 -0.3954 -0.8799  0.1289
 4025SOL     OW23533   1.460   2.857   2.218  0.1287  0.0573 -0.1864
 4025SOL    HW123534   1.539   2.844   2.165  0.3072 -1.6979  0.5385
 4025SOL    HW223535   1.407   2.904   2.153 -2.3930 -0.9362  1.1506
 4026SOL     OW23536   1.617   4.683   7.667  0.1838 -0.4044 -0.4654
 4026SOL    HW123537   1.583   4.718   7.585 -1.2615  0.4957  0.5281
 4026SOL    HW223538   1.648   0.034   7.716  1.7063 -0.3561 -1.4921
 4027SOL     OW23539   3.700   3.502   6.725  0.7463 -0.1774 -0.3175
 4027SOL    HW123540   3.624   3.539   6.769  1.3431 -1.6511  1.9429
 4027SOL    HW223541   3.753   3.463   6.794  1.8238  1.6506 -0.0865
 4028SOL     OW23542   3.604   1.071   0.515  0.2260  0.3025 -0.1741
 4028SOL    HW123543   3.696   1.070   0.488 -0.3792  0.7937 -2.2859
 4028SOL    HW223544   3.603   1.165   0.528  1.4039  0.2896  0.0151
 4029SOL     OW23545   4.348   2.848   2.697  0.0115 -0.2484 -0.0508
 4029SOL    HW123546   4.309   2.931   2.668 -2.3836 -1.4368 -0.1716
 4029SOL    HW223547   4.358   2.856   2.792  1.2799 -1.8377 -0.0657
 4030SOL     OW23548   4.264   3.359   0.493 -0.3271 -0.1773  0.0811
 4030SOL    HW123549   4.338   3.312   0.455  1.2908  1.1501  1.5736
 4030SOL    HW223550   4.189   3.325   0.445  1.0152  0.3025 -2.3356
 4031SOL     OW23551   0.339   3.043  13.738 -0.4926 -0.0596 -0.6058
 4031SOL    HW123552   0.345   3.125  13.787  2.8194 -0.1180 -0.9029
 4031SOL    HW223553   0.390   3.074  13.663 -0.9898  0.9149 -0.5465
 4032SOL     OW23554   2.785   1.802   9.156 -0.2093 -0.2303  0.4487
 4032SOL    HW123555   2.765   1.824   9.247 -0.5851 -0.2104  0.3596
 4032SOL    HW223556   2.743   1.716   9.150 -2.0916  0.7956 -1.0641
 4033SOL     OW23557   2.643   1.801   9.387  0.1487  0.3505 -0.1033
 4033SOL    HW123558   2.651   1.713   9.350 -1.8522 -1.1088  2.9183
 4033SOL    HW223559   2.573   1.794   9.451 -1.0037  0.1643 -1.3880
 4034SOL     OW23560   1.872   2.790   6.768  0.1524  0.0679  0.8270
 4034SOL    HW123561   1.812   2.740   6.823  0.2143  0.3903  1.1915
 4034SOL    HW223562   1.904   2.730   6.701 -1.3586  0.2647 -0.0816
 4035SOL     OW23563   4.162   1.486   0.922 -0.3735  0.2797 -0.3230
 4035SOL    HW123564   4.103   1.558   0.944 -0.4195  0.0916  0.1807
 4035SOL    HW223565   4.217   1.491   1.001 -0.1645 -1.4292 -0.3420
 4036SOL     OW23566   3.734   3.751   1.905 -0.6018 -0.1664 -0.1415
 4036SOL    HW123567   3.754   3.743   1.812 -0.7612 -0.3762 -0.1590
 4036SOL    HW223568   3.639   3.741   1.904 -0.7192  0.9510  0.5205
 4037SOL     OW23569   2.688   1.616  14.012  0.5480 -0.3124  0.1585
 4037SOL    HW123570   2.712   1.656  14.096  2.1725 -0.1820 -0.3735
 4037SOL    HW223571   2.605   1.578  14.040  0.1637 -1.5943 -2.7305
 4038SOL     OW23572   0.015   1.016   5.506 -0.8150  0.3588 -0.0934
 4038SOL    HW123573   4.655   1.039   5.467 -1.8771 -1.9523  0.8065
 4038SOL    HW223574   0.054   0.951   5.448 -0.2963  2.2396 -1.8446
 4039SOL     OW23575   1.376   2.059   3.023  0.1802 -0.2174  0.0753
 4039SOL    HW123576   1.372   1.984   3.083 -1.2847 -0.4540 -0.3331
 4039SOL    HW223577   1.339   2.023   2.942  0.1044  0.5709 -0.2397
 4040SOL     OW23578   0.109   0.788   7.023  0.8469  0.4078 -0.1548
 4040SOL    HW123579   0.039   0.820   7.080  1.1831  3.9291 -1.7035
 4040SOL    HW223580   0.061   0.724   6.971  1.0540  0.0692  0.0676
 4041SOL     OW23581   1.544   2.510  11.196 -0.4162  0.1819 -0.0609
 4041SOL    HW123582   1.492   2.575  11.244  0.0591  0.6736 -0.2185
 4041SOL    HW223583   1.519   2.538  11.108  2.3581 -0.7361 -1.1522
 4042SOL     OW23584   3.862   3.480   7.872 -0.2183 -0.0897  0.7774
 4042SOL    HW123585   3.899   3.568   7.858 -0.4929 -0.1267 -0.1826
 4042SOL    HW223586   3.820   3.490   7.958 -1.8157 -0.8760  0.0968
 4043SOL     OW23587   3.409   0.590  12.747 -0.0884 -0.1669 -0.2462
 4043SOL    HW123588   3.318   0.561  12.750 -0.5497  1.3529  0.6941
 4043SOL    HW223589   3.401   0.651  12.674 -1.3921 -0.1104 -0.0528
 4044SOL     OW23590   4.132   0.635   6.234 -0.2634 -0.1357  0.1723
 4044SOL    HW123591   4.070   0.571   6.270 -1.2865  0.3210 -0.7796
 4044SOL    HW223592   4.121   0.622   6.140 -1.0669 -0.5773  0.3264
 4045SOL     OW23593   2.194   3.885  16.788 -0.4310 -0.1596 -0.1656
 4045SOL    HW123594   2.121   3.829  16.763  0.8232 -1.2236 -1.4212
 4045SOL    HW223595   2.273   3.835  16.767 -0.0154  0.9867 -1.3303
 4046SOL     OW23596   4.459   2.953   2.473  0.1519 -0.0855 -0.8071
 4046SOL    HW123597   4.423   2.898   2.543  1.5719 -0.3283 -0.2738
 4046SOL    HW223598   4.403   2.933   2.399 -0.0952  1.5719 -1.0635
 4047SOL     OW23599   1.784   0.967   1.535  0.2745  0.0574  0.0280
 4047SOL    HW123600   1.807   1.048   1.490 -0.6960  0.2485 -0.1365
 4047SOL    HW223601   1.846   0.976   1.607  1.0441 -0.7142 -0.5430
 4048SOL     OW23602   1.130   2.149   3.387  0.3517 -0.3975  0.6053
 4048SOL    HW123603   1.221   2.124   3.369  0.4206 -0.8637  1.5952
 4048SOL    HW223604   1.078   2.069   3.395  0.1445 -0.2972  0.2615
 4049SOL     OW23605   0.463   2.566   5.167 -0.2490 -0.0524 -0.3099
 4049SOL    HW123606   0.441   2.648   5.123 -1.0069  0.0924  0.3521
 4049SOL    HW223607   0.558   2.570   5.180  0.0189  0.0233 -2.2534
 4050SOL     OW23608   1.829   3.302   7.512  0.5766  0.0825 -0.1000
 4050SOL    HW123609   1.793   3.359   7.444 -1.2797 -0.7559  0.1916
 4050SOL    HW223610   1.775   3.336   7.584  0.5917  2.0716 -1.0155
 4051SOL     OW23611   2.158   4.122   6.206 -0.0720 -0.1417 -0.0110
 4051SOL    HW123612   2.120   4.037   6.186  0.3509 -0.4162  0.3423
 4051SOL    HW223613   2.078   4.171   6.221  0.9620  0.5482  3.1522
 4052SOL     OW23614   0.061   2.567   7.924 -0.2233  0.5506  0.0694
 4052SOL    HW123615   0.001   2.576   7.997 -1.1477  0.9525 -0.7361
 4052SOL    HW223616   0.103   2.486   7.953 -1.9921 -0.1204  0.7313
 4053SOL     OW23617   0.090   2.266   9.586  0.1682 -0.3389 -0.0422
 4053SOL    HW123618   0.113   2.355   9.558 -0.0594 -0.0827  0.5939
 4053SOL    HW223619   0.142   2.255   9.665  0.2524 -1.2567 -0.2259
 4054SOL     OW23620   4.655   1.522   1.407 -0.1703 -0.0669  0.0768
 4054SOL    HW123621   4.666   1.581   1.333 -0.5623 -0.2233 -0.1009
 4054SOL    HW223622   4.644   1.589   1.475 -0.0110  1.7860 -1.7182
 4055SOL     OW23623   1.095   4.033   5.239 -0.0071 -0.2326 -0.5359
 4055SOL    HW123624   1.143   3.951   5.229 -0.3306 -0.5124  0.1569
 4055SOL    HW223625   1.065   4.032   5.330 -2.5832 -1.7267 -1.3999
 4056SOL     OW23626   1.527   0.252   5.859 -0.3791  0.5112 -0.2508
 4056SOL    HW123627   1.527   0.204   5.941  2.3936  0.3962 -0.3216
 4056SOL    HW223628   1.600   0.217   5.807 -1.4085  1.0636 -2.0714
 4057SOL     OW23629   4.136   0.921  15.200  0.3738  0.0859  0.4282
 4057SOL    HW123630   4.209   0.952  15.145 -0.4751  1.7494  0.2504
 4057SOL    HW223631   4.156   0.960  15.285 -1.0182 -0.2594  0.9160
 4058SOL     OW23632   4.626   2.368   5.301  0.3438 -0.2851  0.1222
 4058SOL    HW123633   4.577   2.419   5.237  1.5300 -0.6015 -1.0470
 4058SOL    HW223634   4.674   2.438   5.346 -0.7297 -0.3056  1.2994
 4059SOL     OW23635   3.823   1.391  10.952 -0.1763 -0.0658  0.0410
 4059SOL    HW123636   3.785   1.434  10.876  2.2625  0.9075 -0.6203
 4059SOL    HW223637   3.849   1.461  11.012 -0.8386  0.8784 -0.7783
 4060SOL     OW23638   3.845   3.286   5.460 -0.4723  0.0737  0.4488
 4060SOL    HW123639   3.919   3.256   5.513  0.9596  3.0552  0.1035
 4060SOL    HW223640   3.776   3.287   5.526 -0.7997 -0.2572  0.1152
 4061SOL     OW23641   4.613   0.406  16.486  0.7812  0.1539  0.3662
 4061SOL    HW123642   4.622   0.472  16.417  2.8809  0.6343  1.0965
 4061SOL    HW223643   4.640   0.325  16.441 -0.4340  0.3214 -0.6623
 4062SOL     OW23644   2.216   0.624   4.121  0.5599  0.3374  0.4323
 4062SOL    HW123645   2.215   0.541   4.074 -2.3913  0.5447  0.1467
 4062SOL    HW223646   2.207   0.600   4.213 -1.6861 -0.0794  0.1010
 4063SOL     OW23647   0.311   3.696   7.979  0.4777 -0.0825 -0.3586
 4063SOL    HW123648   0.356   3.762   7.926  0.6562  2.8414  3.4236
 4063SOL    HW223649   0.223   3.705   7.942 -0.5570 -1.2618  1.7958
 4064SOL     OW23650   0.982   1.524  17.675  0.4492  0.1127 -0.2575
 4064SOL    HW123651   1.056   1.500   0.032 -0.9860  1.5703  2.2288
 4064SOL    HW223652   0.970   1.617  17.694 -2.3129  0.1191 -1.9638
 4065SOL     OW23653   2.185   1.746   1.371 -0.3901  0.4578  0.3039
 4065SOL    HW123654   2.159   1.727   1.281  2.7645  1.3785 -0.8174
 4065SOL    HW223655   2.268   1.700   1.382 -0.2098  0.6899 -0.0627
 4066SOL     OW23656   0.046   2.543   9.107  0.2924 -0.1696  0.8019
 4066SOL    HW123657   0.011   2.609   9.167 -0.5393  0.6091 -0.5315
 4066SOL    HW223658   0.083   2.479   9.169 -1.4914  0.8753  2.9659
 4067SOL     OW23659   4.017   0.060  17.381 -0.0918  0.3125  0.2064
 4067SOL    HW123660   3.941   0.022  17.337 -0.4464 -0.4295  1.4650
 4067SOL    HW223661   4.019   0.034  17.473  2.4580  1.3113  0.4444
 4068SOL     OW23662   1.561   2.889  11.324 -0.3183  0.2102  0.3676
 4068SOL    HW123663   1.524   2.809  11.362  1.4883 -0.5624  0.5022
 4068SOL    HW223664   1.551   2.950  11.397  0.3215  2.7352 -1.6688
 4069SOL     OW23665   4.053   3.537  14.070  0.6330 -0.3404  0.6315
 4069SOL    HW123666   4.022   3.621  14.036 -0.3856 -0.4959  1.1522
 4069SOL    HW223667   4.114   3.523  13.998 -1.2611 -3.6472 -0.2942
 4070SOL     OW23668   3.350   1.583   7.622  0.3723  0.1254 -0.2278
 4070SOL    HW123669   3.409   1.508   7.611 -0.4126 -0.5132 -0.1246
 4070SOL    HW223670   3.408   1.650   7.659 -0.0593  1.8044 -2.6310
 4071SOL     OW23671   1.441   0.204   6.340  0.0467 -0.4263  0.9191
 4071SOL    HW123672   1.493   0.161   6.409  2.4152  2.2169  0.7834
 4071SOL    HW223673   1.486   0.151   6.274  0.5649  2.4219 -0.9837
 4072SOL     OW23674   2.509   2.684  16.338  0.7169  0.2422  0.3280
 4072SOL    HW123675   2.490   2.646  16.424 -1.1564  3.2961  1.2795
 4072SOL    HW223676   2.430   2.667  16.287  0.9178 -0.9769  0.4300
 4073SOL     OW23677   0.389   3.908  17.350  0.1299 -0.0713 -0.0599
 4073SOL    HW123678   0.408   3.967  17.277  1.0648 -0.6155 -0.2518
 4073SOL    HW223679   0.382   3.822  17.309 -0.4875  0.9712 -2.1389
 4074SOL     OW23680   3.976   4.196   8.155  0.2803  0.2663  0.0783
 4074SOL    HW123681   4.064   4.233   8.150  0.9524 -1.0861  1.4892
 4074SOL    HW223682   3.911   4.266   8.153  2.5898  2.3426 -1.8647
 4075SOL     OW23683   4.233   0.473   1.026  0.1409  0.5647  0.5330
 4075SOL    HW123684   4.204   0.444   1.112 -0.7816  1.3639  0.4957
 4075SOL    HW223685   4.255   0.388   0.988 -2.9207  0.4707 -1.0421
 4076SOL     OW23686   2.542   2.604   2.113 -0.2505  0.2502 -0.0805
 4076SOL    HW123687   2.474   2.549   2.150  0.5161  0.0048  0.9458
 4076SOL    HW223688   2.529   2.678   2.172 -0.3821  0.4840 -0.3990
 4077SOL     OW23689   2.740   2.454   4.981 -0.2099  0.3978  0.1274
 4077SOL    HW123690   2.726   2.544   4.953 -0.0706 -0.2844 -2.1130
 4077SOL    HW223691   2.796   2.419   4.912 -1.3368 -2.6297  0.7475
 4078SOL     OW23692   0.672   2.408   5.962 -0.5667  0.2546 -0.1179
 4078SOL    HW123693   0.752   2.394   5.911 -0.1377 -0.4420  0.7411
 4078SOL    HW223694   0.637   2.319   5.951  0.0144 -0.1596  1.3245
 4079SOL     OW23695   3.854   3.656   5.127  0.4438  0.3379  0.0186
 4079SOL    HW123696   3.788   3.656   5.058  1.3146 -1.6276 -0.7881
 4079SOL    HW223697   3.853   3.563   5.146  0.0193  0.7844  2.1105
 4080SOL     OW23698   2.994   3.890  13.713 -0.3875  0.1532  0.4636
 4080SOL    HW123699   3.068   3.909  13.655  0.5815  0.5523  1.8227
 4080SOL    HW223700   3.023   3.931  13.795  0.8560  0.7425 -0.2683
 4081SOL     OW23701   1.785   1.947   1.319 -0.6580  0.4318  0.5449
 4081SOL    HW123702   1.704   1.896   1.321  0.2841 -0.9517  2.5668
 4081SOL    HW223703   1.838   1.905   1.386 -1.7161  0.5968  1.4760
 4082SOL     OW23704   4.254   2.513   4.610 -0.2146 -0.2999 -0.9776
 4082SOL    HW123705   4.239   2.556   4.694  2.1494 -0.8313 -0.2663
 4082SOL    HW223706   4.350   2.520   4.608 -0.1666 -0.6204  0.0356
 4083SOL     OW23707   0.268   0.553  17.333  0.0979 -0.1157 -0.4322
 4083SOL    HW123708   0.278   0.480  17.271  0.1448  0.8164 -1.5327
 4083SOL    HW223709   0.345   0.531  17.386  0.4712  2.5563  0.1157
 4084SOL     OW23710   4.463   0.395   2.342 -0.2962  0.2125  0.3875
 4084SOL    HW123711   4.418   0.472   2.376  1.1765  0.7766  1.0913
 4084SOL    HW223712   4.496   0.427   2.257  0.9138 -1.2373  0.3116
 4085SOL     OW23713   2.803   2.317   5.474 -0.4154  0.1393  0.1009
 4085SOL    HW123714   2.710   2.334   5.458 -0.7033 -2.2527 -0.8196
 4085SOL    HW223715   2.852   2.364   5.407 -2.9769 -0.0011 -1.8350
 4086SOL     OW23716   2.830   2.623  13.113 -0.4245 -0.2517  0.0037
 4086SOL    HW123717   2.882   2.547  13.137 -2.0381 -0.2382  3.4375
 4086SOL    HW223718   2.880   2.671  13.046  1.6715 -0.9886  1.0838
 4087SOL     OW23719   2.237   0.699  12.620 -0.1042  0.0019  0.2570
 4087SOL    HW123720   2.286   0.749  12.685 -2.2043  1.2180  0.8802
 4087SOL    HW223721   2.295   0.623  12.610 -1.1341 -0.6640 -0.6363
 4088SOL     OW23722   1.674   4.545   3.403 -0.2260 -0.0197 -0.2343
 4088SOL    HW123723   1.751   4.488   3.404  0.3753  0.7759 -1.3278
 4088SOL    HW223724   1.694   4.608   3.334  0.7056 -0.5404 -0.4390
 4089SOL     OW23725   3.137   4.523   5.794 -0.5065 -0.2674 -0.0983
 4089SOL    HW123726   3.080   4.531   5.717  0.5058  1.0520 -0.7027
 4089SOL    HW223727   3.159   4.615   5.805 -0.6977 -0.3919  1.2851
 4090SOL     OW23728   1.587   1.767   6.854 -0.1001 -0.0354 -0.2667
 4090SOL    HW123729   1.609   1.848   6.808  0.2880  0.0098 -0.0048
 4090SOL    HW223730   1.671   1.728   6.881 -0.3900 -0.7745 -0.4318
 4091SOL     OW23731   3.763   0.575  13.954  0.3286  0.6034  0.6050
 4091SOL    HW123732   3.801   0.652  13.912 -1.7326  0.1849 -1.9664
 4091SOL    HW223733   3.844   0.524  13.961 -0.7665 -1.1551  0.3760
 4092SOL     OW23734   4.297   1.341   5.201 -0.4974  0.1549 -0.2646
 4092SOL    HW123735   4.329   1.263   5.246  0.0589  0.1450 -0.6718
 4092SOL    HW223736   4.361   1.355   5.131 -0.2864 -3.5794 -0.8247
 4093SOL     OW23737   0.222   1.385   3.663  0.6984  0.3786 -0.3593
 4093SOL    HW123738   0.224   1.317   3.730  0.3448  0.9340  0.2083
 4093SOL    HW223739   0.228   1.342   3.578 -2.6790  0.5810 -0.6912
 4094SOL     OW23740   3.762   2.214   4.227 -0.5188 -0.6183 -0.3230
 4094SOL    HW123741   3.847   2.170   4.222 -0.5487 -0.9551  2.4783
 4094SOL    HW223742   3.721   2.195   4.142  1.9016  1.5741 -1.9817
 4095SOL     OW23743   0.092   3.109   7.406  0.2762  0.2583 -0.3491
 4095SOL    HW123744   0.058   3.029   7.365  1.6841 -2.0550  2.9948
 4095SOL    HW223745   0.015   3.165   7.401  1.0524  1.3228 -0.4666
 4096SOL     OW23746   3.265   3.843   3.617  0.0687  0.2976  0.4207
 4096SOL    HW123747   3.288   3.803   3.533  0.4306 -0.1745  0.7469
 4096SOL    HW223748   3.350   3.878   3.645  0.3425  1.3789 -1.7443
 4097SOL     OW23749   2.859   2.560   3.081  0.0600  0.1997  0.1926
 4097SOL    HW123750   2.895   2.604   3.004  0.8761  2.5238  1.9191
 4097SOL    HW223751   2.774   2.536   3.042 -0.4858  0.1518  1.4095
 4098SOL     OW23752   2.656   0.852   4.888 -0.2307 -0.1838  0.8940
 4098SOL    HW123753   2.567   0.878   4.911 -0.6483 -0.8328 -0.0213
 4098SOL    HW223754   2.680   0.920   4.825 -0.8876 -0.9973 -0.2203
 4099SOL     OW23755   0.434   1.588   7.218 -0.9047  0.6865 -0.3502
 4099SOL    HW123756   0.374   1.603   7.145 -1.2632 -1.4197 -0.4876
 4099SOL    HW223757   0.516   1.569   7.172 -0.6830  1.3180 -0.2132
 4100SOL     OW23758   1.047   3.701   6.906 -0.2487 -0.0900  0.1343
 4100SOL    HW123759   0.971   3.646   6.925 -0.4245 -0.1019 -0.5912
 4100SOL    HW223760   1.016   3.785   6.940  1.5689  1.4180 -2.0138
 4101SOL     OW23761   0.398   3.281   8.524  0.0789  0.1951  0.0623
 4101SOL    HW123762   0.487   3.257   8.549 -0.5156  0.4096  2.3446
 4101SOL    HW223763   0.348   3.227   8.585  2.0714  0.0241  1.5145
 4102SOL     OW23764   3.823   0.334   3.150 -0.0086 -0.5855 -0.0157
 4102SOL    HW123765   3.904   0.288   3.128  1.1926 -0.3869  3.8498
 4102SOL    HW223766   3.847   0.427   3.153 -1.1441 -0.3580  2.1829
 4103SOL     OW23767   0.639   1.026   3.282  0.0234  0.2117  0.1775
 4103SOL    HW123768   0.676   1.002   3.367 -2.1305 -1.4472  0.6444
 4103SOL    HW223769   0.570   1.084   3.315 -1.4271 -0.9540 -0.8103
 4104SOL     OW23770   4.575   2.957   7.352 -0.1176  0.1491 -0.1995
 4104SOL    HW123771   4.501   2.896   7.361  0.2208 -0.1597  0.5475
 4104SOL    HW223772   4.651   2.912   7.315  1.9236  1.5532  2.2825
 4105SOL     OW23773   1.478   0.413   5.320  0.1315 -0.1793 -0.2862
 4105SOL    HW123774   1.412   0.376   5.378 -0.1908 -0.5973 -0.9206
 4105SOL    HW223775   1.431   0.466   5.256  0.2658  0.9883  0.5732
 4106SOL     OW23776   1.308   1.519  15.493  0.1020  0.3527  0.5130
 4106SOL    HW123777   1.380   1.549  15.439  0.2783 -0.4740  0.2911
 4106SOL    HW223778   1.236   1.524  15.431  0.0533 -0.4556  0.5103
 4107SOL     OW23779   4.155   0.864  13.584  0.0535  0.4880 -0.2274
 4107SOL    HW123780   4.139   0.906  13.669 -0.6897  3.2594 -1.7538
 4107SOL    HW223781   4.137   0.777  13.622 -0.7690  0.2172 -1.2434
 4108SOL     OW23782   3.170   4.245   7.499 -0.1988 -0.0745  0.0024
 4108SOL    HW123783   3.190   4.316   7.439 -1.4739  0.5252  0.2849
 4108SOL    HW223784   3.209   4.169   7.457  2.1933 -0.3706  2.7997
 4109SOL     OW23785   4.264   1.859  13.343 -0.2544  0.7131  0.5090
 4109SOL    HW123786   4.179   1.892  13.313  0.2092  1.2378 -0.2315
 4109SOL    HW223787   4.239   1.776  13.383 -0.3899 -0.1072 -1.2738
 4110SOL     OW23788   1.153   3.774   2.365 -0.0012 -0.6555  0.0157
 4110SOL    HW123789   1.165   3.693   2.414  1.2146 -0.3874  0.1712
 4110SOL    HW223790   1.062   3.759   2.339 -0.1617  2.7869 -1.4313
 4111SOL     OW23791   0.272   1.135  15.189  0.6805  0.2131 -0.0296
 4111SOL    HW123792   0.299   1.199  15.124 -0.3715  0.2425 -0.4372
 4111SOL    HW223793   0.231   1.187  15.258  0.6853  0.2226 -0.0339
 4112SOL     OW23794   2.774   0.097  16.771 -0.8573 -0.2658  0.2033
 4112SOL    HW123795   2.787   0.045  16.850  4.1855  0.8810  0.1265
 4112SOL    HW223796   2.866   0.107  16.747 -0.5525  0.9187  1.9417
 4113SOL     OW23797   4.451   0.118   2.127  0.0042 -0.5865 -0.0342
 4113SOL    HW123798   4.402   0.042   2.097 -1.0612  0.2218 -0.3440
 4113SOL    HW223799   4.377   0.176   2.141  0.5315  0.4457 -1.4574
 4114SOL     OW23800   0.824   4.032   6.116  0.9627  0.6481 -0.2011
 4114SOL    HW123801   0.748   3.975   6.131  0.9482  1.3461  2.3262
 4114SOL    HW223802   0.806   4.099   6.182 -0.5318  1.2398 -1.2013
 4115SOL     OW23803   0.674   0.795   7.168 -0.5371  0.0038 -0.0333
 4115SOL    HW123804   0.758   0.761   7.199  0.6468  0.3103 -2.9693
 4115SOL    HW223805   0.686   0.809   7.074 -0.4174 -0.0420 -0.0249
 4116SOL     OW23806   4.374   1.391  11.653  0.6110  0.4187  0.2973
 4116SOL    HW123807   4.288   1.430  11.671 -1.1453 -2.7793 -1.3473
 4116SOL    HW223808   4.360   1.332  11.580  1.3453  1.8505 -1.0081
 4117SOL     OW23809   1.399   1.570   6.525 -0.0854 -0.5296  0.1205
 4117SOL    HW123810   1.353   1.489   6.547 -1.4954 -0.3441 -2.0973
 4117SOL    HW223811   1.388   1.578   6.430 -2.8259 -1.9453  0.2998
 4118SOL     OW23812   2.091   2.150   6.321  0.2605 -0.1812 -0.6226
 4118SOL    HW123813   2.146   2.119   6.250 -0.2154  1.8430 -1.8648
 4118SOL    HW223814   2.069   2.073   6.374  1.1685 -0.2871 -0.4064
 4119SOL     OW23815   3.841   1.644   8.974  0.2143 -0.4631 -0.4144
 4119SOL    HW123816   3.886   1.724   8.948  0.5704 -0.7822 -0.7898
 4119SOL    HW223817   3.821   1.648   9.067  0.6055  0.6438 -0.3860
 4120SOL     OW23818   1.695   0.477   0.478 -0.2435  0.1949 -0.0753
 4120SOL    HW123819   1.747   0.397   0.475 -0.8197 -0.2561  2.2009
 4120SOL    HW223820   1.647   0.469   0.561 -0.1443  2.1300  0.1842
 4121SOL     OW23821   0.334   3.112   6.908 -0.5138 -0.1277 -0.0343
 4121SOL    HW123822   0.261   3.082   6.962 -0.2113 -0.0282  0.4301
 4121SOL    HW223823   0.376   3.174   6.968  1.0330  1.3373 -2.6299
 4122SOL     OW23824   1.130   1.920   0.611  0.1127 -0.1052 -0.7234
 4122SOL    HW123825   1.165   1.948   0.695 -1.2922  0.7430 -0.4138
 4122SOL    HW223826   1.200   1.937   0.549  0.8907 -1.2740 -0.1586
 4123SOL     OW23827   1.542   2.321   2.047 -0.0482  0.0238  0.2111
 4123SOL    HW123828   1.505   2.410   2.043  0.7337  0.2889 -1.2466
 4123SOL    HW223829   1.618   2.344   1.993 -0.3289  0.9517  0.2002
 4124SOL     OW23830   0.060   1.516  10.550  0.6994 -0.2463  0.3545
 4124SOL    HW123831   0.003   1.591  10.564  2.0048  1.0276 -1.1633
 4124SOL    HW223832   0.005   1.443  10.579  0.2872  0.4245  1.2425
 4125SOL     OW23833   0.763   0.583   0.191 -0.4263 -0.2994  0.3102
 4125SOL    HW123834   0.751   0.621   0.277  0.1425 -1.2587  0.8212
 4125SOL    HW223835   0.718   0.499   0.199 -1.3739  0.1336 -0.5815
 4126SOL     OW23836   3.784   2.184   8.556  0.0966  0.2810  0.4334
 4126SOL    HW123837   3.847   2.138   8.612 -1.4703 -0.2326  1.7635
 4126SOL    HW223838   3.787   2.123   8.483  0.6794  1.7231 -0.7521
 4127SOL     OW23839   2.465   3.877  10.289 -0.0184  0.5479  0.5393
 4127SOL    HW123840   2.430   3.910  10.372 -0.6209 -0.8238  0.8364
 4127SOL    HW223841   2.434   3.787  10.288  1.2009  0.1015  2.6483
 4128SOL     OW23842   3.911   2.439  16.640 -0.0186 -0.0831 -0.3475
 4128SOL    HW123843   3.999   2.402  16.643  0.2493  0.5362 -0.5128
 4128SOL    HW223844   3.922   2.500  16.567  0.4451  1.2946  0.8785
 4129SOL     OW23845   0.156   3.294   6.792  0.2222 -0.6794 -0.1678
 4129SOL    HW123846   0.217   3.225   6.819 -1.6985 -1.3195  2.6172
 4129SOL    HW223847   0.214   3.371   6.790  0.7226 -1.0788 -0.6972
 4130SOL     OW23848   1.701   2.488   8.085  0.3877  0.2895  0.4422
 4130SOL    HW123849   1.621   2.455   8.044  0.7056 -0.1753  0.1887
 4130SOL    HW223850   1.689   2.582   8.077  1.3741  0.3520 -0.2938
 4131SOL     OW23851   4.024   0.366  15.714  0.9878 -0.3868 -0.1949
 4131SOL    HW123852   3.969   0.438  15.682  1.7885 -0.3514 -1.4780
 4131SOL    HW223853   3.969   0.327  15.782 -0.8764  3.9266  0.8010
 4132SOL     OW23854   1.529   3.106  16.806  0.4094  0.0577 -0.4228
 4132SOL    HW123855   1.495   3.097  16.895 -1.4671  1.0393 -1.0462
 4132SOL    HW223856   1.453   3.148  16.764  0.6730 -0.1274 -1.0783
 4133SOL     OW23857   4.440   1.176   7.691 -0.6783  0.0201  0.1443
 4133SOL    HW123858   4.506   1.218   7.745 -0.1819 -0.0840 -0.3791
 4133SOL    HW223859   4.479   1.176   7.603 -0.2797 -1.3183  0.3139
 4134SOL     OW23860   0.536   0.032   7.875 -0.0119 -0.2744  0.2595
 4134SOL    HW123861   0.513   0.050   7.966  0.4010 -1.0396  0.5125
 4134SOL    HW223862   0.548   4.662   7.887 -0.8227 -0.4628 -0.4276
 4135SOL     OW23863   2.304   2.720   0.711  0.3360 -0.1513  0.0517
 4135SOL    HW123864   2.294   2.773   0.790  3.0504  1.9535 -1.0323
 4135SOL    HW223865   2.224   2.745   0.665 -1.1285 -0.7345  2.3242
 4136SOL     OW23866   4.369   2.969   4.400 -0.2823  0.6450 -0.1674
 4136SOL    HW123867   4.362   2.918   4.481 -0.9080 -0.4343 -0.9138
 4136SOL    HW223868   4.292   2.947   4.349  1.4828 -4.8317 -0.4077
 4137SOL     OW23869   0.902   3.785  11.735 -0.0996 -0.2543  0.2269
 4137SOL    HW123870   0.981   3.823  11.774  0.5223  1.2999 -2.5634
 4137SOL    HW223871   0.870   3.856  11.679  0.6541 -1.1837 -1.3751
 4138SOL     OW23872   2.277   0.494   7.261 -0.2907  0.3701 -0.3389
 4138SOL    HW123873   2.277   0.576   7.311  1.0270  0.3964 -0.3753
 4138SOL    HW223874   2.347   0.449   7.309  0.5207  1.2390 -0.6912
 4139SOL     OW23875   3.990   2.214   6.316  0.1959 -0.2966  0.5228
 4139SOL    HW123876   3.986   2.151   6.388 -2.6313 -2.7750 -1.7680
 4139SOL    HW223877   3.905   2.201   6.274  0.1485 -0.6254  0.7239
 4140SOL     OW23878   3.171   4.136   4.871  0.4872  0.4336  0.2629
 4140SOL    HW123879   3.257   4.166   4.841  0.9341  0.0853  1.1955
 4140SOL    HW223880   3.202   4.073   4.936  0.7517  1.0397  0.7255
 4141SOL     OW23881   0.479   4.106   6.367 -0.0272  0.2613  0.1524
 4141SOL    HW123882   0.390   4.073   6.365  0.9437 -2.3586 -0.1702
 4141SOL    HW223883   0.476   4.183   6.309 -0.2010 -0.7431 -1.1737
 4142SOL     OW23884   3.837   1.032   5.686  0.0742  0.0857 -0.2908
 4142SOL    HW123885   3.745   1.005   5.692  0.8092 -2.5665 -0.8432
 4142SOL    HW223886   3.842   1.062   5.595  0.8074  1.0914  0.0895
 4143SOL     OW23887   4.525   0.392   7.623 -0.2931 -0.6410 -0.3259
 4143SOL    HW123888   4.500   0.311   7.579 -0.6786 -1.2823  1.0616
 4143SOL    HW223889   4.455   0.396   7.689  1.4118 -0.2375  1.4933
 4144SOL     OW23890   1.088   1.396   3.202  0.2308  0.0518 -0.3546
 4144SOL    HW123891   1.113   1.326   3.263 -1.4350  1.0650  1.5082
 4144SOL    HW223892   1.168   1.391   3.150  1.1315  1.2934  0.9040
 4145SOL     OW23893   1.053   0.640   8.066 -0.4214 -0.7981 -0.0685
 4145SOL    HW123894   0.985   0.583   8.103 -1.0767 -0.2709 -0.4831
 4145SOL    HW223895   1.064   0.710   8.130  0.5788  0.2022 -1.3525
 4146SOL     OW23896   3.382   2.807  10.208 -0.5445  0.1095 -0.0433
 4146SOL    HW123897   3.373   2.884  10.264 -1.7778  0.5935 -0.9274
 4146SOL    HW223898   3.401   2.742  10.276 -1.0258 -0.1529 -0.1546
 4147SOL     OW23899   0.407   2.639   8.648  0.4889 -0.6036 -0.0297
 4147SOL    HW123900   0.489   2.593   8.635  0.9149  0.4656 -1.1208
 4147SOL    HW223901   0.389   2.655   8.556 -1.2126 -0.8655  0.2568
 4148SOL     OW23902   0.371   2.124   5.357  0.3326 -0.1852 -0.5619
 4148SOL    HW123903   0.285   2.138   5.318  1.6141  1.3620 -2.8872
 4148SOL    HW223904   0.417   2.151   5.277  0.2856  0.2619 -0.4360
 4149SOL     OW23905   1.390   0.741   4.915 -0.5659 -0.3340  0.3351
 4149SOL    HW123906   1.466   0.690   4.886  0.6173  2.5065 -1.4889
 4149SOL    HW223907   1.378   0.717   5.007  1.1273  0.5930  0.7904
 4150SOL     OW23908   3.134   4.336   2.455  0.1103  0.0903  0.5725
 4150SOL    HW123909   3.190   4.258   2.450 -0.8539 -0.6763  1.6982
 4150SOL    HW223910   3.116   4.352   2.363  3.9845  0.0741 -0.1990
 4151SOL     OW23911   3.217   0.454   1.250  0.5096 -0.2120  0.0005
 4151SOL    HW123912   3.192   0.499   1.169 -0.4224 -1.4920 -0.4396
 4151SOL    HW223913   3.255   0.368   1.229  0.0704 -0.0674 -1.4420
 4152SOL     OW23914   0.602   2.624   7.713 -0.8391 -0.1306  0.4206
 4152SOL    HW123915   0.564   2.580   7.789  2.6774 -0.8601  1.7914
 4152SOL    HW223916   0.694   2.598   7.721 -0.5669  0.7596  0.2077
 4153SOL     OW23917   4.259   2.795   6.163 -0.0379  0.1613  0.9354
 4153SOL    HW123918   4.196   2.724   6.157 -0.5994  0.7475 -0.0665
 4153SOL    HW223919   4.272   2.785   6.257 -0.4356  0.1101  0.9812
 4154SOL     OW23920   1.333   0.370  17.411  0.2613 -0.4298 -0.2466
 4154SOL    HW123921   1.346   0.278  17.435  1.6031 -0.0680  0.4156
 4154SOL    HW223922   1.421   0.393  17.382  0.0470 -1.8390 -2.0261
 4155SOL     OW23923   0.312   4.561  17.694  0.3597 -0.0812  0.7852
 4155SOL    HW123924   0.407   4.577  17.691  0.3829 -0.6192 -1.2196
 4155SOL    HW223925   0.271   4.630  17.641 -0.9244  0.4993  2.5153
 4156SOL     OW23926   3.163   1.222   2.991  0.3393  0.1428 -0.3618
 4156SOL    HW123927   3.130   1.134   3.011 -0.5887  0.7450  0.6981
 4156SOL    HW223928   3.080   1.267   2.974  0.3415  0.2222 -0.1517
 4157SOL     OW23929   2.322   0.533   4.949 -0.3519 -0.3243  0.3740
 4157SOL    HW123930   2.360   0.577   5.025 -3.1532  0.5060  1.2956
 4157SOL    HW223931   2.349   0.597   4.883  0.1913 -0.2694  0.6465
 4158SOL     OW23932   4.539   0.786   7.922 -0.3518 -0.3994 -0.0252
 4158SOL    HW123933   4.623   0.769   7.965  0.4056 -0.5483 -1.5654
 4158SOL    HW223934   4.490   0.822   7.996 -0.1824 -3.7361  1.7039
 4159SOL     OW23935   1.522   3.076   5.560  0.6210 -0.1722 -0.1886
 4159SOL    HW123936   1.455   3.140   5.537 -1.2056 -1.5329  1.2503
 4159SOL    HW223937   1.531   3.038   5.473  2.5293  1.2259 -0.5817
 4160SOL     OW23938   2.187   2.402  13.421 -0.2081  0.3510 -0.2810
 4160SOL    HW123939   2.111   2.457  13.401 -0.7739 -0.1469  0.4855
 4160SOL    HW223940   2.168   2.383  13.513 -1.4152 -0.0035 -0.6064
 4161SOL     OW23941   0.234   0.042   9.785  0.4099 -0.6040 -0.0145
 4161SOL    HW123942   0.146   0.026   9.750  0.0740  2.3376 -0.4757
 4161SOL    HW223943   0.298   0.018   9.717 -0.2147  0.3197 -0.9218
 4162SOL     OW23944   1.338   1.508   4.184 -0.0746 -0.0496  0.3730
 4162SOL    HW123945   1.431   1.513   4.206 -0.1243  1.2251  0.3026
 4162SOL    HW223946   1.323   1.418   4.211  1.2542 -0.4103 -0.0893
 4163SOL     OW23947   0.906   1.369   2.651 -0.6464 -0.6494  0.1605
 4163SOL    HW123948   0.996   1.389   2.625 -0.9125 -0.7988 -0.9066
 4163SOL    HW223949   0.929   1.298   2.711 -2.0730 -0.1014  1.3586
 4164SOL     OW23950   2.959   4.314   6.419  0.2992 -0.0099  0.2135
 4164SOL    HW123951   2.929   4.262   6.345  2.5257 -1.5916  0.4049
 4164SOL    HW223952   2.988   4.249   6.483  0.9304  0.5623  0.5171
 4165SOL     OW23953   1.531   0.705  12.427 -0.5661  0.3378 -0.0474
 4165SOL    HW123954   1.581   0.786  12.430 -0.1117  0.0849 -0.7244
 4165SOL    HW223955   1.587   0.635  12.393  1.5908  0.6728  2.8299
 4166SOL     OW23956   2.453   3.732   8.121  0.4035  0.0163 -0.5941
 4166SOL    HW123957   2.393   3.688   8.181  1.1277 -0.5632 -0.2950
 4166SOL    HW223958   2.423   3.822   8.132  0.8775 -0.0576  1.2654
 4167SOL     OW23959   1.520   1.650   3.018 -0.1853 -0.2637 -0.5317
 4167SOL    HW123960   1.616   1.652   3.008 -0.2460 -0.8275 -1.2465
 4167SOL    HW223961   1.490   1.618   2.933 -0.5937 -1.3464  0.0243
 4168SOL     OW23962   3.640   3.699   2.629 -0.0974  0.1838  0.0236
 4168SOL    HW123963   3.623   3.671   2.539  2.6330  1.1906 -0.8022
 4168SOL    HW223964   3.730   3.725   2.612 -0.3370 -0.3236 -2.0885
 4169SOL     OW23965   3.260   4.647   6.170  0.2243  0.8466  0.2565
 4169SOL    HW123966   3.240   4.717   6.232  0.0382  0.1865  0.9459
 4169SOL    HW223967   3.180   4.595   6.166 -0.7915  2.5921 -2.4268
 4170SOL     OW23968   4.190   1.638  13.894  0.0307  0.3080 -0.2825
 4170SOL    HW123969   4.241   1.687  13.829 -2.2555  2.4992 -0.4443
 4170SOL    HW223970   4.258   1.605  13.952  1.0147  2.4963 -0.2012
 4171SOL     OW23971   3.320   2.684  12.671 -0.0663 -0.1482 -0.2543
 4171SOL    HW123972   3.370   2.704  12.750 -2.3162 -1.8072  1.6371
 4171SOL    HW223973   3.379   2.724  12.607 -0.5218 -0.0995 -0.6428
 4172SOL     OW23974   0.075   1.858   3.844 -0.2591 -1.0641 -0.2072
 4172SOL    HW123975   0.152   1.911   3.859 -1.6764  1.1899 -0.8854
 4172SOL    HW223976   0.084   1.830   3.753 -1.3143 -0.2033 -0.5807
 4173SOL     OW23977   0.954   0.183   7.068 -0.0338 -0.2344 -0.4108
 4173SOL    HW123978   0.869   0.205   7.106 -0.0060 -0.0824 -0.4368
 4173SOL    HW223979   0.938   0.187   6.974  0.0895 -2.0485 -0.5105
 4174SOL     OW23980   4.153   1.045  12.854  0.5230 -0.1302 -0.1809
 4174SOL    HW123981   4.094   1.083  12.919  1.0287  0.0603  0.1712
 4174SOL    HW223982   4.231   1.019  12.904  0.1390 -2.0948 -0.5954
 4175SOL     OW23983   3.412   4.252   4.784  0.4562  0.2466 -0.4750
 4175SOL    HW123984   3.440   4.297   4.704 -3.5337  1.3052 -1.2783
 4175SOL    HW223985   3.430   4.318   4.850  0.5602 -1.2249  0.9588
 4176SOL     OW23986   1.930   3.622   9.189  0.2474 -0.4438  0.1682
 4176SOL    HW123987   1.907   3.542   9.236 -1.0171  0.8842  1.7889
 4176SOL    HW223988   1.866   3.690   9.209  0.6503  0.4858 -1.7009
 4177SOL     OW23989   3.201   2.371  11.429  0.2971  0.0729 -0.0680
 4177SOL    HW123990   3.211   2.333  11.342 -1.6986 -1.7277  0.4747
 4177SOL    HW223991   3.290   2.397  11.449 -0.4104  1.6303  1.0602
 4178SOL     OW23992   3.010   0.086  16.628 -0.3255 -0.1422 -0.2351
 4178SOL    HW123993   3.025   0.178  16.611 -0.2441 -0.2560 -0.7600
 4178SOL    HW223994   3.094   0.073  16.671  1.3050 -0.4375 -3.5779
 4179SOL     OW23995   0.745   1.567   6.280 -0.5554 -0.2347 -0.2941
 4179SOL    HW123996   0.654   1.557   6.307 -0.3624  1.6106  1.0550
 4179SOL    HW223997   0.754   1.661   6.263  0.0207 -0.3291 -0.5087
 4180SOL     OW23998   3.414   2.965   2.621  0.1759 -0.2564  0.4980
 4180SOL    HW123999   3.375   2.935   2.703  0.7568  1.8805  1.5560
 4180SOL    HW224000   3.487   3.019   2.651 -0.7002  1.5092 -0.5983
 4181SOL     OW24001   0.763   2.704   8.088  0.0894 -0.0484  0.1986
 4181SOL    HW124002   0.813   2.633   8.128  1.8053  0.8681 -0.2706
 4181SOL    HW224003   0.717   2.649   8.026 -0.6666 -0.9962  1.6139
 4182SOL     OW24004   4.425   4.165   1.849  0.2200 -0.2896  0.1904
 4182SOL    HW124005   4.448   4.085   1.897  1.1413  0.5172  1.0850
 4182SOL    HW224006   4.336   4.139   1.826 -0.1917 -0.1952  1.6483
 4183SOL     OW24007   4.414   0.589  10.429  0.3240  0.3884  0.2680
 4183SOL    HW124008   4.494   0.610  10.381  1.2124 -1.5635  0.8678
 4183SOL    HW224009   4.377   0.676  10.443 -0.5305  0.1613 -0.5605
 4184SOL     OW24010   0.475   2.837   1.142  0.3020  0.0699  0.2158
 4184SOL    HW124011   0.564   2.868   1.130  0.5421  0.1560  2.2092
 4184SOL    HW224012   0.492   2.747   1.170 -0.5242 -0.9930 -2.7253
 4185SOL     OW24013   2.761   3.244  16.128  0.3753  0.5881  0.2202
 4185SOL    HW124014   2.747   3.234  16.034 -2.5281  0.7724  0.6290
 4185SOL    HW224015   2.775   3.151  16.149  0.3706  0.3942 -0.6339
 4186SOL     OW24016   2.235   0.769   2.029  0.0654  0.6241 -0.5942
 4186SOL    HW124017   2.248   0.752   2.122  1.5268  0.9105 -0.7500
 4186SOL    HW224018   2.233   0.863   2.016  0.8322  0.4392 -2.0449
 4187SOL     OW24019   3.411   1.804   5.177 -0.2758 -0.3951  0.3097
 4187SOL    HW124020   3.468   1.851   5.238  0.3510  0.1062 -0.6676
 4187SOL    HW224021   3.464   1.811   5.098  0.1070  1.7095  0.7715
 4188SOL     OW24022   4.414   1.456   3.756 -0.1930  0.4292  0.4326
 4188SOL    HW124023   4.452   1.371   3.735 -0.7152  0.7697 -1.8831
 4188SOL    HW224024   4.489   1.500   3.795  1.5500  0.0562 -2.5240
 4189SOL     OW24025   2.461   3.851   1.363 -0.6270  0.2075  0.2616
 4189SOL    HW124026   2.549   3.821   1.340 -0.3334  1.1728  0.1471
 4189SOL    HW224027   2.475   3.944   1.380  1.2415  0.8906 -5.0230
 4190SOL     OW24028   1.608   3.364   9.665 -0.2002  0.2481  0.4771
 4190SOL    HW124029   1.657   3.441   9.636  0.3561 -0.0677  0.5718
 4190SOL    HW224030   1.562   3.425   9.723 -0.2391  2.2539 -1.7014
 4191SOL     OW24031   0.863   3.052   7.736 -0.0842 -0.1696  0.1765
 4191SOL    HW124032   0.813   2.972   7.752  0.0100 -0.1775  0.4312
 4191SOL    HW224033   0.893   3.069   7.825 -0.4146  0.5400  0.1484
 4192SOL     OW24034   0.622   1.860   0.854  0.4419  0.6093 -0.2379
 4192SOL    HW124035   0.599   1.952   0.841 -2.1038 -0.2891 -2.0746
 4192SOL    HW224036   0.717   1.868   0.847  0.4053  0.8882 -0.4446
 4193SOL     OW24037   1.987   1.102   8.012  0.1810 -0.4379  0.3872
 4193SOL    HW124038   2.035   1.048   7.949  2.4217  0.5418  1.2630
 4193SOL    HW224039   1.948   1.042   8.077  2.5216 -0.3270  1.8969
 4194SOL     OW24040   0.080   2.533   9.528 -0.2251 -0.2235 -0.2966
 4194SOL    HW124041   0.145   2.589   9.571  0.2524  0.2612 -1.6764
 4194SOL    HW224042   0.001   2.586   9.536  1.2235  1.7035  1.4504
 4195SOL     OW24043   3.292   4.359   6.187  0.3411 -0.4605  0.6740
 4195SOL    HW124044   3.329   4.443   6.158  1.0807 -0.2001  2.3803
 4195SOL    HW224045   3.331   4.365   6.274  0.5068 -0.4911  0.6033
 4196SOL     OW24046   2.979   3.420  15.014 -0.2588  0.8774 -0.5122
 4196SOL    HW124047   3.042   3.491  15.027 -1.0669  1.3831  0.7241
 4196SOL    HW224048   3.013   3.347  15.067  0.6473  1.0080 -0.9144
 4197SOL     OW24049   0.213   0.973   1.975 -1.1145 -0.4255 -0.0790
 4197SOL    HW124050   0.279   1.039   1.954 -0.5849 -0.6570  0.8808
 4197SOL    HW224051   0.143   1.023   2.016 -0.5014  0.4434 -0.0907
 4198SOL     OW24052   1.082   0.417  11.732  0.1344 -0.1614 -0.2375
 4198SOL    HW124053   1.063   0.371  11.814 -1.1373 -2.2380 -1.6765
 4198SOL    HW224054   1.021   0.374  11.672 -1.3635  1.0488  0.4286
 4199SOL     OW24055   4.498   2.017   2.443 -0.1957 -0.2585  0.6582
 4199SOL    HW124056   4.418   1.978   2.408  0.3633 -2.8395  2.2583
 4199SOL    HW224057   4.545   2.012   2.359  1.4945 -0.6379  1.6236
 4200SOL     OW24058   3.564   3.175  10.524  0.1009  0.1895  0.0220
 4200SOL    HW124059   3.507   3.199  10.597  1.3100 -0.5619  1.2274
 4200SOL    HW224060   3.529   3.225  10.450  0.0806 -0.2033 -0.2324
 4201SOL     OW24061   2.700   0.984   1.231  0.1619  0.7329  0.0791
 4201SOL    HW124062   2.644   1.002   1.155  0.4793 -0.5858 -0.4741
 4201SOL    HW224063   2.787   0.983   1.190  0.2167 -1.3955  0.2345
 4202SOL     OW24064   2.889   2.765   0.554 -0.4466  0.4406  0.5612
 4202SOL    HW124065   2.822   2.745   0.488  1.0133 -0.8440 -0.5451
 4202SOL    HW224066   2.903   2.678   0.592 -1.6639 -1.3321 -3.0231
 4203SOL     OW24067   0.802   1.098   3.937  0.0142  0.0129  0.5034
 4203SOL    HW124068   0.737   1.051   3.989  0.6424  1.5338  2.6516
 4203SOL    HW224069   0.825   1.169   3.997 -0.6067  0.3149  0.3748
 4204SOL     OW24070   3.204   0.240   7.460 -0.4368 -0.1390 -0.1349
 4204SOL    HW124071   3.125   0.292   7.475  0.6195  1.4031  0.1185
 4204SOL    HW224072   3.176   0.176   7.395  1.1562 -1.7555  0.7902
 4205SOL     OW24073   0.471   4.713   9.606  0.6266 -0.5544 -0.1106
 4205SOL    HW124074   0.522   4.717   9.525  3.3262  0.8376  1.6829
 4205SOL    HW224075   0.404   4.650   9.579 -0.9900  1.6311 -1.1433
 4206SOL     OW24076   3.518   3.642  13.994 -0.0524 -1.0346 -0.2004
 4206SOL    HW124077   3.467   3.709  13.947 -1.4626 -0.3907  2.2640
 4206SOL    HW224078   3.456   3.569  13.988 -2.6492  1.2018 -1.0365
 4207SOL     OW24079   1.424   3.875   4.576 -0.3288 -0.9483  0.0390
 4207SOL    HW124080   1.464   3.932   4.510 -2.4829  0.6172  0.1080
 4207SOL    HW224081   1.333   3.886   4.549  0.7921  0.9162 -2.8871
 4208SOL     OW24082   2.337   4.139   6.852  0.1934  0.0706 -0.0815
 4208SOL    HW124083   2.396   4.147   6.778  1.4829  0.2168  0.9538
 4208SOL    HW224084   2.273   4.073   6.828 -0.9503  0.4934  1.7323
 4209SOL     OW24085   0.906   2.037  10.647 -0.2045  0.5776  0.1326
 4209SOL    HW124086   0.953   1.994  10.575  0.1540  0.0161  0.6960
 4209SOL    HW224087   0.975   2.094  10.683  1.2095  0.0674 -1.7696
 4210SOL     OW24088   1.523   2.518  14.981 -0.0384 -0.3807  0.1056
 4210SOL    HW124089   1.548   2.543  14.892 -1.0305  0.9043  0.1877
 4210SOL    HW224090   1.600   2.474  15.017 -0.6614 -1.9792 -0.4936
 4211SOL     OW24091   2.240   4.596   6.821 -0.3511 -0.2169  0.2960
 4211SOL    HW124092   2.196   4.582   6.737  0.3742  3.0078 -0.5906
 4211SOL    HW224093   2.186   4.550   6.885  2.2003 -1.7026  1.4163
 4212SOL     OW24094   4.710   1.454   8.638  0.0816 -0.1851  0.0123
 4212SOL    HW124095   0.057   1.411   8.591 -0.6702 -0.9970 -0.3889
 4212SOL    HW224096   0.014   1.445   8.729  2.0198 -2.1073 -0.8031
 4213SOL     OW24097   0.742   1.255   5.646  0.4179 -0.0236  0.3612
 4213SOL    HW124098   0.784   1.201   5.580 -0.1342 -0.9345  0.7499
 4213SOL    HW224099   0.796   1.334   5.642  1.5046 -0.6426  2.9625
 4214SOL     OW24100   3.131   0.580   2.834 -0.6402  0.5401 -0.5145
 4214SOL    HW124101   3.101   0.556   2.746 -1.5733 -0.7437  0.1611
 4214SOL    HW224102   3.161   0.496   2.868 -0.4302 -0.1645 -2.4332
 4215SOL     OW24103   4.389   0.541  17.328  0.0044  0.0561 -0.4133
 4215SOL    HW124104   4.360   0.629  17.302  0.4015 -0.0815 -1.3185
 4215SOL    HW224105   4.475   0.541  17.285  0.9588 -0.4012  1.4620
 4216SOL     OW24106   1.388   2.659   2.397 -0.2665 -0.5897 -0.4519
 4216SOL    HW124107   1.299   2.693   2.397  0.2028  0.6697 -0.3461
 4216SOL    HW224108   1.416   2.700   2.315  1.7980  0.0891  0.5928
 4217SOL     OW24109   4.439   2.910   3.690 -0.5957  0.4502 -0.3773
 4217SOL    HW124110   4.479   2.830   3.654 -1.7018 -0.8004  1.1787
 4217SOL    HW224111   4.360   2.923   3.638 -0.0954 -1.2594 -1.5675
 4218SOL     OW24112   3.952   0.490   8.030 -0.2329  0.5768 -0.2447
 4218SOL    HW124113   3.896   0.433   7.977  0.1885 -0.3107  0.2581
 4218SOL    HW224114   3.880   0.542   8.065  0.1358 -0.2832  1.7957
 4219SOL     OW24115   3.725   0.358   6.182  0.4262  0.6826  0.0826
 4219SOL    HW124116   3.680   0.288   6.230 -1.5593  1.2475 -1.0063
 4219SOL    HW224117   3.645   0.393   6.144  1.2453  0.4468 -1.8260
 4220SOL     OW24118   4.157   0.015  12.197 -0.0461 -0.7079  0.0963
 4220SOL    HW124119   4.198   0.002  12.282 -0.2443 -2.0205 -0.0039
 4220SOL    HW224120   4.166   0.110  12.196  0.6614 -0.7995 -2.5902
 4221SOL     OW24121   1.841   0.277   5.825 -0.0068  1.1456 -0.1376
 4221SOL    HW124122   1.899   0.256   5.751  0.6174 -0.4403  0.8046
 4221SOL    HW224123   1.834   0.372   5.811 -0.0551  0.9735 -1.3054
 4222SOL     OW24124   2.315   1.804   7.024  0.1210 -0.3528 -0.0075
 4222SOL    HW124125   2.327   1.819   7.118 -1.1738 -3.4745  0.6307
 4222SOL    HW224126   2.219   1.809   7.025  0.2038  1.5959 -0.6773
 4223SOL     OW24127   4.302   0.874  10.692  0.7994  0.2463  0.3621
 4223SOL    HW124128   4.388   0.908  10.715  1.5833 -2.3629  1.3122
 4223SOL    HW224129   4.258   0.943  10.741 -0.8896 -0.8595  0.4102
 4224SOL     OW24130   0.707   4.610   0.029  0.2802 -0.0630  0.0050
 4224SOL    HW124131   0.711   4.526  17.683  0.4665 -0.7641  1.2957
 4224SOL    HW224132   0.617   4.604   0.060  0.5370  0.9350  0.9548
 4225SOL     OW24133   1.910   3.231   8.740 -0.3542  0.1614 -0.0000
 4225SOL    HW124134   1.877   3.281   8.815 -0.2786 -1.4170  1.0719
 4225SOL    HW224135   1.953   3.294   8.682 -0.3876 -0.1381 -0.3466
 4226SOL     OW24136   4.443   0.500   2.923 -0.2436  0.6578  0.1137
 4226SOL    HW124137   4.402   0.569   2.870  0.7654  0.7004 -0.6148
 4226SOL    HW224138   4.457   0.557   2.999  0.9769 -0.3352  0.6294
 4227SOL     OW24139   3.075   2.302   3.546  0.0622 -0.1272  0.0564
 4227SOL    HW124140   3.167   2.326   3.559 -0.2388  0.9421  0.2226
 4227SOL    HW224141   3.059   2.255   3.627 -1.5874  1.0916  0.4484
 4228SOL     OW24142   3.943   1.930   5.097 -0.4705 -0.1320 -0.5000
 4228SOL    HW124143   3.894   2.012   5.091 -0.8498 -0.5757 -3.6312
 4228SOL    HW224144   3.977   1.941   5.186 -1.6140  3.6051 -0.5261
 4229SOL     OW24145   0.629   4.033   3.854 -0.1823 -0.2672  0.1326
 4229SOL    HW124146   0.644   3.940   3.874 -2.4220  0.0262  3.0504
 4229SOL    HW224147   0.660   4.086   3.927 -1.7436  0.5619  0.1826
 4230SOL     OW24148   0.749   1.356   4.475 -0.2116 -0.2356  0.1845
 4230SOL    HW124149   0.698   1.312   4.543 -0.0740  2.0617  1.8136
 4230SOL    HW224150   0.716   1.446   4.476  0.6248  0.0576  1.6929
 4231SOL     OW24151   1.362   2.018   2.443  0.2936 -0.0640  0.3565
 4231SOL    HW124152   1.387   1.992   2.531  0.0563  1.8160  0.9921
 4231SOL    HW224153   1.443   2.004   2.393  2.1429  2.7868  2.5548
 4232SOL     OW24154   2.799   3.387   2.422 -0.0160 -0.2676  0.1368
 4232SOL    HW124155   2.758   3.304   2.399 -2.3561  0.5158  1.5113
 4232SOL    HW224156   2.736   3.444   2.377 -0.1982 -1.1766 -0.7610
 4233SOL     OW24157   3.984   2.381   3.055 -0.1215  0.0259  0.5995
 4233SOL    HW124158   3.983   2.418   2.967  2.8729  0.2362  0.6506
 4233SOL    HW224159   3.894   2.395   3.081 -0.2447  1.5796 -0.6435
 4234SOL     OW24160   1.280   1.088   0.347  0.0343 -0.5958 -0.0308
 4234SOL    HW124161   1.192   1.051   0.348 -0.4723  0.6108  0.6615
 4234SOL    HW224162   1.325   1.003   0.349 -4.0902 -2.7818  0.8235
 4235SOL     OW24163   0.850   4.316  11.550  0.4638 -0.2372 -0.6741
 4235SOL    HW124164   0.826   4.272  11.468 -0.5980 -1.6947  0.4211
 4235SOL    HW224165   0.920   4.371  11.516 -1.0454  1.8386 -0.4719
 4236SOL     OW24166   0.488   0.975   1.745  0.0488  0.4686  0.5364
 4236SOL    HW124167   0.494   1.059   1.701  2.3418  1.4584  2.6900
 4236SOL    HW224168   0.393   0.969   1.741  0.2745 -2.1387 -0.9710
 4237SOL     OW24169   3.568   0.999   3.473 -0.1682 -0.5628  0.3827
 4237SOL    HW124170   3.580   0.922   3.529 -0.3648  0.1794  1.4468
 4237SOL    HW224171   3.658   1.031   3.466 -0.5276 -0.0018 -1.4479
 4238SOL     OW24172   3.889   4.193  14.095  0.6448  0.5179 -0.4987
 4238SOL    HW124173   3.847   4.121  14.048  1.2121  0.7207 -1.3309
 4238SOL    HW224174   3.978   4.160  14.103  0.5307 -0.0136 -1.4587
 4239SOL     OW24175   0.026   1.700   1.032  0.0047  0.5705  0.2641
 4239SOL    HW124176   0.061   1.627   0.982 -1.3907 -0.2977  0.5365
 4239SOL    HW224177   0.029   1.769   0.965  0.9841  0.8284  0.5741
 4240SOL     OW24178   2.914   0.258   6.266  0.1105  0.1783 -0.6541
 4240SOL    HW124179   2.927   0.204   6.188 -0.9016 -1.6238  0.4164
 4240SOL    HW224180   2.825   0.287   6.250 -0.3514  2.3293  5.7498
 4241SOL     OW24181   4.429   4.312   8.299 -0.2053 -0.3594  0.1746
 4241SOL    HW124182   4.478   4.390   8.323  1.7004 -1.9771  1.5375
 4241SOL    HW224183   4.478   4.253   8.356 -0.6932  0.3404  1.3193
 4242SOL     OW24184   4.715   3.107  17.211 -0.3507  0.0754  0.8608
 4242SOL    HW124185   4.698   3.191  17.167 -1.6504 -0.8377 -0.3750
 4242SOL    HW224186   4.627   3.100  17.247 -0.2163 -1.1778  0.9325
 4243SOL     OW24187   2.693   4.065   9.636 -0.7170 -0.1645  0.1281
 4243SOL    HW124188   2.598   4.060   9.628 -0.7448 -1.0305  0.9940
 4243SOL    HW224189   2.715   4.025   9.720  0.7248  0.6333  0.1268
 4244SOL     OW24190   3.110   0.539   8.286  0.1604  0.1247  0.5771
 4244SOL    HW124191   3.116   0.448   8.316  0.7502 -0.4814 -1.4060
 4244SOL    HW224192   3.183   0.560   8.228  2.2014 -3.0723  1.9808
 4245SOL     OW24193   4.273   1.516   1.174 -0.2063  0.0796 -0.0061
 4245SOL    HW124194   4.287   1.438   1.228  0.3063 -1.4812 -2.3423
 4245SOL    HW224195   4.357   1.560   1.186  0.3891 -0.2832 -2.8220
 4246SOL     OW24196   3.349   3.996  13.744  0.3625 -0.0866 -0.5262
 4246SOL    HW124197   3.369   3.958  13.829  1.5662 -1.7579 -1.5486
 4246SOL    HW224198   3.405   3.934  13.698  1.5324  0.3700  0.2992
 4247SOL     OW24199   1.341   0.549   3.281  0.3943 -0.1818 -0.3117
 4247SOL    HW124200   1.250   0.572   3.297  0.7742  1.3646 -0.3902
 4247SOL    HW224201   1.345   0.575   3.189  2.1776  2.4584  0.5028
 4248SOL     OW24202   2.275   2.874  17.074 -1.0150 -0.8387  0.0613
 4248SOL    HW124203   2.184   2.890  17.099 -0.9321 -0.8128  0.3438
 4248SOL    HW224204   2.329   2.915  17.142 -1.6486  0.2900 -0.1222
 4249SOL     OW24205   4.644   2.523   8.135  0.2106 -0.4397 -0.8639
 4249SOL    HW124206   4.556   2.505   8.101 -0.0627  0.1745 -0.4650
 4249SOL    HW224207   4.640   2.460   8.207 -0.7797 -0.3840 -0.8642
 4250SOL     OW24208   0.320   3.305   3.723 -0.2021 -0.6439 -0.0840
 4250SOL    HW124209   0.377   3.244   3.676  3.1693  0.4542  2.5962
 4250SOL    HW224210   0.343   3.279   3.812 -1.4151 -0.7708  0.2019
 4251SOL     OW24211   0.691   2.411   6.249  0.8437 -0.3149 -0.0085
 4251SOL    HW124212   0.696   2.404   6.153  4.0239 -0.4912  0.1537
 4251SOL    HW224213   0.661   2.330   6.291 -0.8730  0.4088  0.1280
 4252SOL     OW24214   2.626   1.444   6.376 -0.1877  0.0104  0.3816
 4252SOL    HW124215   2.577   1.419   6.455 -0.4959  2.2592  0.8981
 4252SOL    HW224216   2.576   1.520   6.347 -2.4714 -1.1071  1.3631
 4253SOL     OW24217   2.083   2.276  16.361 -0.1020 -0.3997 -0.3132
 4253SOL    HW124218   2.124   2.361  16.373 -0.8319 -0.2549  1.2123
 4253SOL    HW224219   2.130   2.227  16.429 -2.8954 -0.5995  1.4879
 4254SOL     OW24220   2.490   1.838   8.531 -0.2807 -0.1510  0.0235
 4254SOL    HW124221   2.452   1.858   8.445  2.2027  1.6349 -0.6912
 4254SOL    HW224222   2.501   1.927   8.565  2.0308  0.5807 -2.5655
 4255SOL     OW24223   0.455   3.451   7.776  0.2094 -0.2387  0.1548
 4255SOL    HW124224   0.403   3.531   7.778  0.8156  0.1543  0.3037
 4255SOL    HW224225   0.543   3.486   7.791  0.6806 -2.2120  1.8746
 4256SOL     OW24226   3.244   0.388   9.387 -0.6708  0.2369 -0.0638
 4256SOL    HW124227   3.331   0.427   9.383 -0.5279 -0.2629 -2.0673
 4256SOL    HW224228   3.223   0.370   9.295 -0.2215  0.7450 -0.2650
 4257SOL     OW24229   0.435   2.132   6.693 -0.1579 -0.3142  0.0586
 4257SOL    HW124230   0.512   2.077   6.675  1.7311  2.0968  0.6891
 4257SOL    HW224231   0.467   2.212   6.651  0.7352 -0.5966  0.1946
 4258SOL     OW24232   0.255   0.345   7.706 -0.6075  0.3438  0.3655
 4258SOL    HW124233   0.239   0.260   7.747  0.1227  0.2161  0.3891
 4258SOL    HW224234   0.348   0.351   7.730 -0.6335 -1.2068  0.8027
 4259SOL     OW24235   1.868   2.317   4.176 -0.3279 -0.2784  0.4449
 4259SOL    HW124236   1.825   2.299   4.092  0.0178  1.7933 -0.1816
 4259SOL    HW224237   1.822   2.396   4.203  1.4320  1.0849 -0.4600
 4260SOL     OW24238   0.111   4.215   6.517  0.9594 -0.5354  0.3139
 4260SOL    HW124239   0.157   4.298   6.520 -1.0067  0.5737  0.1615
 4260SOL    HW224240   0.112   4.193   6.610  1.8790  1.9175  0.8707
 4261SOL     OW24241   0.287   4.262   5.414  0.0150  0.0087  0.1223
 4261SOL    HW124242   0.240   4.345   5.421 -0.9452 -0.4980 -0.2908
 4261SOL    HW224243   0.251   4.235   5.329 -1.8726  1.5305  0.4463
 4262SOL     OW24244   2.889   0.624   6.297 -0.9168  0.6397 -0.4102
 4262SOL    HW124245   2.949   0.572   6.350  0.2126  0.7194 -1.6224
 4262SOL    HW224246   2.957   0.668   6.247 -0.7514 -0.8200 -1.4649
 4263SOL     OW24247   4.255   4.015   4.073  0.3669  0.7739  0.3245
 4263SOL    HW124248   4.325   4.023   4.008  0.4900 -1.2169  0.2029
 4263SOL    HW224249   4.191   4.071   4.030 -0.2016 -0.9834 -1.1372
 4264SOL     OW24250   1.657   1.940   6.465  0.1900 -0.0678 -0.7659
 4264SOL    HW124251   1.713   2.015   6.446 -0.5924  0.7241  0.0309
 4264SOL    HW224252   1.596   1.955   6.393 -0.6787  0.4791  0.0756
 4265SOL     OW24253   3.145   0.055   6.384 -0.4116 -0.0628 -0.2649
 4265SOL    HW124254   3.105   4.705   6.429  2.1336 -1.5592 -0.4549
 4265SOL    HW224255   3.086   0.072   6.311  0.0712 -0.2289 -0.6908
 4266SOL     OW24256   3.988   4.533   2.892 -0.3640 -0.2884  0.2283
 4266SOL    HW124257   3.991   4.628   2.880 -3.7394 -0.2714 -0.4677
 4266SOL    HW224258   3.892   4.530   2.894 -0.4289  1.3126 -0.6522
 4267SOL     OW24259   3.316   4.551   9.453 -0.1405  0.2817 -0.5288
 4267SOL    HW124260   3.231   4.563   9.496 -0.7385  0.4583 -1.7694
 4267SOL    HW224261   3.289   4.516   9.368 -0.4820 -0.7912  0.0263
 4268SOL     OW24262   1.942   1.900  17.056  0.1064 -0.2146  0.8359
 4268SOL    HW124263   1.899   1.886  16.972  1.3403  1.6618 -0.1132
 4268SOL    HW224264   1.913   1.823  17.105  5.9675 -3.4795 -0.7761
 4269SOL     OW24265   3.932   2.017  10.967 -0.2345  1.0449  0.7234
 4269SOL    HW124266   3.932   2.107  10.933  1.0984  0.6767 -0.2336
 4269SOL    HW224267   3.989   2.025  11.043 -2.0008 -2.3848  2.4056
 4270SOL     OW24268   3.594   3.287  15.491  0.0215 -0.4984  0.0468
 4270SOL    HW124269   3.562   3.276  15.402 -2.1204 -0.5592  0.8275
 4270SOL    HW224270   3.512   3.308  15.536  0.1511 -0.7190  0.3917
 4271SOL     OW24271   2.690   2.337  10.355 -0.1350 -0.2047  0.1452
 4271SOL    HW124272   2.742   2.340  10.436 -0.2974  0.6019  0.2221
 4271SOL    HW224273   2.726   2.408  10.301 -1.8654  1.1243  0.7313
 4272SOL     OW24274   0.773   1.491   3.784 -0.2724  0.7664 -0.0903
 4272SOL    HW124275   0.732   1.474   3.869 -0.3327  0.4662 -0.1792
 4272SOL    HW224276   0.713   1.554   3.745 -1.5318 -0.0146  0.5994
 4273SOL     OW24277   0.297   3.011   2.731 -0.0618 -0.0607 -0.2226
 4273SOL    HW124278   0.268   3.048   2.648  0.0520 -0.0141 -0.2422
 4273SOL    HW224279   0.224   3.033   2.790  0.2634 -0.9465  0.5059
 4274SOL     OW24280   3.313   0.212   6.208 -0.1350 -0.1120  0.3560
 4274SOL    HW124281   3.317   0.214   6.113 -1.3796  2.2175  0.3625
 4274SOL    HW224282   3.226   0.242   6.236  0.7207  0.9170  1.9273
 4275SOL     OW24283   2.903   3.312  16.872  0.3168 -0.0073 -0.3169
 4275SOL    HW124284   2.851   3.363  16.934 -0.5273 -1.8862  0.5393
 4275SOL    HW224285   2.852   3.337  16.794 -0.6998  1.1311  0.7177
 4276SOL     OW24286   2.271   3.369   6.025 -0.1789 -0.2788  0.3543
 4276SOL    HW124287   2.302   3.456   6.000 -0.4996  0.5250  2.7309
 4276SOL    HW224288   2.274   3.317   5.945  0.0520 -0.3968  0.4383
 4277SOL     OW24289   1.865   0.492  15.912  0.0285 -0.0468  0.0886
 4277SOL    HW124290   1.792   0.498  15.973 -2.7958 -0.6028 -3.2425
 4277SOL    HW224291   1.848   0.406  15.875 -0.7000  1.0871 -2.1958
 4278SOL     OW24292   1.677   2.799   2.421 -0.0773 -0.3454 -0.5012
 4278SOL    HW124293   1.600   2.833   2.375 -1.5179 -1.0442  1.3483
 4278SOL    HW224294   1.710   2.880   2.460  0.4837 -0.1123 -1.4572
 4279SOL     OW24295   3.986   3.084  10.803 -0.2136  0.8165 -0.0383
 4279SOL    HW124296   4.032   3.151  10.754  0.9769  0.6223  0.8080
 4279SOL    HW224297   3.897   3.120  10.810 -0.2483  0.9893 -1.4848
 4280SOL     OW24298   0.567   4.315   3.697  0.3639 -0.1928  0.2289
 4280SOL    HW124299   0.649   4.361   3.714  1.4114 -1.6550 -0.9262
 4280SOL    HW224300   0.553   4.285   3.786  1.9959  1.4313  1.0342
 4281SOL     OW24301   0.335   2.795   6.715  0.0831 -0.2880  0.2786
 4281SOL    HW124302   0.308   2.707   6.690  0.5819 -0.4233  0.2311
 4281SOL    HW224303   0.363   2.777   6.804 -0.8012 -1.1111  0.3856
 4282SOL     OW24304   2.111   0.471  14.827 -0.4687 -0.2612  0.0574
 4282SOL    HW124305   2.084   0.563  14.825  0.2998 -0.0611 -1.1799
 4282SOL    HW224306   2.170   0.447  14.756 -0.4284 -0.4538  0.1565
 4283SOL     OW24307   1.545   2.626   6.068  0.1368  0.0549  0.2746
 4283SOL    HW124308   1.595   2.623   6.149  0.0719  2.3395  0.4067
 4283SOL    HW224309   1.462   2.598   6.106  1.1837 -0.4770  2.1347
 4284SOL     OW24310   0.189   4.137   7.380  0.0360  0.6455  0.4745
 4284SOL    HW124311   0.195   4.045   7.407  0.8959  0.1447 -1.4900
 4284SOL    HW224312   0.094   4.146   7.393  0.0230 -0.5557  1.2135
 4285SOL     OW24313   4.115   3.903   7.980  0.1363 -0.1722  0.0013
 4285SOL    HW124314   4.120   3.979   7.922 -0.8274 -0.5896 -0.6172
 4285SOL    HW224315   4.209   3.884   7.990 -0.0341 -2.2125 -2.2404
 4286SOL     OW24316   3.938   3.684   9.509  0.4921  0.1476 -0.1043
 4286SOL    HW124317   4.001   3.612   9.509  0.1723 -0.1411  1.9694
 4286SOL    HW224318   3.936   3.706   9.602 -0.9431 -0.1390 -0.0657
 4287SOL     OW24319   3.499   1.331   0.587  0.0518  0.0465 -0.1513
 4287SOL    HW124320   3.499   1.400   0.521 -0.2744 -0.3047 -0.5205
 4287SOL    HW224321   3.451   1.371   0.660 -0.0190 -1.8018  0.8235
 4288SOL     OW24322   0.159   1.947   6.230 -0.4747  0.0676 -0.3770
 4288SOL    HW124323   0.108   1.993   6.297 -0.1536 -1.0357  0.6240
 4288SOL    HW224324   0.110   1.866   6.213 -1.6013  0.5303  0.7048
 4289SOL     OW24325   3.161   0.263   4.542  0.0888  0.2982  0.2333
 4289SOL    HW124326   3.245   0.262   4.496 -0.4645  0.6387 -0.7930
 4289SOL    HW224327   3.097   0.270   4.471  0.0224 -0.9496  0.1536
 4290SOL     OW24328   3.619   4.355   4.227  0.1454  0.5095  0.2712
 4290SOL    HW124329   3.654   4.384   4.143 -0.3731  1.2297  0.3074
 4290SOL    HW224330   3.666   4.277   4.255  1.4614  0.8896 -0.8726
 4291SOL     OW24331   1.195   1.409   2.534  0.4921 -0.1720  0.3520
 4291SOL    HW124332   1.137   1.437   2.463 -0.1658 -1.5191  0.3618
 4291SOL    HW224333   1.274   1.411   2.479 -1.6693  1.4734 -2.6530
 4292SOL     OW24334   3.531   4.072  13.251  0.3251  0.7034 -0.0965
 4292SOL    HW124335   3.471   4.011  13.296  2.7578 -0.6238  1.3258
 4292SOL    HW224336   3.465   4.141  13.240  1.9852  2.0478 -1.5397
 4293SOL     OW24337   4.410   3.144   3.824  1.1901 -0.4703 -0.8227
 4293SOL    HW124338   4.413   3.215   3.761 -1.0260 -0.3821 -0.8443
 4293SOL    HW224339   4.445   3.072   3.771 -0.9467 -1.6160 -0.7173
 4294SOL     OW24340   0.278   1.440   0.458  0.2183  0.2552  0.2296
 4294SOL    HW124341   0.246   1.364   0.507 -0.3635 -0.2656 -0.9759
 4294SOL    HW224342   0.202   1.454   0.402 -0.9759 -3.0412  1.0146
 4295SOL     OW24343   4.575   1.448   6.031  0.3005 -0.1649 -0.1796
 4295SOL    HW124344   4.543   1.451   5.941 -2.2891 -0.2895  0.7289
 4295SOL    HW224345   4.489   1.434   6.070  0.8109  2.2617  1.7796
 4296SOL     OW24346   0.586   2.127   5.535  0.2830  0.5852  0.0068
 4296SOL    HW124347   0.509   2.133   5.477 -0.3679  0.8325  0.9081
 4296SOL    HW224348   0.634   2.209   5.526 -0.7223  1.0660 -0.9883
 4297SOL     OW24349   0.636   0.757   6.653 -0.1024  0.5263  0.3461
 4297SOL    HW124350   0.631   0.772   6.558  0.3486  2.8599  0.6908
 4297SOL    HW224351   0.721   0.712   6.660 -0.7362 -0.4600  1.5703
 4298SOL     OW24352   3.277   1.530   7.884 -0.8058 -0.8441 -0.2697
 4298SOL    HW124353   3.292   1.602   7.823  1.1637  2.2131  3.8762
 4298SOL    HW224354   3.223   1.564   7.955  1.1800 -2.2059  1.9104
 4299SOL     OW24355   1.950   4.574   5.507 -0.0424 -0.1180  0.4942
 4299SOL    HW124356   2.045   4.566   5.493 -0.0129  2.1230 -0.5406
 4299SOL    HW224357   1.940   4.648   5.567  0.3154 -0.6261  1.1855
 4300SOL     OW24358   2.980   2.493   1.995 -0.1618 -0.1720  0.3132
 4300SOL    HW124359   2.957   2.534   1.912 -4.7836  0.6273  1.9585
 4300SOL    HW224360   3.019   2.412   1.962  3.8969  1.1994  1.8229
 4301SOL     OW24361   3.307   4.195   9.061 -0.0483  0.0544  0.0426
 4301SOL    HW124362   3.386   4.148   9.089 -0.0303  1.4617  2.4199
 4301SOL    HW224363   3.247   4.128   9.027  1.3855 -1.2258  0.0215
 4302SOL     OW24364   2.894   2.143   9.516 -1.1732  0.4416  0.3259
 4302SOL    HW124365   2.954   2.170   9.446 -1.2066  1.1409  0.5633
 4302SOL    HW224366   2.949   2.101   9.582  0.4469  0.6156 -0.9049
 4303SOL     OW24367   0.417   3.419   4.339  0.4050  0.2066  0.3509
 4303SOL    HW124368   0.372   3.418   4.255  3.2909 -0.8274 -1.1963
 4303SOL    HW224369   0.389   3.506   4.367  3.4813  1.6861 -1.2109
 4304SOL     OW24370   3.717   0.779   6.238  0.7359  0.3978 -0.1271
 4304SOL    HW124371   3.713   0.782   6.334 -0.2891 -1.1679 -0.1045
 4304SOL    HW224372   3.802   0.821   6.232  1.5230 -1.1635  0.2818
 4305SOL     OW24373   3.895   3.306  14.055  0.0546 -0.6920 -0.1172
 4305SOL    HW124374   3.939   3.386  14.083 -0.0037 -0.4544 -0.7106
 4305SOL    HW224375   3.886   3.332  13.963  1.3178 -0.0163 -0.0506
 4306SOL     OW24376   1.927   2.866  13.548  0.5731  0.1725 -0.1901
 4306SOL    HW124377   2.007   2.886  13.499  0.5246 -2.1474 -1.2113
 4306SOL    HW224378   1.956   2.808  13.619  2.1049  0.6174 -0.4530
 4307SOL     OW24379   1.391   0.840   3.086 -0.1472 -0.2863 -0.2007
 4307SOL    HW124380   1.351   0.904   3.145  0.1429  0.6311 -1.0002
 4307SOL    HW224381   1.314   0.809   3.039 -1.9085  1.7353  1.3193
 4308SOL     OW24382   2.191   4.623  10.591 -0.2766  0.1303 -0.3303
 4308SOL    HW124383   2.133   4.574  10.649  0.2033  0.3198  0.3164
 4308SOL    HW224384   2.252   4.650  10.661  1.5688 -1.7269 -1.2402
 4309SOL     OW24385   1.921   4.706   3.445 -0.5288 -0.4192 -0.0141
 4309SOL    HW124386   1.872   0.064   3.441  1.9758  1.0717 -0.1620
 4309SOL    HW224387   1.912   4.681   3.353 -0.9815  1.2111 -0.4165
 4310SOL     OW24388   3.321   3.131   6.138 -0.1277  0.1643 -0.7731
 4310SOL    HW124389   3.389   3.098   6.196 -0.2741 -0.4440 -0.9456
 4310SOL    HW224390   3.353   3.115   6.049 -0.1640 -1.2262 -0.5304
 4311SOL     OW24391   2.907   2.854   5.520 -0.3522  0.4554  0.0745
 4311SOL    HW124392   2.839   2.817   5.464  0.2750 -0.2583 -0.2269
 4311SOL    HW224393   2.959   2.887   5.447  0.3561 -1.4430 -0.2827
 4312SOL     OW24394   4.173   3.220   7.076 -0.2324 -0.7595  0.0965
 4312SOL    HW124395   4.267   3.213   7.095 -0.0423 -0.8836 -0.8811
 4312SOL    HW224396   4.169   3.311   7.046 -0.6971 -0.4618  1.0945
 4313SOL     OW24397   3.015   2.128   2.281 -0.2167  0.5393  0.1522
 4313SOL    HW124398   3.029   2.072   2.204  0.6312 -0.7788  1.2606
 4313SOL    HW224399   2.934   2.176   2.267  0.9988  2.1836 -1.2180
 4314SOL     OW24400   0.292   3.088  10.398  0.4030 -0.2073  0.0895
 4314SOL    HW124401   0.276   3.106  10.491  0.5452 -1.8202  0.4158
 4314SOL    HW224402   0.214   3.039  10.372 -0.6061  0.5079  1.7860
 4315SOL     OW24403   2.928   4.350   6.963  0.2951  0.4774 -0.1567
 4315SOL    HW124404   2.866   4.286   6.928  3.5463 -2.1626 -0.9972
 4315SOL    HW224405   2.976   4.283   7.010 -1.2585  1.7157  3.2063
 4316SOL     OW24406   2.939   1.608  10.278 -0.2182 -0.4283  0.3112
 4316SOL    HW124407   3.003   1.583  10.344  0.5964 -1.9746 -1.0731
 4316SOL    HW224408   2.876   1.537  10.286  0.0219 -0.8681 -1.8846
 4317SOL     OW24409   3.024   3.527   9.922 -0.0926  0.2684  0.4734
 4317SOL    HW124410   2.953   3.464   9.929 -0.8066  1.0030 -0.2967
 4317SOL    HW224411   3.053   3.535  10.013 -0.0386 -0.8547  0.5544
 4318SOL     OW24412   2.120   3.953   9.280  0.3090 -0.2010 -0.3483
 4318SOL    HW124413   2.154   3.914   9.361 -0.8142 -0.7159 -0.1107
 4318SOL    HW224414   2.177   3.917   9.213  1.7107  0.3267  0.5731
 4319SOL     OW24415   2.634   3.138   7.873 -0.3560 -0.5656 -0.2429
 4319SOL    HW124416   2.722   3.171   7.852 -0.7474  1.0490  0.6505
 4319SOL    HW224417   2.581   3.211   7.904  1.3137 -0.3740  2.1760
 4320SOL     OW24418   3.347   1.524   8.791  0.0981 -0.4603  0.4845
 4320SOL    HW124419   3.353   1.617   8.768  2.4528 -0.9743 -0.9457
 4320SOL    HW224420   3.431   1.506   8.833 -1.0376  0.0098  2.9627
 4321SOL     OW24421   2.601   3.972  16.319 -0.5152  0.2867 -0.6863
 4321SOL    HW124422   2.682   3.927  16.340  0.2463  2.3694  0.8375
 4321SOL    HW224423   2.573   4.000  16.406  1.9747  0.0651  0.1643
 4322SOL     OW24424   0.379   0.899   4.433  0.2954 -0.3750 -0.1703
 4322SOL    HW124425   0.460   0.931   4.395 -0.0610  3.4983  2.4054
 4322SOL    HW224426   0.402   0.806   4.437  3.9075  0.3699 -3.6085
 4323SOL     OW24427   3.840   3.141   8.518  0.0777 -0.3985 -0.2416
 4323SOL    HW124428   3.807   3.097   8.439 -0.1094 -0.8834  0.1081
 4323SOL    HW224429   3.800   3.225   8.496  0.0240 -0.3249  0.1469
 4324SOL     OW24430   4.582   2.320   8.299  0.0192  0.0425  0.0306
 4324SOL    HW124431   4.504   2.317   8.355 -0.4223  1.1752 -0.5105
 4324SOL    HW224432   4.616   2.232   8.311 -0.6133 -0.4462 -1.8091
 4325SOL     OW24433   2.900   3.706   3.493  0.0960  0.4933  0.3963
 4325SOL    HW124434   2.881   3.613   3.482  0.6193  0.1936  1.9488
 4325SOL    HW224435   2.895   3.740   3.404  1.1216 -0.5459 -0.0544
 4326SOL     OW24436   4.436   2.050   2.991  0.3509  0.2371  0.0941
 4326SOL    HW124437   4.384   1.973   2.968 -2.5036  1.7361  1.4496
 4326SOL    HW224438   4.388   2.122   2.949  1.9133  0.4326 -1.3577
 4327SOL     OW24439   0.914   1.373   3.594 -0.8287 -1.0118 -0.2016
 4327SOL    HW124440   0.853   1.402   3.662  0.0592 -0.1257  0.2127
 4327SOL    HW224441   0.864   1.295   3.570 -1.3867 -0.3080 -1.3433
 4328SOL     OW24442   2.127   4.497   4.445 -0.1456  0.0253 -0.1600
 4328SOL    HW124443   2.179   4.452   4.510  0.7593  1.5599  0.1711
 4328SOL    HW224444   2.184   4.537   4.379 -1.9312  0.1132 -1.6826
 4329SOL     OW24445   2.354   3.989   5.064 -0.2749  0.0631  0.6104
 4329SOL    HW124446   2.354   4.067   5.118 -1.8254  1.0304 -0.7807
 4329SOL    HW224447   2.387   3.927   5.129  1.4102  0.0528 -0.2624
 4330SOL     OW24448   4.169   2.253   5.521  0.0992 -0.4060 -0.4718
 4330SOL    HW124449   4.187   2.319   5.453  1.0081  2.4227  2.5023
 4330SOL    HW224450   4.161   2.174   5.468 -1.2447 -0.4550 -0.1806
 4331SOL     OW24451   0.487   4.583   6.432 -0.1545  0.1231 -0.0988
 4331SOL    HW124452   0.496   4.650   6.499 -1.6489  1.2614 -1.0317
 4331SOL    HW224453   0.579   4.560   6.417 -0.4773 -0.6428 -0.9499
 4332SOL     OW24454   2.876   0.663   1.399 -0.2601  0.7888 -0.2608
 4332SOL    HW124455   2.827   0.739   1.429 -2.3527 -1.1112  1.1453
 4332SOL    HW224456   2.964   0.697   1.382  0.1904  0.2749  1.0006
 4333SOL     OW24457   1.627   0.335   8.884 -0.2011  0.0263  0.0382
 4333SOL    HW124458   1.556   0.371   8.832  1.1272  2.2788 -0.2102
 4333SOL    HW224459   1.654   0.261   8.830  1.7006  0.8140 -0.0852
 4334SOL     OW24460   4.520   3.414   3.080 -0.1455 -0.1221 -0.1404
 4334SOL    HW124461   4.521   3.331   3.033  0.2187 -0.1996  0.0019
 4334SOL    HW224462   4.586   3.464   3.031 -0.0946 -1.0273 -0.9959
 4335SOL     OW24463   0.864   2.250   7.807 -0.3223  0.4068 -0.0762
 4335SOL    HW124464   0.788   2.193   7.797  0.2159 -0.0602 -1.3972
 4335SOL    HW224465   0.933   2.187   7.832 -0.9587  0.0220  0.7146
 4336SOL     OW24466   1.760   4.177  11.160 -0.1402  0.5090  0.0315
 4336SOL    HW124467   1.787   4.124  11.085  1.3059  0.9147  0.2721
 4336SOL    HW224468   1.793   4.131  11.238 -0.0800 -0.2545 -0.4419
 4337SOL     OW24469   4.296   0.682   7.541 -0.5502  0.8939 -0.1674
 4337SOL    HW124470   4.321   0.644   7.457 -1.3984  0.4017 -0.2005
 4337SOL    HW224471   4.202   0.664   7.531 -0.3023 -0.7741  0.4226
 4338SOL     OW24472   4.375   2.829   8.371 -0.2290  0.2222  0.1268
 4338SOL    HW124473   4.287   2.861   8.389 -0.5603 -0.4129 -0.3424
 4338SOL    HW224474   4.423   2.910   8.387  1.2141 -0.5769 -0.1856
 4339SOL     OW24475   4.045   3.924   1.623  0.6978  0.0140  0.1563
 4339SOL    HW124476   4.035   3.845   1.570 -0.1071  0.3974 -0.2462
 4339SOL    HW224477   3.954   3.949   1.635  0.5989  0.2520 -1.1332
 4340SOL     OW24478   3.916   2.423   2.741 -0.0269  0.3624 -0.0548
 4340SOL    HW124479   3.868   2.420   2.658 -2.3117 -0.5370  1.3189
 4340SOL    HW224480   3.993   2.466   2.704 -0.5646  0.2549 -1.3100
 4341SOL     OW24481   0.340   2.484  12.556 -0.8478 -0.0647  0.2600
 4341SOL    HW124482   0.297   2.466  12.639  0.7807  0.5505  1.2314
 4341SOL    HW224483   0.294   2.559  12.517 -0.2803  0.0457 -0.2034
 4342SOL     OW24484   0.406   0.996   0.220 -0.5218 -0.0372 -0.2623
 4342SOL    HW124485   0.469   1.000   0.147 -0.2044  0.8719  0.0607
 4342SOL    HW224486   0.402   1.088   0.247  2.3258 -0.2045  0.6953
 4343SOL     OW24487   1.400   3.576   4.017 -0.9157  0.2357 -0.0214
 4343SOL    HW124488   1.344   3.578   3.940  1.4902  1.7068 -1.7156
 4343SOL    HW224489   1.412   3.668   4.041 -2.4658  0.8544 -1.7421
 4344SOL     OW24490   0.206   0.080   3.653 -0.0132 -0.0601  0.1416
 4344SOL    HW124491   0.268   0.123   3.595 -0.0635  0.9413  0.8352
 4344SOL    HW224492   0.247   4.717   3.656  1.4871  0.5757 -1.9060
 4345SOL     OW24493   0.107   0.203   9.070  0.1549  0.2788 -0.3124
 4345SOL    HW124494   0.035   0.149   9.103  1.1875  0.5317  2.3888
 4345SOL    HW224495   0.181   0.143   9.063 -0.8430 -0.8853 -1.0263
 4346SOL     OW24496   0.985   3.463  15.180  0.0242  0.4204 -0.1568
 4346SOL    HW124497   1.047   3.410  15.230 -1.3411  0.7746  1.8883
 4346SOL    HW224498   0.910   3.405  15.170 -1.1073  1.6339  1.3155
 4347SOL     OW24499   3.534   4.486   9.062 -0.5235  0.1884  0.2997
 4347SOL    HW124500   3.590   4.536   9.123 -0.0803 -3.4891  2.9168
 4347SOL    HW224501   3.571   4.397   9.063  0.8417  0.7167 -2.4671
 4348SOL     OW24502   1.766   4.122   4.618  0.1075  0.4179  0.2013
 4348SOL    HW124503   1.722   4.053   4.568 -1.3111  3.4353 -2.7320
 4348SOL    HW224504   1.785   4.173   4.540 -0.0587  0.2691  0.0615
 4349SOL     OW24505   4.138   2.911   8.453  0.0034  0.1914 -0.6594
 4349SOL    HW124506   4.094   2.868   8.526 -0.5820 -1.2382 -1.8348
 4349SOL    HW224507   4.083   2.891   8.377 -0.9600  0.8669 -0.1370
 4350SOL     OW24508   2.984   2.620   5.660 -0.4355 -0.4452  0.5214
 4350SOL    HW124509   2.979   2.694   5.599 -1.7858 -1.8972 -1.1171
 4350SOL    HW224510   3.026   2.653   5.740  2.5933 -1.0443 -0.8314
 4351SOL     OW24511   2.564   3.767   2.795 -0.4369 -0.6038  0.0521
 4351SOL    HW124512   2.589   3.849   2.752 -0.0109 -0.2784  0.9178
 4351SOL    HW224513   2.550   3.794   2.886  0.1448  0.8547 -0.2816
 4352SOL     OW24514   3.782   0.367   6.889  0.5733 -0.3081  0.1866
 4352SOL    HW124515   3.764   0.350   6.981  0.7081 -1.2175  0.0511
 4352SOL    HW224516   3.865   0.320   6.879 -0.0956 -1.1065 -1.6263
 4353SOL     OW24517   4.137   3.826   4.618  1.0663  0.2298 -0.7218
 4353SOL    HW124518   4.169   3.750   4.666 -1.0169 -0.3290 -0.1887
 4353SOL    HW224519   4.154   3.789   4.531 -1.4818 -0.7481 -0.8044
 4354SOL     OW24520   2.548   0.953   1.007  0.4073 -0.4958  0.0548
 4354SOL    HW124521   2.501   0.990   0.933 -2.5377 -0.9974  1.6444
 4354SOL    HW224522   2.531   0.860   0.989  1.4884 -0.5415 -0.7186
 4355SOL     OW24523   2.722   2.747   2.601 -0.4910  0.1344 -0.1148
 4355SOL    HW124524   2.759   2.664   2.572  0.2365  0.3111  0.2918
 4355SOL    HW224525   2.628   2.730   2.590 -0.3656 -0.1248 -0.7316
 4356SOL     OW24526   2.010   1.844  11.441  0.2927 -0.1808 -0.7617
 4356SOL    HW124527   1.999   1.779  11.372  1.3326 -0.4174 -0.7045
 4356SOL    HW224528   1.931   1.891  11.413 -0.2960  0.0487  1.3250
 4357SOL     OW24529   4.722   3.052   3.372  0.0709  0.0242 -0.0468
 4357SOL    HW124530   4.710   3.147   3.382 -0.0799 -0.1136  1.0933
 4357SOL    HW224531   4.672   3.034   3.292  1.9809 -2.7709 -0.6140
 4358SOL     OW24532   0.527   4.072   9.426 -0.3436 -0.4000  0.4043
 4358SOL    HW124533   0.475   4.066   9.506  0.1670 -0.3842  0.7330
 4358SOL    HW224534   0.545   4.165   9.431  0.0377 -0.3722 -1.5161
 4359SOL     OW24535   1.787   2.623  17.565 -0.0957  0.2722  0.2631
 4359SOL    HW124536   1.837   2.616  17.646  1.7706 -1.8436 -1.0642
 4359SOL    HW224537   1.847   2.633  17.492  0.4147 -1.2853  0.4749
 4360SOL     OW24538   1.705   2.966  14.578  0.7894  0.5826  0.7509
 4360SOL    HW124539   1.618   2.974  14.539  0.5977 -1.6754  0.7179
 4360SOL    HW224540   1.734   2.877  14.557 -0.8775  0.4071 -0.8621
 4361SOL     OW24541   4.585   0.969   4.575 -0.0087 -0.2091 -0.1095
 4361SOL    HW124542   4.522   0.909   4.534  0.3755 -0.0033 -1.0179
 4361SOL    HW224543   4.639   0.995   4.500 -2.3917 -0.1508 -1.8291
 4362SOL     OW24544   1.201   3.917   3.298  0.3322 -0.1742  0.1397
 4362SOL    HW124545   1.112   3.897   3.329  0.0849  1.0811  0.2547
 4362SOL    HW224546   1.175   3.972   3.224  0.4105  0.3892  0.5354
 4363SOL     OW24547   0.065   1.447   9.347 -0.5988 -0.3030  0.7696
 4363SOL    HW124548   0.068   1.409   9.434  1.5976  0.3240  0.9415
 4363SOL    HW224549   0.023   1.382   9.290 -1.6586 -0.8357  2.1764
 4364SOL     OW24550   0.892   0.202   3.619  0.1887  0.0584 -0.0576
 4364SOL    HW124551   0.930   0.251   3.692  1.7069  0.8370 -1.3653
 4364SOL    HW224552   0.798   0.215   3.633  0.3069  0.5512  0.3019
 4365SOL     OW24553   0.718   4.313   9.539 -0.3395 -0.5210  0.7217
 4365SOL    HW124554   0.731   4.362   9.620  0.9481  0.8748 -0.3357
 4365SOL    HW224555   0.799   4.262   9.539 -0.7488 -1.1613 -1.1275
 4366SOL     OW24556   1.650   3.877  15.034  0.9663 -0.6463  0.5205
 4366SOL    HW124557   1.556   3.864  15.029  0.4749  1.5794  4.0283
 4366SOL    HW224558   1.668   3.833  15.118  0.9663 -0.4064  0.6456
 4367SOL     OW24559   2.355   0.843  11.796  0.6690  0.1827  0.2229
 4367SOL    HW124560   2.397   0.762  11.767  0.4866  0.0736  0.2622
 4367SOL    HW224561   2.395   0.905  11.735  1.1849  0.1019  0.4792
 4368SOL     OW24562   1.937   3.013   4.088 -0.0903 -0.7714  0.5020
 4368SOL    HW124563   1.944   2.949   4.159  2.1346 -0.9283  0.1409
 4368SOL    HW224564   2.021   2.991   4.049 -1.1782 -0.3750 -2.0548
 4369SOL     OW24565   2.682   4.510  12.367 -0.1804  0.0739 -0.1654
 4369SOL    HW124566   2.675   4.489  12.274  4.9543  0.0835 -0.5455
 4369SOL    HW224567   2.591   4.523  12.392 -0.3272  1.7474 -1.5462
 4370SOL     OW24568   1.635   1.864   3.310  0.0504 -0.4127 -0.8871
 4370SOL    HW124569   1.730   1.853   3.310  0.0565 -0.2126  2.2125
 4370SOL    HW224570   1.631   1.958   3.292 -0.3585 -0.5776 -1.6603
 4371SOL     OW24571   1.573   3.025  15.437 -0.0727  0.4016 -0.4054
 4371SOL    HW124572   1.646   2.965  15.424 -1.9340 -1.9678 -0.0668
 4371SOL    HW224573   1.590   3.086  15.366 -0.9011  2.1906  0.9031
 4372SOL     OW24574   1.183   0.155   3.196  0.9644 -0.3762  0.5800
 4372SOL    HW124575   1.269   0.155   3.155  0.6232  1.2424 -0.1558
 4372SOL    HW224576   1.161   0.065   3.173 -2.1634 -0.3631  3.5577
 4373SOL     OW24577   1.116   2.179   7.011  0.3139  0.1918 -0.1798
 4373SOL    HW124578   1.143   2.107   6.954  0.4500 -0.9011  1.2650
 4373SOL    HW224579   1.172   2.162   7.087  0.1256  1.3495  0.2247
 4374SOL     OW24580   1.591   0.601   4.801 -0.3882 -0.1143  0.4964
 4374SOL    HW124581   1.589   0.599   4.705 -5.2732  0.5198  0.5756
 4374SOL    HW224582   1.678   0.640   4.803 -0.3733 -0.1114 -0.3546
 4375SOL     OW24583   0.806   0.813  15.397  0.4196  0.1078  0.6093
 4375SOL    HW124584   0.740   0.795  15.463  1.4635  0.5681  1.7905
 4375SOL    HW224585   0.853   0.729  15.396  1.7392  0.8292  1.7603
 4376SOL     OW24586   0.004   2.214   2.683 -0.2744  0.1323  0.2150
 4376SOL    HW124587   4.659   2.279   2.683 -0.9251 -0.5778 -0.4756
 4376SOL    HW224588   0.037   2.223   2.594  0.5903 -3.1606  0.2004
 4377SOL     OW24589   3.153   0.438  13.299 -0.3279 -0.0022  0.4093
 4377SOL    HW124590   3.133   0.528  13.273 -3.6355 -0.3211  1.8402
 4377SOL    HW224591   3.232   0.424  13.247 -1.3742 -0.8603 -0.9736
 4378SOL     OW24592   2.353   3.526  15.543 -0.7488  0.5982  0.0766
 4378SOL    HW124593   2.387   3.436  15.548  0.5305  0.9784 -1.5915
 4378SOL    HW224594   2.302   3.515  15.463 -0.3385 -1.2197  0.0510
 4379SOL     OW24595   0.059   1.985   5.112  0.2675  0.1109 -0.5953
 4379SOL    HW124596   0.077   2.063   5.165  1.1086  0.9922 -2.1950
 4379SOL    HW224597   0.057   1.914   5.177 -0.5365  0.3320 -0.3749
 4380SOL     OW24598   1.055   2.844   3.299 -0.1914  0.1748 -0.4555
 4380SOL    HW124599   1.128   2.782   3.293 -1.2316 -1.0976  0.1936
 4380SOL    HW224600   1.032   2.850   3.206 -0.0181 -1.3122 -0.5827
 4381SOL     OW24601   4.478   4.531   2.519 -0.4806  0.0740  0.2575
 4381SOL    HW124602   4.551   4.519   2.580 -0.7261 -0.7422  0.3859
 4381SOL    HW224603   4.473   4.627   2.527  0.1908  0.0348  1.1690
 4382SOL     OW24604   2.272   3.323   9.887  0.4640  0.1769  0.2598
 4382SOL    HW124605   2.282   3.268   9.809  3.1988  0.9723  0.0783
 4382SOL    HW224606   2.206   3.382   9.849 -1.1393 -1.9102 -0.2441
 4383SOL     OW24607   3.415   1.900   8.210  0.0106  0.2996 -0.2655
 4383SOL    HW124608   3.406   1.991   8.239 -0.1803  0.6743 -1.4868
 4383SOL    HW224609   3.347   1.896   8.144 -0.9948 -0.9908  0.8622
 4384SOL     OW24610   1.439   2.726  12.333 -0.8691  0.3010  0.4419
 4384SOL    HW124611   1.522   2.759  12.298  0.3677  0.4291  3.5207
 4384SOL    HW224612   1.387   2.717  12.253 -1.4310  2.1768  0.5974
 4385SOL     OW24613   1.661   0.056   8.478  0.2714 -0.2182 -0.3721
 4385SOL    HW124614   1.753   0.082   8.482  0.2959 -0.4548  0.5917
 4385SOL    HW224615   1.641   0.092   8.391 -3.2072  1.1917  1.0296
 4386SOL     OW24616   3.313   0.598   8.107 -1.1082 -0.4416  0.3327
 4386SOL    HW124617   3.347   0.687   8.114 -0.7150 -0.5252 -0.4741
 4386SOL    HW224618   3.304   0.582   8.013 -1.1960  0.2722  0.2195
 4387SOL     OW24619   2.555   0.972  16.792 -0.1198 -0.4764  0.3811
 4387SOL    HW124620   2.540   0.878  16.799 -1.5456 -0.2956 -0.4061
 4387SOL    HW224621   2.468   1.007  16.807 -1.2795 -2.7752 -1.0329
 4388SOL     OW24622   2.352   1.783   7.282  0.5993 -0.5449 -0.0232
 4388SOL    HW124623   2.447   1.771   7.284  0.5701 -0.8376 -0.3366
 4388SOL    HW224624   2.344   1.849   7.350 -2.6703  0.8597 -1.7493
 4389SOL     OW24625   2.430   1.491   0.570  0.2809 -0.2678  0.1426
 4389SOL    HW124626   2.469   1.414   0.611  1.6856 -0.1875 -1.0423
 4389SOL    HW224627   2.430   1.548   0.647 -0.0009  1.2260 -0.9687
 4390SOL     OW24628   1.069   1.544   2.085 -0.1186 -0.4359 -0.2373
 4390SOL    HW124629   1.096   1.480   2.150  0.6626 -0.4912 -0.6178
 4390SOL    HW224630   1.143   1.532   2.026 -0.6384 -0.2894 -0.9189
 4391SOL     OW24631   2.368   2.297  14.170  0.0290 -0.4518 -0.0562
 4391SOL    HW124632   2.381   2.354  14.095  2.6527  0.4875  1.1121
 4391SOL    HW224633   2.273   2.293  14.179 -0.0226 -0.6370 -0.7117
 4392SOL     OW24634   3.798   3.988   6.327 -0.0913 -0.1707 -0.3901
 4392SOL    HW124635   3.714   4.034   6.316 -0.8659 -2.0045 -2.2762
 4392SOL    HW224636   3.774   3.903   6.291  0.1776 -0.0983 -0.7331
 4393SOL     OW24637   2.265   0.120   1.385  0.3614  0.2618  0.4963
 4393SOL    HW124638   2.294   0.125   1.476  0.5565  0.7600  0.4063
 4393SOL    HW224639   2.277   0.027   1.366 -1.1414  0.2083 -0.2297
 4394SOL     OW24640   1.299   1.425   5.559 -0.0403 -0.2032  0.4255
 4394SOL    HW124641   1.379   1.424   5.612  1.0795  0.3870 -1.2448
 4394SOL    HW224642   1.329   1.471   5.480  1.2226 -0.5732  0.6862
 4395SOL     OW24643   0.527   4.436   4.713 -0.8018  0.1527  0.4256
 4395SOL    HW124644   0.599   4.437   4.776 -1.5499 -1.3173  1.2870
 4395SOL    HW224645   0.492   4.348   4.723 -1.7390  0.6606  1.5822
 4396SOL     OW24646   0.720   0.762   5.441  0.0420 -0.9001  0.3724
 4396SOL    HW124647   0.743   0.692   5.380 -0.8305  0.0048 -0.9936
 4396SOL    HW224648   0.699   0.827   5.374  0.7454  0.2264  1.2268
 4397SOL     OW24649   2.229   2.606  13.122 -0.1023  0.9328  0.7931
 4397SOL    HW124650   2.322   2.588  13.126 -0.2629 -0.1868 -0.6271
 4397SOL    HW224651   2.209   2.590  13.215 -3.6842 -2.3328 -0.5210
 4398SOL     OW24652   3.521   3.448   3.633  0.4192 -0.8986  0.3261
 4398SOL    HW124653   3.493   3.433   3.723 -1.1500 -0.7234 -0.1351
 4398SOL    HW224654   3.616   3.451   3.648  0.6970 -0.8366 -1.4338
 4399SOL     OW24655   4.703   1.585   8.001 -0.0804 -0.5471 -0.4291
 4399SOL    HW124656   0.045   1.584   8.071  0.6691  1.2721 -1.1012
 4399SOL    HW224657   0.038   1.628   7.940  0.3531  0.8376  0.9590
 4400SOL     OW24658   3.051   1.836   6.371 -0.3513 -0.3135  0.0314
 4400SOL    HW124659   3.072   1.743   6.365 -1.4692 -0.6752  1.6435
 4400SOL    HW224660   3.014   1.848   6.283 -1.3471  0.7520  0.5964
 4401SOL     OW24661   0.332   1.558  12.082 -0.0383 -0.5231  0.1640
 4401SOL    HW124662   0.418   1.592  12.058 -0.1631 -1.3954 -1.5190
 4401SOL    HW224663   0.348   1.515  12.165 -1.3905  1.6909  1.5775
 4402SOL     OW24664   3.704   3.181  10.818 -0.1129  0.3889  0.3598
 4402SOL    HW124665   3.665   3.095  10.830 -0.5167  0.2473 -1.9407
 4402SOL    HW224666   3.633   3.220  10.768 -1.5417 -2.5372  0.1667
 4403SOL     OW24667   3.527   1.100   6.134 -0.2495 -0.0114 -0.2746
 4403SOL    HW124668   3.515   1.182   6.182 -0.6729 -0.4636  0.3794
 4403SOL    HW224669   3.622   1.110   6.120 -0.4512  0.1245 -1.6069
 4404SOL     OW24670   3.189   3.391   0.898  0.9484  0.7360  0.3460
 4404SOL    HW124671   3.193   3.445   0.977  2.6062  0.5284  0.4023
 4404SOL    HW224672   3.159   3.452   0.830 -1.1275  0.8250  1.3481
 4405SOL     OW24673   1.440   0.419   4.929  0.2406  0.0989  0.3062
 4405SOL    HW124674   1.500   0.350   4.958 -1.3087 -1.4839 -0.2122
 4405SOL    HW224675   1.502   0.464   4.871  0.7785  0.3019  1.0484
 4406SOL     OW24676   0.724   3.314   8.128 -0.7316 -0.5303 -0.6491
 4406SOL    HW124677   0.736   3.342   8.037  0.7663 -1.8028 -0.8520
 4406SOL    HW224678   0.642   3.265   8.131 -0.6976 -0.6258 -1.1810
 4407SOL     OW24679   0.737   3.279   4.832 -0.1782  0.7307 -0.3932
 4407SOL    HW124680   0.653   3.323   4.818 -0.0727  1.4170  1.1161
 4407SOL    HW224681   0.769   3.325   4.910  0.9742  1.0458 -1.0493
 4408SOL     OW24682   0.882   0.123  14.678  0.0441  0.1583 -0.1976
 4408SOL    HW124683   0.792   0.132  14.708  0.1715  0.0113  0.2272
 4408SOL    HW224684   0.869   0.123  14.583 -0.9903  1.6696 -0.0494
 4409SOL     OW24685   0.397   3.898  14.334  0.0574 -0.3575  0.0167
 4409SOL    HW124686   0.391   3.851  14.418  0.9667 -1.1062 -0.3347
 4409SOL    HW224687   0.419   3.982  14.374  0.0050 -0.7188  0.8070
 4410SOL     OW24688   4.427   0.158   0.087  0.3363  0.0305  0.2261
 4410SOL    HW124689   4.406   0.084   0.031  0.3579  1.1258 -1.2236
 4410SOL    HW224690   4.439   0.221   0.016  2.9555 -0.0054  0.6298
 4411SOL     OW24691   3.312   1.091   9.162  0.6065  0.1905  0.2986
 4411SOL    HW124692   3.397   1.136   9.171  0.8850  0.0987 -1.8957
 4411SOL    HW224693   3.262   1.168   9.189  1.0590  0.8235 -0.6414
 4412SOL     OW24694   1.554   4.455  16.895 -0.5701  0.3999 -0.0503
 4412SOL    HW124695   1.459   4.459  16.895 -0.5529  0.4986 -2.6113
 4412SOL    HW224696   1.568   4.477  16.987  0.3633 -0.4789  0.0138
 4413SOL     OW24697   2.827   2.737   4.307 -0.2360 -0.1990  0.1544
 4413SOL    HW124698   2.774   2.719   4.229 -1.2622  0.5343  0.6863
 4413SOL    HW224699   2.917   2.717   4.281 -0.0412  2.2680 -0.9965
 4414SOL     OW24700   0.115   4.664   8.583  0.2197 -0.1108  0.0578
 4414SOL    HW124701   0.110   4.631   8.673  0.0705 -1.5315 -0.4876
 4414SOL    HW224702   0.097   0.033   8.597  0.1744 -0.1760  0.4409
 4415SOL     OW24703   1.957   1.573   8.689  0.3154 -0.1253  0.4059
 4415SOL    HW124704   2.011   1.651   8.678 -0.7405  0.0873 -3.1223
 4415SOL    HW224705   1.989   1.531   8.769  1.4218 -1.0748 -0.5289
 4416SOL     OW24706   2.493   3.249   3.091 -0.2137  0.0395  0.5849
 4416SOL    HW124707   2.512   3.160   3.121 -0.0423 -0.2572 -0.3775
 4416SOL    HW224708   2.429   3.228   3.023 -2.0652  1.4297  1.9009
 4417SOL     OW24709   2.967   1.289   6.368 -0.3066  0.3491  0.1645
 4417SOL    HW124710   3.004   1.208   6.402 -1.1533  0.3501  1.0861
 4417SOL    HW224711   2.936   1.327   6.451 -1.1284  0.3065 -0.1218
 4418SOL     OW24712   1.573   3.785   5.640 -0.1451  1.0188 -0.1563
 4418SOL    HW124713   1.484   3.801   5.612 -0.2024 -1.7670 -1.5691
 4418SOL    HW224714   1.593   3.713   5.579  1.5099  0.4271  1.0558
 4419SOL     OW24715   0.720   2.891   8.289 -0.4846  0.1847  0.3936
 4419SOL    HW124716   0.738   2.822   8.224  1.5639  1.6026 -0.5408
 4419SOL    HW224717   0.627   2.911   8.286 -0.6664 -0.3950  1.9969
 4420SOL     OW24718   1.812   2.653   5.941 -0.0363  0.8229 -0.3029
 4420SOL    HW124719   1.768   2.695   5.867  0.2302 -0.6658 -1.3037
 4420SOL    HW224720   1.734   2.648   5.996 -0.2105 -0.4737 -0.6629
 4421SOL     OW24721   4.583   3.238   4.425  0.3955 -0.9606  0.0899
 4421SOL    HW124722   4.600   3.331   4.435 -2.6441 -0.3266 -0.7545
 4421SOL    HW224723   4.667   3.195   4.408  0.6699 -0.1563 -0.5592
 4422SOL     OW24724   2.155   4.671   7.594  0.2768  0.2879 -0.1347
 4422SOL    HW124725   2.161   0.042   7.595 -2.4687  0.4451 -1.7629
 4422SOL    HW224726   2.231   4.650   7.539 -1.1129 -1.4967 -1.3574
 4423SOL     OW24727   1.698   0.689   8.780 -1.0007  0.7069 -0.6369
 4423SOL    HW124728   1.690   0.657   8.869  1.4321  1.2533 -0.2154
 4423SOL    HW224729   1.791   0.702   8.765 -0.0449 -1.4673  3.5287
 4424SOL     OW24730   4.376   1.201   0.686  0.1668 -0.1422 -0.3954
 4424SOL    HW124731   4.363   1.296   0.680  0.1117 -0.1639 -0.6423
 4424SOL    HW224732   4.330   1.178   0.767 -0.3954  0.5256 -0.5182
 4425SOL     OW24733   0.834   1.116   6.386  0.8659 -0.4007  0.4595
 4425SOL    HW124734   0.862   1.071   6.306  0.1226 -2.5651  1.4219
 4425SOL    HW224735   0.912   1.165   6.414  0.6458  0.2526 -0.0517
 4426SOL     OW24736   3.187   3.535  15.586  0.0576 -0.2537 -0.6043
 4426SOL    HW124737   3.121   3.601  15.606 -0.1459 -0.2368 -1.3264
 4426SOL    HW224738   3.264   3.570  15.631 -0.2721  1.3515 -1.3172
 4427SOL     OW24739   1.175   4.445  11.841 -0.3719  0.3750 -0.6713
 4427SOL    HW124740   1.219   4.384  11.782 -1.5025  1.8732 -3.0614
 4427SOL    HW224741   1.127   4.383  11.897 -3.0086  1.8773 -1.2752
 4428SOL     OW24742   4.565   2.449  10.038  0.0030 -0.2269  0.3462
 4428SOL    HW124743   4.477   2.412  10.028 -0.2204  0.8977 -1.8726
 4428SOL    HW224744   4.572   2.496   9.954  0.6404 -0.8395  0.0539
 4429SOL     OW24745   0.885   2.059   7.125 -0.3669  0.1118 -0.2762
 4429SOL    HW124746   0.915   2.073   7.215 -1.0752 -1.9105  0.2839
 4429SOL    HW224747   0.928   2.128   7.074 -1.3107 -1.7154 -3.5790
 4430SOL     OW24748   2.573   3.061   3.456 -0.0380 -0.2233  0.4693
 4430SOL    HW124749   2.601   3.150   3.478 -1.5842  0.0100  1.4981
 4430SOL    HW224750   2.553   3.066   3.362 -0.0177 -1.2711  0.4090
 4431SOL     OW24751   4.301   2.823   5.608  0.4521  0.0091 -0.3101
 4431SOL    HW124752   4.362   2.779   5.548 -0.1729 -1.3136  0.0141
 4431SOL    HW224753   4.282   2.747   5.664 -1.3019 -0.1446 -1.1306
 4432SOL     OW24754   3.471   1.673   4.541  0.4785 -0.5740 -0.7921
 4432SOL    HW124755   3.543   1.727   4.574 -0.1917 -0.2865  0.2296
 4432SOL    HW224756   3.414   1.748   4.523  2.4378  1.6585  2.2787
 4433SOL     OW24757   0.315   3.989  10.290  0.2610  0.0987 -0.1159
 4433SOL    HW124758   0.411   3.995  10.296  0.2662  0.9771 -1.1535
 4433SOL    HW224759   0.306   3.931  10.214  1.6620  1.1680 -1.1076
 4434SOL     OW24760   3.874   2.292   7.032 -0.0097 -0.0066 -0.6167
 4434SOL    HW124761   3.949   2.237   7.008 -1.8017 -2.1590 -1.2470
 4434SOL    HW224762   3.887   2.361   6.967  1.8483 -0.0028 -0.2453
 4435SOL     OW24763   3.768   4.638   4.191 -0.2946  0.2117 -0.4485
 4435SOL    HW124764   3.861   4.637   4.216 -0.5517  0.1817  0.5014
 4435SOL    HW224765   3.726   4.627   4.276  1.0404 -1.0063  0.0585
 4436SOL     OW24766   2.295   1.803  16.871  0.4053 -0.0133 -0.5427
 4436SOL    HW124767   2.257   1.859  16.939  0.0352 -0.2570 -0.5466
 4436SOL    HW224768   2.223   1.742  16.853 -0.6855  1.2526 -0.4641
 4437SOL     OW24769   3.275   2.543   5.262 -0.3240 -0.6814  0.2968
 4437SOL    HW124770   3.339   2.503   5.204  0.0194  0.1446  0.0952
 4437SOL    HW224771   3.330   2.610   5.302 -3.1365  1.1614  1.1261
 4438SOL     OW24772   0.609   1.620   6.024 -0.0763  0.4804  0.1326
 4438SOL    HW124773   0.525   1.640   6.065  0.1598  2.1043 -0.2033
 4438SOL    HW224774   0.614   1.525   6.036 -0.7134  0.5257  0.7405
 4439SOL     OW24775   2.321   3.467   4.439  0.6927  0.2996  0.1365
 4439SOL    HW124776   2.387   3.515   4.489  0.8061  1.3096 -0.9851
 4439SOL    HW224777   2.235   3.505   4.453  0.7461 -0.6198  3.0432
 4440SOL     OW24778   3.974   2.770   6.352  0.0161 -0.5520  0.3917
 4440SOL    HW124779   3.918   2.834   6.396 -0.6675 -0.1113 -1.1391
 4440SOL    HW224780   4.051   2.768   6.409 -0.5210  0.9714  1.1815
 4441SOL     OW24781   2.504   0.121   1.930 -0.2894  0.2118  0.1485
 4441SOL    HW124782   2.595   0.150   1.941 -0.1794 -0.6200  1.3737
 4441SOL    HW224783   2.494   0.076   2.013 -0.0057  0.2194  0.1879
 4442SOL     OW24784   3.898   0.916   0.607 -0.2269 -0.9390  0.3641
 4442SOL    HW124785   3.958   0.930   0.533 -0.6811  1.7328  0.4948
 4442SOL    HW224786   3.949   0.947   0.682 -0.6388 -0.9176  0.6290
 4443SOL     OW24787   4.111   0.140   9.539  0.7162  0.0394  0.4006
 4443SOL    HW124788   4.206   0.141   9.534  0.7864 -1.2349  1.5299
 4443SOL    HW224789   4.089   0.189   9.618  1.2882  0.5423  0.2450
 4444SOL     OW24790   3.242   1.882   0.668  0.3453 -0.1788 -0.2819
 4444SOL    HW124791   3.175   1.845   0.726 -0.2403 -0.5770 -1.2100
 4444SOL    HW224792   3.218   1.974   0.677  0.4027 -0.2916  1.0177
 4445SOL     OW24793   4.507   0.234   5.059 -0.3928 -0.0489 -0.1036
 4445SOL    HW124794   4.462   0.169   5.005  0.7003 -0.2722 -0.7497
 4445SOL    HW224795   4.500   0.194   5.145  3.6091 -0.3800  0.0703
 4446SOL     OW24796   0.023   4.246  15.187  0.7309  0.2734 -0.2965
 4446SOL    HW124797   4.707   4.208  15.109  0.8280  3.4172 -1.8718
 4446SOL    HW224798   0.095   4.301  15.156  0.4794 -0.5799 -2.4259
 4447SOL     OW24799   3.287   4.597  11.027  0.2524 -0.1887  0.1304
 4447SOL    HW124800   3.338   4.566  10.952  1.7898  2.5281  0.0457
 4447SOL    HW224801   3.202   4.575  10.988  1.2342  1.3552 -2.8197
 4448SOL     OW24802   0.528   1.731   1.662  0.4906  0.5527 -0.0734
 4448SOL    HW124803   0.536   1.678   1.741  1.6873 -0.3357 -0.7758
 4448SOL    HW224804   0.519   1.659   1.599  3.2964 -0.0526  0.2318
 4449SOL     OW24805   1.412   2.199   8.790  0.2026 -0.3366  0.3835
 4449SOL    HW124806   1.437   2.115   8.828  1.8535 -0.2380 -0.4811
 4449SOL    HW224807   1.320   2.188   8.769 -0.1860  1.2528  1.1872
 4450SOL     OW24808   4.561   4.226   4.887 -0.0975 -0.0810  0.1419
 4450SOL    HW124809   4.562   4.148   4.832 -0.7123 -0.8498  1.2342
 4450SOL    HW224810   4.466   4.230   4.897 -0.1107 -1.6985  0.6739
 4451SOL     OW24811   0.132   1.300   8.088  0.5815 -0.1115 -0.1822
 4451SOL    HW124812   0.081   1.264   8.161 -1.7979 -0.3752 -1.9729
 4451SOL    HW224813   0.173   1.374   8.134 -0.3725  1.4821 -1.8899
 4452SOL     OW24814   2.749   0.161  10.205  0.3184  0.4636 -0.1593
 4452SOL    HW124815   2.656   0.149  10.183  1.2886 -3.4975 -2.0820
 4452SOL    HW224816   2.793   0.093  10.154 -0.9235 -0.4101 -0.0866
 4453SOL     OW24817   3.234   1.589  14.386  0.1622  0.3795  0.1582
 4453SOL    HW124818   3.157   1.533  14.395  0.3018 -0.1046 -1.7588
 4453SOL    HW224819   3.197   1.677  14.375 -0.3029  0.0839 -0.5579
 4454SOL     OW24820   4.677   0.801   5.701 -0.0735  0.0092  0.9046
 4454SOL    HW124821   4.616   0.837   5.766 -1.1975 -0.4173  0.0875
 4454SOL    HW224822   4.686   0.885   5.656  0.8892 -2.0006 -2.5978
 4455SOL     OW24823   0.681   1.603   4.508 -0.3920 -0.0560 -0.4330
 4455SOL    HW124824   0.630   1.637   4.435  0.3826 -0.3896 -1.1223
 4455SOL    HW224825   0.616   1.610   4.579  0.9535 -1.1154  0.9011
 4456SOL     OW24826   0.601   1.503  17.427  0.2574 -0.7015 -0.2935
 4456SOL    HW124827   0.622   1.410  17.424 -0.3882 -0.8323 -0.8726
 4456SOL    HW224828   0.674   1.543  17.379  0.2777 -1.6206 -1.0364
 4457SOL     OW24829   0.225   2.431  12.803  0.3167  0.0314 -0.1250
 4457SOL    HW124830   0.158   2.369  12.833 -0.1410 -0.9203 -3.0635
 4457SOL    HW224831   0.205   2.508  12.856 -0.1304 -1.6512  2.1262
 4458SOL     OW24832   0.732   2.327   9.247  0.2017 -0.2445 -0.0940
 4458SOL    HW124833   0.653   2.353   9.200  1.6602  0.6240 -2.0605
 4458SOL    HW224834   0.773   2.412   9.263  0.6185 -0.2500 -1.1146
 4459SOL     OW24835   0.677   2.538   8.675 -0.6966  0.1593  0.3372
 4459SOL    HW124836   0.696   2.463   8.618 -2.2383  0.5989 -0.7582
 4459SOL    HW224837   0.758   2.589   8.672 -1.1289  0.7431 -0.9009
 4460SOL     OW24838   2.537   2.337   7.291 -0.1662  0.4620  0.6024
 4460SOL    HW124839   2.512   2.384   7.370  2.7950  4.0682 -0.6412
 4460SOL    HW224840   2.491   2.253   7.296 -0.2814  0.4672 -0.2386
 4461SOL     OW24841   0.912   3.396   7.584  0.1689  1.0166  0.8289
 4461SOL    HW124842   0.954   3.465   7.532  2.7081 -1.0753  0.1121
 4461SOL    HW224843   0.947   3.317   7.543 -2.6346 -0.5613  1.4593
 4462SOL     OW24844   2.861   2.705   6.156  0.0042  0.4741  0.0637
 4462SOL    HW124845   2.870   2.682   6.063 -1.3380  0.2733 -0.0108
 4462SOL    HW224846   2.858   2.800   6.144  0.0242  0.2910 -1.4705
 4463SOL     OW24847   3.797   2.514   2.502 -0.4138 -0.1659 -0.3799
 4463SOL    HW124848   3.746   2.595   2.510 -1.5902 -1.1194  1.7464
 4463SOL    HW224849   3.835   2.528   2.415  0.7220 -2.3760 -0.2347
 4464SOL     OW24850   1.006   1.537  16.938  0.2889 -0.5398  0.2889
 4464SOL    HW124851   1.001   1.633  16.940  0.8641 -0.5042  0.2241
 4464SOL    HW224852   0.915   1.520  16.962  1.1544 -1.6090  2.8756
 4465SOL     OW24853   3.831   4.352   2.555  0.2096 -0.0637  0.6911
 4465SOL    HW124854   3.916   4.396   2.563 -0.6039  1.7734 -0.8412
 4465SOL    HW224855   3.861   4.285   2.494 -1.0484 -1.5429  1.7068
 4466SOL     OW24856   2.319   0.570  13.322 -0.2303  0.1368  0.5339
 4466SOL    HW124857   2.269   0.599  13.399 -1.5191  1.7629 -0.9153
 4466SOL    HW224858   2.313   0.653  13.275 -1.8657 -0.9857 -1.2161
 4467SOL     OW24859   2.161   3.420   6.396  0.2716 -0.8606 -0.0496
 4467SOL    HW124860   2.140   3.344   6.342  3.0282 -1.7909  0.2068
 4467SOL    HW224861   2.221   3.386   6.462  1.7334  1.2436 -0.3157
 4468SOL     OW24862   4.146   3.187   8.496 -0.3245  0.1063  0.5484
 4468SOL    HW124863   4.153   3.095   8.522  1.5281  0.4726  1.3416
 4468SOL    HW224864   4.057   3.201   8.528 -0.3752 -0.9521  0.8837
 4469SOL     OW24865   2.769   3.575   3.792  0.1552 -0.0194 -0.4578
 4469SOL    HW124866   2.691   3.558   3.740 -0.4151  2.4043 -0.4042
 4469SOL    HW224867   2.844   3.557   3.736  1.2293  0.7116  0.7425
 4470SOL     OW24868   2.013   1.598  11.285 -0.9361 -0.1449  0.1744
 4470SOL    HW124869   2.032   1.504  11.283  3.2571  0.7349 -0.4816
 4470SOL    HW224870   1.956   1.606  11.208 -0.4586  2.7652  0.1396
 4471SOL     OW24871   3.842   0.371   9.814  0.0169  0.3209 -0.4164
 4471SOL    HW124872   3.801   0.432   9.753 -2.5857 -1.8707 -0.8615
 4471SOL    HW224873   3.772   0.307   9.812  1.8266 -1.6856  0.7852
 4472SOL     OW24874   4.681   4.148  12.223  0.0438 -0.7247  0.6030
 4472SOL    HW124875   4.668   4.089  12.297 -2.2385 -4.1535 -2.4921
 4472SOL    HW224876   0.004   4.094  12.160 -4.0769 -1.2353 -2.0991
 4473SOL     OW24877   4.440   2.813  16.330  0.2191 -0.8727  0.3876
 4473SOL    HW124878   4.408   2.865  16.404 -2.0980 -1.8730  0.1037
 4473SOL    HW224879   4.528   2.849  16.326  0.2594 -0.9927  0.1840
 4474SOL     OW24880   1.370   3.572  13.501  0.7362 -0.2906 -0.1707
 4474SOL    HW124881   1.445   3.631  13.494  1.1383 -0.5996  1.5202
 4474SOL    HW224882   1.402   3.499  13.448  1.2584 -0.4849  0.4229
 4475SOL     OW24883   0.058   1.791  13.107  1.0622  0.1167  0.1302
 4475SOL    HW124884   0.064   1.699  13.133  0.3604 -0.4755 -1.7802
 4475SOL    HW224885   0.145   1.809  13.072  0.6983  0.7479 -0.4563
 4476SOL     OW24886   4.009   3.886  11.923 -0.2233 -0.3873  0.6687
 4476SOL    HW124887   4.101   3.859  11.924  0.0661  0.4478 -3.4212
 4476SOL    HW224888   4.011   3.892  11.827  0.5555  0.9972  0.7774
 4477SOL     OW24889   1.644   3.128   9.488  0.5704 -0.3283  0.1312
 4477SOL    HW124890   1.554   3.131   9.456  1.1502  1.5730 -1.3206
 4477SOL    HW224891   1.643   3.197   9.554 -0.7327 -0.5722  0.3743
 4478SOL     OW24892   0.388   1.590  10.821  0.2997  0.0658 -0.3112
 4478SOL    HW124893   0.299   1.555  10.811 -0.2897  1.0827  1.4618
 4478SOL    HW224894   0.411   1.588  10.728  1.4665 -1.0721  0.0080
 4479SOL     OW24895   0.632   2.656   4.178 -0.5307  0.3367 -0.4875
 4479SOL    HW124896   0.625   2.716   4.252 -1.4936 -0.2696 -0.0889
 4479SOL    HW224897   0.726   2.637   4.180 -0.9343 -1.3239  2.4651
 4480SOL     OW24898   3.880   4.478   1.997 -0.1425 -0.1876 -0.0527
 4480SOL    HW124899   3.910   4.536   1.926  0.5906  2.0646  2.0848
 4480SOL    HW224900   3.947   4.492   2.064  0.2398  2.8574 -1.0515
 4481SOL     OW24901   1.858   0.578   0.197  0.2705  0.8839 -0.3275
 4481SOL    HW124902   1.924   0.539   0.254  0.0037 -0.7192 -1.1300
 4481SOL    HW224903   1.878   0.670   0.214  2.1458  0.6557 -1.3191
 4482SOL     OW24904   3.380   4.133   3.804 -0.8503 -0.2036 -0.2957
 4482SOL    HW124905   3.396   4.059   3.745 -0.2479 -2.0744  2.1924
 4482SOL    HW224906   3.465   4.153   3.843 -1.4280  0.2461  0.7415
 4483SOL     OW24907   1.600   0.353  11.060  0.1669 -0.7239 -0.0890
 4483SOL    HW124908   1.665   0.361  10.990  0.6572  0.2189  0.4743
 4483SOL    HW224909   1.647   0.290  11.115 -0.6379  0.3221  1.7863
 4484SOL     OW24910   2.729   3.845   8.588 -0.3536  0.3967 -0.3577
 4484SOL    HW124911   2.656   3.833   8.527 -0.2785  0.6449 -0.4953
 4484SOL    HW224912   2.788   3.896   8.533  0.8109  0.6861  1.1576
 4485SOL     OW24913   1.806   3.148  15.002 -0.1290  0.0648  0.3542
 4485SOL    HW124914   1.778   3.145  14.910  0.1565 -0.9368  0.3077
 4485SOL    HW224915   1.900   3.163  14.987 -0.4495  1.7076 -0.0612
 4486SOL     OW24916   0.257   2.482  17.271 -0.1350 -0.6563 -0.3584
 4486SOL    HW124917   0.192   2.413  17.288  0.1540 -1.2103 -1.4687
 4486SOL    HW224918   0.243   2.554  17.332 -3.5011 -0.9427 -0.7984
 4487SOL     OW24919   3.618   4.372  13.260 -0.4260 -0.3120  0.4408
 4487SOL    HW124920   3.614   4.468  13.258  0.6852 -0.2858 -1.0677
 4487SOL    HW224921   3.693   4.366  13.201  1.2042  0.4058  2.4472
 4488SOL     OW24922   2.882   4.195  15.692  0.3456 -0.1300  0.3541
 4488SOL    HW124923   2.800   4.175  15.645 -1.4566  0.1304  3.3752
 4488SOL    HW224924   2.866   4.146  15.772  0.1237 -1.7078 -0.6534
 4489SOL     OW24925   2.706   2.111   9.277 -0.4448 -0.6894 -0.1240
 4489SOL    HW124926   2.638   2.170   9.246 -1.1830 -0.9990  0.9026
 4489SOL    HW224927   2.782   2.144   9.229  0.1091 -1.5655  0.1494
 4490SOL     OW24928   4.299   1.283   4.296 -0.0520 -0.1587  0.3161
 4490SOL    HW124929   4.237   1.345   4.258 -0.9114 -1.2065  0.0194
 4490SOL    HW224930   4.376   1.336   4.316  0.4198 -0.3019 -1.1423
 4491SOL     OW24931   0.985   0.244  15.236  0.2919 -0.1477 -0.4847
 4491SOL    HW124932   0.912   0.302  15.259  0.4291 -0.2941  0.3372
 4491SOL    HW224933   0.935   0.163  15.223  0.3428  0.2268 -3.0845
 4492SOL     OW24934   4.519   2.751   3.316  0.5369  0.2954  0.2526
 4492SOL    HW124935   4.542   2.827   3.264  0.6633  0.6459  0.8225
 4492SOL    HW224936   4.565   2.674   3.282  0.7546  0.3679  0.3865
 4493SOL     OW24937   2.728   2.587  10.185 -0.3042 -0.2516  0.1497
 4493SOL    HW124938   2.706   2.659  10.244 -0.5513  0.7689 -1.1895
 4493SOL    HW224939   2.814   2.618  10.156 -1.2965  1.8526 -0.5530
 4494SOL     OW24940   3.168   0.150   0.770  0.4108 -0.7011  0.7647
 4494SOL    HW124941   3.226   0.226   0.777  1.2046 -1.2500  0.1731
 4494SOL    HW224942   3.106   0.162   0.842  0.8590 -1.1297  1.2228
 4495SOL     OW24943   0.249   2.067   8.556  0.2270  0.3521  0.4535
 4495SOL    HW124944   0.312   2.025   8.615  0.4268  2.4045  1.7099
 4495SOL    HW224945   0.221   2.125   8.627  1.3235  0.8465  0.4859
 4496SOL     OW24946   0.327   4.603   1.880 -0.4591 -0.2031 -0.4865
 4496SOL    HW124947   0.411   4.622   1.920  0.9297 -1.6725 -2.6978
 4496SOL    HW224948   0.301   4.693   1.858 -2.1406 -0.6084 -0.2058
 4497SOL     OW24949   0.504   1.258   4.958 -0.2283 -0.5148  0.1412
 4497SOL    HW124950   0.572   1.322   4.939 -0.5260 -0.3224 -0.2972
 4497SOL    HW224951   0.526   1.227   5.046 -0.4798 -1.2935 -0.0703
 4498SOL     OW24952   1.562   1.542   5.144 -0.6432 -0.9163 -0.0106
 4498SOL    HW124953   1.538   1.491   5.067  0.1777  0.7813 -1.3820
 4498SOL    HW224954   1.625   1.599   5.099 -0.6270 -0.6576  0.3382
 4499SOL     OW24955   0.364   2.849   7.054 -0.0237  0.3629 -0.3808
 4499SOL    HW124956   0.332   2.811   7.135  0.5638 -0.5234 -0.5639
 4499SOL    HW224957   0.291   2.907   7.032 -1.0763 -0.3956  1.1600
 4500SOL     OW24958   2.378   3.929   2.002  0.1603  0.2692  0.0677
 4500SOL    HW124959   2.416   3.951   2.087 -0.7163 -2.1314  1.0857
 4500SOL    HW224960   2.285   3.947   2.020  0.1528  2.2487 -1.8940
 4501SOL     OW24961   0.427   0.695   1.718  0.7381 -1.1320 -0.7448
 4501SOL    HW124962   0.382   0.776   1.694  1.0056 -0.5129  0.9090
 4501SOL    HW224963   0.512   0.737   1.726  0.4980 -0.8300  0.2093
 4502SOL     OW24964   1.005   0.997   8.572  0.4030  0.0277  0.1506
 4502SOL    HW124965   1.062   1.072   8.589  1.2942 -0.4789 -0.6075
 4502SOL    HW224966   1.043   0.936   8.635 -0.5638 -1.6478 -0.8935
 4503SOL     OW24967   3.711   4.132   8.514 -0.0863 -0.4513 -0.0054
 4503SOL    HW124968   3.747   4.193   8.578  1.7662 -0.7533 -0.7499
 4503SOL    HW224969   3.620   4.126   8.543  0.5634 -0.1307  2.1503
 4504SOL     OW24970   0.635   3.221   2.733 -0.4678 -0.2508  0.1892
 4504SOL    HW124971   0.654   3.143   2.785 -1.0463  0.4128  1.4041
 4504SOL    HW224972   0.599   3.191   2.650  0.4642  1.2850 -0.7708
 4505SOL     OW24973   3.222   0.402  10.169 -0.2691 -0.4379 -0.1650
 4505SOL    HW124974   3.307   0.401  10.125 -0.6087  0.8525 -0.8698
 4505SOL    HW224975   3.251   0.458  10.241 -2.1921 -0.9417  0.9855
 4506SOL     OW24976   1.579   1.395  14.170  0.1797 -0.0004  0.0660
 4506SOL    HW124977   1.574   1.414  14.077 -4.3240  0.9921  0.4785
 4506SOL    HW224978   1.612   1.305  14.170  1.5622  0.5159 -1.0598
 4507SOL     OW24979   2.981   2.425   8.652  0.2153  0.0758 -0.2644
 4507SOL    HW124980   3.034   2.408   8.729  0.2557  0.3257 -0.2367
 4507SOL    HW224981   2.934   2.505   8.677  0.1751 -0.0212 -0.0336
 4508SOL     OW24982   4.348   2.070   1.757  0.1871 -0.6063  0.0630
 4508SOL    HW124983   4.385   2.107   1.677  1.6228 -0.0899  0.9674
 4508SOL    HW224984   4.259   2.042   1.732  0.5597 -1.8597  0.1771
 4509SOL     OW24985   1.701   3.077   2.488 -0.1598 -0.6869 -0.2147
 4509SOL    HW124986   1.728   3.134   2.560 -0.8064  0.9551 -1.2452
 4509SOL    HW224987   1.606   3.090   2.483 -0.0715 -0.5347 -1.4562
 4510SOL     OW24988   1.414   1.700  14.461  0.5944  0.5152  0.7765
 4510SOL    HW124989   1.504   1.686  14.430  0.5096  0.9613  0.3340
 4510SOL    HW224990   1.418   1.796  14.467 -0.3365  0.3464  4.1328
 4511SOL     OW24991   2.918   3.199  10.567  0.2561 -0.4817  0.1764
 4511SOL    HW124992   2.990   3.259  10.588 -0.8225  0.0902  2.1641
 4511SOL    HW224993   2.893   3.244  10.485  2.7151 -0.3852 -0.5133
 4512SOL     OW24994   3.830   1.644   5.752 -0.1856 -0.0988 -0.1837
 4512SOL    HW124995   3.813   1.550   5.740  0.5129  0.0711 -2.5242
 4512SOL    HW224996   3.747   1.672   5.791 -0.3458  1.5065 -1.7024
 4513SOL     OW24997   3.065   3.294   6.690  0.6895 -0.1739  0.2528
 4513SOL    HW124998   3.026   3.223   6.640 -0.7957  0.9406 -0.1935
 4513SOL    HW224999   3.019   3.373   6.661 -0.3615 -0.5686  0.8197
 4514SOL     OW25000   0.566   0.304  15.978  0.6878 -0.0110  0.0252
 4514SOL    HW125001   0.607   0.232  16.026 -1.6897 -0.3798  1.4637
 4514SOL    HW225002   0.522   0.354  16.046  0.4252 -1.8714  1.2163
 4515SOL     OW25003   4.263   4.071   4.330  0.1440  0.6603 -0.2685
 4515SOL    HW125004   4.262   4.054   4.236 -2.6120  1.6418 -0.4290
 4515SOL    HW225005   4.183   4.120   4.348 -0.0575 -0.1332  0.9354
 4516SOL     OW25006   2.750   0.596   7.803  0.7020  0.4917 -0.6367
 4516SOL    HW125007   2.745   0.542   7.724 -0.9889 -0.4515  0.1034
 4516SOL    HW225008   2.677   0.549   7.845  1.9522 -0.3418  0.6205
 4517SOL     OW25009   4.031   3.330  10.712 -0.2194 -0.4952  0.5494
 4517SOL    HW125010   3.937   3.345  10.705 -0.3072 -1.1759  0.3273
 4517SOL    HW225011   4.066   3.384  10.641 -0.3192 -0.1818  0.7387
 4518SOL     OW25012   2.093   0.453  10.506 -0.1124  0.1437  0.3400
 4518SOL    HW125013   2.173   0.442  10.558  0.9053  3.8464 -0.3980
 4518SOL    HW225014   2.055   0.366  10.510  1.1049 -0.4822 -1.6182
 4519SOL     OW25015   0.670   4.647   3.144  0.7843 -0.3751  0.5115
 4519SOL    HW125016   0.623   4.620   3.224 -0.8701 -3.3087 -1.4736
 4519SOL    HW225017   0.707   4.562   3.122 -1.5109 -0.7339 -1.9520
 4520SOL     OW25018   1.561   0.750  11.231  0.9002  0.1093  0.7106
 4520SOL    HW125019   1.551   0.688  11.302  0.6624 -0.4083  0.2256
 4520SOL    HW225020   1.645   0.723  11.193 -1.7455 -1.0484 -4.3773
 4521SOL     OW25021   1.785   3.416  16.151  0.1277  0.2106  0.0629
 4521SOL    HW125022   1.732   3.475  16.205  1.0323  1.7546 -0.7397
 4521SOL    HW225023   1.724   3.409  16.077  1.6645 -2.3865 -0.9592
 4522SOL     OW25024   1.087   0.943   5.228 -0.1943 -0.4308  0.1654
 4522SOL    HW125025   1.166   0.997   5.224  0.8347 -1.8287  1.3245
 4522SOL    HW225026   1.089   0.917   5.136 -1.3090  0.2570 -0.0468
 4523SOL     OW25027   3.411   0.785   4.805  0.8291 -0.0859 -0.3299
 4523SOL    HW125028   3.371   0.722   4.745 -0.4921 -0.4242  0.8989
 4523SOL    HW225029   3.447   0.843   4.738  2.6378  0.2741  0.9458
 4524SOL     OW25030   3.687   2.457   6.852  0.3465 -0.3151  0.5254
 4524SOL    HW125031   3.698   2.528   6.916  1.0373 -2.2277  2.5068
 4524SOL    HW225032   3.644   2.390   6.905 -2.1619 -1.3952 -2.9409
 4525SOL     OW25033   3.662   4.647  15.431 -0.0251 -0.7452  0.4911
 4525SOL    HW125034   3.721   4.680  15.363  0.3179  0.4610  1.3581
 4525SOL    HW225035   3.716   4.600  15.494 -0.1723 -0.1129  1.0842
 4526SOL     OW25036   2.122   0.191   3.219 -0.1157 -0.4767 -0.0990
 4526SOL    HW125037   2.211   0.213   3.247  0.2162 -0.1470 -1.3994
 4526SOL    HW225038   2.136   0.144   3.137 -1.0636  0.9600 -1.0861
 4527SOL     OW25039   1.968   0.611  10.781  0.4431 -0.2497 -0.1164
 4527SOL    HW125040   1.880   0.650  10.780  0.6774  0.1196 -4.4079
 4527SOL    HW225041   1.980   0.603  10.686 -1.0471 -0.7516 -0.2640
 4528SOL     OW25042   2.948   2.756   7.325  0.2183  0.1718  0.0655
 4528SOL    HW125043   2.901   2.766   7.242  1.6121 -0.6075 -0.8107
 4528SOL    HW225044   2.870   2.762   7.380 -0.2723  0.6704 -0.6770
 4529SOL     OW25045   1.924   0.916   5.440 -0.2935 -0.4789  0.0451
 4529SOL    HW125046   1.829   0.914   5.430 -0.4892  0.5259  1.7008
 4529SOL    HW225047   1.929   0.948   5.530 -0.3879  5.2682 -1.9706
 4530SOL     OW25048   4.546   0.673  17.586 -0.4003  0.4497 -0.3749
 4530SOL    HW125049   4.499   0.724  17.521  1.5466  0.5836 -1.6725
 4530SOL    HW225050   4.618   0.734  17.603 -0.2081  0.0290  0.3207
 4531SOL     OW25051   1.413   1.111  12.907  0.3480 -0.6060  0.4203
 4531SOL    HW125052   1.455   1.044  12.961  0.3781 -0.4024  0.6521
 4531SOL    HW225053   1.490   1.151  12.867 -0.5780 -0.2100 -0.9835
 4532SOL     OW25054   3.326   1.571   3.316  0.0279  0.7574  0.4655
 4532SOL    HW125055   3.305   1.484   3.350  1.8053  1.0571  2.3685
 4532SOL    HW225056   3.285   1.619   3.389 -0.0812  0.9029  0.3075
 4533SOL     OW25057   3.276   1.517  15.281 -0.1960  0.3163  0.4367
 4533SOL    HW125058   3.294   1.611  15.286 -0.1193  0.3709 -0.8996
 4533SOL    HW225059   3.361   1.476  15.264  0.1611  2.0722 -2.0192
 4534SOL     OW25060   0.467   2.968   8.357 -0.3226  0.4584  0.1285
 4534SOL    HW125061   0.436   2.888   8.398  0.4345 -0.6141 -1.4161
 4534SOL    HW225062   0.386   3.017   8.370 -0.9206 -1.4240  3.2387
 4535SOL     OW25063   0.512   2.812   2.262 -0.2350  0.0722  0.0554
 4535SOL    HW125064   0.558   2.816   2.346  0.7549 -0.3941 -0.4585
 4535SOL    HW225065   0.428   2.852   2.284 -0.4564  0.3937 -1.4282
 4536SOL     OW25066   4.203   1.625  13.479 -0.2157 -0.1984 -0.6717
 4536SOL    HW125067   4.238   1.596  13.563 -0.9402 -1.2282 -0.7310
 4536SOL    HW225068   4.110   1.619  13.499 -0.3751 -2.8300 -2.3086
 4537SOL     OW25069   2.203   3.214   3.720  0.6013 -0.5260  0.2134
 4537SOL    HW125070   2.174   3.148   3.657  1.0905  1.0077 -1.6106
 4537SOL    HW225071   2.180   3.294   3.673  0.4497  0.0193  1.1999
 4538SOL     OW25072   2.808   3.050   4.973 -0.1482  0.1785 -0.6451
 4538SOL    HW125073   2.896   3.063   4.938 -0.0837 -2.0820 -1.3662
 4538SOL    HW225074   2.761   3.066   4.891  0.5977  2.5669 -0.6023
 4539SOL     OW25075   3.397   3.587   5.100 -0.2600 -0.2629 -0.0903
 4539SOL    HW125076   3.375   3.494   5.095 -0.8579 -0.1335  0.1432
 4539SOL    HW225077   3.361   3.616   5.016  0.9217  0.5412 -0.3198
 4540SOL     OW25078   2.997   3.810  11.926 -0.4472 -0.0376 -0.0905
 4540SOL    HW125079   2.985   3.728  11.975 -0.4733  0.0131 -0.0109
 4540SOL    HW225080   3.014   3.770  11.841 -0.3566  0.1664 -0.1678
 4541SOL     OW25081   3.916   1.729   4.188  0.2796 -0.3105 -1.2303
 4541SOL    HW125082   3.918   1.796   4.120  1.8306  2.6551  1.7415
 4541SOL    HW225083   4.007   1.699   4.192 -0.2685 -2.0916 -1.7118
 4542SOL     OW25084   1.018   1.298  15.811 -0.2957 -0.2566 -0.0911
 4542SOL    HW125085   1.080   1.281  15.740 -2.2387 -0.9514 -1.6236
 4542SOL    HW225086   1.073   1.332  15.881 -1.2611  1.7131 -0.2766
 4543SOL     OW25087   3.442   3.615  13.109 -0.2379 -0.6285  0.6852
 4543SOL    HW125088   3.494   3.557  13.165  0.3366  0.9159  1.7702
 4543SOL    HW225089   3.467   3.582  13.023  3.4654 -1.2244  1.9843
 4544SOL     OW25090   0.726   2.707   7.494 -0.1648 -0.4348  0.0011
 4544SOL    HW125091   0.651   2.681   7.549 -0.6136  0.5066 -0.1779
 4544SOL    HW225092   0.684   2.762   7.429  0.3669 -0.5819 -0.4620
 4545SOL     OW25093   2.665   0.368   6.216 -0.0277 -0.8453  0.3214
 4545SOL    HW125094   2.586   0.313   6.215 -0.5245 -0.1343  0.5353
 4545SOL    HW225095   2.631   0.452   6.186 -1.1482 -2.0186 -1.7706
 4546SOL     OW25096   2.814   0.671   2.705  0.0819  0.9150 -0.9077
 4546SOL    HW125097   2.734   0.723   2.708 -1.5621 -1.6435 -0.2826
 4546SOL    HW225098   2.788   0.588   2.664  0.4195  0.3441  0.0157
 4547SOL     OW25099   4.625   0.472   0.814 -0.2393 -0.2586  0.0379
 4547SOL    HW125100   4.679   0.482   0.735 -0.6784  0.0161 -0.2305
 4547SOL    HW225101   4.547   0.488   0.761  0.7236 -0.0948 -1.3302
 4548SOL     OW25102   4.006   3.130   5.597 -0.2396  0.2701 -0.5990
 4548SOL    HW125103   4.094   3.099   5.620 -0.7689  0.1973  1.3475
 4548SOL    HW225104   3.945   3.058   5.613  0.1267  0.0007 -0.4109
 4549SOL     OW25105   3.967   4.452   8.818 -0.1380  0.5578 -0.8596
 4549SOL    HW125106   4.041   4.396   8.841 -0.4618  1.0096  1.2484
 4549SOL    HW225107   4.010   4.537   8.814 -0.1859  0.7276  2.7159
 4550SOL     OW25108   3.739   3.702   3.959 -0.0474  0.1116  0.5882
 4550SOL    HW125109   3.712   3.782   4.002  0.7860  1.9618 -2.3167
 4550SOL    HW225110   3.747   3.653   4.041  4.5327 -2.0988 -1.1793
 4551SOL     OW25111   2.415   4.217   7.941 -0.1017 -0.2400  0.0225
 4551SOL    HW125112   2.341   4.253   7.894  0.1985  0.8594  0.3885
 4551SOL    HW225113   2.489   4.223   7.880  0.7255  1.1797  1.1349
 4552SOL     OW25114   3.353   2.649   7.727 -0.0635 -0.0066  0.1096
 4552SOL    HW125115   3.373   2.677   7.817 -0.2969  0.8569 -0.1095
 4552SOL    HW225116   3.276   2.594   7.743  0.8645 -1.2358  0.3545
 4553SOL     OW25117   1.241   4.709   7.820  0.2840  0.1416  0.5095
 4553SOL    HW125118   1.287   4.634   7.783  0.4214  0.4375  0.0730
 4553SOL    HW225119   1.153   4.671   7.816 -0.1585  1.1904  0.2892
 4554SOL     OW25120   0.306   0.069   1.097  0.2219 -0.0304 -1.0597
 4554SOL    HW125121   0.367   0.141   1.115  1.5606 -1.1279 -1.2394
 4554SOL    HW225122   0.251   0.104   1.026  1.3457  1.1707 -1.3466
 4555SOL     OW25123   1.823   3.509   5.060 -0.0744  0.4595 -0.3788
 4555SOL    HW125124   1.818   3.604   5.053  0.6975  0.4196 -1.5303
 4555SOL    HW225125   1.808   3.492   4.967  2.1302  0.9331 -0.8278
 4556SOL     OW25126   0.888   1.073   3.122 -0.0641  0.1322  0.1594
 4556SOL    HW125127   0.860   1.025   3.200  0.5852 -0.4261  0.0476
 4556SOL    HW225128   0.829   1.147   3.140  0.1404  0.6706 -1.4399
 4557SOL     OW25129   0.035   3.096   2.831 -0.7537 -0.3462  0.4744
 4557SOL    HW125130   4.701   3.026   2.859  0.2863 -0.8716  1.3264
 4557SOL    HW225131   4.700   3.158   2.788 -1.7967 -0.8170  1.2398
 4558SOL     OW25132   3.120   0.193  12.564  0.1110 -0.2246 -0.0108
 4558SOL    HW125133   3.166   0.195  12.648 -0.0758 -0.0110  0.0869
 4558SOL    HW225134   3.127   0.278  12.521 -0.1008  0.5104  1.4271
 4559SOL     OW25135   3.706   1.548   8.395 -0.0958 -0.1459 -0.5276
 4559SOL    HW125136   3.747   1.622   8.439  0.8190 -1.3573  0.6591
 4559SOL    HW225137   3.618   1.584   8.380  1.1100  3.3482  0.8976
 4560SOL     OW25138   1.747   4.708   3.677  0.4815 -0.7370 -0.0884
 4560SOL    HW125139   1.701   0.066   3.693  1.4794  0.0490 -1.2371
 4560SOL    HW225140   1.788   0.006   3.593 -0.3885 -0.6538 -0.4925
 4561SOL     OW25141   2.770   1.653   6.066 -0.5522  0.7622 -0.1223
 4561SOL    HW125142   2.700   1.592   6.088 -0.4181  1.2286  1.5582
 4561SOL    HW225143   2.793   1.609   5.984 -0.1875 -0.2693  0.5329
 4562SOL     OW25144   3.870   1.970   8.897  0.5911  0.2675 -0.2401
 4562SOL    HW125145   3.936   1.923   8.845  0.2601 -0.3319 -0.1165
 4562SOL    HW225146   3.920   2.050   8.913 -0.0679  0.4773  0.7387
 4563SOL     OW25147   3.170   0.236   2.525 -0.4532  0.0482 -0.3931
 4563SOL    HW125148   3.160   0.232   2.620 -3.9150  0.0412 -0.7499
 4563SOL    HW225149   3.180   0.145   2.499  0.0035  0.0824 -0.3386
 4564SOL     OW25150   1.597   2.483   5.335  0.3632 -0.2332  0.5228
 4564SOL    HW125151   1.595   2.542   5.259 -1.4943  0.5724  1.2094
 4564SOL    HW225152   1.628   2.407   5.286 -0.9758 -1.8525  2.1981
 4565SOL     OW25153   2.519   4.474   2.821  0.0573  0.0755 -0.4240
 4565SOL    HW125154   2.455   4.489   2.751  1.1170 -0.5756 -1.5288
 4565SOL    HW225155   2.477   4.410   2.879 -2.0472  0.6829 -1.2689
 4566SOL     OW25156   1.915   4.199   3.609  0.2622 -0.3879 -0.0466
 4566SOL    HW125157   1.939   4.154   3.527 -0.9110 -1.2808  0.1012
 4566SOL    HW225158   1.901   4.289   3.580  1.8279  0.7176  2.6459
 4567SOL     OW25159   1.203   1.270   9.004  1.0873 -0.2329 -0.3364
 4567SOL    HW125160   1.119   1.288   8.962  1.3287  2.8276  0.4442
 4567SOL    HW225161   1.208   1.357   9.045 -0.6595 -0.5559  0.5454
 4568SOL     OW25162   2.674   4.612   5.230  0.0772  0.0702 -0.0506
 4568SOL    HW125163   2.625   4.574   5.157 -1.5917  0.5793  0.8069
 4568SOL    HW225164   2.701   4.532   5.275  1.6903  1.5096  1.5345
 4569SOL     OW25165   2.492   0.585   5.805 -0.1080  0.5069 -0.0441
 4569SOL    HW125166   2.489   0.676   5.778 -2.7619  0.7413  1.0778
 4569SOL    HW225167   2.526   0.601   5.893 -1.3978 -0.2164  0.5767
 4570SOL     OW25168   3.520   3.084   1.820  0.5858  0.3306  0.0035
 4570SOL    HW125169   3.560   3.170   1.824  0.5212  0.4734 -2.8529
 4570SOL    HW225170   3.524   3.051   1.910  3.4130 -0.3753 -0.3891
 4571SOL     OW25171   4.079   4.428  14.638 -0.5395 -0.1471 -0.0004
 4571SOL    HW125172   4.109   4.495  14.700  1.5242  0.4143 -1.6043
 4571SOL    HW225173   4.025   4.378  14.699 -0.5727  1.3352  1.1904
 4572SOL     OW25174   3.243   0.278   7.723  0.3034  0.1756 -0.4569
 4572SOL    HW125175   3.283   0.203   7.766  0.0591  1.1057  1.3750
 4572SOL    HW225176   3.249   0.247   7.633 -0.2104 -0.9800 -0.0838
 4573SOL     OW25177   2.223   0.354   3.947 -0.4992  0.2977  0.5009
 4573SOL    HW125178   2.219   0.325   3.856  1.7520 -0.2971  0.5918
 4573SOL    HW225179   2.309   0.395   3.950  0.8551 -2.6175  1.3103
 4574SOL     OW25180   1.682   4.553   7.910  0.3015 -0.0078 -0.0327
 4574SOL    HW125181   1.686   4.550   7.815  1.8496  0.1238  0.0245
 4574SOL    HW225182   1.591   4.527   7.925  0.8180 -1.0783  1.2657
 4575SOL     OW25183   4.175   3.912  10.846  0.0398  0.6176  0.5448
 4575SOL    HW125184   4.210   3.969  10.778 -0.2186  0.6695  0.4539
 4575SOL    HW225185   4.082   3.927  10.831 -0.1071 -0.1395  0.6987
 4576SOL     OW25186   1.028   4.457  10.521  0.4338  0.0825 -0.6480
 4576SOL    HW125187   1.114   4.414  10.525 -0.1079 -0.8658  0.6883
 4576SOL    HW225188   0.972   4.380  10.510 -0.6087  0.6819  0.5847
 4577SOL     OW25189   1.765   4.079   2.619 -0.5426 -0.1158 -0.1600
 4577SOL    HW125190   1.750   4.069   2.525  0.2126 -0.2311 -0.2692
 4577SOL    HW225191   1.818   3.999   2.626  2.0338  1.8429  2.6068
 4578SOL     OW25192   0.399   2.227   2.878 -0.6502 -0.0040  0.3811
 4578SOL    HW125193   0.322   2.284   2.876  0.3090  1.3712  2.9407
 4578SOL    HW225194   0.354   2.149   2.846  0.6508 -0.6298  0.1112
 4579SOL     OW25195   3.568   4.207   6.891 -0.2534 -0.6026 -0.0451
 4579SOL    HW125196   3.592   4.127   6.937  3.0184  0.4315  0.0078
 4579SOL    HW225197   3.494   4.250   6.934 -0.3818  0.0100 -0.8784
 4580SOL     OW25198   3.503   2.262   4.486 -0.2577 -0.0106 -0.0681
 4580SOL    HW125199   3.585   2.300   4.457 -1.3862  0.5340 -2.5388
 4580SOL    HW225200   3.491   2.282   4.579  1.6298 -0.3351  0.2290
 4581SOL     OW25201   3.657   2.091   3.353  0.6266  0.0270 -0.2346
 4581SOL    HW125202   3.689   2.129   3.435  0.9783  0.3994 -0.5396
 4581SOL    HW225203   3.603   2.167   3.330  1.1349  0.6307  0.5879
 4582SOL     OW25204   0.455   2.148   3.746  0.5863 -0.1471 -0.0680
 4582SOL    HW125205   0.492   2.163   3.660  0.6871 -1.1998 -0.2124
 4582SOL    HW225206   0.485   2.226   3.791 -0.0553 -0.8346  1.5682
 4583SOL     OW25207   3.539   0.466   5.442 -0.0398  0.8099  0.0837
 4583SOL    HW125208   3.491   0.436   5.365 -0.4358  0.2461  0.5497
 4583SOL    HW225209   3.628   0.447   5.415 -0.0350  0.1492  0.5463
 4584SOL     OW25210   0.667   1.243  10.386 -0.1594  0.6284  0.3753
 4584SOL    HW125211   0.573   1.242  10.401 -0.0528 -1.7741  0.9793
 4584SOL    HW225212   0.703   1.267  10.471  0.3883  1.5223 -0.1134
 4585SOL     OW25213   2.121   2.570   7.833 -0.5303  0.4696 -0.4413
 4585SOL    HW125214   2.091   2.480   7.821 -0.2081  0.4717 -1.2682
 4585SOL    HW225215   2.087   2.592   7.920  2.0315 -1.1693  0.9578
 4586SOL     OW25216   0.466   1.611   4.666  0.1978  0.1977 -0.6155
 4586SOL    HW125217   0.443   1.581   4.754 -0.7319 -0.7298 -1.1725
 4586SOL    HW225218   0.386   1.606   4.614 -0.4566 -0.3488  0.4443
 4587SOL     OW25219   4.105   3.352   3.577 -0.0564  0.0853  0.4779
 4587SOL    HW125220   4.080   3.292   3.647 -0.6087 -1.2892 -0.9022
 4587SOL    HW225221   4.043   3.345   3.505 -1.6994  1.3197  1.7815
 4588SOL     OW25222   2.344   1.869   2.895 -0.5109  0.3961  0.0734
 4588SOL    HW125223   2.387   1.953   2.877 -0.6957  0.3723 -0.4714
 4588SOL    HW225224   2.397   1.846   2.971 -0.7316  2.7382  0.9316
 4589SOL     OW25225   1.159   0.987   7.372  0.0142  0.2216  0.4031
 4589SOL    HW125226   1.253   0.994   7.356 -0.3984 -0.3248 -2.2190
 4589SOL    HW225227   1.117   1.005   7.288  1.2854  2.6307  0.2823
 4590SOL     OW25228   0.865   2.570   4.502  0.3018 -0.0630  0.1141
 4590SOL    HW125229   0.939   2.631   4.505  0.5860 -0.3263 -1.4283
 4590SOL    HW225230   0.893   2.490   4.457  0.1462 -0.1423  0.1565
 4591SOL     OW25231   3.133   3.105   8.685  0.1075 -0.2116  0.0698
 4591SOL    HW125232   3.198   3.069   8.625  0.5403 -1.4757  1.2853
 4591SOL    HW225233   3.056   3.058   8.655 -0.8732  1.4015  0.0679
 4592SOL     OW25234   0.918   0.503   8.545 -0.7164  0.2244 -0.1118
 4592SOL    HW125235   1.006   0.534   8.524 -1.3742  1.1897 -1.4842
 4592SOL    HW225236   0.930   0.409   8.534  0.4897  0.3337  0.3316
 4593SOL     OW25237   2.249   1.728  13.809  0.6581  0.0335  0.6037
 4593SOL    HW125238   2.342   1.708  13.826  1.0782  3.0732  1.8591
 4593SOL    HW225239   2.245   1.691  13.721 -1.8578 -2.6423  1.8284
 4594SOL     OW25240   4.551   1.192  15.416  0.5327 -0.5437 -0.2104
 4594SOL    HW125241   4.468   1.232  15.392  0.9511  1.2832  1.4202
 4594SOL    HW225242   4.525   1.114  15.466 -0.1723 -0.7073 -0.8251
 4595SOL     OW25243   0.375   3.908   3.790  0.4034  0.6751 -0.7211
 4595SOL    HW125244   0.345   3.993   3.822 -2.0022 -0.3287 -0.2884
 4595SOL    HW225245   0.422   3.881   3.869  1.0007  0.8444 -1.0240
 4596SOL     OW25246   1.399   2.373   6.688 -0.1310  0.2735  0.1192
 4596SOL    HW125247   1.328   2.382   6.750 -1.3477 -1.7813 -0.9981
 4596SOL    HW225248   1.387   2.282   6.663 -0.3970  0.4386 -0.3528
 4597SOL     OW25249   1.346   3.863   3.967  0.2022  0.1228  0.2410
 4597SOL    HW125250   1.367   3.948   3.928  0.3941 -0.3807 -0.7672
 4597SOL    HW225251   1.259   3.853   3.928 -0.3503  3.3579  0.6612
 4598SOL     OW25252   1.272   0.282   5.741  0.6488  0.0955 -0.3280
 4598SOL    HW125253   1.340   0.347   5.755 -0.8029  1.5221  0.0796
 4598SOL    HW225254   1.253   0.255   5.831 -1.6842  0.8709 -0.5863
 4599SOL     OW25255   4.386   4.662   4.523  0.4964 -1.3761 -0.0205
 4599SOL    HW125256   4.290   4.667   4.525  0.5206 -0.4915 -1.1058
 4599SOL    HW225257   4.403   4.576   4.483  1.0341 -1.0797 -0.4266
 4600SOL     OW25258   1.171   3.912   1.157 -0.0136 -0.3778  0.7116
 4600SOL    HW125259   1.121   3.988   1.188 -0.6090  0.3637 -2.0209
 4600SOL    HW225260   1.254   3.923   1.204 -0.6184  2.5987  1.1113
 4601SOL     OW25261   2.567   1.318   8.111  0.5338  0.5868  0.5505
 4601SOL    HW125262   2.504   1.387   8.134 -0.8714 -0.9430  1.3209
 4601SOL    HW225263   2.513   1.250   8.071  2.2962 -0.9071  0.7303
 4602SOL     OW25264   3.934   0.094   6.676 -0.3580  0.3410 -0.3948
 4602SOL    HW125265   3.903   0.004   6.685  0.3975  0.3934  2.9278
 4602SOL    HW225266   3.981   0.112   6.757 -0.5957 -1.2700  0.1022
 4603SOL     OW25267   0.278   0.426   1.354  1.1170  0.4915 -0.4982
 4603SOL    HW125268   0.302   0.503   1.405  2.0788 -1.4764  2.0173
 4603SOL    HW225269   0.199   0.452   1.307  1.0020 -0.5661 -0.8870
 4604SOL     OW25270   3.679   0.733   3.920  0.4152  0.0056 -0.0053
 4604SOL    HW125271   3.743   0.708   3.853 -0.4260 -2.2931  0.0480
 4604SOL    HW225272   3.650   0.814   3.878  2.0365  0.6120  0.0353
 4605SOL     OW25273   2.962   1.531  12.236 -0.0231  0.0730 -0.3047
 4605SOL    HW125274   2.882   1.582  12.220 -0.8878 -0.9702  0.7747
 4605SOL    HW225275   2.946   1.508  12.327 -0.2649  0.1965 -0.3153
 4606SOL     OW25276   0.577   1.331   6.079  0.0175  0.0389  0.1024
 4606SOL    HW125277   0.561   1.290   5.995  1.4675  1.0946 -0.6915
 4606SOL    HW225278   0.592   1.249   6.127  2.2690  0.4920  0.1661
 4607SOL     OW25279   0.213   3.030   7.626 -0.1912  0.0138  0.1399
 4607SOL    HW125280   0.161   3.048   7.547 -1.1208  1.0610  0.9946
 4607SOL    HW225281   0.174   2.952   7.664 -0.9950  1.1407  1.5979
 4608SOL     OW25282   3.539   3.641   1.449  0.0851 -0.2198 -0.3013
 4608SOL    HW125283   3.499   3.729   1.445  1.4884  0.4813  1.1557
 4608SOL    HW225284   3.479   3.579   1.490 -0.1184  0.8871  1.1110
 4609SOL     OW25285   0.966   1.105   0.070 -0.3707 -0.1683 -0.1773
 4609SOL    HW125286   0.940   1.100   0.163  0.8843  0.6288  0.2045
 4609SOL    HW225287   1.047   1.057   0.054  0.7917  1.8711 -0.2414
 4610SOL     OW25288   3.459   1.315   7.946 -0.3702 -0.6543 -0.4559
 4610SOL    HW125289   3.502   1.377   7.886 -0.1376  0.4224  0.8183
 4610SOL    HW225290   3.391   1.372   7.981 -0.7108 -0.0188 -2.1685
 4611SOL     OW25291   1.884   0.290   3.123 -0.2893  0.0172  0.1718
 4611SOL    HW125292   1.966   0.261   3.164  0.1167  1.0757  0.1313
 4611SOL    HW225293   1.905   0.383   3.135 -2.2589  0.3622  0.9689
 4612SOL     OW25294   0.237   2.446   5.208 -0.5129 -0.3103  0.3984
 4612SOL    HW125295   0.317   2.499   5.204  0.6264 -1.9782  1.2277
 4612SOL    HW225296   0.201   2.481   5.126  1.1069 -1.9741 -1.0389
 4613SOL     OW25297   0.144   3.465  11.658  0.0942 -0.0024 -0.3033
 4613SOL    HW125298   0.176   3.432  11.575 -3.1129  0.4776 -1.7486
 4613SOL    HW225299   0.178   3.408  11.727  0.5707 -0.0224 -0.5607
 4614SOL     OW25300   0.086   0.978  13.671  0.8348  0.1701 -0.0291
 4614SOL    HW125301   0.102   0.957  13.579 -0.3886 -3.0002  0.5006
 4614SOL    HW225302   0.086   1.074  13.679  0.8405  0.1942 -0.3062
 4615SOL     OW25303   0.234   2.804   2.347  0.0167 -0.5355  0.0647
 4615SOL    HW125304   0.257   2.769   2.261 -0.0777 -1.2765  0.3438
 4615SOL    HW225305   0.160   2.748   2.370  0.7841 -2.0978 -1.2325
 4616SOL     OW25306   1.180   1.414   8.420  0.3216  0.9326 -0.0579
 4616SOL    HW125307   1.212   1.466   8.346  0.2863  0.4578 -0.4062
 4616SOL    HW225308   1.239   1.339   8.409 -0.5107  0.4160 -1.0106
 4617SOL     OW25309   3.110   2.579   7.467 -0.3355  0.1578 -0.7502
 4617SOL    HW125310   3.067   2.663   7.450 -2.4809 -0.6081  0.8143
 4617SOL    HW225311   3.200   2.610   7.465 -0.1208 -0.5369 -1.7450
 4618SOL     OW25312   2.314   1.933   3.463 -0.2343  1.1836 -0.0526
 4618SOL    HW125313   2.291   2.019   3.498 -0.8626  0.9832  0.0293
 4618SOL    HW225314   2.389   1.906   3.516 -2.5295 -0.9117  2.1480
 4619SOL     OW25315   2.792   4.208   3.081  0.0886 -0.4397  0.3361
 4619SOL    HW125316   2.864   4.234   3.138  2.7925 -3.3153 -1.7305
 4619SOL    HW225317   2.837   4.210   2.996 -0.3186  0.8639  0.1581
 4620SOL     OW25318   0.817   0.485  14.896  0.6672 -0.6554  0.2819
 4620SOL    HW125319   0.850   0.528  14.975 -2.7258  1.0655  0.7517
 4620SOL    HW225320   0.749   0.551  14.881  0.8663 -0.6336 -0.5366
 4621SOL     OW25321   1.702   4.435  11.084 -0.3582  0.1852 -0.0300
 4621SOL    HW125322   1.688   4.468  11.173  0.4523  0.6837 -0.0795
 4621SOL    HW225323   1.754   4.357  11.105 -1.8058 -0.5302  0.8893
 4622SOL     OW25324   3.632   0.425   9.162 -0.0549  0.0297  0.3616
 4622SOL    HW125325   3.607   0.337   9.136  0.3641  0.6809 -2.2295
 4622SOL    HW225326   3.547   0.469   9.168 -0.2549 -0.1316 -1.2757
 4623SOL     OW25327   4.129   0.478   2.402 -0.0511 -0.2931 -0.2702
 4623SOL    HW125328   4.135   0.571   2.426 -0.1595 -0.6343  1.1049
 4623SOL    HW225329   4.036   0.459   2.393 -0.0013 -1.1700  1.0838
 4624SOL     OW25330   0.661   3.764   4.190  0.5699  0.1206  0.2742
 4624SOL    HW125331   0.685   3.672   4.206 -3.1324 -0.8823  0.0569
 4624SOL    HW225332   0.586   3.768   4.249 -0.5878 -2.7913 -0.9851
 4625SOL     OW25333   3.297   2.858   7.554  0.0147  0.5791  0.4009
 4625SOL    HW125334   3.313   2.791   7.621 -1.1456  0.3856  0.4902
 4625SOL    HW225335   3.263   2.931   7.606 -2.1654 -0.5678  0.6291
 4626SOL     OW25336   1.385   1.462   3.145 -0.2067 -0.3567  0.1637
 4626SOL    HW125337   1.436   1.532   3.105 -1.5645  1.3209  1.3875
 4626SOL    HW225338   1.426   1.385   3.106  4.0071  1.3475  1.2639
 4627SOL     OW25339   0.162   3.454   2.985  0.0793 -0.0742  0.0461
 4627SOL    HW125340   0.256   3.435   2.982  0.0776 -0.1348  0.3701
 4627SOL    HW225341   0.146   3.515   3.057 -2.4795 -1.8587  0.9893
 4628SOL     OW25342   0.127   4.620   2.409 -0.2936 -0.1652  0.0921
 4628SOL    HW125343   0.116   4.533   2.445  3.4054  0.5948  2.9705
 4628SOL    HW225344   0.135   4.680   2.483  1.1214 -0.5997  0.2909
 4629SOL     OW25345   3.096   3.341   3.302  0.0439 -0.2476 -0.6973
 4629SOL    HW125346   3.063   3.252   3.316  0.6487 -0.4376 -0.4905
 4629SOL    HW225347   3.173   3.343   3.359  0.4332  1.1058 -1.2681
 4630SOL     OW25348   3.502   2.553   3.424 -0.0020  0.4691  0.2698
 4630SOL    HW125349   3.553   2.547   3.342  0.5796  1.0772  0.5882
 4630SOL    HW225350   3.564   2.539   3.496 -0.7483  0.2798  0.8714
 4631SOL     OW25351   2.290   2.210   3.570 -0.4796  0.4124 -0.2619
 4631SOL    HW125352   2.384   2.219   3.588 -0.6797  2.3358 -0.1960
 4631SOL    HW225353   2.268   2.296   3.536  0.6504 -0.2892 -2.7737
 4632SOL     OW25354   3.555   3.862   2.249  0.7482  0.4377 -0.5381
 4632SOL    HW125355   3.473   3.823   2.220  1.2038  0.4839 -1.8755
 4632SOL    HW225356   3.541   3.955   2.232  0.0355  0.4905  0.3872
 4633SOL     OW25357   4.561   0.752   7.212 -0.1127 -0.2943 -0.0440
 4633SOL    HW125358   4.469   0.770   7.230 -0.8092 -2.0196 -1.9018
 4633SOL    HW225359   4.566   0.660   7.238 -2.7621 -0.5971 -0.6907
 4634SOL     OW25360   3.015   0.091   1.081  0.2183  0.0812 -0.1610
 4634SOL    HW125361   2.991   0.114   1.170  0.7068 -1.3434  0.3431
 4634SOL    HW225362   3.015   4.720   1.088  0.6680  0.0832 -0.1657
 4635SOL     OW25363   3.659   0.354   7.170  0.4676  0.6268  0.4013
 4635SOL    HW125364   3.571   0.318   7.185  0.9672 -1.4122 -1.5375
 4635SOL    HW225365   3.664   0.411   7.246 -0.3573 -1.4387  2.0053
 4636SOL     OW25366   3.007   4.721   4.993  0.0991 -0.2770 -0.0387
 4636SOL    HW125367   2.975   4.654   4.932 -0.3549 -0.8710  0.8631
 4636SOL    HW225368   2.970   0.080   4.965  2.5532  0.5780 -0.7517
 4637SOL     OW25369   0.605   2.526   8.325 -0.2451 -0.3707  0.1714
 4637SOL    HW125370   0.618   2.452   8.385 -1.5455  1.5893  2.8481
 4637SOL    HW225371   0.681   2.515   8.268 -1.6911 -1.6729 -1.4988
 4638SOL     OW25372   3.546   0.870   1.345  0.0819 -0.8501  0.4174
 4638SOL    HW125373   3.525   0.800   1.284 -0.4341 -1.0288  0.7981
 4638SOL    HW225374   3.629   0.899   1.307 -0.7784  0.1277 -0.7139
 4639SOL     OW25375   2.527   3.032  15.461  0.1518  0.5433 -0.7980
 4639SOL    HW125376   2.597   3.020  15.397 -2.4836  0.2225 -3.6480
 4639SOL    HW225377   2.447   3.040  15.408 -1.7675  0.0833  2.0402
 4640SOL     OW25378   3.780   3.333  16.246  0.2714  0.3699 -0.1165
 4640SOL    HW125379   3.849   3.291  16.297  1.7150  1.7655 -0.9533
 4640SOL    HW225380   3.701   3.289  16.280  0.7008 -1.1267 -1.0421
 4641SOL     OW25381   2.713   3.201   0.522 -0.3840 -0.5293 -0.1940
 4641SOL    HW125382   2.742   3.119   0.562  1.7095  0.7567  0.9155
 4641SOL    HW225383   2.781   3.258   0.556 -0.5661 -1.5614  1.8942
 4642SOL     OW25384   1.014   2.819  15.407  0.0700 -0.5894 -0.6750
 4642SOL    HW125385   1.109   2.831  15.406  0.0716 -0.4454  0.7476
 4642SOL    HW225386   0.992   2.776  15.325 -0.2224 -1.4555 -0.1441
 4643SOL     OW25387   1.616   2.449  17.472 -0.2335 -0.3805 -0.3085
 4643SOL    HW125388   1.675   2.518  17.502 -1.7793  0.7812  0.0389
 4643SOL    HW225389   1.673   2.384  17.431  1.1001 -0.3268  1.4698
 4644SOL     OW25390   4.174   0.970  11.907 -0.5771  0.3337  0.5622
 4644SOL    HW125391   4.099   1.011  11.863 -1.0212 -1.9176 -0.7806
 4644SOL    HW225392   4.228   0.967  11.828  0.8151  1.0968  1.4868
 4645SOL     OW25393   2.060   0.742  14.771  0.5783  0.8470 -0.0318
 4645SOL    HW125394   2.060   0.786  14.686  1.9042 -0.0515 -0.5092
 4645SOL    HW225395   2.038   0.813  14.831 -1.6945 -0.0155  0.1336
 4646SOL     OW25396   2.829   4.682   4.336  0.0744 -0.2424 -0.0159
 4646SOL    HW125397   2.913   4.641   4.357 -0.4014 -1.2049  0.0200
 4646SOL    HW225398   2.776   4.604   4.319 -0.4142 -0.0209  0.4796
 4647SOL     OW25399   0.667   0.865  12.901  0.1046 -0.0046 -0.1071
 4647SOL    HW125400   0.588   0.852  12.953  0.7265 -0.4039  0.7432
 4647SOL    HW225401   0.639   0.839  12.813  0.8838  1.9296 -0.9522
 4648SOL     OW25402   3.633   0.865  14.644  0.3929  0.1392 -0.0740
 4648SOL    HW125403   3.608   0.902  14.729  0.7144 -1.6045  0.7828
 4648SOL    HW225404   3.722   0.896  14.626  1.2700 -0.9570  2.3522
 4649SOL     OW25405   2.916   0.411   3.102  0.9484  0.1520 -0.0416
 4649SOL    HW125406   2.888   0.382   3.016 -0.7286  1.3210  0.0931
 4649SOL    HW225407   2.855   0.368   3.162  1.0573  0.8487  0.5817
 4650SOL     OW25408   1.575   1.405   7.285 -0.3584  0.4401 -0.2528
 4650SOL    HW125409   1.487   1.393   7.250 -0.3605  0.1304 -0.1375
 4650SOL    HW225410   1.623   1.325   7.265  0.4804  0.6901  0.7265
 4651SOL     OW25411   2.488   3.375   1.250 -0.5408  0.3474  0.0097
 4651SOL    HW125412   2.409   3.425   1.272 -0.8364 -0.1087 -0.0125
 4651SOL    HW225413   2.541   3.453   1.230  0.5387 -0.5546 -0.6313
 4652SOL     OW25414   1.641   2.881   6.410  0.8445  0.2822  0.7617
 4652SOL    HW125415   1.685   2.849   6.331  0.5919  2.0247 -0.0803
 4652SOL    HW225416   1.635   2.972   6.381 -0.4000 -0.6003 -1.7863
 4653SOL     OW25417   4.324   3.198   3.532  0.0814 -0.0669 -0.0401
 4653SOL    HW125418   4.252   3.259   3.546  0.5160  0.6256 -0.8093
 4653SOL    HW225419   4.278   3.134   3.478 -0.0896 -1.9535  2.3233
 4654SOL     OW25420   0.337   1.048   1.050  0.6126 -0.7649  0.5765
 4654SOL    HW125421   0.367   1.009   0.968  0.9129 -0.4448  0.5329
 4654SOL    HW225422   0.299   0.970   1.091 -2.6664  0.1207 -0.7540
 4655SOL     OW25423   0.464   2.731  14.044 -0.0263 -0.3125 -0.1510
 4655SOL    HW125424   0.460   2.794  14.116  0.3301 -1.9748  1.3009
 4655SOL    HW225425   0.374   2.697  14.045  0.4586 -1.4926  1.6198
 4656SOL     OW25426   1.749   3.045   7.227 -0.4459  0.3081  0.1728
 4656SOL    HW125427   1.715   3.092   7.152  0.4413 -0.5416 -0.7578
 4656SOL    HW225428   1.767   2.958   7.190 -1.7402  0.8510 -1.6797
 4657SOL     OW25429   2.018   2.395   6.263 -0.4343  0.6431  0.3350
 4657SOL    HW125430   2.092   2.427   6.314 -0.5274 -0.6265  1.2900
 4657SOL    HW225431   2.043   2.305   6.285 -2.4077 -0.0311 -0.1202
 4658SOL     OW25432   4.723   1.219   1.855  0.3750 -0.2972 -0.0627
 4658SOL    HW125433   0.017   1.287   1.790  1.2272 -0.1773  0.3079
 4658SOL    HW225434   4.650   1.171   1.816  0.7749 -0.6427 -0.3748
 4659SOL     OW25435   2.845   2.335  13.805  0.0815  0.0271  0.2657
 4659SOL    HW125436   2.787   2.365  13.736 -0.7418 -2.1136  0.0127
 4659SOL    HW225437   2.911   2.404  13.816 -0.0640  0.6324 -2.8328
 4660SOL     OW25438   3.236   1.090   1.677  0.3253  0.0204 -0.2248
 4660SOL    HW125439   3.189   1.035   1.740 -0.0169 -1.5636 -1.8699
 4660SOL    HW225440   3.293   1.025   1.636 -1.2513 -2.3847  1.3719
 4661SOL     OW25441   0.993   2.535   5.897  0.2635  0.2717 -0.8546
 4661SOL    HW125442   0.982   2.456   5.843 -1.4031 -0.6312  0.8259
 4661SOL    HW225443   1.078   2.570   5.870  1.1713 -1.3289 -0.0629
 4662SOL     OW25444   0.116   1.822   5.313 -0.0519 -0.0563 -0.4954
 4662SOL    HW125445   0.077   1.791   5.395  0.3622  0.2425 -0.1888
 4662SOL    HW225446   0.192   1.764   5.306 -0.4950 -0.5080 -1.6872
 4663SOL     OW25447   2.734   3.679   4.063 -0.1300 -0.0567  0.1390
 4663SOL    HW125448   2.751   3.653   3.973 -2.6308 -1.3573  0.0417
 4663SOL    HW225449   2.770   3.611   4.120 -1.6310  0.2232  1.4540
 4664SOL     OW25450   3.295   0.409   3.266 -0.3502 -0.1335 -0.4128
 4664SOL    HW125451   3.351   0.439   3.195  2.1121  0.6141  1.8392
 4664SOL    HW225452   3.219   0.383   3.214  0.7388 -0.3666 -1.8639
 4665SOL     OW25453   4.647   0.033   0.550 -0.3018  0.2833 -0.3826
 4665SOL    HW125454   4.607   0.058   0.466 -1.3664 -0.6864 -0.1745
 4665SOL    HW225455   4.608   4.671   0.563  0.3633  0.0244 -0.1030
 4666SOL     OW25456   4.154   3.968   2.966  0.1533 -0.3079 -0.1698
 4666SOL    HW125457   4.141   4.061   2.950  0.2422 -0.5406 -1.6058
 4666SOL    HW225458   4.208   3.943   2.891  0.4700  1.2522 -0.4627
 4667SOL     OW25459   3.947   4.663  15.621 -0.0310  0.1955  0.2660
 4667SOL    HW125460   4.002   4.649  15.699  0.9277  1.7261 -0.1349
 4667SOL    HW225461   3.940   4.578  15.577 -0.0764 -0.0347  0.7131
 4668SOL     OW25462   0.542   4.618   8.937  0.3054  1.0429 -0.5989
 4668SOL    HW125463   0.516   4.527   8.948 -2.0462  1.6668 -1.0706
 4668SOL    HW225464   0.629   4.619   8.977 -0.0724  0.6699  0.2242
 4669SOL     OW25465   1.887   4.625   8.934 -0.0163 -0.0575  0.1165
 4669SOL    HW125466   1.815   4.585   8.886 -1.3569  0.7347  1.4609
 4669SOL    HW225467   1.936   4.664   8.862  0.4167  0.6337  0.7797
 4670SOL     OW25468   1.378   1.118   1.735 -0.0627  0.8121  0.0710
 4670SOL    HW125469   1.450   1.163   1.693 -1.2095  0.0399 -2.7630
 4670SOL    HW225470   1.391   1.037   1.685 -1.0453 -0.1913  1.4051
 4671SOL     OW25471   3.281   0.390  14.982 -0.5195  0.1894  0.0908
 4671SOL    HW125472   3.227   0.318  15.014  0.2625  0.0616  1.0986
 4671SOL    HW225473   3.303   0.441  15.060  0.5652 -0.3472  0.1298
 4672SOL     OW25474   4.161   4.674   5.195  0.0227  0.2296  0.7310
 4672SOL    HW125475   4.181   4.589   5.157 -1.3600 -0.6834  2.0751
 4672SOL    HW225476   4.194   4.674   5.285  0.7156  1.8143  0.4867
 4673SOL     OW25477   4.461   0.065   1.009  0.3296 -0.4390 -0.3394
 4673SOL    HW125478   4.435   4.714   1.060 -0.9234  0.0681 -0.2104
 4673SOL    HW225479   4.527   0.024   0.953 -0.0810 -1.4867 -0.0382
 4674SOL     OW25480   3.593   3.015   7.476  0.6097  0.8366  0.5391
 4674SOL    HW125481   3.516   2.969   7.441  0.8480 -0.0873  1.2015
 4674SOL    HW225482   3.657   3.023   7.406 -1.2977 -0.2655 -1.3093
 4675SOL     OW25483   4.581   4.298   7.945 -0.3600  0.5313  0.6084
 4675SOL    HW125484   4.627   4.236   7.888 -2.3846  0.7793 -1.2669
 4675SOL    HW225485   4.496   4.259   7.967  0.0593 -0.1498  1.0265
 4676SOL     OW25486   3.351   0.444   8.607 -0.3669  0.2333  0.1543
 4676SOL    HW125487   3.384   0.528   8.575 -0.0503  0.4121  0.9553
 4676SOL    HW225488   3.407   0.439   8.684  0.7231 -2.4451 -0.8031
 4677SOL     OW25489   4.716   2.955   8.208 -0.3756  0.2281  0.1492
 4677SOL    HW125490   0.019   2.986   8.121  1.3258  0.7162  0.8683
 4677SOL    HW225491   4.623   2.935   8.195 -0.2225 -0.4839  0.1666
 4678SOL     OW25492   0.059   4.495   0.094  0.0474 -0.3933 -0.4696
 4678SOL    HW125493   0.151   4.518   0.083 -0.0356  0.5602  0.8683
 4678SOL    HW225494   0.004   4.564   0.056 -1.0248  0.1245  2.0446
 4679SOL     OW25495   0.200   4.370  16.270 -0.3420 -0.2906 -0.3472
 4679SOL    HW125496   0.106   4.364  16.284 -0.3188  0.6675  0.2836
 4679SOL    HW225497   0.202   4.324  16.187  0.0263  1.8225 -1.5187
 4680SOL     OW25498   1.272   2.731   4.444 -0.4046 -0.2137 -0.3674
 4680SOL    HW125499   1.224   2.806   4.409  2.8681  2.2285  0.3675
 4680SOL    HW225500   1.263   2.739   4.539 -2.0944 -1.5548 -0.4200
 4681SOL     OW25501   0.370   0.059   6.816 -0.1616 -0.1668 -0.1812
 4681SOL    HW125502   0.297   0.093   6.868 -0.8538 -0.7297 -0.7860
 4681SOL    HW225503   0.369   0.115   6.738 -1.4999  0.1730  0.0863
 4682SOL     OW25504   1.039   4.441   8.364  0.1035 -0.1960 -0.1610
 4682SOL    HW125505   1.020   4.362   8.414 -1.6700  0.1016 -0.3739
 4682SOL    HW225506   0.980   4.431   8.289 -0.5305  1.3716  0.1129
 4683SOL     OW25507   0.139   1.596   3.014  0.1183 -0.4364  0.2767
 4683SOL    HW125508   0.146   1.631   3.103  2.3010  2.4751 -1.0572
 4683SOL    HW225509   0.079   1.654   2.967 -0.7539 -1.5376  0.0288
 4684SOL     OW25510   0.519   0.832   2.914  0.5961 -0.1232  0.1436
 4684SOL    HW125511   0.534   0.869   2.827 -2.7324  1.3443  0.2185
 4684SOL    HW225512   0.531   0.738   2.903 -0.2136 -0.2017 -0.0590
 4685SOL     OW25513   3.842   3.963   6.604 -0.0130 -0.2045  0.5912
 4685SOL    HW125514   3.806   3.875   6.594 -0.1201 -0.2687  1.5471
 4685SOL    HW225515   3.855   3.994   6.514 -2.0223  2.0381  1.0782
 4686SOL     OW25516   2.533   2.319   5.381  0.4290  0.3846 -0.7045
 4686SOL    HW125517   2.492   2.370   5.312  1.3704  1.7070 -0.2719
 4686SOL    HW225518   2.472   2.345   5.449 -0.3142  2.2648 -2.1152
 4687SOL     OW25519   0.828   1.401  16.481 -0.3910  0.4359 -0.8577
 4687SOL    HW125520   0.913   1.417  16.441  0.2811  0.1425  0.4463
 4687SOL    HW225521   0.775   1.389  16.402 -1.4500  1.4111 -0.3082
 4688SOL     OW25522   1.814   0.455  11.392 -0.0981 -0.1854 -0.5898
 4688SOL    HW125523   1.871   0.525  11.425 -0.0616 -1.4418  2.0044
 4688SOL    HW225524   1.726   0.493  11.389  0.1901  0.5596  0.3153
 4689SOL     OW25525   0.027   2.948   8.979  0.1058  0.1111  0.2270
 4689SOL    HW125526   0.085   2.874   8.999 -1.4431 -1.3324 -0.6169
 4689SOL    HW225527   4.689   2.967   9.050 -1.9357  0.2234 -1.6102
 4690SOL     OW25528   0.173   1.427   0.177  0.0780 -0.1507 -0.3231
 4690SOL    HW125529   0.166   1.381   0.094  2.7611  0.9030 -1.1007
 4690SOL    HW225530   0.216   1.509   0.153 -1.6055  1.1824  1.1762
 4691SOL     OW25531   4.144   1.367   1.980 -0.1124 -0.3315 -0.9129
 4691SOL    HW125532   4.149   1.433   1.910 -0.8984  0.3937 -0.2770
 4691SOL    HW225533   4.120   1.419   2.056  2.5806 -0.6602  0.1577
 4692SOL     OW25534   3.030   0.415   9.778  0.1234  0.6552 -0.3527
 4692SOL    HW125535   3.056   0.337   9.827 -0.3388  0.4672 -0.4143
 4692SOL    HW225536   3.016   0.474   9.852  1.3600  0.0878  0.3425
 4693SOL     OW25537   3.036   0.909   4.558  0.9208 -0.2247 -0.7081
 4693SOL    HW125538   3.101   0.895   4.490  1.7356 -1.2477  0.2722
 4693SOL    HW225539   3.050   1.001   4.581 -3.6204 -0.0722  1.4166
 4694SOL     OW25540   0.526   0.183   0.613  0.6457 -0.4586  0.3264
 4694SOL    HW125541   0.449   0.230   0.580  0.3814 -0.7287  0.5542
 4694SOL    HW225542   0.521   0.222   0.700  0.0855  0.2402 -0.0106
 4695SOL     OW25543   2.463   3.291  15.510  0.7601  0.0879  1.0064
 4695SOL    HW125544   2.446   3.292  15.416 -0.2183  2.2289  1.2026
 4695SOL    HW225545   2.498   3.203  15.523  0.0430 -0.5361 -1.3039
 4696SOL     OW25546   3.382   3.375   9.886  0.6693 -0.2379 -0.0402
 4696SOL    HW125547   3.461   3.396   9.837  2.0892  0.3856  2.4781
 4696SOL    HW225548   3.329   3.454   9.875 -2.8427 -2.2889  2.0735
 4697SOL     OW25549   3.440   1.591   4.076  0.2450 -0.3548  0.6120
 4697SOL    HW125550   3.456   1.669   4.129  2.1199 -0.6548  0.4609
 4697SOL    HW225551   3.445   1.627   3.988  1.3571 -0.9374  0.4342
 4698SOL     OW25552   3.078   2.150  12.296 -0.0286 -0.2981 -0.3288
 4698SOL    HW125553   3.058   2.194  12.379  4.2934 -0.6181  0.9220
 4698SOL    HW225554   3.113   2.068  12.331  0.5840  0.9330  1.9689
 4699SOL     OW25555   0.607   2.173  13.521 -0.2087  0.0016 -0.8253
 4699SOL    HW125556   0.670   2.134  13.460  1.1432  0.6843  0.1307
 4699SOL    HW225557   0.650   2.258  13.531  1.0614 -0.8648  1.3506
 4700SOL     OW25558   4.231   3.104   2.719 -0.2633 -0.4624 -0.6064
 4700SOL    HW125559   4.311   3.155   2.703 -1.7123  1.3499 -2.1530
 4700SOL    HW225560   4.230   3.099   2.814  2.1772 -2.3634 -0.6905
 4701SOL     OW25561   3.790   2.821  13.032  0.1336  0.0363 -0.2096
 4701SOL    HW125562   3.815   2.730  13.046 -1.1844 -0.6275 -2.1578
 4701SOL    HW225563   3.731   2.816  12.957 -0.8645  0.2181  0.5625
 4702SOL     OW25564   1.733   3.297   2.082  0.1304 -0.5698  0.0630
 4702SOL    HW125565   1.705   3.383   2.050  3.3969  0.7276  0.7234
 4702SOL    HW225566   1.671   3.243   2.033 -1.1598 -1.7621  2.9993
 4703SOL     OW25567   1.317   2.059   4.865 -0.7452  0.1207  0.1739
 4703SOL    HW125568   1.399   2.107   4.877  0.4979 -1.6607 -1.4162
 4703SOL    HW225569   1.348   1.984   4.816 -0.5176  0.3525 -0.0357
 4704SOL     OW25570   1.061   4.309   3.750 -0.0452  0.0735  0.4904
 4704SOL    HW125571   1.136   4.314   3.809  0.8625  1.6417 -0.7847
 4704SOL    HW225572   1.049   4.400   3.723  1.2244 -0.1128 -0.7263
 4705SOL     OW25573   2.772   0.111   7.453 -0.1793  0.5142 -0.0153
 4705SOL    HW125574   2.785   0.076   7.364  1.0175 -0.0939  0.4025
 4705SOL    HW225575   2.807   0.200   7.442 -0.5134  0.5386 -0.8930
 4706SOL     OW25576   1.527   4.481   6.021 -0.1114  0.1555 -0.2595
 4706SOL    HW125577   1.474   4.559   6.005  0.2397  0.0390 -1.9253
 4706SOL    HW225578   1.557   4.490   6.112  1.8332 -0.3464 -0.8416
 4707SOL     OW25579   1.966   2.783   2.788  0.3808 -0.2994 -0.6004
 4707SOL    HW125580   1.882   2.806   2.749  0.7234  0.0264 -1.1586
 4707SOL    HW225581   1.995   2.866   2.824  0.2056 -0.1539 -0.7959
 4708SOL     OW25582   1.653   3.681   2.226 -0.4097 -0.0996  0.2812
 4708SOL    HW125583   1.575   3.730   2.250 -0.0833  0.7201 -0.3312
 4708SOL    HW225584   1.650   3.612   2.292  1.6405  0.6401  1.1444
 4709SOL     OW25585   0.380   0.193  11.207  0.2208  0.3260 -0.1921
 4709SOL    HW125586   0.402   0.257  11.139  1.4085 -0.3445 -0.4312
 4709SOL    HW225587   0.472   0.166  11.206  0.1555  0.1638 -1.9651
 4710SOL     OW25588   4.078   3.969  13.391 -0.3326  0.0155 -0.5234
 4710SOL    HW125589   4.067   3.883  13.351  0.5793  0.0836 -0.9031
 4710SOL    HW225590   3.984   3.986  13.405  0.1455  4.0263 -2.0649
 4711SOL     OW25591   1.047   4.043   9.076 -0.2695 -0.2577  0.0825
 4711SOL    HW125592   1.000   3.978   9.024 -3.0225 -0.8807  3.3246
 4711SOL    HW225593   1.015   4.129   9.048  1.2305 -0.0333 -0.9630
 4712SOL     OW25594   3.340   1.839   2.089 -0.6849  0.2063  0.6217
 4712SOL    HW125595   3.388   1.766   2.048 -1.4770 -0.3329  0.6620
 4712SOL    HW225596   3.406   1.882   2.143  2.3026 -1.1210 -1.9328
 4713SOL     OW25597   0.480   3.122   3.093 -0.0543 -0.1175  0.3453
 4713SOL    HW125598   0.441   3.150   3.176  0.6938  3.4065 -0.5166
 4713SOL    HW225599   0.397   3.136   3.048  0.5344 -2.2224 -1.3683
 4714SOL     OW25600   2.650   4.313   7.813 -0.2524  0.2482 -0.0224
 4714SOL    HW125601   2.744   4.326   7.819 -0.1730  0.6545 -2.2317
 4714SOL    HW225602   2.638   4.279   7.724  0.1668  1.0289 -0.3713
 4715SOL     OW25603   0.089   3.939   5.372  0.0574 -0.0742 -0.1470
 4715SOL    HW125604   0.131   3.873   5.317 -2.7089 -0.8092 -1.3729
 4715SOL    HW225605   0.129   4.015   5.330  0.4787  0.2096  0.7730
 4716SOL     OW25606   0.787   3.571  14.072  0.0008  0.1630 -0.1490
 4716SOL    HW125607   0.749   3.592  14.157  1.9155  3.3313 -0.0502
 4716SOL    HW225608   0.715   3.582  14.010 -0.2192  1.9531  0.4352
 4717SOL     OW25609   1.808   4.677   2.084  0.0451  0.0315 -0.0638
 4717SOL    HW125610   1.815   4.631   2.000 -1.1849 -0.6873  0.2259
 4717SOL    HW225611   1.717   4.705   2.086 -0.3436 -1.2955  0.7089
 4718SOL     OW25612   3.415   3.223   7.269  0.3661 -0.1845 -0.0980
 4718SOL    HW125613   3.346   3.268   7.317  0.3145 -0.4693  0.0891
 4718SOL    HW225614   3.420   3.142   7.320 -0.0928 -1.1269 -1.5373
 4719SOL     OW25615   1.625   0.438   0.226  0.3453 -0.1494 -0.0616
 4719SOL    HW125616   1.621   0.446   0.321  2.6405 -2.3694  0.2300
 4719SOL    HW225617   1.697   0.494   0.198  0.7539  0.2982  1.9241
 4720SOL     OW25618   4.620   4.296   8.752  0.3973  0.1268  0.0856
 4720SOL    HW125619   4.638   4.259   8.666  1.1085 -0.3058  0.4192
 4720SOL    HW225620   4.539   4.248   8.772 -0.0181  1.3582  1.3766
 4721SOL     OW25621   4.309   0.718  13.993 -0.6827  0.1576  0.6337
 4721SOL    HW125622   4.296   0.705  13.900  3.4191 -1.3251  0.2922
 4721SOL    HW225623   4.399   0.750  13.993 -0.3449 -0.8490 -0.8824
 4722SOL     OW25624   2.105   0.532   3.554 -0.3119 -0.0355 -0.0156
 4722SOL    HW125625   2.023   0.483   3.546 -0.3699  0.2316 -1.0287
 4722SOL    HW225626   2.127   0.553   3.463  1.0219  1.0895  0.5692
 4723SOL     OW25627   3.605   3.596   6.361 -0.1615  0.6665  0.2925
 4723SOL    HW125628   3.599   3.634   6.273 -0.9152  0.2537  0.1631
 4723SOL    HW225629   3.514   3.603   6.389 -0.3179 -0.1716 -0.0085
 4724SOL     OW25630   4.051   1.313   6.543 -0.2716 -0.1802  0.1500
 4724SOL    HW125631   4.076   1.272   6.626 -0.8701  0.3239  0.5825
 4724SOL    HW225632   4.071   1.403   6.570 -1.5024  0.0132  0.4326
 4725SOL     OW25633   2.853   3.143   7.374 -0.2170  0.7207 -0.2849
 4725SOL    HW125634   2.940   3.114   7.402 -1.5446 -2.6120  0.3371
 4725SOL    HW225635   2.862   3.128   7.280 -3.5678  1.9910 -0.8045
 4726SOL     OW25636   0.046   3.260   5.182 -0.2191  0.0787  0.4840
 4726SOL    HW125637   4.684   3.220   5.191 -0.2294 -0.4046 -1.8150
 4726SOL    HW225638   0.076   3.246   5.272 -0.8504 -0.7534  0.5759
 4727SOL     OW25639   0.837   0.504  16.988  0.2561 -0.8493 -0.4227
 4727SOL    HW125640   0.901   0.490  16.918 -0.5980  1.6531 -1.6752
 4727SOL    HW225641   0.768   0.517  16.924 -3.1538  0.7195  3.6066
 4728SOL     OW25642   0.756   1.019   6.606  0.2710  0.2808  0.7141
 4728SOL    HW125643   0.776   1.029   6.513  0.7418  1.9050  0.9821
 4728SOL    HW225644   0.818   0.956   6.643 -0.9525 -0.3897  1.6081
 4729SOL     OW25645   2.710   0.215   3.172  0.9477  0.4736  0.0587
 4729SOL    HW125646   2.642   0.274   3.139  0.9689  1.0840  1.1065
 4729SOL    HW225647   2.657   0.137   3.154  2.8527 -1.0994  1.2186
 4730SOL     OW25648   3.856   1.785   6.392  0.4209  0.1887  0.2598
 4730SOL    HW125649   3.793   1.769   6.322 -1.4109  0.9769  1.7284
 4730SOL    HW225650   3.811   1.751   6.469 -1.6502  1.3660 -0.4483
 4731SOL     OW25651   1.465   4.412  13.676 -0.6698  0.1808 -0.0852
 4731SOL    HW125652   1.447   4.498  13.639 -2.0337  0.7089  1.7869
 4731SOL    HW225653   1.544   4.393  13.626 -0.3573  0.0545  0.4595
 4732SOL     OW25654   3.536   3.382   0.845  0.6638 -0.5686  0.5709
 4732SOL    HW125655   3.467   3.368   0.780  0.8897  1.0754 -0.0225
 4732SOL    HW225656   3.550   3.289   0.863 -0.4733 -0.4774  1.9902
 4733SOL     OW25657   1.760   2.883  10.106  0.5966  0.4959 -0.3483
 4733SOL    HW125658   1.746   2.789  10.094 -1.3573  0.8938 -1.1733
 4733SOL    HW225659   1.683   2.900  10.160  0.4289  0.6226 -0.6266
 4734SOL     OW25660   3.814   2.587   7.092 -0.3124  0.1935 -0.4500
 4734SOL    HW125661   3.848   2.525   7.156  2.9753  3.6577  1.1735
 4734SOL    HW225662   3.894   2.585   7.039  1.1139  0.3038  1.7097
 4735SOL     OW25663   0.784   3.077   3.807  0.9605 -0.0259  0.0128
 4735SOL    HW125664   0.827   3.074   3.892  1.1137 -0.0743 -0.0658
 4735SOL    HW225665   0.796   2.986   3.780  0.9884  0.0163 -0.1194
 4736SOL     OW25666   2.840   2.547  10.837 -0.4923  0.2127 -0.4400
 4736SOL    HW125667   2.775   2.614  10.858 -0.3190  0.7604 -1.6559
 4736SOL    HW225668   2.917   2.603  10.835 -0.3290 -0.1386 -3.0970
 4737SOL     OW25669   4.071   1.070   1.100 -0.5239 -0.1060  0.0224
 4737SOL    HW125670   4.128   1.066   1.177 -0.4145  1.6287  0.0205
 4737SOL    HW225671   3.987   1.063   1.145 -1.3862 -0.0346 -1.5648
 4738SOL     OW25672   1.405   1.269   8.381 -0.2523 -0.8812 -0.4339
 4738SOL    HW125673   1.499   1.272   8.359 -0.4371 -2.2079 -1.3882
 4738SOL    HW225674   1.389   1.192   8.327 -0.6522 -1.7850  0.9791
 4739SOL     OW25675   1.776   4.001  10.935 -0.0776  0.1144  0.1378
 4739SOL    HW125676   1.788   4.040  10.848  0.4967  1.5651  0.8596
 4739SOL    HW225677   1.685   4.022  10.953  0.0239 -0.4253  1.2708
 4740SOL     OW25678   4.466   0.152  17.163 -1.3655  0.7603  0.0290
 4740SOL    HW125679   4.433   0.223  17.219 -0.5923  1.1377 -0.0004
 4740SOL    HW225680   4.387   0.100  17.177  0.6709 -2.5447 -0.9416
 4741SOL     OW25681   2.585   1.621   2.054  0.4078 -0.3566  0.6270
 4741SOL    HW125682   2.674   1.657   2.053  0.8292 -1.4289 -0.3142
 4741SOL    HW225683   2.565   1.632   2.147  0.8705 -1.2276  0.8271
 4742SOL     OW25684   0.083   2.017  13.904  0.1871  0.2873  0.1620
 4742SOL    HW125685   0.052   2.015  13.814  0.7991 -0.4009 -0.0382
 4742SOL    HW225686   0.128   2.101  13.902 -0.9084  0.9086  1.8160
 4743SOL     OW25687   3.088   0.352  10.816  0.2661  0.6553 -0.5790
 4743SOL    HW125688   3.123   0.286  10.756  0.1242  0.2089 -0.1632
 4743SOL    HW225689   3.130   0.434  10.789 -0.8809  1.3346 -0.3003
 4744SOL     OW25690   4.693   2.560   5.501 -0.2763  0.2941  0.1151
 4744SOL    HW125691   0.023   2.633   5.471  2.1917 -0.9643  1.5494
 4744SOL    HW225692   0.018   2.545   5.581 -1.7206  0.1357  0.9586
 4745SOL     OW25693   3.647   4.562   5.269 -0.8211  0.1291 -0.0051
 4745SOL    HW125694   3.637   4.470   5.242  0.2265 -0.3173  1.0992
 4745SOL    HW225695   3.721   4.592   5.216 -0.4310  0.7283  0.8804
 4746SOL     OW25696   3.713   3.045   6.998  0.2000  0.1280  0.7327
 4746SOL    HW125697   3.756   3.065   6.915  0.1483  3.6396  1.5652
 4746SOL    HW225698   3.669   2.962   6.977 -0.1027  0.6701 -0.8075
 4747SOL     OW25699   2.503   1.343  12.581  0.3774  0.6536  0.0132
 4747SOL    HW125700   2.463   1.261  12.552 -0.2461  0.3191  1.8064
 4747SOL    HW225701   2.437   1.402  12.546  1.0523  0.5370 -1.4441
 4748SOL     OW25702   4.516   4.674   2.853 -0.0302  0.5098 -0.0763
 4748SOL    HW125703   4.543   0.040   2.839 -2.5317  1.3399  0.5254
 4748SOL    HW225704   4.578   4.629   2.795 -1.1906  0.4611 -1.3081
 4749SOL     OW25705   4.293   3.032   4.832  0.5713 -0.3391 -0.7003
 4749SOL    HW125706   4.353   3.061   4.764  1.4925 -1.3421 -0.3197
 4749SOL    HW225707   4.222   2.994   4.780  1.7653  0.1564 -2.6882
 4750SOL     OW25708   1.942   3.424   3.864 -0.1003  0.5660  0.1805
 4750SOL    HW125709   2.000   3.496   3.888 -1.7021  1.1876  2.2410
 4750SOL    HW225710   1.927   3.381   3.949 -0.5095 -1.1581 -0.7499
 4751SOL     OW25711   0.549   0.398   4.872  0.0226 -0.4088 -0.0944
 4751SOL    HW125712   0.583   0.482   4.903  2.7510 -1.1006 -1.2058
 4751SOL    HW225713   0.535   0.346   4.951  1.2312 -0.7812 -0.1262
 4752SOL     OW25714   2.321   2.619   9.218  0.1272  0.4243  0.4484
 4752SOL    HW125715   2.288   2.709   9.218 -0.5782  0.1588  0.0667
 4752SOL    HW225716   2.247   2.574   9.258  2.7204 -3.1355  1.2376
 4753SOL     OW25717   3.270   1.397  13.764  0.6719  0.2152  0.0287
 4753SOL    HW125718   3.186   1.443  13.754  0.6698  0.9559  3.5951
 4753SOL    HW225719   3.337   1.463  13.745  0.2894  1.3382  2.6649
 4754SOL     OW25720   1.688   0.554   6.090 -0.6576 -0.0603 -0.1795
 4754SOL    HW125721   1.617   0.615   6.110 -0.4891 -0.2842  1.1112
 4754SOL    HW225722   1.732   0.533   6.173  1.4902  2.4525 -0.6744
 4755SOL     OW25723   0.917   4.695  15.186  1.0318 -0.6552 -0.3789
 4755SOL    HW125724   0.855   4.658  15.249 -0.8050  2.3286 -0.4839
 4755SOL    HW225725   0.904   4.643  15.106  1.1414  0.3579 -1.0531
 4756SOL     OW25726   4.059   4.493   7.512  0.5051 -0.0945 -0.2253
 4756SOL    HW125727   4.071   4.480   7.606 -0.0784  0.9406 -0.0094
 4756SOL    HW225728   3.966   4.469   7.510 -0.0898  2.2456 -1.0729
 4757SOL     OW25729   2.132   3.250   8.402  0.3608 -0.7931 -0.2383
 4757SOL    HW125730   2.043   3.281   8.411 -0.1793 -2.0166 -1.3684
 4757SOL    HW225731   2.122   3.160   8.432 -1.3484 -0.5646 -0.1643
 4758SOL     OW25732   2.578   0.046   6.876 -0.0582  0.1472  0.1799
 4758SOL    HW125733   2.569   0.131   6.833  1.9213  0.7388  0.9627
 4758SOL    HW225734   2.669   0.028   6.897  0.0935  0.1074 -0.5457
 4759SOL     OW25735   0.870   1.988   3.960 -0.0899 -0.2991 -0.0183
 4759SOL    HW125736   0.785   2.007   4.000 -0.6834 -1.5840 -0.6417
 4759SOL    HW225737   0.929   2.046   4.008 -0.2327  0.6272 -0.9677
 4760SOL     OW25738   0.028   2.001  16.599  0.3171 -0.6620  0.5011
 4760SOL    HW125739   0.078   1.969  16.524  0.7909  0.8558  0.1580
 4760SOL    HW225740   0.079   2.082  16.606 -2.1900  1.2810 -3.5308
 4761SOL     OW25741   4.579   3.665   2.175 -0.0109  1.0815  1.2690
 4761SOL    HW125742   4.499   3.702   2.139  0.3244  0.5980  0.0160
 4761SOL    HW225743   4.620   3.634   2.095  2.3858 -0.2566  3.0077
 4762SOL     OW25744   2.027   1.950  12.651  0.1990  0.3667 -0.5472
 4762SOL    HW125745   2.087   2.023  12.633 -1.4332  2.1104  1.1278
 4762SOL    HW225746   2.058   1.909  12.731 -0.0521  3.9758  1.3841
 4763SOL     OW25747   0.526   3.927   7.519  0.2830 -0.2203 -0.1891
 4763SOL    HW125748   0.574   3.922   7.602 -0.4845  2.2022  0.3948
 4763SOL    HW225749   0.520   4.021   7.504  0.6061 -0.1081  0.3908
 4764SOL     OW25750   3.424   4.240  15.212 -0.1696  0.5829  0.2491
 4764SOL    HW125751   3.491   4.243  15.143  0.0475 -2.6057  0.3325
 4764SOL    HW225752   3.450   4.322  15.254 -0.4527  1.3190 -0.9985
 4765SOL     OW25753   1.375   1.026   0.971  0.1700  0.5992  0.3614
 4765SOL    HW125754   1.395   0.947   1.021 -0.4172  1.3965  1.8440
 4765SOL    HW225755   1.368   0.988   0.883 -0.3792  0.8432  0.3022
 4766SOL     OW25756   3.633   0.726   3.539  0.0643  0.5460 -0.1365
 4766SOL    HW125757   3.600   0.653   3.591  0.0869 -0.2524 -1.2309
 4766SOL    HW225758   3.722   0.745   3.567  0.3532 -0.3845 -0.4197
 4767SOL     OW25759   2.833   2.468   5.251  0.1459  0.9820 -0.3731
 4767SOL    HW125760   2.805   2.459   5.159  1.0057  3.1733 -0.8564
 4767SOL    HW225761   2.916   2.512   5.230  1.9528 -1.5754  1.4966
 4768SOL     OW25762   1.219   0.209   6.003  0.0447  0.6955  0.2764
 4768SOL    HW125763   1.271   0.138   6.040 -0.3078  0.8413  1.0569
 4768SOL    HW225764   1.141   0.201   6.058 -1.9025  3.0486 -2.1397
 4769SOL     OW25765   0.609   1.465   1.605 -0.2170 -0.1511 -0.1772
 4769SOL    HW125766   0.593   1.464   1.699 -1.5884  0.7771 -0.4123
 4769SOL    HW225767   0.558   1.388   1.579 -2.0632  1.3058 -0.8397
 4770SOL     OW25768   1.854   0.131   2.579  0.1448 -0.1216  0.2906
 4770SOL    HW125769   1.826   0.102   2.492  1.2357 -1.6458  0.4437
 4770SOL    HW225770   1.777   0.117   2.634 -0.1678 -1.2137 -0.4214
 4771SOL     OW25771   3.416   1.670   3.811 -0.1109 -0.2524  0.4355
 4771SOL    HW125772   3.477   1.609   3.770 -1.5468  0.3227 -2.5311
 4771SOL    HW225773   3.360   1.687   3.735  2.0135  1.5234 -0.7426
 4772SOL     OW25774   0.057   3.799   6.723  0.0993  0.2916  0.6701
 4772SOL    HW125775   0.053   3.753   6.639  1.1722 -1.6321  1.6489
 4772SOL    HW225776   0.098   3.726   6.770 -0.4595  1.0023  2.2673
 4773SOL     OW25777   3.899   4.604  12.469 -0.0666 -0.5303 -1.1468
 4773SOL    HW125778   3.957   4.541  12.427  0.8109 -2.3744  2.8705
 4773SOL    HW225779   3.875   4.662  12.397  0.3696  0.5567 -0.4163
 4774SOL     OW25780   0.197   0.137   1.813 -0.2580 -0.1166  0.6506
 4774SOL    HW125781   0.159   0.207   1.759 -0.1233 -0.5371  0.0122
 4774SOL    HW225782   0.132   0.069   1.796  1.3506 -1.2004 -1.2174
 4775SOL     OW25783   1.669   3.426   7.741 -0.4527  0.2846  0.2125
 4775SOL    HW125784   1.715   3.497   7.785 -0.7611  0.1818  0.6907
 4775SOL    HW225785   1.654   3.360   7.809  0.7759  2.2550  2.3967
 4776SOL     OW25786   1.079   4.440   7.592  0.0301 -0.1737 -0.0154
 4776SOL    HW125787   1.169   4.449   7.558  0.6098 -1.8810  1.1055
 4776SOL    HW225788   1.063   4.346   7.592  0.9088 -0.3203  1.9197
 4777SOL     OW25789   2.366   0.717   8.957 -0.1575  0.4496  0.4412
 4777SOL    HW125790   2.291   0.691   9.010 -1.1433  1.4742 -0.4577
 4777SOL    HW225791   2.419   0.780   9.004  1.8679  0.1453 -1.4049
 4778SOL     OW25792   2.347   1.425   0.961  0.2503  0.0893  0.9242
 4778SOL    HW125793   2.291   1.492   0.922  0.7297 -0.1585 -0.2080
 4778SOL    HW225794   2.377   1.464   1.044  0.1683 -0.8353  1.3844
 4779SOL     OW25795   0.487   3.363   4.801  0.2681  0.0708  0.6503
 4779SOL    HW125796   0.426   3.409   4.744  2.0303  2.3961  0.6531
 4779SOL    HW225797   0.469   3.405   4.885 -1.4742 -0.3382  0.4702
 4780SOL     OW25798   0.902   3.363   1.974 -0.8916 -0.5425  0.1115
 4780SOL    HW125799   0.882   3.280   1.929 -1.4726 -1.2697  1.7088
 4780SOL    HW225800   0.816   3.405   1.970 -0.3473  0.4542 -0.9608
 4781SOL     OW25801   4.699   1.820   7.125  0.0119  0.1673  0.5293
 4781SOL    HW125802   0.034   1.746   7.123 -0.3332 -0.1150  0.7313
 4781SOL    HW225803   4.630   1.785   7.069  0.9836  0.2833 -0.7460
 4782SOL     OW25804   4.411   1.371   1.393  0.1972  0.7814  0.3519
 4782SOL    HW125805   4.502   1.399   1.389  0.7586 -1.2111 -0.3659
 4782SOL    HW225806   4.384   1.416   1.474 -1.1986 -2.7092  1.8168
 4783SOL     OW25807   0.330   2.743   7.297  0.1419  0.0251  0.5057
 4783SOL    HW125808   0.364   2.777   7.380 -1.4808  1.0735  0.7408
 4783SOL    HW225809   0.340   2.649   7.312  2.5695 -0.2976 -3.1805
 4784SOL     OW25810   1.721   3.571  16.381 -0.0433 -0.4677  0.3521
 4784SOL    HW125811   1.655   3.503  16.394 -0.8658 -0.0651 -1.6235
 4784SOL    HW225812   1.786   3.544  16.445  2.6751  0.6659 -1.9290
 4785SOL     OW25813   0.437   1.785   5.339  0.4418  0.4628  0.2693
 4785SOL    HW125814   0.428   1.798   5.434  1.3040  2.3013  0.0981
 4785SOL    HW225815   0.440   1.876   5.308 -1.0515  0.1445 -0.7763
 4786SOL     OW25816   0.737   4.381  17.569 -0.5527 -0.1046 -0.3556
 4786SOL    HW125817   0.736   4.292  17.605  2.1957  0.3091  0.7262
 4786SOL    HW225818   0.707   4.363  17.480  2.3378 -0.6578 -1.2365
 4787SOL     OW25819   0.495   0.828   5.921 -0.1024  0.1717  0.4400
 4787SOL    HW125820   0.553   0.787   5.857  1.5470  1.1338  1.3068
 4787SOL    HW225821   0.415   0.847   5.872 -0.0905  0.5051  0.5519
 4788SOL     OW25822   2.789   2.580   8.768  0.3751 -0.0478 -0.3032
 4788SOL    HW125823   2.760   2.555   8.856  2.8059 -0.9035  0.2782
 4788SOL    HW225824   2.757   2.503   8.721 -3.0913  0.6353  1.0057
 4789SOL     OW25825   3.607   1.929  13.744 -0.0794  0.1660 -0.6642
 4789SOL    HW125826   3.615   2.015  13.785 -0.3684  1.0876 -2.5256
 4789SOL    HW225827   3.676   1.929  13.677  0.5093  0.5892 -0.0606
 4790SOL     OW25828   0.764   0.400  11.907 -0.3995 -0.1770  0.3250
 4790SOL    HW125829   0.855   0.374  11.911 -0.2881  0.5078  2.1745
 4790SOL    HW225830   0.758   0.474  11.847  0.7219 -0.2403  0.1481
 4791SOL     OW25831   3.448   3.169   2.368  0.7763  0.5509  0.1140
 4791SOL    HW125832   3.406   3.255   2.365 -3.5714 -1.5741  0.1875
 4791SOL    HW225833   3.528   3.176   2.421  1.1732 -1.9645 -0.1517
 4792SOL     OW25834   2.109   0.248   0.256  0.3717 -0.7005  0.0904
 4792SOL    HW125835   2.051   0.179   0.289  0.9942 -1.4611 -0.4156
 4792SOL    HW225836   2.067   0.332   0.274 -0.1083 -0.7603 -0.7697
 4793SOL     OW25837   1.316   2.612  14.309 -0.1550  0.2121 -0.9033
 4793SOL    HW125838   1.294   2.562  14.231  0.2201  1.5863 -1.8931
 4793SOL    HW225839   1.408   2.639  14.298  0.7173 -1.3287  2.4006
 4794SOL     OW25840   4.540   1.790   1.898  0.0953 -0.0722 -0.2235
 4794SOL    HW125841   4.451   1.756   1.901 -0.6381  2.1976  4.4084
 4794SOL    HW225842   4.526   1.874   1.943 -0.1365  0.9244 -2.1639
 4795SOL     OW25843   1.921   0.696   7.045 -0.1775 -0.0668  0.4566
 4795SOL    HW125844   1.947   0.629   7.108 -0.1623  0.4713  1.0189
 4795SOL    HW225845   1.931   0.642   6.966  0.3283  0.9542 -0.1751
 4796SOL     OW25846   3.231   0.842   3.227  0.1810 -0.2929 -0.0575
 4796SOL    HW125847   3.271   0.928   3.238  0.9240 -0.7152  0.4987
 4796SOL    HW225848   3.281   0.815   3.150 -2.2465  0.8441 -2.0482
 4797SOL     OW25849   3.766   0.899   2.192  0.1333  0.1620  0.2608
 4797SOL    HW125850   3.751   0.878   2.099 -1.2939  0.3486  0.4413
 4797SOL    HW225851   3.684   0.941   2.218  0.3158 -0.8358  2.3806
 4798SOL     OW25852   1.761   2.268   6.631  0.7236  0.5249 -0.2986
 4798SOL    HW125853   1.804   2.232   6.553  0.0797 -0.7061 -0.0695
 4798SOL    HW225854   1.833   2.305   6.682  1.4768 -0.6787 -0.5107
 4799SOL     OW25855   4.023   3.326   6.044 -0.4375  0.0335 -0.5803
 4799SOL    HW125856   4.035   3.338   5.950 -0.0084 -0.3322 -0.5695
 4799SOL    HW225857   4.106   3.362   6.075 -0.9095  0.4820  0.1474
 4800SOL     OW25858   3.029   0.811  10.996 -0.0775 -0.5376 -0.1911
 4800SOL    HW125859   3.117   0.776  11.013  0.9018  0.8396 -2.4631
 4800SOL    HW225860   2.982   0.796  11.078  1.0503 -0.5228  0.4588
 4801SOL     OW25861   2.918   3.302   0.654 -0.3785  0.5348 -0.8521
 4801SOL    HW125862   2.992   3.361   0.665 -1.3502  1.5528  0.1686
 4801SOL    HW225863   2.916   3.293   0.749  2.3340 -0.7456 -0.9091
 4802SOL     OW25864   3.116   0.722  17.694 -0.6161  0.2854  0.8167
 4802SOL    HW125865   3.117   0.818  17.696  1.7645  0.3078 -0.9004
 4802SOL    HW225866   3.189   0.701   0.053  0.7821  1.1806 -0.6218
 4803SOL     OW25867   2.068   1.535  15.259  0.1610  0.4851 -0.5038
 4803SOL    HW125868   2.121   1.456  15.266 -1.3878 -0.4959  0.1087
 4803SOL    HW225869   2.085   1.577  15.344  1.2900 -0.3502 -0.3243
 4804SOL     OW25870   0.058   0.936   7.318 -0.0141 -0.6517 -0.4911
 4804SOL    HW125871   0.108   0.882   7.379 -1.1333  0.3616  1.3176
 4804SOL    HW225872   4.720   0.875   7.281  0.2370 -0.3335 -1.4440
 4805SOL     OW25873   0.031   2.529   8.734 -0.0149 -0.1753  0.2656
 4805SOL    HW125874   0.029   2.602   8.671  0.4460 -3.5948 -3.7480
 4805SOL    HW225875   4.678   2.542   8.789  2.6431 -1.1628  4.2383
 4806SOL     OW25876   2.008   1.384   2.427 -0.6417  0.3905 -0.1921
 4806SOL    HW125877   1.976   1.314   2.483  2.3501 -0.3571  0.5807
 4806SOL    HW225878   2.089   1.347   2.392 -1.4878 -0.4318 -1.2708
 4807SOL     OW25879   3.189   0.730   6.319  0.2750 -0.9153 -0.2010
 4807SOL    HW125880   3.158   0.821   6.309  0.3605 -0.8689 -0.0462
 4807SOL    HW225881   3.283   0.745   6.305 -0.2328  1.7557 -0.9131
 4808SOL     OW25882   1.922   3.118  17.311 -0.5597  0.7797 -0.4366
 4808SOL    HW125883   1.991   3.179  17.336 -1.4260  0.6272  2.3318
 4808SOL    HW225884   1.959   3.087  17.229 -1.0104 -0.5851 -0.1227
 4809SOL     OW25885   0.702   0.742  11.269 -0.0606  0.1037 -0.4920
 4809SOL    HW125886   0.705   0.700  11.183  1.4062  0.0722 -0.4136
 4809SOL    HW225887   0.700   0.660  11.318  2.1429  0.6026  0.4042
 4810SOL     OW25888   4.417   2.850  15.776  0.6497  0.6592 -0.5763
 4810SOL    HW125889   4.477   2.826  15.846  0.1674 -1.0876 -0.7435
 4810SOL    HW225890   4.357   2.775  15.769  0.9657  0.3174  0.4122
 4811SOL     OW25891   2.880   4.115   2.451 -0.0072  0.0948 -0.4699
 4811SOL    HW125892   2.969   4.148   2.465 -0.0728  0.0067  0.1409
 4811SOL    HW225893   2.887   4.063   2.371 -0.7107 -1.6860  0.6452
 4812SOL     OW25894   2.977   1.886   4.740  0.0139 -0.5447  0.4043
 4812SOL    HW125895   3.006   1.795   4.741  2.4457  0.2333  0.2150
 4812SOL    HW225896   3.055   1.935   4.716  0.1667  0.5190  3.1082
 4813SOL     OW25897   3.049   4.493   8.051  0.2621  0.4118 -0.0449
 4813SOL    HW125898   3.019   4.437   7.980  1.3942  0.7082 -0.7655
 4813SOL    HW225899   3.042   4.452   8.137 -1.1812  1.9892  0.5974
 4814SOL     OW25900   2.762   3.547   9.050  0.2224  0.3603  0.0588
 4814SOL    HW125901   2.834   3.610   9.057  1.3324 -1.0005  0.9722
 4814SOL    HW225902   2.815   3.470   9.028  0.4943  0.1094  1.5763
 4815SOL     OW25903   3.084   4.036   3.806  0.1251  0.1824 -0.0191
 4815SOL    HW125904   3.138   3.991   3.740 -0.7049 -2.1511  0.8967
 4815SOL    HW225905   3.013   3.973   3.809  0.0467  0.2732  0.0066
 4816SOL     OW25906   3.175   0.446  12.431  0.0862 -0.3779 -0.4284
 4816SOL    HW125907   3.251   0.486  12.389  0.0405 -1.3511 -1.4445
 4816SOL    HW225908   3.131   0.404  12.357  1.6519 -0.3318 -1.3841
 4817SOL     OW25909   4.301   3.461   7.291  0.1480 -0.0675  0.0547
 4817SOL    HW125910   4.268   3.466   7.201 -2.5573  2.2391  1.1682
 4817SOL    HW225911   4.213   3.464   7.330  1.4907  2.1035  2.8741
 4818SOL     OW25912   2.980   0.397   7.510 -0.6909 -0.6457  0.4180
 4818SOL    HW125913   2.886   0.375   7.511 -0.6107 -0.9912  0.7179
 4818SOL    HW225914   2.995   0.443   7.592  0.4402  0.4550 -0.4191
 4819SOL     OW25915   1.452   1.395   1.274 -0.4009  0.4435  0.7109
 4819SOL    HW125916   1.535   1.427   1.240 -0.9733  1.5401  0.3244
 4819SOL    HW225917   1.399   1.475   1.268  0.6645  1.1997  1.5487
 4820SOL     OW25918   3.455   0.318   4.690 -0.3627  0.0842 -0.3079
 4820SOL    HW125919   3.439   0.228   4.721  1.0803 -0.8671 -2.3310
 4820SOL    HW225920   3.418   0.311   4.603  0.9609 -3.1503 -0.6463
 4821SOL     OW25921   2.950   1.915  10.343  0.6406  0.0839 -0.1558
 4821SOL    HW125922   2.941   1.824  10.316  1.2507 -0.1731  0.4898
 4821SOL    HW225923   3.020   1.948  10.286 -0.2999 -0.3327 -1.5413
 4822SOL     OW25924   0.310   4.202   2.891  0.1451 -0.1624  0.0364
 4822SOL    HW125925   0.260   4.120   2.894  0.8014 -0.6797 -2.5634
 4822SOL    HW225926   0.330   4.204   2.797  1.0818 -1.1466  0.2203
 4823SOL     OW25927   0.325   1.518  17.422 -0.9335  0.1884  0.0062
 4823SOL    HW125928   0.420   1.519  17.428 -0.8621 -1.7952 -0.8564
 4823SOL    HW225929   0.322   1.524  17.326  0.1475  0.7371  0.0154
 4824SOL     OW25930   4.249   0.248  11.671 -0.1344 -0.0138 -0.0403
 4824SOL    HW125931   4.340   0.241  11.640 -0.4319  0.6291 -1.0621
 4824SOL    HW225932   4.237   0.332  11.626  1.4720  1.0867  1.5474
 4825SOL     OW25933   4.321   1.078  17.693 -0.1968 -0.2519  0.3721
 4825SOL    HW125934   4.329   1.013  17.623 -2.9387 -1.1684  0.9330
 4825SOL    HW225935   4.233   1.111  17.674  0.0064  0.7534  1.1807
 4826SOL     OW25936   0.568   0.169  10.384  0.3168 -0.5975  0.1232
 4826SOL    HW125937   0.568   0.165  10.288 -0.5487 -1.7167  0.1754
 4826SOL    HW225938   0.540   0.078  10.395 -0.3548 -0.7980 -3.2019
 4827SOL     OW25939   1.598   0.263  16.438 -0.0181  0.1021 -0.2595
 4827SOL    HW125940   1.653   0.189  16.464 -1.0718 -0.6120 -0.0708
 4827SOL    HW225941   1.658   0.310  16.379  1.7580 -0.0005  1.4420
 4828SOL     OW25942   4.095   0.698   8.336  0.5034 -0.2729 -0.0329
 4828SOL    HW125943   4.044   0.644   8.275 -0.8763 -0.8674  1.6446
 4828SOL    HW225944   4.057   0.670   8.419  0.8989  2.9962  1.2333
 4829SOL     OW25945   2.037   1.483   7.976  0.0011  0.1370  0.6079
 4829SOL    HW125946   2.095   1.559   7.977 -0.1645  0.2721 -0.4990
 4829SOL    HW225947   2.002   1.494   7.888 -0.4970 -0.5883  0.7161
 4830SOL     OW25948   0.680   1.019  14.847 -0.2110  0.1204  0.4553
 4830SOL    HW125949   0.669   1.100  14.798  0.5949  0.8005  1.3915
 4830SOL    HW225950   0.605   0.969  14.816  0.1709  0.9065 -1.6931
 4831SOL     OW25951   1.006   4.571   7.824  0.0439 -0.6919 -0.3981
 4831SOL    HW125952   0.922   4.599   7.789 -0.7869 -3.6484 -0.7747
 4831SOL    HW225953   1.026   4.499   7.764 -0.7752 -0.4240 -0.9887
 4832SOL     OW25954   2.068   3.720   4.240 -0.0178  0.0076  0.0113
 4832SOL    HW125955   2.131   3.786   4.269 -0.1772  0.6011 -0.9844
 4832SOL    HW225956   2.066   3.669   4.321  2.1296 -0.7163 -0.3923
 4833SOL     OW25957   0.288   3.876   9.463 -0.2690 -0.7477  0.2431
 4833SOL    HW125958   0.365   3.821   9.478  0.8430  1.1162  1.3671
 4833SOL    HW225959   0.241   3.827   9.395 -0.1614  2.2293 -1.9594
 4834SOL     OW25960   4.184   3.802   3.192 -0.0479 -0.0463 -0.3709
 4834SOL    HW125961   4.171   3.836   3.104 -0.7686 -0.3674 -0.3942
 4834SOL    HW225962   4.145   3.716   3.179  0.4752 -0.6163  1.7517
 4835SOL     OW25963   0.676   1.667   5.247  0.8951  0.6356 -0.1619
 4835SOL    HW125964   0.605   1.727   5.268 -1.0220 -1.3332 -0.9539
 4835SOL    HW225965   0.683   1.690   5.154  2.0535 -1.1776 -0.5269
 4836SOL     OW25966   1.034   2.979   9.496 -0.0313 -0.7361 -0.2731
 4836SOL    HW125967   1.029   2.884   9.495  1.0117 -0.7978  1.7399
 4836SOL    HW225968   1.102   2.998   9.560 -0.2654 -1.0541  0.0638
 4837SOL     OW25969   2.749   4.661   5.525  0.4622 -0.9550 -0.1871
 4837SOL    HW125970   2.760   0.022   5.568 -1.0287 -0.5478 -0.6400
 4837SOL    HW225971   2.807   4.672   5.450 -0.6007  1.8777 -0.5667
 4838SOL     OW25972   4.010   0.185   2.036  0.1837  0.0584  0.1139
 4838SOL    HW125973   3.944   0.210   2.102 -0.2887  0.6242 -0.5724
 4838SOL    HW225974   4.090   0.204   2.085  0.4324  0.7025 -0.5541
 4839SOL     OW25975   2.662   3.932   2.605 -0.0902  0.6399  0.2540
 4839SOL    HW125976   2.614   3.999   2.556 -1.7737 -0.0272  1.0154
 4839SOL    HW225977   2.727   3.902   2.541  0.2201  1.3501  0.2347
 4840SOL     OW25978   2.235   1.270   2.631 -0.1152  0.7149 -0.0365
 4840SOL    HW125979   2.184   1.345   2.660 -1.2862 -0.6466  1.4578
 4840SOL    HW225980   2.294   1.274   2.706 -1.2306  0.4149  0.8625
 4841SOL     OW25981   0.738   3.817  16.817  0.9036  0.1665 -0.2209
 4841SOL    HW125982   0.816   3.868  16.793  0.8468  1.2570  1.9810
 4841SOL    HW225983   0.724   3.838  16.909 -3.6643  0.5366 -1.0043
 4842SOL     OW25984   3.679   1.085  10.512 -0.2709 -0.1363  0.2039
 4842SOL    HW125985   3.690   1.023  10.440 -0.5972  1.0634 -0.8888
 4842SOL    HW225986   3.723   1.026  10.573  1.7337 -1.6874 -2.7530
 4843SOL     OW25987   2.071   3.363   4.756 -0.1468 -0.4269  0.3731
 4843SOL    HW125988   2.105   3.353   4.667 -0.8046  0.5996  0.0053
 4843SOL    HW225989   2.124   3.436   4.787  0.3597 -0.7934  0.3708
 4844SOL     OW25990   1.869   3.340   8.389  0.2271  0.0815 -0.1045
 4844SOL    HW125991   1.802   3.309   8.449  0.1990  1.5947  0.6397
 4844SOL    HW225992   1.820   3.371   8.312 -1.2320  3.0418  2.0151
 4845SOL     OW25993   2.955   2.591  17.105  0.7945  0.0106 -0.2360
 4845SOL    HW125994   3.034   2.584  17.050  1.3347 -0.3708  0.5929
 4845SOL    HW225995   2.948   2.683  17.132  0.0130 -0.3476  0.7636
 4846SOL     OW25996   2.564   4.131   7.320  0.6414 -0.4440 -0.0167
 4846SOL    HW125997   2.479   4.174   7.321 -0.7818 -3.2769 -0.0488
 4846SOL    HW225998   2.599   4.166   7.402  1.0869 -0.2948 -0.2708
 4847SOL     OW25999   2.038   2.984   6.001  0.8886 -0.2706  0.1596
 4847SOL    HW126000   1.989   3.056   5.961  0.5576 -2.3143 -3.1139
 4847SOL    HW226001   2.119   3.002   5.955  0.9789 -0.2086  0.3412
 4848SOL     OW26002   2.843   0.864   3.898 -0.1055 -0.0331  0.2895
 4848SOL    HW126003   2.748   0.859   3.883  0.1494  0.0692 -1.3457
 4848SOL    HW226004   2.870   0.774   3.918  3.3834  0.5080 -2.1799
 4849SOL     OW26005   3.715   4.366  10.552  0.2662 -0.3881  0.3202
 4849SOL    HW126006   3.743   4.456  10.561 -0.3561 -0.3187  1.5183
 4849SOL    HW226007   3.621   4.364  10.533  0.0115 -1.5176  1.6794
 4850SOL     OW26008   4.689   3.431  12.645  0.3737  0.4208  0.7471
 4850SOL    HW126009   4.615   3.461  12.592 -1.0513  0.3099  2.7170
 4850SOL    HW226010   0.041   3.475  12.606  0.8852  0.7903  2.1640
 4851SOL     OW26011   1.800   2.121   7.965  0.5823 -0.2732 -0.2631
 4851SOL    HW126012   1.848   2.199   7.938 -1.2927  1.0715  0.2423
 4851SOL    HW226013   1.860   2.055   7.930 -0.3081 -1.6414  0.7517
 4852SOL     OW26014   0.737   0.182   6.084  0.5479 -0.4860  0.1691
 4852SOL    HW126015   0.758   0.148   5.997  1.3960  0.9601 -0.1948
 4852SOL    HW226016   0.662   0.130   6.110  1.2658 -1.6617 -0.1241
 4853SOL     OW26017   1.984   4.185   9.332  1.0492  0.1400  0.5197
 4853SOL    HW126018   1.958   4.121   9.398  2.9461 -0.5511  0.5927
 4853SOL    HW226019   2.031   4.125   9.275 -1.2636 -2.4390  1.3354
 4854SOL     OW26020   1.546   3.153  13.012  0.3746 -0.5376 -0.4688
 4854SOL    HW126021   1.468   3.151  12.957  0.9079  2.5685 -1.3728
 4854SOL    HW226022   1.605   3.087  12.976  3.7823  1.4479  1.3764
 4855SOL     OW26023   2.154   2.961   4.481  0.1380 -0.0655  0.4653
 4855SOL    HW126024   2.142   3.055   4.499 -0.7343 -0.1977  0.5560
 4855SOL    HW226025   2.250   2.961   4.476  0.1589  1.8430  0.6154
 4856SOL     OW26026   2.641   3.989   2.019 -0.0406 -0.9687 -0.0747
 4856SOL    HW126027   2.580   3.922   1.988  0.8462 -1.7795 -0.0659
 4856SOL    HW226028   2.710   3.958   1.961  0.3935 -0.7634  0.3313
 4857SOL     OW26029   0.614   4.409   2.843 -0.1359  0.1384  0.3083
 4857SOL    HW126030   0.627   4.442   2.931 -0.2180  0.9317  0.0210
 4857SOL    HW226031   0.613   4.491   2.794 -4.6627 -1.0384 -1.5742
 4858SOL     OW26032   3.575   4.254   5.792  0.3553 -0.3760 -0.1516
 4858SOL    HW126033   3.510   4.324   5.803 -0.7942 -1.3038 -1.0085
 4858SOL    HW226034   3.574   4.243   5.697  0.4048  0.1897 -0.2178
 4859SOL     OW26035   1.931   3.474   7.063 -0.0155  0.4748 -0.1251
 4859SOL    HW126036   1.999   3.410   7.042 -2.0552 -1.7396  0.1459
 4859SOL    HW226037   1.887   3.484   6.979  3.3692  2.5066 -1.6465
 4860SOL     OW26038   2.594   4.223   5.208  0.5750 -0.0310 -0.0421
 4860SOL    HW126039   2.670   4.268   5.246  1.6617 -0.5985 -1.5264
 4860SOL    HW226040   2.614   4.220   5.114 -1.8132  0.7249 -0.5768
 4861SOL     OW26041   3.788   2.899  15.066  0.2781 -0.0005  0.4361
 4861SOL    HW126042   3.763   2.806  15.063  1.9689 -0.4992  1.7718
 4861SOL    HW226043   3.714   2.935  15.017  0.9036  0.1775 -0.3846
 4862SOL     OW26044   2.449   0.639   0.883 -0.0511  0.0916  0.1361
 4862SOL    HW126045   2.355   0.645   0.869 -0.0293 -0.1710 -0.1214
 4862SOL    HW226046   2.442   0.567   0.945  0.2401  0.5388  0.6894
 4863SOL     OW26047   2.775   2.904   3.956  0.0064  0.5404 -0.3752
 4863SOL    HW126048   2.710   2.959   4.001 -1.1937 -1.5332  0.4555
 4863SOL    HW226049   2.733   2.818   3.968  0.0610  0.3538 -1.5648
 4864SOL     OW26050   1.725   1.298   5.169  0.1713  0.0928 -0.2685
 4864SOL    HW126051   1.680   1.381   5.181  0.2422  0.2061 -0.7778
 4864SOL    HW226052   1.814   1.308   5.203 -0.5672 -1.5481  2.1783
 4865SOL     OW26053   4.047   1.219   6.062 -0.1746 -0.4874  0.5557
 4865SOL    HW126054   4.048   1.250   5.971  1.0259 -1.4312  0.2504
 4865SOL    HW226055   3.959   1.181   6.061 -0.8121  0.9284  3.2113
 4866SOL     OW26056   3.445   2.237   4.765 -0.4852 -0.1918 -0.3850
 4866SOL    HW126057   3.417   2.186   4.841 -2.6078  2.8486  0.8747
 4866SOL    HW226058   3.527   2.276   4.797 -1.5809  3.0874 -1.6143
 4867SOL     OW26059   0.593   1.225   9.359 -0.0215 -0.3207 -0.7920
 4867SOL    HW126060   0.641   1.192   9.283  2.2867 -1.2166  1.0914
 4867SOL    HW226061   0.513   1.172   9.355  0.2536 -0.7429 -0.6142
 4868SOL     OW26062   3.765   3.511  15.527  0.7083  0.3285  0.0262
 4868SOL    HW126063   3.809   3.429  15.549 -1.2722 -0.8968 -0.6190
 4868SOL    HW226064   3.679   3.471  15.539  0.9494 -0.4213 -0.7121
 4869SOL     OW26065   4.479   2.945  11.116 -0.0169  0.1132  0.5875
 4869SOL    HW126066   4.559   2.893  11.123  1.1290  1.8888  0.7846
 4869SOL    HW226067   4.489   2.991  11.199  1.0155  0.3829  0.3125
 4870SOL     OW26068   2.471   0.792   3.443  0.1778  0.2936  0.1350
 4870SOL    HW126069   2.431   0.809   3.528  0.6869 -1.2881  0.6768
 4870SOL    HW226070   2.390   0.774   3.395 -0.3848 -2.2786  2.0831
 4871SOL     OW26071   4.279   0.785   2.173 -0.0010 -0.0359 -0.3343
 4871SOL    HW126072   4.247   0.727   2.104  1.2970 -0.6945 -0.3995
 4871SOL    HW226073   4.198   0.824   2.204  1.4208  1.1549  1.9472
 4872SOL     OW26074   1.829   0.778   7.863  0.4077  0.1318  0.9649
 4872SOL    HW126075   1.780   0.840   7.917  0.3106  0.0869  0.9293
 4872SOL    HW226076   1.846   0.826   7.781 -1.0986 -0.6997  0.1524
 4873SOL     OW26077   1.410   2.698   5.670 -0.5769  0.1177  0.1637
 4873SOL    HW126078   1.355   2.738   5.603  1.3342  1.1030 -0.8376
 4873SOL    HW226079   1.433   2.615   5.628 -2.3389 -0.2656 -0.0361
 4874SOL     OW26080   2.762   0.314   5.944  0.2725 -0.3468 -0.3234
 4874SOL    HW126081   2.740   0.299   6.036 -0.9070 -2.8505 -1.0110
 4874SOL    HW226082   2.758   0.223   5.913 -2.1498 -1.0152  1.9247
 4875SOL     OW26083   0.239   0.214  13.317 -0.8482  0.0573  0.5578
 4875SOL    HW126084   0.195   0.287  13.361 -0.5471  0.1257  0.7397
 4875SOL    HW226085   0.270   0.235  13.229  0.3851  0.0052  0.9828
 4876SOL     OW26086   4.205   3.756   7.464 -0.4482 -0.0922 -0.2781
 4876SOL    HW126087   4.239   3.723   7.381  1.6292  1.8162 -0.1930
 4876SOL    HW226088   4.172   3.844   7.445  0.0800  0.3560  0.8495
 4877SOL     OW26089   4.521   4.003   4.426 -0.3604  0.0251 -0.2726
 4877SOL    HW126090   4.442   4.047   4.395 -0.7975 -0.2719  0.4223
 4877SOL    HW226091   4.502   3.911   4.408  1.6354 -0.4559  0.0351
 4878SOL     OW26092   1.702   4.219   3.775 -0.1086  0.4519 -0.1007
 4878SOL    HW126093   1.738   4.307   3.784  0.6015  0.0513  1.0220
 4878SOL    HW226094   1.784   4.186   3.739 -1.0816  0.6192 -2.4565
 4879SOL     OW26095   1.050   0.531   7.282  0.2000 -0.0553 -0.1934
 4879SOL    HW126096   1.102   0.459   7.246 -1.0577 -1.0570  0.0206
 4879SOL    HW226097   1.039   0.511   7.375  0.7479 -1.1264 -0.3567
 4880SOL     OW26098   1.826   4.510  16.530  0.4001  0.2498  0.5607
 4880SOL    HW126099   1.919   4.528  16.536  0.4772  0.3570 -1.1087
 4880SOL    HW226100   1.830   4.417  16.509  1.0985 -0.0973  2.2242
 4881SOL     OW26101   1.170   3.266   7.300  0.1693 -0.2586  0.7889
 4881SOL    HW126102   1.214   3.213   7.365  0.4430 -0.6627  0.2770
 4881SOL    HW226103   1.144   3.338   7.358 -1.4784  1.2563 -1.8053
 4882SOL     OW26104   0.042   3.410  16.757  0.2008 -0.0497 -0.2070
 4882SOL    HW126105   4.686   3.405  16.705  0.6880 -1.0159 -0.8752
 4882SOL    HW226106   0.022   3.482  16.817 -1.8792  1.3964 -2.6207
 4883SOL     OW26107   0.963   0.664  15.086 -0.0985  0.2874 -0.3905
 4883SOL    HW126108   1.035   0.701  15.035  1.8977 -2.4731  0.4086
 4883SOL    HW226109   1.015   0.619  15.153  1.8961  0.8352 -1.5651
 4884SOL     OW26110   0.800   1.542   2.124  0.0400  1.1283 -0.3792
 4884SOL    HW126111   0.893   1.560   2.135  0.4947 -0.2257 -2.0195
 4884SOL    HW226112   0.813   1.496   2.041 -0.0259  0.9744 -0.3044
 4885SOL     OW26113   1.696   2.145   2.736 -0.1506  0.2077  0.0715
 4885SOL    HW126114   1.723   2.237   2.734  1.6018 -0.2595  2.3902
 4885SOL    HW226115   1.754   2.120   2.809 -1.3235  0.6058  1.1497
 4886SOL     OW26116   3.753   2.767   2.454  0.0923  0.2971  0.0307
 4886SOL    HW126117   3.786   2.851   2.487 -0.2577 -0.3619  2.0551
 4886SOL    HW226118   3.796   2.766   2.369 -0.0032 -2.9517  0.0396
 4887SOL     OW26119   0.995   0.104   6.498  0.1957  1.1353 -0.3737
 4887SOL    HW126120   1.052   0.174   6.469  0.6839  0.4787 -1.0024
 4887SOL    HW226121   0.976   0.069   6.411 -0.3334  0.8624 -0.1558
 4888SOL     OW26122   4.668   2.745  11.190  0.1738 -0.1229 -0.4804
 4888SOL    HW126123   0.021   2.748  11.133  0.8180 -1.8933  0.2882
 4888SOL    HW226124   4.657   2.651  11.207 -1.5987  0.0304 -0.8542
 4889SOL     OW26125   0.465   4.589   0.933  0.1021 -0.4953 -0.4285
 4889SOL    HW126126   0.429   4.516   0.883  3.2200 -1.0246 -1.8299
 4889SOL    HW226127   0.391   4.650   0.938 -0.3977 -1.1162 -0.2286
 4890SOL     OW26128   2.167   1.414   6.636 -0.4104 -0.0870  0.4123
 4890SOL    HW126129   2.181   1.468   6.714 -1.4395  0.2659  0.3540
 4890SOL    HW226130   2.098   1.472   6.603 -0.5719 -0.1445  0.6457
 4891SOL     OW26131   1.189   1.453  16.685  0.1668  0.0887  0.3254
 4891SOL    HW126132   1.267   1.472  16.634  0.9108 -1.8517  0.7571
 4891SOL    HW226133   1.119   1.497  16.636  0.3353 -0.8010 -0.7042
 4892SOL     OW26134   1.883   1.472   4.139 -0.2135 -0.6431 -0.2831
 4892SOL    HW126135   1.888   1.491   4.045 -0.8641  3.0372  0.4384
 4892SOL    HW226136   1.976   1.481   4.163 -0.5187 -1.8863  1.3717
 4893SOL     OW26137   4.605   2.865   2.884 -0.1496 -0.7775  0.0550
 4893SOL    HW126138   4.662   2.803   2.837  0.8542  0.6710 -0.6701
 4893SOL    HW226139   4.546   2.814   2.939  1.1428 -2.0870  0.2392
 4894SOL     OW26140   1.457   2.472   2.662 -0.4514  0.1253 -0.3806
 4894SOL    HW126141   1.510   2.425   2.598  2.1829  0.5807  1.4668
 4894SOL    HW226142   1.450   2.559   2.621 -0.2045 -0.8652 -2.5404
 4895SOL     OW26143   2.839   0.251   5.042  0.0619  0.2716 -0.0662
 4895SOL    HW126144   2.800   0.286   4.962  0.2147 -0.5465 -0.4890
 4895SOL    HW226145   2.771   0.206   5.092 -1.2198  1.4734 -0.7089
 4896SOL     OW26146   1.558   1.161   6.413  0.0793 -0.2290  0.2058
 4896SOL    HW126147   1.521   1.154   6.501 -2.1954  1.5567 -0.5794
 4896SOL    HW226148   1.609   1.242   6.423 -1.1010  0.8670 -2.5852
 4897SOL     OW26149   1.899   1.589  10.497 -0.2743  0.0818 -0.2988
 4897SOL    HW126150   1.877   1.664  10.552 -0.8564 -0.2779 -0.0398
 4897SOL    HW226151   1.931   1.524  10.560 -0.4034 -0.9955 -1.3327
 4898SOL     OW26152   3.546   0.550   7.321  0.7230  0.7635  0.0465
 4898SOL    HW126153   3.582   0.550   7.410  0.9591  3.2311 -0.0647
 4898SOL    HW226154   3.575   0.636   7.291 -0.4878  1.2572  0.2878
 4899SOL     OW26155   1.510   4.330   4.720 -0.1069 -0.1838 -0.6860
 4899SOL    HW126156   1.499   4.382   4.799 -1.8850 -0.1685 -0.9534
 4899SOL    HW226157   1.585   4.275   4.744 -0.5414 -0.2335  0.5232
 4900SOL     OW26158   4.611   1.823   4.292 -0.0563 -0.7663 -0.1882
 4900SOL    HW126159   4.530   1.844   4.245  0.2132 -0.9625 -0.7508
 4900SOL    HW226160   4.679   1.850   4.230 -0.5162 -1.1819 -0.8825
 4901SOL     OW26161   3.684   0.218   1.722  0.5915 -0.2528  0.0689
 4901SOL    HW126162   3.709   0.268   1.800  0.2966 -1.7690  1.1447
 4901SOL    HW226163   3.681   0.130   1.760  1.1412 -0.3536 -0.1321
 4902SOL     OW26164   3.925   3.283   7.222 -0.0584  0.5723 -0.0035
 4902SOL    HW126165   3.948   3.353   7.284 -0.5884  0.9254 -0.2028
 4902SOL    HW226166   4.011   3.258   7.187  0.2292 -0.9429  1.8046
 4903SOL     OW26167   3.277   4.076  11.271 -0.5331  0.0815  0.0991
 4903SOL    HW126168   3.218   4.125  11.214  0.8711 -0.6278 -1.9554
 4903SOL    HW226169   3.365   4.100  11.240 -1.0806  0.9403 -0.7847
 4904SOL     OW26170   1.794   0.829   0.834  0.1849 -0.2970 -0.4784
 4904SOL    HW126171   1.819   0.755   0.779  1.3321 -0.8572  0.8079
 4904SOL    HW226172   1.812   0.789   0.919  3.0861  1.5904 -0.1997
 4905SOL     OW26173   0.899   0.496   6.224 -0.2458 -0.2146 -0.2509
 4905SOL    HW126174   0.932   0.549   6.296  0.0972 -0.5169 -0.1843
 4905SOL    HW226175   0.961   0.529   6.159 -0.9796 -0.1414 -0.9078
 4906SOL     OW26176   1.580   1.651  14.954  0.3858 -0.3018  0.3520
 4906SOL    HW126177   1.593   1.568  15.000  0.3602  0.5776  1.9575
 4906SOL    HW226178   1.592   1.640  14.860 -2.0976  1.5502 -0.1719
 4907SOL     OW26179   2.477   2.351   0.379  0.1083 -0.3282  0.1630
 4907SOL    HW126180   2.470   2.333   0.473 -0.0433  1.3888  0.4882
 4907SOL    HW226181   2.563   2.392   0.375 -0.0257 -0.0068  0.5006
 4908SOL     OW26182   2.492   2.709   7.529 -0.2949  0.3290  0.0506
 4908SOL    HW126183   2.403   2.675   7.530  0.4326 -1.6953 -1.4947
 4908SOL    HW226184   2.518   2.664   7.610 -0.1108  1.0999  0.4129
 4909SOL     OW26185   4.228   4.628  17.510 -0.5531  0.0818 -0.1529
 4909SOL    HW126186   4.253   4.550  17.559 -1.9501  0.7357  1.6075
 4909SOL    HW226187   4.146   4.657  17.550  0.0357 -0.8482  1.6925
 4910SOL     OW26188   1.201   4.192   6.225 -0.2596 -0.1213  0.2954
 4910SOL    HW126189   1.191   4.101   6.252 -0.6452 -0.5776 -1.3799
 4910SOL    HW226190   1.196   4.181   6.130  0.0632  0.4568  0.2096
 4911SOL     OW26191   1.277   2.961   9.620 -0.5806 -0.0536 -0.7175
 4911SOL    HW126192   1.328   3.042   9.622  3.1871 -2.4688 -0.5890
 4911SOL    HW226193   1.341   2.890   9.625  0.1018  0.7337  1.4545
 4912SOL     OW26194   2.146   0.127  10.236  0.1213 -0.3426 -0.2487
 4912SOL    HW126195   2.061   0.145  10.196 -0.0924  0.6016  0.6428
 4912SOL    HW226196   2.202   0.175  10.175 -1.0832 -1.1172 -2.0034
 4913SOL     OW26197   3.884   1.021   0.266  0.1729  0.0786 -0.5508
 4913SOL    HW126198   3.929   1.066   0.195 -1.0831 -1.9561 -2.6517
 4913SOL    HW226199   3.796   1.029   0.230  0.4956  1.0797 -1.0953
 4914SOL     OW26200   0.489   4.602  13.670 -0.4024  0.3977 -0.3638
 4914SOL    HW126201   0.461   4.674  13.614  2.0625  1.2220 -0.5057
 4914SOL    HW226202   0.527   4.659  13.737 -2.6292 -1.0468  2.1660
 4915SOL     OW26203   2.940   4.216   3.635  0.6396  0.2259  0.0170
 4915SOL    HW126204   3.027   4.193   3.668  0.9237  2.0440  0.5404
 4915SOL    HW226205   2.896   4.236   3.718 -0.8015 -1.6593 -0.2988
 4916SOL     OW26206   3.286   3.799   8.676 -0.2653  0.3316 -0.0065
 4916SOL    HW126207   3.219   3.857   8.641 -1.9648 -0.9587  1.0921
 4916SOL    HW226208   3.294   3.733   8.607 -1.4023  0.1194  0.0653
 4917SOL     OW26209   3.614   4.238   3.896 -0.7143  0.1022  0.2524
 4917SOL    HW126210   3.702   4.255   3.929 -0.8653  0.1394  0.6332
 4917SOL    HW226211   3.636   4.245   3.803  0.3090 -2.5211  0.2880
 4918SOL     OW26212   4.690   4.342   0.331  0.0146 -0.7007 -0.3461
 4918SOL    HW126213   4.701   4.419   0.275 -1.0647  0.5246  1.1481
 4918SOL    HW226214   4.597   4.350   0.350  0.0912 -0.7818  0.0707
 4919SOL     OW26215   0.808   2.677   6.406 -0.0463  0.2760 -0.4621
 4919SOL    HW126216   0.750   2.749   6.382  0.5794  1.2237  0.8393
 4919SOL    HW226217   0.764   2.595   6.383  0.0532  0.3017 -0.7433
 4920SOL     OW26218   2.041   3.527   8.277 -0.3751  0.1184  0.3416
 4920SOL    HW126219   2.090   3.452   8.244 -0.7583  0.3253 -0.7029
 4920SOL    HW226220   1.960   3.483   8.302 -0.7245  0.1935 -0.6616
 4921SOL     OW26221   2.538   2.525   1.829  0.6498 -0.2684  0.4759
 4921SOL    HW126222   2.554   2.612   1.793  0.4049 -0.4184  0.0087
 4921SOL    HW226223   2.508   2.539   1.919  2.2921  1.8941  0.6840
 4922SOL     OW26224   1.866   3.655   4.655  0.0882  0.0687 -0.0580
 4922SOL    HW126225   1.822   3.692   4.579 -3.9042  0.0265  2.2659
 4922SOL    HW226226   1.819   3.573   4.674 -0.1867 -0.0129 -1.0901
 4923SOL     OW26227   0.229   3.275  16.955 -0.0029  0.0342  0.1977
 4923SOL    HW126228   0.158   3.296  16.894  0.9650  2.0544 -0.2165
 4923SOL    HW226229   0.302   3.304  16.900  0.0432 -0.0626  0.2080
 4924SOL     OW26230   0.999   3.409   4.086 -0.5241  0.2868  0.0821
 4924SOL    HW126231   0.970   3.435   3.999 -1.4804 -0.0713  0.2895
 4924SOL    HW226232   0.972   3.488   4.134  1.5482  0.9315  0.1824
 4925SOL     OW26233   0.313   1.209   6.386  0.5761  0.2701  0.0262
 4925SOL    HW126234   0.317   1.117   6.414 -0.7595 -0.1036 -1.0434
 4925SOL    HW226235   0.383   1.210   6.321  1.2232 -0.0342  0.7115
 4926SOL     OW26236   3.660   4.012   7.820  0.1263  0.1115 -0.3555
 4926SOL    HW126237   3.665   4.052   7.907 -1.2417 -0.2200 -0.1280
 4926SOL    HW226238   3.587   4.063   7.786 -1.6192 -2.4631 -0.4879
 4927SOL     OW26239   3.925   0.400  17.045 -0.6444 -0.4592 -0.7579
 4927SOL    HW126240   3.832   0.375  17.040 -0.4275 -1.5177  0.4247
 4927SOL    HW226241   3.918   0.471  17.109  0.0321 -1.6425  0.6301
 4928SOL     OW26242   4.597   0.560   5.327 -0.3540 -0.1737  0.2134
 4928SOL    HW126243   4.533   0.548   5.256 -1.8261  1.0709  1.3264
 4928SOL    HW226244   4.568   0.644   5.361 -0.3667  0.3487 -1.0890
 4929SOL     OW26245   3.227   3.858   5.519  0.1092 -0.2991  0.2154
 4929SOL    HW126246   3.177   3.830   5.443 -1.3714 -0.4323  1.2484
 4929SOL    HW226247   3.310   3.815   5.495 -0.6898 -3.2852  2.7238
 4930SOL     OW26248   2.039   1.615  16.835  0.6006  0.1788 -0.2135
 4930SOL    HW126249   2.029   1.704  16.870  2.3053  0.0017  0.7317
 4930SOL    HW226250   1.962   1.611  16.779  1.7376  0.3625 -1.7788
 4931SOL     OW26251   0.472   2.507   2.981 -0.3001  0.0753 -0.1175
 4931SOL    HW126252   0.399   2.569   2.974 -1.6374 -1.3246  1.4223
 4931SOL    HW226253   0.436   2.426   2.945  0.0827 -1.2705  2.5857
 4932SOL     OW26254   1.369   0.017   5.441  0.6037  0.4885  0.3383
 4932SOL    HW126255   1.446   0.066   5.471  1.1503 -0.3259  0.2714
 4932SOL    HW226256   1.415   4.659   5.452 -0.3415 -0.2963 -1.6173
 4933SOL     OW26257   4.614   3.961   8.320 -0.2309 -0.5502 -0.2508
 4933SOL    HW126258   4.612   3.870   8.350 -0.9120  0.6157  3.2860
 4933SOL    HW226259   4.538   3.952   8.262 -2.4232  0.6683  2.4104
 4934SOL     OW26260   3.732   1.780   3.691 -0.2604  0.2893  0.2930
 4934SOL    HW126261   3.819   1.787   3.650 -0.0530 -1.6236  0.3901
 4934SOL    HW226262   3.749   1.823   3.774  1.3238  0.5299 -0.1558
 4935SOL     OW26263   3.269   4.126   1.890 -0.9076 -0.0503 -0.3412
 4935SOL    HW126264   3.307   4.081   1.815 -0.0186  0.7277 -0.3455
 4935SOL    HW226265   3.312   4.209   1.872 -3.1745  0.9590 -1.1751
 4936SOL     OW26266   3.132   2.493  12.683 -0.1656  0.0089 -0.0480
 4936SOL    HW126267   3.067   2.537  12.739 -0.6464 -1.6611  0.7173
 4936SOL    HW226268   3.193   2.566  12.682  0.7488 -0.7426  0.7839
 4937SOL     OW26269   2.297   0.898   0.557 -0.0101  0.5068  1.1125
 4937SOL    HW126270   2.361   0.895   0.486 -2.9605 -0.1448 -1.5641
 4937SOL    HW226271   2.216   0.898   0.504  0.9841  0.9860 -0.4083
 4938SOL     OW26272   2.107   3.870   7.086  0.7750  0.3456 -0.8144
 4938SOL    HW126273   2.064   3.810   7.147 -2.3132  2.3760 -1.0075
 4938SOL    HW226274   2.163   3.913   7.150 -1.8357  0.2456  1.4823
 4939SOL     OW26275   3.839   1.555   2.410  0.4927  0.1703  0.4740
 4939SOL    HW126276   3.767   1.617   2.400 -0.7831 -1.5877 -1.2880
 4939SOL    HW226277   3.897   1.611   2.463  1.2884 -1.0706  0.9247
 4940SOL     OW26278   0.440   3.393  16.788  0.0213 -0.4760  0.3607
 4940SOL    HW126279   0.528   3.413  16.759 -0.3336  2.1485  1.1380
 4940SOL    HW226280   0.382   3.409  16.714 -0.5938  1.7023  1.3345
 4941SOL     OW26281   0.359   4.307   3.165  0.1460  0.3730 -0.1934
 4941SOL    HW126282   0.438   4.254   3.171 -0.3167 -0.2772  0.3019
 4941SOL    HW226283   0.300   4.252   3.114 -0.5157  1.2173 -0.3289
 4942SOL     OW26284   1.771   3.099   3.490 -0.1639 -0.0199 -0.2597
 4942SOL    HW126285   1.815   3.166   3.543 -2.4969  1.2885  0.0405
 4942SOL    HW226286   1.751   3.145   3.409 -0.5163  3.1431  1.6203
 4943SOL     OW26287   2.244   0.790   8.061 -0.4100 -0.2976  0.0805
 4943SOL    HW126288   2.335   0.785   8.033 -0.8539 -2.1093 -1.0615
 4943SOL    HW226289   2.251   0.859   8.126  0.4763  0.2818 -0.6229
 4944SOL     OW26290   1.532   3.684   5.030  0.2270 -0.6831  0.5980
 4944SOL    HW126291   1.481   3.634   4.965 -0.0575 -0.4093  0.6103
 4944SOL    HW226292   1.601   3.723   4.977 -1.2918  0.7314 -0.3481
 4945SOL     OW26293   0.252   2.984  16.414 -0.4601 -0.3042 -0.3963
 4945SOL    HW126294   0.289   3.002  16.501  2.1498  0.2261 -1.6217
 4945SOL    HW226295   0.328   2.967  16.358 -0.0145 -2.7873  0.9212
 4946SOL     OW26296   2.274   1.904   4.218 -0.2089 -0.1689 -0.4478
 4946SOL    HW126297   2.220   1.983   4.208 -2.8502 -1.6131  2.4155
 4946SOL    HW226298   2.344   1.933   4.276  0.9168  0.2109 -2.0022
 4947SOL     OW26299   0.988   2.580   4.920  0.0368  0.3804 -0.5252
 4947SOL    HW126300   0.898   2.549   4.919  0.0799  0.2695 -3.3918
 4947SOL    HW226301   1.019   2.533   4.842  1.1423 -0.4742  0.4331
 4948SOL     OW26302   0.919   1.650   0.834 -0.4225  0.2277 -0.5089
 4948SOL    HW126303   0.841   1.613   0.792 -1.9137 -0.7874  3.1848
 4948SOL    HW226304   0.988   1.654   0.767  1.7481 -2.3794  1.5784
 4949SOL     OW26305   0.978   2.454  10.409  0.7876  0.1490 -0.0282
 4949SOL    HW126306   0.978   2.506  10.490 -0.6988  2.5265 -1.5609
 4949SOL    HW226307   1.068   2.462  10.379  0.5503  0.6023 -0.6119
 4950SOL     OW26308   0.466   0.077   2.467 -0.2900  0.3068  0.1106
 4950SOL    HW126309   0.483   0.134   2.392  0.3838 -0.5081 -0.3587
 4950SOL    HW226310   0.371   0.063   2.466 -0.3314  0.6507 -1.0041
 4951SOL     OW26311   1.358   0.453   6.403  0.2245  0.1991 -0.0378
 4951SOL    HW126312   1.405   0.496   6.474  0.1485 -0.9211  0.6953
 4951SOL    HW226313   1.416   0.381   6.378  0.3625  0.5285 -0.6655
 4952SOL     OW26314   4.577   0.094  12.876 -0.1082 -0.1278 -0.4724
 4952SOL    HW126315   4.485   0.117  12.892  0.1156 -0.0421  0.7533
 4952SOL    HW226316   4.600   0.051  12.959 -1.2282  2.0381  0.9896
 4953SOL     OW26317   2.059   3.850   8.392 -0.0007  0.1544 -0.0275
 4953SOL    HW126318   1.984   3.797   8.417  0.9787 -1.9012 -1.3757
 4953SOL    HW226319   2.113   3.862   8.470  0.6607  1.8110 -0.7416
 4954SOL     OW26320   2.758   2.426  17.039 -0.0652 -0.3916 -0.2336
 4954SOL    HW126321   2.711   2.474  17.107  1.6924 -0.5265  1.0963
 4954SOL    HW226322   2.842   2.472  17.045 -0.2724 -0.6118  4.4761
 4955SOL     OW26323   1.962   2.323   2.004  0.2504  0.2171  0.2277
 4955SOL    HW126324   1.978   2.261   1.933  0.4457  1.9336 -1.2563
 4955SOL    HW226325   1.885   2.371   1.974  0.1735  0.7034  1.2103
 4956SOL     OW26326   2.434   1.965   6.584  0.5746  0.2000  0.6221
 4956SOL    HW126327   2.437   2.056   6.553 -1.4940 -0.1400 -0.6001
 4956SOL    HW226328   2.396   1.981   6.670  1.2596  1.2469  0.7262
 4957SOL     OW26329   1.719   4.235   7.887 -0.4360  0.1024 -0.0396
 4957SOL    HW126330   1.788   4.169   7.893 -0.4669 -0.0553 -1.4951
 4957SOL    HW226331   1.664   4.197   7.819  0.1338 -0.7570 -0.0175
 4958SOL     OW26332   0.748   3.908   6.681  0.1971 -0.2845 -0.4805
 4958SOL    HW126333   0.751   3.835   6.620  2.0955 -1.3147  0.8713
 4958SOL    HW226334   0.697   3.974   6.633 -0.3069  0.6014  1.3027
 4959SOL     OW26335   2.834   1.856  14.442  0.5822 -0.4350 -0.5024
 4959SOL    HW126336   2.790   1.941  14.442  0.9717 -0.2380 -1.1916
 4959SOL    HW226337   2.921   1.877  14.475  0.3716  1.8404 -1.3987
 4960SOL     OW26338   0.032   3.722   2.401 -0.0992  0.1479 -0.2521
 4960SOL    HW126339   0.007   3.678   2.320  0.5715 -2.3389  0.8761
 4960SOL    HW226340   4.704   3.802   2.395  2.1042  1.5197 -0.9994
 4961SOL     OW26341   1.205   1.511   9.155  0.4415 -0.1548  0.2806
 4961SOL    HW126342   1.257   1.501   9.235 -0.5231 -2.2851  0.6276
 4961SOL    HW226343   1.254   1.577   9.106 -0.3154  0.3186  0.1509
 4962SOL     OW26344   2.869   2.537   4.655  0.2769 -0.3172 -0.2614
 4962SOL    HW126345   2.927   2.499   4.589 -0.1700 -0.6093 -0.4854
 4962SOL    HW226346   2.902   2.506   4.740  1.9523 -0.0825 -0.8205
 4963SOL     OW26347   1.931   1.326  15.084  0.1036 -0.2636 -0.2418
 4963SOL    HW126348   1.987   1.250  15.068 -0.2566 -0.8573  1.3981
 4963SOL    HW226349   1.971   1.375  15.156 -1.2412 -1.3648  1.2466
 4964SOL     OW26350   4.372   1.450   6.226 -0.3387 -0.2809  0.6899
 4964SOL    HW126351   4.446   1.452   6.287  0.8571  1.9186 -0.8209
 4964SOL    HW226352   4.319   1.376   6.255 -0.2945 -0.5906 -0.0114
 4965SOL     OW26353   2.128   2.191   2.305 -0.0227  0.6304  0.0198
 4965SOL    HW126354   2.139   2.152   2.392 -1.2439 -1.7746 -0.9280
 4965SOL    HW226355   2.041   2.232   2.307 -0.0196  0.6795 -1.0076
 4966SOL     OW26356   4.217   0.061  16.044  0.2508  0.3825  0.2940
 4966SOL    HW126357   4.175   0.059  15.958 -0.5856  0.9115  0.6866
 4966SOL    HW226358   4.301   0.103  16.026  1.1409 -0.8538  1.6847
 4967SOL     OW26359   4.563   3.978  10.716  0.2456 -0.2036 -0.1147
 4967SOL    HW126360   4.483   3.953  10.669 -0.1680  1.9991 -0.5497
 4967SOL    HW226361   4.538   4.036  10.787 -0.7629 -1.4523  0.5653
 4968SOL     OW26362   4.674   2.090   4.561 -0.7259  0.0212  0.9175
 4968SOL    HW126363   4.647   2.126   4.477  6.9845  2.0922 -0.5844
 4968SOL    HW226364   4.660   2.162   4.623 -0.3329  0.7146  0.1912
 4969SOL     OW26365   1.478   2.617   4.758  0.3331 -0.4491 -0.3455
 4969SOL    HW126366   1.541   2.638   4.828  0.4912  0.6128 -0.7985
 4969SOL    HW226367   1.525   2.542   4.722  0.7367  0.5047 -1.8081
 4970SOL     OW26368   4.674   0.030   4.527  0.5399 -0.1447 -0.1076
 4970SOL    HW126369   4.587   4.718   4.513 -0.4579  1.0964  2.7274
 4970SOL    HW226370   4.704   4.715   4.609 -0.8363  0.0419  0.4851
 4971SOL     OW26371   0.442   1.557   8.689  0.2959 -0.0524 -0.0063
 4971SOL    HW126372   0.383   1.623   8.725 -2.2493 -2.3171 -0.0176
 4971SOL    HW226373   0.476   1.522   8.771  1.4692 -3.0154 -1.7549
 4972SOL     OW26374   2.757   1.213  11.293  0.5850 -0.0532  0.1672
 4972SOL    HW126375   2.692   1.281  11.310  0.0016 -0.2631 -1.2428
 4972SOL    HW226376   2.810   1.214  11.373  0.2420 -1.3526  0.3995
 4973SOL     OW26377   0.694   2.728   3.215 -0.5545  0.6567  0.3658
 4973SOL    HW126378   0.763   2.761   3.159 -1.2456 -0.8355 -1.3648
 4973SOL    HW226379   0.616   2.773   3.182 -1.7816 -1.0961  0.8192
 4974SOL     OW26380   3.004   2.325   6.543 -0.2836 -0.6297 -0.1285
 4974SOL    HW126381   3.083   2.357   6.586 -1.5019  0.2498  1.4345
 4974SOL    HW226382   3.033   2.238   6.516  0.9705 -0.3075  0.1935
 4975SOL     OW26383   3.065   3.679   7.420 -0.0855  0.1589  0.1023
 4975SOL    HW126384   3.098   3.601   7.464 -0.6969  1.0493  2.1486
 4975SOL    HW226385   3.057   3.665   7.326  0.9069  0.0775  0.0283
 4976SOL     OW26386   0.081   4.576   3.427  0.2700 -0.7587  0.2390
 4976SOL    HW126387   0.081   4.480   3.425 -0.4747 -0.7878  1.4258
 4976SOL    HW226388   0.114   4.588   3.338 -1.9860 -0.5387 -0.5754
 4977SOL     OW26389   2.079   4.712  17.452 -0.5708  0.6838 -0.1189
 4977SOL    HW126390   1.986   4.711  17.476 -0.2098 -0.4136  1.2616
 4977SOL    HW226391   2.092   4.618  17.435  3.2724  0.8250  2.0627
 4978SOL     OW26392   0.671   0.578   0.917 -0.5492 -0.1880 -0.7634
 4978SOL    HW126393   0.599   0.609   0.972  0.0893  2.4580 -1.3780
 4978SOL    HW226394   0.740   0.589   0.982 -1.8039 -2.0456  0.8734
 4979SOL     OW26395   4.211   0.961  16.451  0.2660  0.0047 -0.4345
 4979SOL    HW126396   4.254   0.884  16.414 -1.2184 -1.5864  1.1558
 4979SOL    HW226397   4.251   1.032  16.400  2.1013 -0.2654  0.6332
 4980SOL     OW26398   2.939   2.259   3.088  0.0038  0.3148  0.0978
 4980SOL    HW126399   2.942   2.350   3.118  2.2606 -0.5883  2.6073
 4980SOL    HW226400   2.943   2.217   3.174 -1.8019 -1.4934 -0.6817
 4981SOL     OW26401   4.077   0.480   7.712 -0.1028  0.3562  0.1976
 4981SOL    HW126402   4.056   0.536   7.787  1.2547  0.2643  0.6427
 4981SOL    HW226403   4.022   0.516   7.642 -1.0213  0.4320  0.9603
 4982SOL     OW26404   4.100   2.778  12.248 -0.3570 -0.0353  0.1006
 4982SOL    HW126405   4.043   2.761  12.324 -0.6848 -2.2787 -0.6645
 4982SOL    HW226406   4.182   2.745  12.284  0.4971  1.9858 -0.0444
 4983SOL     OW26407   2.989   1.036   8.376 -0.1132  0.0275  1.1492
 4983SOL    HW126408   2.912   1.075   8.334  0.7467 -0.2696 -0.7375
 4983SOL    HW226409   3.049   1.094   8.328 -3.3098 -0.4284 -3.4450
 4984SOL     OW26410   1.952   2.465  12.995  0.5947  0.4803 -0.7899
 4984SOL    HW126411   1.967   2.385  13.045  1.1492  1.2103  0.2049
 4984SOL    HW226412   1.873   2.438  12.949 -0.6633  0.0578  1.6101
 4985SOL     OW26413   1.097   0.143  16.659 -0.0408 -0.1687  0.4990
 4985SOL    HW126414   1.162   0.212  16.643 -0.6060  0.6931  1.9078
 4985SOL    HW226415   1.076   0.112  16.571 -0.5519  0.2893  0.4615
 4986SOL     OW26416   4.186   1.629   6.349  0.6000 -0.5308 -0.0369
 4986SOL    HW126417   4.162   1.711   6.306  2.5874  0.5702  0.9842
 4986SOL    HW226418   4.255   1.591   6.294  1.5567 -0.0184  0.8292
 4987SOL     OW26419   0.323   2.530   8.874 -0.5416  0.2398 -0.2668
 4987SOL    HW126420   0.334   2.584   8.795  0.3384 -0.6238 -0.7397
 4987SOL    HW226421   0.227   2.534   8.883 -0.8991 -2.2337 -3.1852
 4988SOL     OW26422   2.856   0.045  11.135 -0.2839  0.1888 -0.7049
 4988SOL    HW126423   2.936   0.098  11.134 -0.8727  1.0629 -0.9785
 4988SOL    HW226424   2.823   0.072  11.220 -0.3272 -0.2006 -0.5970
 4989SOL     OW26425   4.685   3.099   2.422 -0.0705  0.7413 -0.2194
 4989SOL    HW126426   4.607   3.049   2.446 -0.6482  0.0888 -3.4212
 4989SOL    HW226427   4.658   3.191   2.410  0.0635  0.5854 -1.7629
 4990SOL     OW26428   4.005   0.478   0.817 -0.1014  0.0822 -0.0148
 4990SOL    HW126429   4.091   0.469   0.858  0.3199  1.9538 -0.4827
 4990SOL    HW226430   4.031   0.518   0.734  1.3710 -1.3164 -0.2225
 4991SOL     OW26431   2.860   0.395  12.330 -0.0616 -0.2791  0.8975
 4991SOL    HW126432   2.894   0.482  12.311  0.5681 -0.9272 -0.9506
 4991SOL    HW226433   2.926   0.338  12.292  0.2619  1.1210 -0.6626
 4992SOL     OW26434   2.109   0.159  10.503 -0.3936 -0.2613  0.2982
 4992SOL    HW126435   2.131   0.158  10.410  0.6315  1.4193  0.5399
 4992SOL    HW226436   2.131   0.068  10.524  0.0649 -0.2413 -0.1184
 4993SOL     OW26437   3.876   0.712   7.688  0.1212  0.8964  0.2263
 4993SOL    HW126438   3.913   0.723   7.601 -1.6163  0.4027 -0.5611
 4993SOL    HW226439   3.796   0.662   7.670 -0.4470  2.1531 -0.7194
 4994SOL     OW26440   2.474   0.291   2.200  0.3801  0.2402  0.0154
 4994SOL    HW126441   2.404   0.331   2.149 -0.9732 -1.3951  0.6031
 4994SOL    HW226442   2.437   0.310   2.286  0.9724  0.3766  0.2399
 4995SOL     OW26443   3.772   4.283   1.381  0.9619 -0.2793 -0.5261
 4995SOL    HW126444   3.689   4.236   1.382  1.0438 -0.4274 -0.8642
 4995SOL    HW226445   3.799   4.293   1.473  1.8814  0.3521 -0.8575
 4996SOL     OW26446   0.560   3.503   3.275  0.3924  0.1181 -0.0478
 4996SOL    HW126447   0.487   3.455   3.314 -0.5612  0.4496 -1.4536
 4996SOL    HW226448   0.523   3.586   3.242  1.2063  0.0727 -1.0661
 4997SOL     OW26449   1.301   2.119   8.154  0.2967  0.1990  0.1393
 4997SOL    HW126450   1.385   2.102   8.112  1.3205 -1.4201  2.8736
 4997SOL    HW226451   1.312   2.097   8.247 -1.4553 -0.7237  0.1308
 4998SOL     OW26452   2.803   2.022   3.009 -0.0206  0.0644  0.1004
 4998SOL    HW126453   2.796   2.048   2.917 -0.2521 -1.2328 -0.2513
 4998SOL    HW226454   2.851   2.103   3.027 -0.7177  1.0765 -2.5906
 4999SOL     OW26455   0.839   1.989   0.691  0.2386 -0.2496 -0.2639
 4999SOL    HW126456   0.933   1.974   0.682  0.2448  0.0973 -0.8194
 4999SOL    HW226457   0.832   2.074   0.647 -3.0138 -0.8714 -0.9759
 5000SOL     OW26458   0.490   3.127   4.676 -0.3965 -0.3895 -0.2666
 5000SOL    HW126459   0.508   3.208   4.723 -2.0865 -1.0424  1.5201
 5000SOL    HW226460   0.430   3.081   4.736  1.5450 -1.1974  1.0766
 5001SOL     OW26461   0.792   3.058  15.675 -0.1410 -0.2888  0.0044
 5001SOL    HW126462   0.777   2.963  15.669 -0.7183 -0.2967  1.4778
 5001SOL    HW226463   0.884   3.053  15.702 -0.4858 -1.6699  0.9489
 5002SOL     OW26464   2.053   2.900   6.515 -0.2089 -0.1196  0.3179
 5002SOL    HW126465   2.006   2.835   6.463  0.8053  0.4963 -1.3694
 5002SOL    HW226466   2.102   2.846   6.577  2.2781  1.8522  0.0940
 5003SOL     OW26467   1.517   0.045   7.438  0.6990 -0.6522 -0.0689
 5003SOL    HW126468   1.589   0.084   7.388 -0.1944 -0.9229 -1.5770
 5003SOL    HW226469   1.458   0.120   7.432  0.5221 -0.7067  1.0940
 5004SOL     OW26470   3.884   1.761  15.624  0.2295  0.2368 -0.2450
 5004SOL    HW126471   3.872   1.752  15.719 -1.5139 -0.8634 -0.5666
 5004SOL    HW226472   3.973   1.728  15.614  1.0026  2.0227  0.8708
 5005SOL     OW26473   4.121   1.869   6.280  0.4764  0.2560 -0.5432
 5005SOL    HW126474   4.039   1.845   6.323  1.2062 -2.7925 -0.8616
 5005SOL    HW226475   4.084   1.929   6.215  1.2215  1.0678 -0.2232
 5006SOL     OW26476   1.023   0.079  13.165  0.0214 -0.0707  0.4794
 5006SOL    HW126477   0.989   0.168  13.169  0.2865  0.1461 -2.5459
 5006SOL    HW226478   0.974   0.043  13.091  0.1085  0.9670 -0.0748
 5007SOL     OW26479   1.988   0.908   2.717 -0.2370  0.7949  0.6610
 5007SOL    HW126480   2.023   0.865   2.796 -0.7914 -0.8614  0.0109
 5007SOL    HW226481   2.063   0.916   2.658  0.0537 -1.7624  0.6949
 5008SOL     OW26482   2.827   1.977   7.928  0.3319 -0.1252 -0.3048
 5008SOL    HW126483   2.732   1.987   7.921  0.6396  1.4727 -2.3936
 5008SOL    HW226484   2.832   1.898   7.874 -0.2281  0.1205 -0.7096
 5009SOL     OW26485   0.794   4.126  12.687 -0.2262  0.3115 -0.2238
 5009SOL    HW126486   0.876   4.101  12.645  0.1591 -1.0636  1.3636
 5009SOL    HW226487   0.813   4.209  12.732  2.3934 -1.2805  1.6007
 5010SOL     OW26488   2.388   2.916   1.440 -0.2548 -0.6532  0.3080
 5010SOL    HW126489   2.376   2.827   1.408 -2.6377  0.2695 -1.4134
 5010SOL    HW226490   2.348   2.967   1.369 -1.5060 -1.4413  0.4361
 5011SOL     OW26491   3.990   2.989   6.739  0.2399  0.4290 -0.2545
 5011SOL    HW126492   4.012   3.004   6.831 -0.5342 -2.0601  0.3211
 5011SOL    HW226493   3.895   2.988   6.737  0.2662  1.5224 -1.8746
 5012SOL     OW26494   2.692   0.820   8.905 -0.4167  0.1423 -0.1291
 5012SOL    HW126495   2.721   0.882   8.839 -2.0849  1.3718  0.3017
 5012SOL    HW226496   2.642   0.882   8.958 -0.0192  2.0125 -1.9500
 5013SOL     OW26497   3.412   1.167  10.558  0.1514  0.1044  0.4222
 5013SOL    HW126498   3.506   1.162  10.547  0.3668 -0.5095  2.5504
 5013SOL    HW226499   3.381   1.139  10.471 -2.0801 -0.9953  1.5539
 5014SOL     OW26500   2.198   2.773   3.749  0.6406 -0.3670 -0.2570
 5014SOL    HW126501   2.159   2.724   3.677  1.6182  0.5961 -1.4311
 5014SOL    HW226502   2.242   2.699   3.790 -0.1099 -0.8285 -0.2720
 5015SOL     OW26503   1.378   1.045   8.237 -0.0316  0.1919  0.0519
 5015SOL    HW126504   1.334   0.966   8.269  2.0038 -0.5954  0.9011
 5015SOL    HW226505   1.348   1.039   8.147  0.4598 -1.8177  0.0229
 5016SOL     OW26506   4.474   0.189   3.057 -0.3256  0.5380  0.2969
 5016SOL    HW126507   4.488   0.259   3.121  2.0140  0.7489 -0.4403
 5016SOL    HW226508   4.565   0.174   3.032 -0.0914  0.9840  0.8854
 5017SOL     OW26509   2.740   2.922  12.973 -0.4781 -0.4562 -0.5252
 5017SOL    HW126510   2.748   2.974  12.892  0.5378  0.3345  0.0873
 5017SOL    HW226511   2.811   2.859  12.957 -0.9153 -1.5099  1.7716
 5018SOL     OW26512   3.942   0.021   8.951 -0.1345 -0.7314  0.2548
 5018SOL    HW126513   4.012   4.718   9.010  0.1007  0.4962  0.5414
 5018SOL    HW226514   3.991   0.025   8.868 -1.5317  0.0063 -0.5286
 5019SOL     OW26515   0.705   4.158   0.036 -0.2187  0.6439 -0.2756
 5019SOL    HW126516   0.741   4.072   0.014  1.7187  0.4880  3.5088
 5019SOL    HW226517   0.617   4.127   0.056 -0.2603  1.4976  0.8624
 5020SOL     OW26518   0.114   2.233   8.734  0.2555  0.0658 -0.1506
 5020SOL    HW126519   0.108   2.328   8.724  0.8007  0.2058  0.8912
 5020SOL    HW226520   0.023   2.215   8.711 -0.0523  0.4895  0.7388
 5021SOL     OW26521   3.101   0.075   9.759  1.1557  0.3482  0.2891
 5021SOL    HW126522   3.170   0.008   9.763  0.3859 -0.4698 -0.2818
 5021SOL    HW226523   3.108   0.104   9.850 -2.0506  1.6947  0.1151
 5022SOL     OW26524   3.787   3.406   2.773 -0.1084  0.1543 -0.1741
 5022SOL    HW126525   3.826   3.441   2.694 -0.1312 -1.8789 -1.0921
 5022SOL    HW226526   3.828   3.469   2.833 -1.1646 -0.0404  0.7538
 5023SOL     OW26527   0.006   0.006   5.359 -0.0191 -0.1917  0.0736
 5023SOL    HW126528   4.665   0.071   5.383 -1.2387 -1.0664 -0.8698
 5023SOL    HW226529   0.067   0.056   5.304 -0.1953  1.9827  1.8757
 5024SOL     OW26530   4.710   4.383   6.030 -0.2242 -0.1322 -0.5133
 5024SOL    HW126531   0.012   4.344   5.947  0.9023 -3.0181  1.1998
 5024SOL    HW226532   4.623   4.347   6.045 -0.6195  1.2562  0.5028
 5025SOL     OW26533   2.867   0.480   5.747  0.3491 -0.4752 -0.0080
 5025SOL    HW126534   2.781   0.480   5.705  1.1122  1.3362 -1.5251
 5025SOL    HW226535   2.828   0.454   5.830 -3.4694 -1.4314 -2.1149
 5026SOL     OW26536   0.505   3.543  12.640 -0.1988  0.4978 -0.4148
 5026SOL    HW126537   0.458   3.601  12.580  0.7355  2.0658  0.3586
 5026SOL    HW226538   0.587   3.576  12.603 -0.6518  0.2560 -1.6271
 5027SOL     OW26539   0.941   4.217   5.107 -0.0209  0.3948  0.0275
 5027SOL    HW126540   0.871   4.181   5.053  1.8067 -0.3257 -1.8590
 5027SOL    HW226541   0.985   4.144   5.150 -1.2722 -0.5751 -0.3447
 5028SOL     OW26542   2.202   3.189   2.396 -0.4645 -0.3010 -0.6721
 5028SOL    HW126543   2.113   3.217   2.374 -1.5140 -2.0156  1.3435
 5028SOL    HW226544   2.203   3.105   2.352 -1.6735  0.8284 -2.8556
 5029SOL     OW26545   4.503   2.282   0.710 -0.5854  0.0883 -0.4376
 5029SOL    HW126546   4.500   2.365   0.662  2.0455 -0.3010 -1.2655
 5029SOL    HW226547   4.420   2.301   0.754 -0.8890  0.7844 -1.3003
 5030SOL     OW26548   2.553   3.642   1.162  0.0761 -0.1941  0.0180
 5030SOL    HW126549   2.490   3.674   1.097 -0.7223  0.9081  1.3399
 5030SOL    HW226550   2.636   3.650   1.115 -0.6967  1.4808 -1.0536
 5031SOL     OW26551   1.426   1.722   2.592  0.4110  0.0703  0.0443
 5031SOL    HW126552   1.448   1.808   2.627  0.5495 -0.2150  0.6469
 5031SOL    HW226553   1.503   1.674   2.619  1.1788  0.5834 -1.2239
 5032SOL     OW26554   4.186   4.132  16.424 -0.0827  0.5171 -0.6657
 5032SOL    HW126555   4.183   4.084  16.507 -0.0857 -0.8248 -1.4584
 5032SOL    HW226556   4.198   4.058  16.366 -1.2057 -1.3774  1.5271
 5033SOL     OW26557   1.723   2.491   9.176 -0.3011 -0.0395 -0.0054
 5033SOL    HW126558   1.641   2.516   9.219 -0.6935 -0.8053 -0.3044
 5033SOL    HW226559   1.702   2.450   9.092 -0.7239  0.6103 -0.2111
 5034SOL     OW26560   2.823   2.051   5.540  0.6148  0.5288 -0.3284
 5034SOL    HW126561   2.802   2.144   5.542 -1.3097  0.0236  3.1990
 5034SOL    HW226562   2.893   2.049   5.475  0.7164  0.3076 -0.2127
 5035SOL     OW26563   4.241   0.361  13.076 -0.0180  0.6412 -0.1545
 5035SOL    HW126564   4.155   0.338  13.042  0.6089  1.2694 -2.1364
 5035SOL    HW226565   4.231   0.456  13.074 -0.6992  0.5463 -1.1278
 5036SOL     OW26566   1.230   2.727   7.948  0.0429 -0.1733 -0.1664
 5036SOL    HW126567   1.316   2.733   7.906 -0.3766 -0.2846 -1.0377
 5036SOL    HW226568   1.245   2.781   8.025 -3.4319  0.3196  0.1225
 5037SOL     OW26569   1.613   2.213  12.064 -0.7114  0.2969  0.1500
 5037SOL    HW126570   1.636   2.257  12.146  2.1037 -0.6835 -0.1342
 5037SOL    HW226571   1.598   2.290  12.010  1.0925 -0.2986 -1.1994
 5038SOL     OW26572   0.649   0.162   3.366  0.7159 -0.1384 -0.2823
 5038SOL    HW126573   0.732   0.119   3.344  1.4061  0.7760  0.5359
 5038SOL    HW226574   0.643   0.236   3.306  1.2799 -0.3070 -0.5398
 5039SOL     OW26575   2.462   2.733   8.610  0.1589  0.2115 -0.7404
 5039SOL    HW126576   2.416   2.800   8.662 -0.2291  0.9419 -2.0355
 5039SOL    HW226577   2.455   2.772   8.523 -0.5296 -2.1336 -1.7354
 5040SOL     OW26578   0.023   4.674   1.738  0.1860  0.0304  0.5307
 5040SOL    HW126579   4.692   4.669   1.815  1.6184 -1.1801  1.4774
 5040SOL    HW226580   0.066   4.588   1.736 -1.4137 -0.7614  0.0465
 5041SOL     OW26581   3.689   1.843   3.210 -0.2119 -0.2597 -0.2457
 5041SOL    HW126582   3.681   1.921   3.266  1.5060 -1.3843  1.5803
 5041SOL    HW226583   3.620   1.867   3.148 -0.0026  0.6948 -0.1091
 5042SOL     OW26584   1.706   4.258   2.997  0.0929  0.6557  0.4291
 5042SOL    HW126585   1.772   4.326   3.012 -2.0698  2.6575  0.7687
 5042SOL    HW226586   1.668   4.269   2.910 -0.6408  1.3043  0.8353
 5043SOL     OW26587   3.271   0.038  16.734  0.2744 -0.2049  0.0335
 5043SOL    HW126588   3.364   0.024  16.715  0.0808 -0.9677 -0.3780
 5043SOL    HW226589   3.244   4.670  16.733  2.9923 -0.9988 -2.4458
 5044SOL     OW26590   2.678   3.352   6.812 -0.0708  0.7685  0.2525
 5044SOL    HW126591   2.612   3.397   6.865 -3.1321 -0.5661 -2.4382
 5044SOL    HW226592   2.629   3.328   6.734 -0.9743 -1.0642  1.3802
 5045SOL     OW26593   2.165   1.500   5.864 -0.3723  0.2098  0.6699
 5045SOL    HW126594   2.199   1.454   5.787 -0.0067  0.5092  0.6554
 5045SOL    HW226595   2.167   1.593   5.842 -0.0940 -0.6290 -2.8445
 5046SOL     OW26596   2.634   1.365   6.940  0.9335  0.2050 -0.0747
 5046SOL    HW126597   2.637   1.269   6.930 -0.1843  0.2037 -0.3889
 5046SOL    HW226598   2.665   1.368   7.031 -1.9116 -2.4559  1.0250
 5047SOL     OW26599   0.127   2.455  11.303 -0.1004  0.0251  0.5149
 5047SOL    HW126600   0.147   2.369  11.340 -1.1291  0.4135  1.9573
 5047SOL    HW226601   0.186   2.469  11.229 -0.5578 -0.7511  0.0047
 5048SOL     OW26602   2.743   1.148   8.287 -0.4287 -0.4097  0.0076
 5048SOL    HW126603   2.659   1.132   8.332 -1.4050 -1.4674 -2.2092
 5048SOL    HW226604   2.716   1.226   8.240  1.1551  2.8038  4.4207
 5049SOL     OW26605   1.361   2.202  12.821 -1.1145 -0.2958  0.6749
 5049SOL    HW126606   1.441   2.153  12.807 -0.3915  0.7552  1.0874
 5049SOL    HW226607   1.383   2.274  12.762  2.4561 -1.6927  0.2979
 5050SOL     OW26608   4.038   3.873  16.571  0.4681 -0.1187  0.0145
 5050SOL    HW126609   4.123   3.836  16.545  2.2205  1.1257  3.8651
 5050SOL    HW226610   3.980   3.798  16.561  1.7917 -0.9861 -1.2092
 5051SOL     OW26611   1.411   4.514   7.725 -0.1491  0.8116  0.0576
 5051SOL    HW126612   1.487   4.571   7.721  0.5342  0.0858  2.6029
 5051SOL    HW226613   1.397   4.498   7.632 -1.7571 -0.4372  0.5071
 5052SOL     OW26614   1.961   3.613   3.474 -0.3056 -0.0267 -0.3694
 5052SOL    HW126615   1.867   3.596   3.466 -0.4333  0.2274  0.6092
 5052SOL    HW226616   1.951   3.692   3.527 -1.7434 -0.2848 -0.2491
 5053SOL     OW26617   2.886   2.536   0.726 -0.3121  0.3072  0.0626
 5053SOL    HW126618   2.965   2.487   0.750 -2.0886 -1.7656  1.6269
 5053SOL    HW226619   2.861   2.581   0.806  0.1055 -1.4371  1.1722
 5054SOL     OW26620   4.002   0.568   2.036  0.1225 -0.7543 -0.0260
 5054SOL    HW126621   3.911   0.546   2.016 -0.0528 -0.0003 -0.0698
 5054SOL    HW226622   4.009   0.533   2.125  2.9962 -1.6293 -0.6124
 5055SOL     OW26623   0.642   0.482   9.401 -0.1887  0.6789  0.1296
 5055SOL    HW126624   0.553   0.482   9.368 -0.3058 -0.0552  0.4420
 5055SOL    HW226625   0.622   0.466   9.493 -2.0968  0.5288 -0.3119
 5056SOL     OW26626   2.206   0.617   8.627  0.3377 -0.4075  0.3853
 5056SOL    HW126627   2.195   0.546   8.562 -0.6113  0.6865 -0.6453
 5056SOL    HW226628   2.280   0.578   8.673  1.0745 -0.2405 -0.6599
 5057SOL     OW26629   3.077   0.163  16.220  0.6543 -0.3448  0.3958
 5057SOL    HW126630   3.068   0.126  16.132 -0.1527 -0.0146  0.3485
 5057SOL    HW226631   3.100   0.251  16.192  0.9854 -0.5507  0.0077
 5058SOL     OW26632   1.276   2.637   3.334 -0.3350 -0.6641  0.1966
 5058SOL    HW126633   1.321   2.576   3.276  1.5482  0.6829  0.2187
 5058SOL    HW226634   1.247   2.570   3.396  1.2919 -0.9916  0.5940
 5059SOL     OW26635   3.900   1.440   4.701  0.6399 -0.3225  0.2762
 5059SOL    HW126636   3.949   1.367   4.663  2.3463 -0.0106  1.9296
 5059SOL    HW226637   3.846   1.475   4.630 -0.0020  1.3571  1.5923
 5060SOL     OW26638   0.662   1.512   2.903  0.2375  0.0127 -0.4709
 5060SOL    HW126639   0.750   1.478   2.917 -0.1159 -0.4099  0.7171
 5060SOL    HW226640   0.671   1.530   2.809  0.0708 -1.3536 -0.7414
 5061SOL     OW26641   0.134   2.190   5.284 -0.4026 -0.1238 -0.4504
 5061SOL    HW126642   0.048   2.196   5.324 -0.0050  0.9433  0.2486
 5061SOL    HW226643   0.159   2.278   5.255 -1.0085 -0.1509 -1.0384
 5062SOL     OW26644   0.185   1.759  12.293  0.3298  0.4644 -0.3292
 5062SOL    HW126645   0.235   1.714  12.225 -0.4726  0.6382 -1.0330
 5062SOL    HW226646   0.110   1.789  12.242  1.5089  4.4662  0.2829
 5063SOL     OW26647   0.939   0.925   4.484 -0.4427 -0.0798  0.3406
 5063SOL    HW126648   0.923   0.993   4.419  1.1215  1.2251  1.3068
 5063SOL    HW226649   1.003   0.861   4.452  1.4683  2.0890 -0.1771
 5064SOL     OW26650   3.524   2.284   2.152  0.1870 -0.0514  0.1202
 5064SOL    HW126651   3.609   2.292   2.195  0.1547 -0.5047  0.2661
 5064SOL    HW226652   3.553   2.232   2.078  1.4784  0.7680  0.0499
 5065SOL     OW26653   3.310   1.495   2.879 -0.2514 -0.1281 -0.6182
 5065SOL    HW126654   3.294   1.567   2.939  1.4259 -1.9630  2.0415
 5065SOL    HW226655   3.220   1.467   2.866 -0.0568 -0.4122 -1.3783
 5066SOL     OW26656   0.537   0.591  11.652 -0.2793  0.0785  0.3095
 5066SOL    HW126657   0.546   0.547  11.568 -0.3375  3.9048 -1.6811
 5066SOL    HW226658   0.628   0.615  11.672 -0.7149 -0.4298  3.0078
 5067SOL     OW26659   4.110   4.632   4.448  0.5414  0.2317 -0.1723
 5067SOL    HW126660   4.093   4.712   4.398 -1.2149  0.7606  1.2658
 5067SOL    HW226661   4.110   4.574   4.372 -0.3347 -0.2841  0.2180
 5068SOL     OW26662   0.494   4.553   5.462 -0.0151  0.1896 -0.2903
 5068SOL    HW126663   0.566   4.614   5.445 -0.0570  0.4221  0.3598
 5068SOL    HW226664   0.427   4.615   5.431  0.0292  0.0629 -0.6406
 5069SOL     OW26665   0.732   0.648   4.251 -0.3928  0.2383 -0.3649
 5069SOL    HW126666   0.736   0.634   4.156  0.7825  0.3416 -0.3293
 5069SOL    HW226667   0.765   0.738   4.254  0.1754  0.0570 -1.1531
 5070SOL     OW26668   0.604   1.360  11.797  0.8605  0.8891  0.1080
 5070SOL    HW126669   0.640   1.273  11.811 -1.6711 -0.3565 -1.1552
 5070SOL    HW226670   0.615   1.389  11.888 -3.3685  1.7128  0.3692
 5071SOL     OW26671   1.307   2.036   5.566  0.1959 -0.1881 -0.4972
 5071SOL    HW126672   1.304   2.099   5.639 -1.0771 -3.6139  2.4197
 5071SOL    HW226673   1.373   2.075   5.510  1.3688  1.3614  1.9321
 5072SOL     OW26674   0.445   1.233   3.520 -0.5346  0.2251  0.3264
 5072SOL    HW126675   0.505   1.292   3.474 -0.9188  0.1960 -0.2049
 5072SOL    HW226676   0.494   1.194   3.592 -0.2070  0.8175  0.4311
 5073SOL     OW26677   3.391   4.398   6.434  0.2705  0.2034 -0.3415
 5073SOL    HW126678   3.353   4.380   6.520 -1.9833  2.1028 -0.9600
 5073SOL    HW226679   3.457   4.462   6.464  0.3486  0.0378 -0.1584
 5074SOL     OW26680   4.558   1.225   3.694  0.4344  0.0154  0.0619
 5074SOL    HW126681   4.653   1.229   3.680  0.4474  1.2671  0.4241
 5074SOL    HW226682   4.519   1.198   3.611  0.3878  3.3098 -1.0257
 5075SOL     OW26683   3.879   4.477   3.435  0.0587  0.2501  0.5109
 5075SOL    HW126684   3.846   4.417   3.502 -0.8300  0.2270  0.0617
 5075SOL    HW226685   3.963   4.510   3.468  0.3657  0.5792 -0.6180
 5076SOL     OW26686   4.321   2.618  11.999 -0.7988  0.4896 -0.4227
 5076SOL    HW126687   4.409   2.623  12.037 -0.9239 -0.1190 -0.0589
 5076SOL    HW226688   4.295   2.707  11.974 -1.2026  0.6543  0.5498
 5077SOL     OW26689   1.070   1.825   2.036  0.1452  0.0503 -0.3708
 5077SOL    HW126690   1.162   1.852   2.031  0.0391  0.1204 -1.9890
 5077SOL    HW226691   1.084   1.736   2.069 -1.3684  0.0139  0.1733
 5078SOL     OW26692   0.170   1.971  11.088  0.1158  0.3004 -0.5958
 5078SOL    HW126693   0.134   2.035  11.026 -2.0686 -0.3601 -0.0111
 5078SOL    HW226694   0.239   1.933  11.034 -1.0028  1.4516 -2.8437
 5079SOL     OW26695   2.414   3.740   1.772 -0.4569 -0.3319 -0.6818
 5079SOL    HW126696   2.358   3.754   1.695 -1.0704 -0.9382 -0.3504
 5079SOL    HW226697   2.401   3.820   1.822 -1.4674 -0.1621 -1.2106
 5080SOL     OW26698   2.558   0.664   6.952  0.2019 -0.1011  0.7301
 5080SOL    HW126699   2.577   0.580   6.995 -2.5121 -1.3444 -0.4776
 5080SOL    HW226700   2.642   0.696   6.921  1.3348 -1.5050  2.3446
 5081SOL     OW26701   0.205   2.244  11.008 -0.1237  0.5833  0.2128
 5081SOL    HW126702   0.225   2.244  10.914 -0.5888  0.1326  0.1129
 5081SOL    HW226703   0.138   2.311  11.016 -1.7835 -1.1619  0.9345
 5082SOL     OW26704   2.682   4.639   2.691  0.4064 -0.3884  0.5541
 5082SOL    HW126705   2.625   4.607   2.761 -0.4674  1.2682  0.6087
 5082SOL    HW226706   2.746   4.570   2.673  0.8851 -0.1241  1.2444
 5083SOL     OW26707   2.796   4.721   9.285 -0.0166  0.3099  0.0550
 5083SOL    HW126708   2.881   4.718   9.241  0.2013  0.0442  0.4934
 5083SOL    HW226709   2.736   0.042   9.225 -0.1611 -0.4202 -0.3564
 5084SOL     OW26710   3.788   3.528   8.154 -0.2358 -0.3500  0.1965
 5084SOL    HW126711   3.718   3.586   8.184  0.5140 -0.1661  1.6117
 5084SOL    HW226712   3.870   3.575   8.170 -0.8863  0.6485  0.5796
 5085SOL     OW26713   1.301   1.537  17.350  0.0539 -0.4108  0.1082
 5085SOL    HW126714   1.257   1.600  17.293  0.9418 -0.9435 -1.1754
 5085SOL    HW226715   1.221   1.511  17.396  0.9581  1.4227  2.7375
 5086SOL     OW26716   0.003   2.686   5.187 -0.2037  0.4330 -0.5744
 5086SOL    HW126717   0.075   2.646   5.138  0.0760  0.8316 -0.4861
 5086SOL    HW226718   4.658   2.623   5.164  0.4098  0.7239 -3.1586
 5087SOL     OW26719   2.588   3.203   6.553  0.8665 -0.0951  0.9530
 5087SOL    HW126720   2.496   3.202   6.578 -0.1663 -1.2069 -2.8850
 5087SOL    HW226721   2.594   3.294   6.525  0.9796  0.3161  2.3011
 5088SOL     OW26722   2.935   0.904   1.088  0.2894 -0.1735 -0.1062
 5088SOL    HW126723   2.884   0.947   1.020  1.1552  2.5431  0.9543
 5088SOL    HW226724   3.022   0.930   1.056 -0.8612 -0.8281 -3.7919
 5089SOL     OW26725   0.292   3.279   1.883 -0.0822 -0.3859  0.2218
 5089SOL    HW126726   0.337   3.202   1.849  1.5256  0.4154  0.4786
 5089SOL    HW226727   0.214   3.232   1.908  0.8806 -1.8512  0.4658
 5090SOL     OW26728   1.131   4.384   5.001 -0.2792  0.5581  0.0417
 5090SOL    HW126729   1.151   4.422   5.086  2.8194  1.3202 -1.0249
 5090SOL    HW226730   1.074   4.315   5.035  0.3589 -1.4139 -2.8158
 5091SOL     OW26731   3.458   2.747  12.882 -0.1892  0.1200  0.6947
 5091SOL    HW126732   3.527   2.812  12.869  0.4531 -0.3042  2.0359
 5091SOL    HW226733   3.477   2.732  12.975 -0.5036  1.8420  1.0349
 5092SOL     OW26734   1.764   2.750  11.172  0.6839  0.4221 -0.6021
 5092SOL    HW126735   1.703   2.817  11.203 -0.1991 -0.5159 -0.3274
 5092SOL    HW226736   1.848   2.793  11.190  0.3212  2.1154 -2.8401
 5093SOL     OW26737   2.886   3.494   6.624 -0.1466  0.0925  0.3714
 5093SOL    HW126738   2.838   3.447   6.556  0.1967  0.3787 -0.0690
 5093SOL    HW226739   2.820   3.480   6.691 -1.2584  0.7318 -0.6015
 5094SOL     OW26740   0.887   4.232   3.551  0.7449  0.0185 -0.0437
 5094SOL    HW126741   0.948   4.264   3.617  1.2022 -2.5135  0.7629
 5094SOL    HW226742   0.930   4.154   3.514  0.1724 -0.0858 -0.4950
 5095SOL     OW26743   2.734   4.043   6.801 -0.9896 -0.0012  0.0699
 5095SOL    HW126744   2.688   4.122   6.771 -0.0415  0.1587 -0.9473
 5095SOL    HW226745   2.665   3.992   6.843 -1.4339  1.7509  1.4880
 5096SOL     OW26746   0.031   4.679  17.288  0.3747  0.4343 -0.5910
 5096SOL    HW126747   0.030   4.584  17.302  2.8747  0.4080 -0.6587
 5096SOL    HW226748   4.690   4.672  17.218 -1.5065  1.6073  1.0367
 5097SOL     OW26749   1.430   3.262   0.254 -0.9650 -0.1671 -0.3935
 5097SOL    HW126750   1.421   3.198   0.324 -2.1249 -2.1110 -2.2945
 5097SOL    HW226751   1.339   3.285   0.236 -1.0435 -0.7043 -0.6902
 5098SOL     OW26752   1.914   1.894   3.305  0.1842  0.2997  0.0734
 5098SOL    HW126753   1.946   1.911   3.216  0.7966  0.3703  0.3041
 5098SOL    HW226754   1.913   1.986   3.332 -1.9326  0.5096 -0.7323
 5099SOL     OW26755   3.393   3.407  16.354 -0.3866 -0.7884  0.5535
 5099SOL    HW126756   3.335   3.398  16.279 -0.4644  2.0390  0.3049
 5099SOL    HW226757   3.466   3.457  16.318 -1.1872 -0.5022 -0.6379
 5100SOL     OW26758   1.020   2.254   2.461 -0.0529  0.1440 -0.4372
 5100SOL    HW126759   1.033   2.248   2.367  3.8855 -0.9096  0.1707
 5100SOL    HW226760   0.945   2.312   2.467  0.7502  1.0638  0.7218
 5101SOL     OW26761   3.705   1.196  11.129  0.0505 -0.0262 -0.3614
 5101SOL    HW126762   3.656   1.141  11.069  3.7807 -3.8620  0.0711
 5101SOL    HW226763   3.749   1.263  11.076  1.7327 -1.4218 -0.7285
 5102SOL     OW26764   1.097   3.620   4.367 -0.1799  0.4259 -0.8364
 5102SOL    HW126765   1.056   3.649   4.286 -0.0600 -0.3253 -1.1688
 5102SOL    HW226766   1.167   3.561   4.338 -1.9947 -1.8378 -0.6432
 5103SOL     OW26767   3.829   0.279   4.237 -0.3380  0.0847  0.1277
 5103SOL    HW126768   3.733   0.285   4.232 -0.4729 -1.6738  0.3159
 5103SOL    HW226769   3.847   0.369   4.213 -2.3815  0.1055 -1.3626
 5104SOL     OW26770   4.501   4.088   2.761  0.0510  0.3085  0.4319
 5104SOL    HW126771   4.548   4.170   2.777  0.1651  0.4112 -0.4347
 5104SOL    HW226772   4.565   4.021   2.735 -1.0657 -0.7076  0.3192
 5105SOL     OW26773   0.498   2.438   4.072 -0.4057  0.1874  0.6448
 5105SOL    HW126774   0.504   2.470   3.982 -2.9729  1.1301  0.8101
 5105SOL    HW226775   0.542   2.509   4.117  1.6369 -0.8273  0.2201
 5106SOL     OW26776   3.435   2.061   2.395  0.1937  0.3890 -0.3178
 5106SOL    HW126777   3.437   2.150   2.361 -1.1144 -0.1268 -1.7567
 5106SOL    HW226778   3.339   2.057   2.398  0.1787  0.2815 -0.9678
 5107SOL     OW26779   3.742   2.205   3.579 -0.3467  0.0259 -0.0601
 5107SOL    HW126780   3.747   2.299   3.564  1.8985 -0.2034 -0.7407
 5107SOL    HW226781   3.825   2.194   3.626 -1.1395  0.0442  1.3317
 5108SOL     OW26782   2.210   3.616   0.243  0.1761 -0.2981 -0.1238
 5108SOL    HW126783   2.217   3.567   0.161 -3.8147  0.0398 -0.7109
 5108SOL    HW226784   2.218   3.546   0.307  0.4154  1.3019  1.5891
 5109SOL     OW26785   1.513   4.218   3.577 -0.1453 -0.3923 -0.3760
 5109SOL    HW126786   1.574   4.199   3.648  1.8446  1.2884 -1.6297
 5109SOL    HW226787   1.513   4.313   3.567 -2.2258 -0.2343  1.3888
 5110SOL     OW26788   4.720   2.959   2.180  0.0709 -0.4403  1.1291
 5110SOL    HW126789   4.705   2.990   2.269 -0.3293  2.2182  0.1557
 5110SOL    HW226790   4.702   2.865   2.181  1.0611 -0.6100  2.6802
 5111SOL     OW26791   1.710   2.943   0.967 -0.2412 -0.3378 -0.3281
 5111SOL    HW126792   1.690   3.026   1.010  0.9777 -0.0833 -0.2488
 5111SOL    HW226793   1.660   2.880   1.019 -1.3810 -0.3374 -1.4278
 5112SOL     OW26794   2.057   3.870  10.536  0.2851  0.2854  0.4549
 5112SOL    HW126795   2.045   3.777  10.557 -3.4822  1.2116  2.2997
 5112SOL    HW226796   2.084   3.861  10.444 -1.6258 -3.0103  0.2174
 5113SOL     OW26797   2.260   2.613   5.782 -0.4305 -0.8715  0.4218
 5113SOL    HW126798   2.170   2.592   5.758  0.0685 -2.7883  0.1754
 5113SOL    HW226799   2.251   2.705   5.807  0.5778 -1.0129  1.3057
 5114SOL     OW26800   3.732   4.428  14.141 -0.0801 -0.2565 -0.0876
 5114SOL    HW126801   3.786   4.500  14.109 -0.2480 -0.8886 -1.7931
 5114SOL    HW226802   3.785   4.356  14.106 -0.6089 -1.4972  1.6490
 5115SOL     OW26803   4.457   2.039   2.007  0.0760 -0.3407 -0.4783
 5115SOL    HW126804   4.428   2.090   1.931 -0.1449 -0.7645 -0.6784
 5115SOL    HW226805   4.389   2.066   2.068  2.4569  1.4266  1.3607
 5116SOL     OW26806   4.463   3.562   0.464 -0.7733  0.0686  0.4606
 5116SOL    HW126807   4.395   3.499   0.487 -2.4028  1.3879 -0.7574
 5116SOL    HW226808   4.540   3.513   0.495 -0.3901  0.0840 -0.4870
 5117SOL     OW26809   4.004   2.154  11.498 -0.0737  0.4805  0.7696
 5117SOL    HW126810   3.977   2.167  11.407  0.8170 -0.2201  0.4083
 5117SOL    HW226811   4.047   2.236  11.520 -0.1461  1.0327 -1.1190
 5118SOL     OW26812   1.865   4.585  12.333  0.5149 -0.1560 -0.3572
 5118SOL    HW126813   1.930   4.626  12.276  0.4459  0.8040  0.2422
 5118SOL    HW226814   1.905   4.501  12.355  0.2286 -0.8324 -2.4471
 5119SOL     OW26815   0.047   3.113   1.965 -0.3916  0.4964  0.4249
 5119SOL    HW126816   0.033   3.068   2.048 -0.6984  0.1400  0.1849
 5119SOL    HW226817   4.684   3.102   1.927 -1.5710 -0.8934  3.5777
 5120SOL     OW26818   1.182   3.274   8.009  0.9633  0.2819 -0.3587
 5120SOL    HW126819   1.186   3.197   7.952  0.4976 -0.1432  0.1834
 5120SOL    HW226820   1.166   3.229   8.092  1.8457  0.2031 -0.2357
 5121SOL     OW26821   3.424   0.275  16.437 -0.4296 -0.4919  0.0172
 5121SOL    HW126822   3.477   0.353  16.454 -1.0519  0.1499 -1.0215
 5121SOL    HW226823   3.480   0.210  16.479 -1.4062 -1.1672  0.2838
 5122SOL     OW26824   4.264   0.383   5.749 -0.4310  0.0013  0.4508
 5122SOL    HW126825   4.232   0.409   5.836  0.8527 -1.4203  1.3519
 5122SOL    HW226826   4.295   0.294   5.766  0.8707  0.4359  0.3570
 5123SOL     OW26827   3.640   4.131   9.379 -0.4246  0.0988  0.5239
 5123SOL    HW126828   3.566   4.190   9.397 -0.1629  0.4434  0.4741
 5123SOL    HW226829   3.634   4.116   9.284  0.2335  0.8863  0.3547
 5124SOL     OW26830   1.883   2.412   5.063  0.9869  0.2010 -0.7282
 5124SOL    HW126831   1.810   2.470   5.042 -0.5507 -1.2080  0.7536
 5124SOL    HW226832   1.851   2.336   5.014 -0.8206  0.2344  0.4179
 5125SOL     OW26833   1.395   3.877   3.515  0.5873  0.8052  0.6300
 5125SOL    HW126834   1.477   3.912   3.479  0.6722  1.6022  1.5622
 5125SOL    HW226835   1.333   3.899   3.446 -2.3113  1.4330  3.4551
 5126SOL     OW26836   0.582   2.835   6.327  0.1364  0.5568  0.2514
 5126SOL    HW126837   0.569   2.854   6.234  1.8796 -1.0522 -0.3041
 5126SOL    HW226838   0.500   2.787   6.340  0.8981 -0.1433  2.5102
 5127SOL     OW26839   4.184   3.136   4.038 -0.4874  0.1207 -0.2480
 5127SOL    HW126840   4.187   3.151   4.133  1.6637 -2.2751  0.0464
 5127SOL    HW226841   4.260   3.189   4.012 -0.9663  0.0792 -1.7321
 5128SOL     OW26842   2.333   3.450  12.894 -0.3462  0.1447  0.0713
 5128SOL    HW126843   2.240   3.453  12.873 -0.5226 -2.1525  0.5889
 5128SOL    HW226844   2.355   3.535  12.855 -0.2131  0.9477  1.8942
 5129SOL     OW26845   0.542   2.913  13.826 -0.4008 -0.4054 -0.3113
 5129SOL    HW126846   0.514   2.838  13.879 -0.9222 -0.3868 -0.5612
 5129SOL    HW226847   0.466   2.971  13.827 -0.9996 -1.2413  2.3944
 5130SOL     OW26848   0.136   1.406   2.579  0.2614 -1.0556 -0.1533
 5130SOL    HW126849   0.093   1.482   2.618 -1.4617 -1.9177 -0.3376
 5130SOL    HW226850   0.186   1.369   2.651 -1.3048 -1.6411  0.6310
 5131SOL     OW26851   2.681   3.333  15.329  0.3162  0.0891 -0.3001
 5131SOL    HW126852   2.635   3.408  15.366  0.1256  0.8361 -2.0544
 5131SOL    HW226853   2.601   3.281  15.322  0.8253 -0.5191 -1.6454
 5132SOL     OW26854   3.253   4.207   2.991 -0.9607 -0.2895  0.3307
 5132SOL    HW126855   3.327   4.188   3.048 -0.2819 -1.1627 -0.8396
 5132SOL    HW226856   3.253   4.301   3.009 -2.0668 -0.2655  0.1928
 5133SOL     OW26857   2.523   1.967   5.437  0.6544  0.0962 -1.3498
 5133SOL    HW126858   2.474   2.023   5.497 -0.7028 -0.3660 -2.0375
 5133SOL    HW226859   2.611   1.991   5.466 -0.4425  0.2396  1.8484
 5134SOL     OW26860   2.444   0.715   5.568 -0.0237  0.2310 -0.3070
 5134SOL    HW126861   2.520   0.741   5.516 -0.9664 -2.4827 -3.0102
 5134SOL    HW226862   2.379   0.685   5.505  0.8582  2.6466 -2.3489
 5135SOL     OW26863   2.949   2.713   2.890  0.4848 -0.0625  0.4122
 5135SOL    HW126864   2.970   2.800   2.925 -1.6709  0.9582 -0.8606
 5135SOL    HW226865   2.953   2.726   2.795 -3.0256 -0.0935  0.2725
 5136SOL     OW26866   3.546   4.334  12.400 -0.3435 -0.0473  0.0982
 5136SOL    HW126867   3.584   4.388  12.331  0.8890  0.3541  1.0907
 5136SOL    HW226868   3.489   4.396  12.447  0.5546  0.5472  0.4100
 5137SOL     OW26869   1.158   0.888  13.666 -0.2864 -0.1744  0.4799
 5137SOL    HW126870   1.236   0.883  13.610  0.1431  1.2799  0.9510
 5137SOL    HW226871   1.094   0.863  13.599  0.7188  0.7840 -0.8543
 5138SOL     OW26872   0.160   3.490   1.029  0.3578  0.8869  0.3847
 5138SOL    HW126873   0.248   3.518   1.003  0.3836 -0.2253 -0.6865
 5138SOL    HW226874   0.108   3.569   1.042  1.4304  1.8350 -1.0665
 5139SOL     OW26875   4.665   4.251   6.293 -0.6012 -0.5474  0.6224
 5139SOL    HW126876   4.692   4.327   6.242 -0.2168 -1.7913 -1.0288
 5139SOL    HW226877   0.002   4.256   6.367  0.2931  2.4657 -0.3077
 5140SOL     OW26878   4.198   1.537   2.723 -0.3023 -0.5116  0.2678
 5140SOL    HW126879   4.285   1.537   2.761 -0.8937  0.4728  1.6220
 5140SOL    HW226880   4.195   1.466   2.659 -2.4592 -1.1696  1.0972
 5141SOL     OW26881   3.822   1.031   6.027 -0.2397 -0.2725 -0.4101
 5141SOL    HW126882   3.751   0.974   6.056 -0.6007  0.8421  0.8836
 5141SOL    HW226883   3.848   0.994   5.942  0.9816 -0.1259 -0.0886
 5142SOL     OW26884   1.798   0.117   7.849  0.1702 -0.4882  0.3565
 5142SOL    HW126885   1.768   0.170   7.922 -2.3753 -3.0608  1.1479
 5142SOL    HW226886   1.790   0.028   7.881 -1.8844 -0.1880  0.6807
 5143SOL     OW26887   1.718   4.198   7.400  0.0013 -0.0007  0.3344
 5143SOL    HW126888   1.667   4.172   7.477 -2.4432 -0.6467 -1.4867
 5143SOL    HW226889   1.707   4.293   7.409 -1.8172 -0.1350 -0.4387
 5144SOL     OW26890   3.384   3.294   6.711  0.4328  0.3239 -0.3239
 5144SOL    HW126891   3.347   3.300   6.623 -3.3880 -1.9023  1.1551
 5144SOL    HW226892   3.324   3.353   6.756 -0.5526 -0.8832 -0.0732
 5145SOL     OW26893   0.502   1.974   5.816 -0.2757 -0.1923  0.2399
 5145SOL    HW126894   0.510   1.980   5.911 -1.7708  0.4867  0.3206
 5145SOL    HW226895   0.448   2.051   5.799 -0.1792  0.3305  2.2592
 5146SOL     OW26896   0.548   0.605  10.582 -0.2372 -0.5885 -0.0056
 5146SOL    HW126897   0.520   0.523  10.540  2.3232 -1.2923 -0.3781
 5146SOL    HW226898   0.514   0.671  10.522 -1.7856 -0.3340  1.1520
 5147SOL     OW26899   1.931   3.787  13.507  0.7263 -0.8797 -0.1487
 5147SOL    HW126900   1.954   3.710  13.454 -2.4286  0.4747 -3.4871
 5147SOL    HW226901   1.904   3.846  13.437 -0.8713  0.2344  1.4242
 5148SOL     OW26902   3.370   1.161   6.987 -0.3038 -0.1197  0.0125
 5148SOL    HW126903   3.339   1.072   6.968  1.8368 -0.7912 -0.3254
 5148SOL    HW226904   3.422   1.148   7.067 -0.2915  1.3239  0.2343
 5149SOL     OW26905   1.834   0.686   1.074 -0.3604  0.4450 -0.8510
 5149SOL    HW126906   1.800   0.740   1.145 -0.4855  1.0444 -1.3703
 5149SOL    HW226907   1.849   0.605   1.124 -2.9795  0.7232  0.4054
 5150SOL     OW26908   2.130   1.827  13.484 -0.7399 -0.1494 -0.0846
 5150SOL    HW126909   2.162   1.742  13.515 -0.1595  0.4980  1.0672
 5150SOL    HW226910   2.216   1.867  13.474 -0.6728 -0.1378  0.5695
 5151SOL     OW26911   4.082   1.636   7.029 -0.2555 -0.5775 -0.5384
 5151SOL    HW126912   4.110   1.721   7.064 -1.8950  0.7599 -2.4235
 5151SOL    HW226913   4.101   1.572   7.097  1.0125  0.7075  0.3141
 5152SOL     OW26914   3.640   0.488   8.382  0.1792  0.4929 -0.5183
 5152SOL    HW126915   3.680   0.415   8.335  0.8197  1.6962 -1.8219
 5152SOL    HW226916   3.645   0.457   8.473  0.1167  0.3291 -0.5718
 5153SOL     OW26917   2.962   1.195   3.850  0.5798  0.8917  0.5454
 5153SOL    HW126918   2.949   1.284   3.884  0.3347  0.9439  0.3147
 5153SOL    HW226919   2.898   1.198   3.778  0.8867 -1.6687  0.1946
 5154SOL     OW26920   4.630   1.675  17.687 -0.4596  0.0578 -0.2619
 5154SOL    HW126921   4.582   1.614  17.631 -0.6706  0.5523 -0.6262
 5154SOL    HW226922   4.715   1.665  17.645 -1.1465 -0.5138 -1.4999
 5155SOL     OW26923   1.484   4.359   8.171 -0.2731  0.4014  0.7119
 5155SOL    HW126924   1.492   4.374   8.265  1.1723  1.3453  0.4318
 5155SOL    HW226925   1.503   4.265   8.174  0.5125  0.4934 -1.5028
 5156SOL     OW26926   1.943   3.151   6.615 -0.4928 -0.2169 -0.0748
 5156SOL    HW126927   1.883   3.175   6.544  0.8509 -0.8129 -1.3990
 5156SOL    HW226928   1.967   3.067   6.577  0.6979  0.0922 -0.0197
 5157SOL     OW26929   3.889   0.661   3.748  0.2628  0.1279  0.6238
 5157SOL    HW126930   3.903   0.606   3.671  2.4389  0.8736  0.4895
 5157SOL    HW226931   3.958   0.620   3.800  0.4013 -1.9528 -1.2110
 5158SOL     OW26932   0.033   4.109   2.610  0.2432 -0.8354  0.4786
 5158SOL    HW126933   0.003   4.084   2.522  0.7221 -1.0090  0.3671
 5158SOL    HW226934   0.123   4.082   2.596 -0.2602 -1.1384 -2.1775
 5159SOL     OW26935   3.964   1.075   4.402 -0.1219 -0.1321 -0.1790
 5159SOL    HW126936   3.895   1.039   4.346 -1.2840  0.0919  1.0924
 5159SOL    HW226937   4.019   1.129   4.347  1.3794  0.3670  1.8089
 5160SOL     OW26938   2.961   2.182   9.157  0.1867  0.4502 -0.2686
 5160SOL    HW126939   3.000   2.269   9.167  0.8277 -0.0616  1.5048
 5160SOL    HW226940   3.015   2.157   9.082  0.4198  0.5639 -0.1373
 5161SOL     OW26941   3.362   0.069   7.822 -0.1899  0.0693  0.2486
 5161SOL    HW126942   3.276   0.032   7.844 -0.8652  1.9184  0.7749
 5161SOL    HW226943   3.393   4.713   7.780  1.0538  1.2905 -1.1436
 5162SOL     OW26944   1.295   3.871   7.284 -0.0323 -0.5180  0.3056
 5162SOL    HW126945   1.333   3.875   7.371  0.5768 -1.0734  0.0668
 5162SOL    HW226946   1.266   3.780   7.282 -1.0832 -0.1753 -0.2530
 5163SOL     OW26947   0.668   2.035   4.143 -0.1123 -0.1444  0.0164
 5163SOL    HW126948   0.602   2.101   4.166 -0.2054 -0.5023  0.7941
 5163SOL    HW226949   0.711   2.019   4.227  0.5178  0.6205 -0.1593
 5164SOL     OW26950   4.248   1.337  12.164  0.4867 -0.1309  0.0412
 5164SOL    HW126951   4.278   1.421  12.199 -0.7186  0.2503  0.1720
 5164SOL    HW226952   4.197   1.362  12.087 -1.3542 -0.9382  0.9918
 5165SOL     OW26953   1.280   1.612   1.916 -0.7963  0.1540  0.3163
 5165SOL    HW126954   1.311   1.688   1.965 -0.2313 -0.3228  0.6919
 5165SOL    HW226955   1.211   1.649   1.860  1.4005  2.4008 -0.8738
 5166SOL     OW26956   0.628   0.358  12.870 -0.3311  0.6156  0.0251
 5166SOL    HW126957   0.720   0.382  12.878  0.5610 -2.6673 -0.2336
 5166SOL    HW226958   0.622   0.366  12.775 -0.9098  1.6166  0.1481
 5167SOL     OW26959   2.915   3.019   5.759  0.3925 -0.1403  0.1835
 5167SOL    HW126960   2.867   3.093   5.721  0.9787  0.3652  0.4234
 5167SOL    HW226961   2.956   2.970   5.688 -0.0236  1.2261 -0.9991
 5168SOL     OW26962   3.202   1.917  13.570  0.5885 -0.0617  0.3066
 5168SOL    HW126963   3.199   1.979  13.498 -2.3892 -0.5336  0.0176
 5168SOL    HW226964   3.206   1.969  13.651  1.3743  0.6095 -0.1638
 5169SOL     OW26965   4.555   3.434  16.606 -0.2776 -0.5808  0.3808
 5169SOL    HW126966   4.590   3.457  16.521 -1.2627  1.1485  0.4573
 5169SOL    HW226967   4.472   3.403  16.570  0.7380 -0.8815 -1.6890
 5170SOL     OW26968   3.100   2.846   1.233  0.2247  0.3546  0.3907
 5170SOL    HW126969   3.033   2.891   1.180 -0.1416  0.9140  1.3312
 5170SOL    HW226970   3.043   2.847   1.310  0.4042 -1.4148  0.5378
 5171SOL     OW26971   1.240   3.559   3.797 -0.2483 -0.3893 -0.4859
 5171SOL    HW126972   1.238   3.464   3.790  0.6228 -0.2639 -2.3214
 5171SOL    HW226973   1.154   3.581   3.762  0.1698  1.0096 -0.6327
 5172SOL     OW26974   0.041   1.086   4.786  0.7710  0.4627  0.0937
 5172SOL    HW126975   0.112   1.115   4.843  1.8224 -0.4526 -0.7317
 5172SOL    HW226976   0.054   1.131   4.702 -0.8378 -0.0733 -0.4484
 5173SOL     OW26977   0.962   0.842  14.312  0.4702  0.2825  0.2919
 5173SOL    HW126978   1.019   0.877  14.244 -0.4967  0.6728 -0.3147
 5173SOL    HW226979   0.981   0.891  14.392  0.3507  0.5563  0.1498
 5174SOL     OW26980   0.619   3.107   5.648 -0.1732  0.3998  0.2369
 5174SOL    HW126981   0.680   3.156   5.702  1.7035 -0.7279 -0.8472
 5174SOL    HW226982   0.595   3.170   5.580 -0.7291 -1.9486 -1.7599
 5175SOL     OW26983   2.841   1.989   4.250  0.4393 -0.3964 -0.4068
 5175SOL    HW126984   2.805   1.908   4.213  1.9890 -1.7735  1.1301
 5175SOL    HW226985   2.821   1.970   4.341 -1.5259 -1.5685 -1.0728
 5176SOL     OW26986   3.541   2.475   7.627 -0.0200 -0.2141 -0.2989
 5176SOL    HW126987   3.608   2.530   7.586  1.3265 -1.4672  0.2047
 5176SOL    HW226988   3.478   2.545   7.644  0.4765  0.5874 -1.7557
 5177SOL     OW26989   4.008   2.116   4.152 -0.3676  0.4734 -0.9848
 5177SOL    HW126990   4.065   2.108   4.229 -0.2799  2.2954 -0.8461
 5177SOL    HW226991   4.059   2.100   4.072  1.3829  0.2885  0.1682
 5178SOL     OW26992   2.822   1.147  11.556 -0.1196 -0.0392 -0.1658
 5178SOL    HW126993   2.737   1.145  11.599  0.3252 -1.3827  0.6543
 5178SOL    HW226994   2.887   1.160  11.625  2.4312 -2.6939 -2.0680
 5179SOL     OW26995   4.054   1.950   7.138  0.5650 -0.2174 -0.7119
 5179SOL    HW126996   4.084   1.920   7.225 -1.1734  0.7298  0.2137
 5179SOL    HW226997   4.135   1.943   7.087  1.2517 -4.3755  0.9002
 5180SOL     OW26998   2.303   3.347  13.384  0.1793 -0.3945  0.2777
 5180SOL    HW126999   2.340   3.290  13.451  0.3591  3.0195  3.0566
 5180SOL    HW227000   2.336   3.432  13.414  1.7517 -0.2922 -1.6877
 5181SOL     OW27001   0.315   1.254   6.771  0.6673 -0.1020  0.3857
 5181SOL    HW127002   0.329   1.179   6.713 -3.5285 -1.2526  0.8746
 5181SOL    HW227003   0.391   1.244   6.829  0.2136  0.0142  0.9942
 5182SOL     OW27004   4.535   2.530  16.163  0.0127 -0.0427  0.4462
 5182SOL    HW127005   4.620   2.486  16.162 -0.0239 -0.1115  0.3876
 5182SOL    HW227006   4.480   2.467  16.210 -0.0127 -0.5405 -0.2551
 5183SOL     OW27007   2.613   4.295  11.055  0.6954 -0.0804  0.2687
 5183SOL    HW127008   2.640   4.367  11.113 -1.2234 -1.0361  2.3925
 5183SOL    HW227009   2.662   4.223  11.093 -2.0888 -1.9178  0.3749
 5184SOL     OW27010   4.673   0.280  16.077  0.7640  0.2487 -0.1043
 5184SOL    HW127011   4.695   0.362  16.122  0.9637 -0.3350  0.8720
 5184SOL    HW227012   4.588   0.298  16.037 -0.1968  0.0344  1.8522
 5185SOL     OW27013   4.114   0.329  10.516  0.4811 -0.3435  0.2697
 5185SOL    HW127014   4.086   0.394  10.580  1.3804 -0.4412  0.7662
 5185SOL    HW227015   4.113   0.389  10.441 -1.5120 -0.0157  0.5688
 5186SOL     OW27016   3.815   3.340   0.967  0.1011 -0.0245  0.1403
 5186SOL    HW127017   3.742   3.393   1.001 -0.4482 -0.8767  0.2840
 5186SOL    HW227018   3.769   3.271   0.919 -0.1827  0.1077  0.2202
 5187SOL     OW27019   3.957   3.187   2.890 -0.2777  0.7647 -0.0523
 5187SOL    HW127020   3.892   3.249   2.856 -1.7096 -0.1239  1.1015
 5187SOL    HW227021   3.899   3.157   2.960  0.2743  0.1228  0.1307
 5188SOL     OW27022   2.563   1.091   6.947  0.2488  0.1487 -0.0582
 5188SOL    HW127023   2.537   1.120   6.859  2.3841  0.7653 -0.4753
 5188SOL    HW227024   2.478   1.059   6.978  0.3770  1.0750  1.2172
 5189SOL     OW27025   1.250   0.867   4.699 -0.0112 -0.4379 -0.0427
 5189SOL    HW127026   1.303   0.793   4.728  2.5015  0.3285 -2.5920
 5189SOL    HW227027   1.302   0.908   4.629  0.5591 -0.2614  0.4867
 5190SOL     OW27028   1.202   4.357   6.586 -0.3051 -0.9146  0.5934
 5190SOL    HW127029   1.200   4.267   6.620  0.4363 -1.8282 -1.7694
 5190SOL    HW227030   1.217   4.407   6.666  1.6376 -0.8695  0.1904
 5191SOL     OW27031   0.543   3.076  10.536 -0.4169  0.2866  0.5207
 5191SOL    HW127032   0.500   3.017  10.598 -0.5551  0.9825  1.0804
 5191SOL    HW227033   0.480   3.078  10.464  1.6792 -0.5963 -1.3460
 5192SOL     OW27034   2.422   1.588   2.413 -0.3962  0.4879  0.0165
 5192SOL    HW127035   2.383   1.666   2.453  0.1550  0.4242  0.6889
 5192SOL    HW227036   2.347   1.547   2.369  0.4715  1.1623 -2.0708
 5193SOL     OW27037   3.767   3.723   2.151  0.4844 -0.0248  0.0368
 5193SOL    HW127038   3.761   3.745   2.058 -1.0455  1.3898  0.4807
 5193SOL    HW227039   3.697   3.774   2.192 -1.5122 -1.2308 -1.8669
 5194SOL     OW27040   0.170   3.796   2.137 -0.0070  0.2784  0.0179
 5194SOL    HW127041   0.100   3.862   2.140  0.8018  1.0781  1.3315
 5194SOL    HW227042   0.231   3.841   2.078 -0.4017  0.9584  0.1227
 5195SOL     OW27043   3.656   4.559   1.432 -0.6411  0.0094 -0.0154
 5195SOL    HW127044   3.593   4.550   1.361  2.2405 -2.0593 -2.2978
 5195SOL    HW227045   3.725   4.494   1.416  0.4751  1.2783 -0.3216
 5196SOL     OW27046   2.800   3.651   4.631 -0.5788  0.3872  0.1300
 5196SOL    HW127047   2.835   3.628   4.717  1.6665 -0.1066 -0.9132
 5196SOL    HW227048   2.860   3.590   4.587 -0.5882 -0.3804  1.1732
 5197SOL     OW27049   1.782   2.854   6.135  0.2339 -0.2697  0.0223
 5197SOL    HW127050   1.746   2.940   6.114  0.0436 -0.7678 -1.6924
 5197SOL    HW227051   1.811   2.816   6.052  1.1422  1.4949 -0.4669
 5198SOL     OW27052   2.466   2.721   0.484  0.8138  0.2981 -0.7551
 5198SOL    HW127053   2.525   2.662   0.532 -0.3306 -1.1902 -1.1837
 5198SOL    HW227054   2.411   2.731   0.561  2.8527 -1.0397  0.8896
 5199SOL     OW27055   3.561   0.079   4.527 -0.0539  0.0004 -0.2814
 5199SOL    HW127056   3.520   0.047   4.607  0.5492 -2.7347 -1.0481
 5199SOL    HW227057   3.598   4.723   4.491  2.4923  0.9288  0.2551
 5200SOL     OW27058   4.045   2.253   9.614  0.3130 -0.4888  0.6008
 5200SOL    HW127059   4.107   2.246   9.686 -1.1864  3.3695  2.2695
 5200SOL    HW227060   4.014   2.341   9.635  1.2326 -0.3249  1.2698
 5201SOL     OW27061   0.076   3.825   9.149 -0.2972 -0.7487  0.1824
 5201SOL    HW127062   4.706   3.842   9.147 -0.3957 -1.4184 -1.1056
 5201SOL    HW227063   0.093   3.919   9.138 -1.4463 -0.6086 -0.4546
 5202SOL     OW27064   1.383   4.360   7.090  0.2641  0.0853 -0.3100
 5202SOL    HW127065   1.299   4.399   7.067  0.8699  0.8368 -1.2757
 5202SOL    HW227066   1.356   4.268   7.094  2.5516 -0.7023 -2.4230
 5203SOL     OW27067   2.700   4.112  14.140  0.2009 -0.2292  0.1313
 5203SOL    HW127068   2.635   4.089  14.207  1.4239  1.4114  1.8988
 5203SOL    HW227069   2.775   4.061  14.169  0.7935  0.9045  0.6198
 5204SOL     OW27070   3.909   0.249   7.141 -0.0061 -0.1559  0.1096
 5204SOL    HW127071   3.822   0.275   7.170 -0.8377  0.4023 -2.8497
 5204SOL    HW227072   3.950   0.231   7.226 -1.1410  0.6311  0.8260
 5205SOL     OW27073   2.919   3.341   8.952 -0.3403 -0.1063  0.2028
 5205SOL    HW127074   2.986   3.353   9.018 -0.1653 -2.9903  0.5560
 5205SOL    HW227075   2.939   3.252   8.921 -2.0284 -0.5560  0.3726
 5206SOL     OW27076   0.747   2.240  17.686  0.0416 -0.3133  0.3043
 5206SOL    HW127077   0.804   2.243  17.609 -0.8762  0.5063 -0.3395
 5206SOL    HW227078   0.766   2.151   0.015 -0.3875 -0.4512  0.1620
 5207SOL     OW27079   3.282   2.172  10.075  0.5991  0.0164  0.1529
 5207SOL    HW127080   3.364   2.125  10.092 -1.7700 -3.9793  0.3893
 5207SOL    HW227081   3.316   2.256  10.109  1.2137 -0.6548  1.1914
 5208SOL     OW27082   3.985   1.923   2.763  0.0345 -0.0020  0.3537
 5208SOL    HW127083   3.977   1.868   2.841  0.3089  1.8821  1.7034
 5208SOL    HW227084   3.991   1.871   2.683 -1.5401  0.6156 -0.1547
 5209SOL     OW27085   1.044   1.906   3.516  0.4441 -0.2846 -0.4010
 5209SOL    HW127086   1.006   1.830   3.560  1.9620 -2.0029 -1.9717
 5209SOL    HW227087   1.135   1.879   3.503  1.5904  2.4999  2.0755
 5210SOL     OW27088   2.792   4.547   5.972 -0.1778  0.0116 -0.1988
 5210SOL    HW127089   2.858   4.514   6.034 -0.4241  1.6523  0.9427
 5210SOL    HW227090   2.717   4.512   6.020  0.5953 -0.2088  0.8706
 5211SOL     OW27091   1.746   4.412   5.432  0.0949 -0.2497 -0.1922
 5211SOL    HW127092   1.808   4.483   5.443 -0.7193  0.3918  0.2790
 5211SOL    HW227093   1.785   4.348   5.492 -0.1402 -1.3170 -1.1772
 5212SOL     OW27094   4.297   0.852   5.206 -0.6419 -0.5962  0.6494
 5212SOL    HW127095   4.202   0.851   5.208 -0.6742 -0.9265 -1.2413
 5212SOL    HW227096   4.324   0.942   5.191  1.3808 -0.7757  3.0132
 5213SOL     OW27097   3.236   0.565  10.738  0.0764 -0.0403 -0.3297
 5213SOL    HW127098   3.237   0.627  10.811  0.0972  0.3603 -0.6739
 5213SOL    HW227099   3.328   0.541  10.734 -0.6589 -2.8147 -0.7843
 5214SOL     OW27100   0.224   0.507  14.002  0.6391  0.5062 -0.8011
 5214SOL    HW127101   0.140   0.554  14.006 -0.1079 -1.0727  2.0045
 5214SOL    HW227102   0.277   0.572  13.955  0.6338  0.9792 -0.1553
 5215SOL     OW27103   3.378   1.076   3.225  0.1437 -0.2214  0.4556
 5215SOL    HW127104   3.392   1.157   3.175 -0.5161 -0.8518 -0.7616
 5215SOL    HW227105   3.465   1.050   3.255 -0.2450 -2.1777 -0.1145
 5216SOL     OW27106   1.005   1.957   5.257  0.5293  0.0731 -0.6279
 5216SOL    HW127107   0.969   1.930   5.173 -2.0505 -1.0034  0.8274
 5216SOL    HW227108   0.959   1.896   5.314  1.3181  0.2454  0.1928
 5217SOL     OW27109   4.219   2.923   3.556 -0.8316 -0.4171 -0.2397
 5217SOL    HW127110   4.253   2.845   3.511 -1.6025 -0.6177 -0.4732
 5217SOL    HW227111   4.125   2.908   3.553 -0.6430 -0.7741 -4.6156
 5218SOL     OW27112   1.517   3.941   4.215 -0.3622 -0.3573 -0.7106
 5218SOL    HW127113   1.433   3.913   4.179 -0.1901  0.5405 -1.8324
 5218SOL    HW227114   1.564   3.967   4.136  1.1734  0.9420  0.6213
 5219SOL     OW27115   1.958   1.404   4.937  0.1610  0.2084 -0.1658
 5219SOL    HW127116   2.029   1.371   4.993 -1.2398  0.9941  2.0847
 5219SOL    HW227117   1.961   1.499   4.947  2.7196  0.2892 -1.8374
 5220SOL     OW27118   2.344   1.196  10.864  0.0540 -0.7239  0.2142
 5220SOL    HW127119   2.312   1.284  10.847  4.2211  0.7099 -0.2558
 5220SOL    HW227120   2.415   1.219  10.925  0.2224 -1.6890  0.3865
 5221SOL     OW27121   4.600   1.166   7.463 -0.2115 -0.2139 -0.8896
 5221SOL    HW127122   4.632   1.085   7.422 -0.3957 -0.9185  0.3644
 5221SOL    HW227123   4.674   1.189   7.519  0.4476 -1.5272 -1.2134
 5222SOL     OW27124   2.089   1.395   6.197 -0.5975  0.2128 -0.0699
 5222SOL    HW127125   2.002   1.433   6.180 -0.7934 -0.1261  0.1597
 5222SOL    HW227126   2.060   1.305   6.213  2.3072 -0.2328  2.6640
 5223SOL     OW27127   4.548   3.988   4.742 -0.4671 -0.0113 -0.1537
 5223SOL    HW127128   4.485   4.004   4.672  0.7520 -0.5869 -1.3823
 5223SOL    HW227129   4.630   3.972   4.695  0.4496  0.3722  1.3111
 5224SOL     OW27130   3.046   2.912   5.277  0.0569  0.3969  0.2304
 5224SOL    HW127131   2.961   2.948   5.253 -1.1550 -2.9543 -0.6190
 5224SOL    HW227132   3.042   2.833   5.223  0.7555  1.0940 -0.8533
 5225SOL     OW27133   3.178   3.308  10.647  0.2458 -0.2540 -0.1920
 5225SOL    HW127134   3.189   3.398  10.616  1.1931 -0.2673  0.1187
 5225SOL    HW227135   3.267   3.281  10.667 -0.0740 -1.5618 -0.5203
 5226SOL     OW27136   0.621   0.221   3.690 -0.3425 -0.0358 -0.2864
 5226SOL    HW127137   0.602   0.146   3.634  3.2882 -0.5401 -0.8906
 5226SOL    HW227138   0.550   0.221   3.754 -0.8314 -1.1824 -0.8228
 5227SOL     OW27139   2.476   1.417   8.707 -0.0522 -0.0536 -0.3215
 5227SOL    HW127140   2.453   1.508   8.729  0.8310  0.4639 -1.5652
 5227SOL    HW227141   2.468   1.374   8.792 -0.4411  3.2268  1.3309
 5228SOL     OW27142   3.529   0.463   6.047  0.1867  0.1318  0.3635
 5228SOL    HW127143   3.451   0.411   6.026  1.6035 -1.3700 -1.1325
 5228SOL    HW227144   3.497   0.552   6.029 -3.4324 -1.0481  1.0275
 5229SOL     OW27145   0.180   4.564   5.019  0.8467 -0.1271 -0.0645
 5229SOL    HW127146   0.176   4.658   5.036  0.9076 -0.2915  0.8874
 5229SOL    HW227147   0.232   4.575   4.939 -2.8308  2.7263 -2.0280
 5230SOL     OW27148   1.842   1.203   1.419 -0.0270  0.5979  0.2341
 5230SOL    HW127149   1.835   1.275   1.483  0.8809  1.8181 -1.0444
 5230SOL    HW227150   1.934   1.210   1.393  1.1401 -0.9696  3.9002
 5231SOL     OW27151   2.635   4.121   8.157  0.3393 -0.7802  0.3949
 5231SOL    HW127152   2.668   4.210   8.145  0.4550 -1.0428 -1.2845
 5231SOL    HW227153   2.661   4.082   8.073 -0.5758 -0.6165  0.0399
 5232SOL     OW27154   0.766   4.217   6.302 -0.1050  0.4553  0.1657
 5232SOL    HW127155   0.751   4.306   6.273  3.3086  1.2172  0.7908
 5232SOL    HW227156   0.704   4.210   6.375  0.3889  0.3405  0.5708
 5233SOL     OW27157   2.894   4.583  15.339  0.3155 -0.8415 -0.4318
 5233SOL    HW127158   2.891   4.498  15.296  3.7851 -0.3939 -1.5578
 5233SOL    HW227159   2.989   4.595  15.344  0.5162 -2.9531  0.5335
 5234SOL     OW27160   4.464   1.127   2.413  0.1314 -0.3040  0.0877
 5234SOL    HW127161   4.516   1.157   2.487 -0.2010  1.0139 -0.2034
 5234SOL    HW227162   4.515   1.169   2.344  1.2718  0.8795  1.6482
 5235SOL     OW27163   3.525   3.900   4.530 -0.1394  0.3621  0.0458
 5235SOL    HW127164   3.555   3.905   4.439  0.5606 -0.0104  0.2552
 5235SOL    HW227165   3.456   3.965   4.541 -2.0456 -1.7691  0.7164
 5236SOL     OW27166   3.199   4.427   5.015  0.3464  0.1685 -0.6798
 5236SOL    HW127167   3.259   4.372   4.965  0.6608  0.9763 -1.1945
 5236SOL    HW227168   3.262   4.468   5.075 -1.7655  0.9729  0.9555
 5237SOL     OW27169   2.059   1.806   5.744  0.5741 -0.4004  0.1512
 5237SOL    HW127170   2.082   1.762   5.662  0.4683 -1.3354  0.6180
 5237SOL    HW227171   2.080   1.897   5.726  0.3587 -0.4613 -0.4051
 5238SOL     OW27172   2.820   3.129   0.887  0.0203  0.4164 -0.4895
 5238SOL    HW127173   2.798   3.087   0.804  0.6384 -0.5086 -0.1907
 5238SOL    HW227174   2.743   3.180   0.914  1.6231  1.8230  1.4481
 5239SOL     OW27175   3.687   3.546   7.090  0.6241 -0.1419  0.1192
 5239SOL    HW127176   3.668   3.539   7.183 -1.0874  4.3290  0.1013
 5239SOL    HW227177   3.622   3.492   7.044  0.4400  0.9094 -0.8818
 5240SOL     OW27178   0.059   2.543   6.914  0.5142 -0.3864 -0.0939
 5240SOL    HW127179   4.703   2.494   6.897  1.2804 -1.2319 -1.3582
 5240SOL    HW227180   0.105   2.473   6.960  0.4271  0.9390  1.9881
 5241SOL     OW27181   1.349   3.610   2.224 -0.3877  0.1518  0.3004
 5241SOL    HW127182   1.289   3.567   2.164 -1.2176  2.9871 -0.8993
 5241SOL    HW227183   1.293   3.670   2.273 -0.6911 -0.0471  0.1953
 5242SOL     OW27184   1.894   2.544   9.845  0.4832 -0.1889  0.0481
 5242SOL    HW127185   1.940   2.493   9.777  0.2660 -1.5606  0.9285
 5242SOL    HW227186   1.930   2.496   9.919 -1.2546 -0.9891  0.3778
 5243SOL     OW27187   3.718   1.547   5.299 -0.3812  0.4685  0.2553
 5243SOL    HW127188   3.634   1.520   5.336  0.1153  0.9965  1.7650
 5243SOL    HW227189   3.787   1.498   5.343  1.6208  3.1690  0.1281
 5244SOL     OW27190   1.190   0.497   3.579  0.1256 -0.5694  0.8078
 5244SOL    HW127191   1.191   0.435   3.506 -0.0187 -1.6093  1.6845
 5244SOL    HW227192   1.100   0.529   3.572 -0.6891 -3.0166  0.1576
 5245SOL     OW27193   2.193   0.144   0.010 -0.0679  0.1154  0.0238
 5245SOL    HW127194   2.177   0.209   0.078  0.0926 -0.1872  0.3495
 5245SOL    HW227195   2.107   0.117  17.677  0.0703 -0.1057 -0.1586
 5246SOL     OW27196   2.530   2.703   5.571 -0.1824  0.3532  0.8160
 5246SOL    HW127197   2.588   2.691   5.496 -0.4932 -3.4532  1.2168
 5246SOL    HW227198   2.468   2.632   5.554  1.4670 -1.4525  2.3691
 5247SOL     OW27199   2.036   3.317   0.417  0.3786  0.1899  0.7580
 5247SOL    HW127200   2.054   3.404   0.452 -0.9647  0.2563  1.3135
 5247SOL    HW227201   2.112   3.266   0.444 -0.4156 -0.9646  0.8399
 5248SOL     OW27202   2.353   2.561   8.239  0.7431 -0.2501 -0.1315
 5248SOL    HW127203   2.343   2.655   8.224  0.9388 -0.1640  0.2781
 5248SOL    HW227204   2.266   2.528   8.264  0.4806 -0.6028 -1.5081
 5249SOL     OW27205   1.518   3.506   4.836  0.5483 -0.4057 -0.0576
 5249SOL    HW127206   1.603   3.465   4.822  0.8804 -0.3656  1.8427
 5249SOL    HW227207   1.499   3.526   4.744 -1.6384 -2.6041 -0.0787
 5250SOL     OW27208   3.458   0.145   9.202 -0.1505 -0.1765  0.4130
 5250SOL    HW127209   3.545   0.106   9.187  0.0801  0.0072  1.2705
 5250SOL    HW227210   3.435   0.126   9.294 -0.0523 -1.7855  0.1111
 5251SOL     OW27211   1.926   3.840  11.117 -0.0441  0.3420 -0.4009
 5251SOL    HW127212   1.877   3.878  11.045  0.4953  0.2861 -0.7963
 5251SOL    HW227213   2.012   3.838  11.075 -0.0300 -0.1807 -0.3494
 5252SOL     OW27214   3.587   0.017   0.141 -0.5579  0.3095  0.4637
 5252SOL    HW127215   3.496   4.713   0.143  0.0325 -1.9098 -3.5050
 5252SOL    HW227216   3.626   4.705   0.220  0.1328 -1.0329 -0.5050
 5253SOL     OW27217   0.096   1.728   1.293 -0.6083  0.2204  0.6627
 5253SOL    HW127218   0.100   1.717   1.198 -1.3243  0.1558  0.6427
 5253SOL    HW227219   0.170   1.785   1.314  0.5516 -0.2454 -2.2386
 5254SOL     OW27220   3.029   1.033   6.401 -0.0826  0.4992  0.5235
 5254SOL    HW127221   3.066   0.992   6.479  2.2447 -1.8191 -1.8306
 5254SOL    HW227222   2.937   1.013   6.422  0.1197 -2.2645 -1.2447
 5255SOL     OW27223   0.676   4.260   3.369  0.0855  0.1514  0.3544
 5255SOL    HW127224   0.685   4.167   3.351 -3.2603 -0.4358  1.7129
 5255SOL    HW227225   0.729   4.260   3.448  0.2815 -0.6434  0.2149
 5256SOL     OW27226   1.183   0.391  16.575 -0.1472  0.3798  0.3161
 5256SOL    HW127227   1.147   0.476  16.602 -0.9806 -0.1366  0.8205
 5256SOL    HW227228   1.165   0.385  16.481 -0.1641 -1.9362  0.4801
 5257SOL     OW27229   0.256   1.303   1.672 -0.3334 -0.2073  0.5261
 5257SOL    HW127230   0.337   1.268   1.634 -0.4929  1.3528 -1.2089
 5257SOL    HW227231   0.206   1.293   1.591  0.3046  2.5990 -0.1989
 5258SOL     OW27232   2.254   1.114   1.251 -0.0152  0.3195 -0.1635
 5258SOL    HW127233   2.246   1.130   1.158 -2.6973 -1.3645 -0.2434
 5258SOL    HW227234   2.250   1.018   1.254 -0.6294  0.4209  3.6050
 5259SOL     OW27235   1.925   1.330  14.541 -0.4712 -0.0667 -0.0933
 5259SOL    HW127236   1.886   1.248  14.511 -0.4242 -0.2798  0.4330
 5259SOL    HW227237   1.952   1.311  14.631  1.2954 -2.8876 -1.2231
 5260SOL     OW27238   0.760   3.498   4.289 -0.0939 -0.1662  0.3673
 5260SOL    HW127239   0.722   3.422   4.333 -0.1172 -0.6897 -0.5624
 5260SOL    HW227240   0.804   3.530   4.368  1.2205 -2.1601  0.4563
 5261SOL     OW27241   4.305   4.364   8.575 -0.2657  0.2159 -0.2346
 5261SOL    HW127242   4.324   4.440   8.519 -0.4899  0.4489  0.0072
 5261SOL    HW227243   4.372   4.303   8.547 -0.8951 -0.1997 -0.8387
 5262SOL     OW27244   2.499   1.814   5.753 -0.0506 -0.1944 -0.0693
 5262SOL    HW127245   2.587   1.849   5.770 -0.0556 -0.7691  1.1901
 5262SOL    HW227246   2.464   1.898   5.724 -0.3196 -0.0182  0.7548
 5263SOL     OW27247   4.013   1.610   1.310 -0.7029 -0.1410 -0.4521
 5263SOL    HW127248   4.065   1.599   1.231 -2.6760  1.5867 -1.9992
 5263SOL    HW227249   4.074   1.650   1.372 -0.2932 -1.5764  0.0704
 5264SOL     OW27250   2.359   0.025   4.594  0.0736  0.0303  0.6966
 5264SOL    HW127251   2.326   4.664   4.567 -2.3686  1.8608 -2.1322
 5264SOL    HW227252   2.401   0.003   4.677 -0.9220 -0.1592  1.1522
 5265SOL     OW27253   2.239   2.633  14.205  0.3374 -0.4746  0.4391
 5265SOL    HW127254   2.150   2.636  14.170 -0.0746 -2.0987  1.3746
 5265SOL    HW227255   2.234   2.549  14.250  1.7580 -0.0579  1.3615
 5266SOL     OW27256   4.487   1.321   5.019 -0.3792  0.0097  0.2176
 5266SOL    HW127257   4.582   1.325   5.004 -0.1924  1.3063  1.6942
 5266SOL    HW227258   4.466   1.235   4.984 -1.2920  0.0522  0.6563
 5267SOL     OW27259   2.537   0.831   8.060 -0.0427  0.1059  0.5842
 5267SOL    HW127260   2.559   0.741   8.084 -0.2058  0.3493  1.6898
 5267SOL    HW227261   2.621   0.868   8.088 -0.5649  1.4641  0.3677
 5268SOL     OW27262   3.743   0.980   4.243  0.4484 -0.5752 -0.0811
 5268SOL    HW127263   3.702   1.043   4.183  2.7611 -0.5756 -1.6741
 5268SOL    HW227264   3.664   0.967   4.295  0.6985 -2.0453 -0.0817
 5269SOL     OW27265   3.846   2.573  15.859 -0.0345  0.7373  0.5906
 5269SOL    HW127266   3.939   2.577  15.882 -0.2919  0.6754  1.6741
 5269SOL    HW227267   3.863   2.602  15.769 -1.1353  1.5575  0.6519
 5270SOL     OW27268   0.570   3.891   6.207 -0.0631  0.0433  0.3124
 5270SOL    HW127269   0.564   3.960   6.273  0.6393  2.1708 -1.8963
 5270SOL    HW227270   0.491   3.838   6.221  0.1876 -0.8498 -1.6489
 5271SOL     OW27271   2.239   4.166  15.935 -0.1918 -0.2337 -0.4097
 5271SOL    HW127272   2.223   4.073  15.921  2.3857 -0.5495 -1.1497
 5271SOL    HW227273   2.265   4.146  16.025 -0.4885  3.4844  0.5074
 5272SOL     OW27274   0.288   2.160  17.417 -0.5550 -0.4451  0.2367
 5272SOL    HW127275   0.346   2.231  17.444 -0.2748  0.0630 -1.6752
 5272SOL    HW227276   0.214   2.200  17.370 -1.0484 -0.7522  0.7606
 5273SOL     OW27277   4.044   2.578   6.904 -0.0625 -0.1395 -0.0105
 5273SOL    HW127278   4.090   2.534   6.833  0.6244  0.1161  0.2809
 5273SOL    HW227279   4.111   2.603   6.967 -0.8443 -0.7888  1.0768
 5274SOL     OW27280   1.959   2.342   3.017 -0.3619 -0.1456  0.1636
 5274SOL    HW127281   1.989   2.433   3.023  2.1671 -0.9599 -0.0584
 5274SOL    HW227282   1.938   2.327   3.109  1.2806  1.2155  0.7593
 5275SOL     OW27283   3.182   1.446   4.102  0.5769  0.1332  0.2262
 5275SOL    HW127284   3.149   1.482   4.020  0.5110 -0.2688  0.0766
 5275SOL    HW227285   3.267   1.488   4.114  1.1334 -0.4115 -1.8077
 5276SOL     OW27286   4.625   1.331   7.846 -0.1011 -0.1684 -0.5888
 5276SOL    HW127287   4.629   1.291   7.932 -0.4851  0.9166 -0.0619
 5276SOL    HW227288   4.649   1.421   7.868  1.1658 -0.8223  0.6985
 5277SOL     OW27289   2.479   4.159   2.458 -0.2141  0.4167  0.5032
 5277SOL    HW127290   2.444   4.170   2.546  0.8930 -1.1793  1.1496
 5277SOL    HW227291   2.535   4.236   2.467 -1.0832  1.2380 -1.1151
 5278SOL     OW27292   2.402   3.751   4.464  0.2360  1.1867  0.3186
 5278SOL    HW127293   2.316   3.789   4.443  0.3369 -0.4933 -3.1109
 5278SOL    HW227294   2.458   3.758   4.387 -0.9856  0.4701 -0.6346
 5279SOL     OW27295   3.050   1.560   3.560  0.6171  0.0133  0.2122
 5279SOL    HW127296   3.016   1.478   3.522  1.0100  1.1831 -2.6503
 5279SOL    HW227297   3.144   1.548   3.559  0.3902 -1.6328 -1.0021
 5280SOL     OW27298   0.256   4.684   4.418  0.2930 -0.7096 -0.3205
 5280SOL    HW127299   0.197   4.705   4.490 -0.8896 -1.3674 -1.1105
 5280SOL    HW227300   0.345   4.681   4.454 -0.2659  1.6322  1.2760
 5281SOL     OW27301   4.042   1.445  13.785 -0.1081 -0.2828 -0.0359
 5281SOL    HW127302   4.101   1.509  13.826  0.8302 -0.9347 -0.3659
 5281SOL    HW227303   3.989   1.421  13.861  0.2058  0.8928  0.5689
 5282SOL     OW27304   3.153   0.872  17.370 -0.0623 -0.3674  0.3729
 5282SOL    HW127305   3.059   0.879  17.353  0.2770  3.2337 -0.0357
 5282SOL    HW227306   3.197   0.910  17.294 -0.5147  0.5732  0.5897
 5283SOL     OW27307   1.392   2.101   2.095 -0.4928 -0.0175 -0.7675
 5283SOL    HW127308   1.433   2.186   2.074 -0.9030  0.2211 -0.6012
 5283SOL    HW227309   1.406   2.100   2.189 -2.1111 -2.8976 -0.5510
 5284SOL     OW27310   4.590   1.200   5.344  0.4936 -0.3344 -0.5160
 5284SOL    HW127311   4.504   1.160   5.355 -0.0491  0.6412 -1.1935
 5284SOL    HW227312   4.572   1.289   5.313  1.4431  0.4226  1.1065
 5285SOL     OW27313   3.312   2.988   5.896 -0.1314 -0.1832 -0.3555
 5285SOL    HW127314   3.366   2.915   5.926 -0.0386  0.1221  0.2266
 5285SOL    HW227315   3.221   2.983   5.927 -0.2913  0.3283 -0.7351
 5286SOL     OW27316   4.715   3.704   6.278 -0.0343  0.0680  0.4354
 5286SOL    HW127317   4.686   3.795   6.290  1.8077  0.6877  0.1989
 5286SOL    HW227318   0.048   3.693   6.354 -0.5776  2.4064  1.1798
 5287SOL     OW27319   4.495   1.424   5.728  0.3384  0.1560 -0.5948
 5287SOL    HW127320   4.551   1.432   5.650  1.3806  1.0362  0.2450
 5287SOL    HW227321   4.491   1.515   5.757 -0.1208 -0.6007  1.7217
 5288SOL     OW27322   4.606   2.715  11.465  1.2401  0.0623 -0.4852
 5288SOL    HW127323   4.689   2.760  11.482  0.8479  0.6532 -0.1244
 5288SOL    HW227324   4.596   2.734  11.372  0.1561 -0.1818 -0.4066
 5289SOL     OW27325   1.469   3.634   7.273 -0.2912  0.2590 -0.1538
 5289SOL    HW127326   1.525   3.705   7.241  0.5981 -0.4010 -0.0777
 5289SOL    HW227327   1.409   3.627   7.199  0.5555 -0.1994 -0.7969
 5290SOL     OW27328   0.465   1.229   0.595 -0.2880  0.2327 -0.0780
 5290SOL    HW127329   0.523   1.153   0.586 -0.6513 -0.2176  1.3418
 5290SOL    HW227330   0.390   1.195   0.644 -1.0082  2.9588  0.6911
 5291SOL     OW27331   4.722   0.941   9.607  0.4825 -0.2477 -0.0983
 5291SOL    HW127332   0.075   0.937   9.551  1.1456 -1.3699  0.8874
 5291SOL    HW227333   4.686   1.028   9.589  0.3973 -0.4312 -0.8286
 5292SOL     OW27334   2.544   3.116   8.311 -0.2652 -0.7949  0.2539
 5292SOL    HW127335   2.627   3.118   8.359 -0.6747 -1.0521  0.9701
 5292SOL    HW227336   2.554   3.197   8.261  0.1532  0.2320  2.0132
 5293SOL     OW27337   0.747   1.974   8.538  0.2677 -0.2988  0.1256
 5293SOL    HW127338   0.815   1.947   8.600  0.4152 -0.7577 -0.2343
 5293SOL    HW227339   0.694   1.898   8.564 -2.2827  0.3137 -3.2679
 5294SOL     OW27340   0.907   3.717  15.063 -0.2067 -0.4180 -0.0946
 5294SOL    HW127341   0.916   3.699  14.969 -2.2547  3.7133 -1.0540
 5294SOL    HW227342   0.971   3.650  15.090  0.3487  0.3647  0.5229
 5295SOL     OW27343   2.603   1.033   2.612 -0.0846  0.2226  0.5486
 5295SOL    HW127344   2.569   1.122   2.604  0.4115  0.4975  1.4495
 5295SOL    HW227345   2.674   1.032   2.549 -0.7255  2.2325 -0.2085
 5296SOL     OW27346   2.367   4.321  11.454 -0.8221  0.6694 -0.2333
 5296SOL    HW127347   2.367   4.329  11.358 -1.9320 -0.4623 -0.3245
 5296SOL    HW227348   2.278   4.290  11.467 -0.9349  0.4683 -1.4217
 5297SOL     OW27349   1.005   0.466   4.865  0.0775 -0.5088 -0.0966
 5297SOL    HW127350   0.916   0.439   4.842  0.0541  0.5164 -1.1751
 5297SOL    HW227351   1.030   0.505   4.782  0.7204 -1.9056 -0.5577
 5298SOL     OW27352   0.278   0.739  13.567  0.1872 -0.6870 -0.0461
 5298SOL    HW127353   0.281   0.662  13.511  0.2732 -0.4090 -0.4230
 5298SOL    HW227354   0.206   0.777  13.518 -0.3499 -1.2059  0.3482
 5299SOL     OW27355   1.542   0.063   4.581 -0.1113 -0.0565 -0.0400
 5299SOL    HW127356   1.477   0.131   4.564  0.3879  0.2535 -0.6953
 5299SOL    HW227357   1.532   4.721   4.513  1.8318  1.1326 -1.4879
 5300SOL     OW27358   4.140   0.990  16.160 -0.1749 -0.5329  0.1662
 5300SOL    HW127359   4.159   0.949  16.244 -0.6446 -1.0218  0.0337
 5300SOL    HW227360   4.049   1.016  16.168 -0.2144 -0.2939 -1.0628
 5301SOL     OW27361   0.339   3.513   2.011  0.2533  0.1515 -0.4064
 5301SOL    HW127362   0.333   3.433   1.960 -0.6390  0.5215 -0.8820
 5301SOL    HW227363   0.433   3.533   2.010  0.4235 -0.6791 -0.8812
 5302SOL     OW27364   3.109   1.887   8.401  0.2046  0.3203 -0.2199
 5302SOL    HW127365   3.176   1.926   8.457  0.3709 -1.1935  0.6344
 5302SOL    HW227366   3.127   1.795   8.422  0.3645  0.2109 -0.8468
 5303SOL     OW27367   1.213   0.138   5.249  0.1093 -0.0795 -0.1523
 5303SOL    HW127368   1.274   0.105   5.316 -0.7690 -1.4983 -0.0476
 5303SOL    HW227369   1.223   0.227   5.283 -1.1821 -0.3907  1.0637
 5304SOL     OW27370   0.785   4.571   0.370 -0.7058  0.5003 -0.1328
 5304SOL    HW127371   0.780   4.629   0.446  1.5829 -0.9056  1.1104
 5304SOL    HW227372   0.792   4.484   0.410 -0.2154 -0.5313 -2.4614
 5305SOL     OW27373   2.515   4.545   5.573 -0.0489  0.3173 -0.0962
 5305SOL    HW127374   2.600   4.584   5.589 -1.0992  1.8740  1.6426
 5305SOL    HW227375   2.532   4.503   5.489  2.5484  0.4002  0.4153
 5306SOL     OW27376   1.165   4.076   6.621  0.4330 -0.1940  0.3469
 5306SOL    HW127377   1.179   3.992   6.666 -0.3928 -1.2545 -1.3587
 5306SOL    HW227378   1.104   4.038   6.557 -0.1305 -0.4215  1.0091
 5307SOL     OW27379   4.199   1.685   6.783 -0.3453  0.3209 -0.0280
 5307SOL    HW127380   4.153   1.660   6.862  1.5495  1.7364  1.5269
 5307SOL    HW227381   4.275   1.627   6.784 -0.1780  0.5339 -0.3254
 5308SOL     OW27382   3.875   3.391   3.331 -0.1082 -0.0865  0.0909
 5308SOL    HW127383   3.797   3.442   3.354  1.2919  1.6364  0.9778
 5308SOL    HW227384   3.837   3.303   3.329  2.1185 -1.0184 -1.8043
 5309SOL     OW27385   1.939   2.828   3.849 -0.3738  0.2711 -0.1010
 5309SOL    HW127386   1.859   2.863   3.809  0.6643  1.7289 -0.9376
 5309SOL    HW227387   1.992   2.846   3.772  0.2319  0.9347  0.4740
 5310SOL     OW27388   0.648   1.425   5.343 -0.1786  0.0933  0.4657
 5310SOL    HW127389   0.640   1.517   5.316  1.8721  0.8321  2.2589
 5310SOL    HW227390   0.714   1.438   5.411 -0.9991  1.6250  0.9728
 5311SOL     OW27391   0.773   0.347   1.955 -0.4283 -0.3087 -0.4563
 5311SOL    HW127392   0.864   0.353   1.925 -0.0524 -1.0365  0.5296
 5311SOL    HW227393   0.747   0.427   2.001 -0.7403 -0.9010  0.3803
 5312SOL     OW27394   4.616   3.609   7.037  0.2195  0.1566  0.4259
 5312SOL    HW127395   4.671   3.686   7.021  1.1479 -1.0555 -2.2607
 5312SOL    HW227396   4.593   3.583   6.947  0.1974 -0.9768  0.7587
 5313SOL     OW27397   3.841   0.690   2.847 -0.3445  0.1040 -0.0567
 5313SOL    HW127398   3.816   0.598   2.838  2.1134 -0.4359 -1.2532
 5313SOL    HW227399   3.782   0.725   2.780  0.6525  1.2499 -0.3365
 5314SOL     OW27400   3.721   1.298  10.338 -0.2251  0.2433  0.4524
 5314SOL    HW127401   3.647   1.254  10.295  2.3715 -3.0306 -0.7108
 5314SOL    HW227402   3.736   1.245  10.416  2.2101 -0.2860 -0.3908
 5315SOL     OW27403   0.107   2.578   6.624  0.6155 -0.4552  0.6581
 5315SOL    HW127404   0.128   2.486   6.609  0.8898  0.2005 -2.9980
 5315SOL    HW227405   0.093   2.581   6.719  2.6385 -1.1912  0.9827
 5316SOL     OW27406   2.740   0.233   5.489 -0.2700 -0.3969 -0.6516
 5316SOL    HW127407   2.701   0.303   5.541 -2.3054 -1.8032 -0.2975
 5316SOL    HW227408   2.832   0.247   5.512 -0.9607 -1.4831  2.7512
 5317SOL     OW27409   1.795   1.927  11.320 -0.0433  0.7700  0.0740
 5317SOL    HW127410   1.724   1.979  11.357  1.1467  2.6191 -0.2009
 5317SOL    HW227411   1.752   1.886  11.245 -1.0480 -1.9137  2.1154
 5318SOL     OW27412   2.821   0.158   9.814  0.4601  0.4790  0.0036
 5318SOL    HW127413   2.833   0.219   9.887 -2.6449 -0.6191  1.4546
 5318SOL    HW227414   2.896   0.169   9.755 -1.3917  0.9156 -2.2702
 5319SOL     OW27415   4.229   0.978  15.450  0.2738  0.1374  0.3671
 5319SOL    HW127416   4.308   0.938  15.486 -0.7717 -1.7436  0.5717
 5319SOL    HW227417   4.184   0.993  15.533  1.1252  1.1993  0.6402
 5320SOL     OW27418   3.742   1.107   2.770  0.3405  0.3595  0.2182
 5320SOL    HW127419   3.832   1.106   2.802  0.9091  0.3075 -1.3412
 5320SOL    HW227420   3.756   1.079   2.679  1.2437 -0.5945  0.6538
 5321SOL     OW27421   0.780   4.190   7.151  0.3910 -0.0145 -0.1071
 5321SOL    HW127422   0.760   4.195   7.057  0.7707 -0.4904 -0.2156
 5321SOL    HW227423   0.697   4.147   7.170  0.9049 -0.5717  0.8980
 5322SOL     OW27424   2.335   2.093   8.186  0.7524  0.0083 -0.3707
 5322SOL    HW127425   2.248   2.121   8.215  0.2544 -2.9683  1.0321
 5322SOL    HW227426   2.364   2.163   8.128 -0.5768  0.6155 -0.3118
 5323SOL     OW27427   1.220   3.498   5.633  0.1038  0.3064  0.2994
 5323SOL    HW127428   1.265   3.544   5.703 -0.4400 -1.9319  2.1132
 5323SOL    HW227429   1.146   3.556   5.615  1.1705  0.9832 -1.9768
 5324SOL     OW27430   2.115   0.769  13.947 -0.0104  0.3117  0.2139
 5324SOL    HW127431   2.083   0.785  13.859 -2.2443  0.0632  0.9841
 5324SOL    HW227432   2.059   0.697  13.977  0.3446 -0.5121 -1.1184
 5325SOL     OW27433   1.022   0.287  14.845  0.2589 -0.2416  0.0195
 5325SOL    HW127434   1.000   0.235  14.768  0.4923  0.3659 -0.4624
 5325SOL    HW227435   0.943   0.340  14.850  1.1935  1.4749 -2.9087
 5326SOL     OW27436   1.001   0.491   1.447 -0.1453  0.4849  0.0353
 5326SOL    HW127437   0.955   0.573   1.465 -0.0068  0.5788 -0.0339
 5326SOL    HW227438   0.984   0.430   1.519 -1.2811 -0.3768 -0.9646
 5327SOL     OW27439   3.594   2.648  16.937  0.1568  0.5155 -0.7297
 5327SOL    HW127440   3.531   2.676  16.870  1.5408  3.1115 -0.9740
 5327SOL    HW227441   3.545   2.684  17.011 -0.9327 -0.1598 -1.1240
 5328SOL     OW27442   2.951   3.527   2.733  0.2063  0.0221  0.0083
 5328SOL    HW127443   2.942   3.492   2.645 -2.2541 -2.2002  1.1077
 5328SOL    HW227444   3.041   3.559   2.731  0.8904 -1.7445  1.6850
 5329SOL     OW27445   3.183   1.844   2.658  0.5151  0.5806  0.2384
 5329SOL    HW127446   3.153   1.761   2.619 -1.1385  1.0123  0.6052
 5329SOL    HW227447   3.158   1.911   2.595 -2.2398 -0.5183  0.1295
 5330SOL     OW27448   1.304   4.196   4.218 -0.0098  0.4666 -0.5745
 5330SOL    HW127449   1.337   4.155   4.297  0.6963  2.5829  0.2361
 5330SOL    HW227450   1.382   4.249   4.198  1.3023 -1.4203 -0.4687
 5331SOL     OW27451   0.237   1.886  12.513  0.3183  0.3236  0.3347
 5331SOL    HW127452   0.261   1.959  12.456  0.2614  1.2428  1.4728
 5331SOL    HW227453   0.210   1.826  12.444 -0.1588  1.3335 -0.3654
 5332SOL     OW27454   1.646   0.567   2.800  0.0564 -0.2230  0.0042
 5332SOL    HW127455   1.657   0.584   2.894 -1.3392 -0.1473  0.1594
 5332SOL    HW227456   1.587   0.493   2.814  2.0117 -1.6220  0.9747
 5333SOL     OW27457   2.841   1.895   6.601 -0.5014  0.3423 -0.1160
 5333SOL    HW127458   2.779   1.879   6.530  0.8641  0.3183 -1.2979
 5333SOL    HW227459   2.925   1.904   6.555 -0.5050 -0.1178 -0.2188
 5334SOL     OW27460   1.307   3.993   2.530 -0.2340  0.1113  0.4953
 5334SOL    HW127461   1.333   4.016   2.441 -1.7404  0.9171  0.2534
 5334SOL    HW227462   1.259   3.915   2.502  0.7008 -0.0677 -0.6026
 5335SOL     OW27463   3.868   0.067   7.781  0.4381  0.0467  0.2721
 5335SOL    HW127464   3.832   0.149   7.816 -1.8205 -2.4109  3.5998
 5335SOL    HW227465   3.946   0.109   7.743 -0.2621  1.5991  0.5244
 5336SOL     OW27466   3.035   3.469  17.466 -0.4927  0.2864 -0.1604
 5336SOL    HW127467   3.055   3.552  17.421  0.4431 -0.7724 -1.7126
 5336SOL    HW227468   3.082   3.476  17.549 -2.6763 -0.6190  1.1532
 5337SOL     OW27469   0.850   1.439  13.001  0.4949 -0.0561  0.8688
 5337SOL    HW127470   0.892   1.353  12.995 -0.4015 -0.3284 -1.4140
 5337SOL    HW227471   0.895   1.488  13.070  2.6738  1.0058 -1.3411
 5338SOL     OW27472   2.620   3.909   7.610  0.4782  0.1398  0.2592
 5338SOL    HW127473   2.597   3.817   7.594  0.4616  0.5245 -1.9193
 5338SOL    HW227474   2.712   3.896   7.584  1.0457  0.0996  2.3114
 5339SOL     OW27475   2.832   0.358   1.737  0.4042 -0.3306  0.1073
 5339SOL    HW127476   2.738   0.367   1.751  0.7387  1.3958  1.2266
 5339SOL    HW227477   2.829   0.298   1.661 -1.7215  1.5904 -1.3122
 5340SOL     OW27478   4.564   3.168   8.892 -0.7017  0.7455  0.3947
 5340SOL    HW127479   4.482   3.141   8.934 -1.4465  2.0261 -0.2306
 5340SOL    HW227480   4.625   3.097   8.911 -2.0590 -0.3553  0.6222
 5341SOL     OW27481   1.128   4.658   2.044  0.4483 -0.2435 -0.6610
 5341SOL    HW127482   1.143   4.700   2.129  1.3438 -0.2047 -0.8395
 5341SOL    HW227483   1.201   4.697   1.995  0.0540  1.7470  0.3442
 5342SOL     OW27484   3.091   3.331  11.651 -0.6560  0.1468 -0.3575
 5342SOL    HW127485   3.013   3.281  11.674 -0.5834  0.7563  1.1829
 5342SOL    HW227486   3.131   3.280  11.580  0.2473 -1.4049  1.2758
 5343SOL     OW27487   0.905   2.145  10.272  0.1338 -0.1448  0.7485
 5343SOL    HW127488   0.977   2.176  10.217 -0.6804 -0.3193 -0.4065
 5343SOL    HW227489   0.888   2.232  10.309 -1.5752 -0.9970  1.9976
 5344SOL     OW27490   1.650   1.018  13.776  0.4706  0.0402 -0.3672
 5344SOL    HW127491   1.702   1.058  13.846 -1.1940  0.0561  0.8515
 5344SOL    HW227492   1.688   0.930  13.780  0.4150  0.0029 -0.6693
 5345SOL     OW27493   0.056   1.677   2.630  1.1330 -0.0036  0.0873
 5345SOL    HW127494   0.140   1.722   2.633  0.5490  1.2663 -2.7766
 5345SOL    HW227495   0.043   1.686   2.536 -3.3789 -0.0163  0.7055
 5346SOL     OW27496   0.031   4.335   5.044 -0.7215  0.1969  0.3314
 5346SOL    HW127497   4.691   4.298   4.984  0.3867  0.1852 -0.8615
 5346SOL    HW227498   0.080   4.404   4.999 -2.1034 -0.0313 -1.5260
 5347SOL     OW27499   2.985   0.035   3.574  0.4677  0.1810 -0.2252
 5347SOL    HW127500   3.032   0.030   3.490 -0.8114 -1.0135 -0.8607
 5347SOL    HW227501   3.052   0.016   3.640 -1.8739 -0.5557  1.9491
 5348SOL     OW27502   0.175   2.420   7.298  0.2555 -0.1348  1.0603
 5348SOL    HW127503   0.080   2.407   7.299  0.2962 -0.4708  0.6547
 5348SOL    HW227504   0.207   2.343   7.250  0.8463  1.5671 -1.2708
 5349SOL     OW27505   1.433   1.975   4.311 -0.3345  0.2791  0.2587
 5349SOL    HW127506   1.370   1.905   4.291 -0.0931 -0.4150  1.9935
 5349SOL    HW227507   1.502   1.938   4.255 -1.2061 -1.0106  0.0396
 5350SOL     OW27508   4.345   0.194   6.196  0.1379 -0.3650 -0.0223
 5350SOL    HW127509   4.357   0.286   6.218  0.7069 -0.6841  1.0024
 5350SOL    HW227510   4.426   0.183   6.146  0.7605 -0.5069  1.0228
 5351SOL     OW27511   0.937   4.500   7.224 -0.1093 -0.0341 -0.0199
 5351SOL    HW127512   0.893   4.428   7.269 -0.2747 -0.3697 -0.7152
 5351SOL    HW227513   0.873   4.552   7.175  1.2525 -0.3081 -2.0582
 5352SOL     OW27514   2.084   3.509  10.861 -0.0522  0.5423  0.7132
 5352SOL    HW127515   2.115   3.425  10.893  0.6656  0.7471  0.5713
 5352SOL    HW227516   2.000   3.516  10.905 -0.3158  2.4720 -0.0510
 5353SOL     OW27517   0.999   2.719  16.836 -0.3828  0.2416 -0.0803
 5353SOL    HW127518   0.916   2.675  16.817 -0.3322 -0.1448  0.5873
 5353SOL    HW227519   1.054   2.679  16.769 -0.1831  1.1136 -0.4483
 5354SOL     OW27520   2.296   0.759   7.006 -0.2823  0.3904  0.4224
 5354SOL    HW127521   2.384   0.720   7.002 -0.1522  0.5750  1.6823
 5354SOL    HW227522   2.309   0.848   6.972  1.0312 -0.8310 -2.2675
 5355SOL     OW27523   1.865   1.519   6.049  0.5250  0.6560  0.3222
 5355SOL    HW127524   1.776   1.507   6.082  0.1688  1.3256 -0.3867
 5355SOL    HW227525   1.850   1.601   6.002  0.0260 -0.9623 -2.3303
 5356SOL     OW27526   1.993   2.206   1.765  1.1183  0.5518  0.2762
 5356SOL    HW127527   1.940   2.136   1.725 -1.5430  2.1645  0.9748
 5356SOL    HW227528   2.072   2.193   1.713  0.7902 -1.1165  0.1705
 5357SOL     OW27529   2.153   3.075   8.072  0.3181  0.1541 -0.0287
 5357SOL    HW127530   2.208   3.081   7.994  0.5648  3.2950  0.3677
 5357SOL    HW227531   2.187   3.155   8.112 -1.7029 -0.3566  2.6762
 5358SOL     OW27532   3.426   3.391   9.435  0.0757  0.1548  0.0153
 5358SOL    HW127533   3.398   3.480   9.454 -1.5792 -0.4866  0.6086
 5358SOL    HW227534   3.463   3.363   9.519 -0.0564  0.2846  0.1163
 5359SOL     OW27535   2.868   2.757  15.947  0.2356  0.4680 -0.1943
 5359SOL    HW127536   2.779   2.729  15.927 -0.0915  0.8032  0.8200
 5359SOL    HW227537   2.890   2.685  16.006  2.4345  0.1508 -1.3933
 5360SOL     OW27538   3.840   1.438   7.414 -0.1221 -0.1736  0.9499
 5360SOL    HW127539   3.870   1.492   7.487 -2.4506  3.6672 -0.8862
 5360SOL    HW227540   3.855   1.498   7.341  0.0494  0.3316  1.3970
 5361SOL     OW27541   4.005   0.097   2.811 -0.5158 -0.5351  0.2799
 5361SOL    HW127542   4.088   0.103   2.857 -0.5729 -0.2583  0.3426
 5361SOL    HW227543   4.040   0.117   2.724  1.0520  0.5684  1.1599
 5362SOL     OW27544   2.532   3.985   8.433 -0.6971  0.3573  0.2954
 5362SOL    HW127545   2.575   4.064   8.401 -2.4124  1.3376  0.3885
 5362SOL    HW227546   2.445   3.983   8.393 -0.4236 -1.2795 -0.2162
 5363SOL     OW27547   3.399   2.769   8.690 -0.4188  0.5853 -0.0024
 5363SOL    HW127548   3.324   2.816   8.653 -2.6902 -2.8547  0.1962
 5363SOL    HW227549   3.344   2.702   8.731  2.2100 -0.8450  1.1768
 5364SOL     OW27550   2.012   2.042   5.406 -0.9254 -0.0138 -0.4131
 5364SOL    HW127551   2.058   2.009   5.329 -0.1687  0.6702 -0.2607
 5364SOL    HW227552   1.938   2.087   5.367  0.9994  2.3075 -1.4247
 5365SOL     OW27553   2.263   1.570   6.144 -0.0438  0.6685 -0.0535
 5365SOL    HW127554   2.198   1.500   6.147  0.6994  0.0857  2.8699
 5365SOL    HW227555   2.217   1.650   6.120 -0.1004  0.4334 -0.7253
 5366SOL     OW27556   2.399   3.830   8.931  0.1086  0.4885  0.1379
 5366SOL    HW127557   2.344   3.759   8.897  1.2968 -0.4786  0.2365
 5366SOL    HW227558   2.374   3.821   9.023  2.4511  0.0497  0.7275
 5367SOL     OW27559   1.340   4.211   5.107 -0.2065 -0.2446  0.3964
 5367SOL    HW127560   1.246   4.228   5.105 -0.2916 -0.7317  0.1119
 5367SOL    HW227561   1.337   4.155   5.029 -1.8374  0.9483 -0.3833
 5368SOL     OW27562   3.863   2.771   2.855 -0.5863 -0.0479  0.0785
 5368SOL    HW127563   3.774   2.740   2.873 -1.1762  0.5701 -1.8318
 5368SOL    HW227564   3.861   2.779   2.760 -1.4482 -3.8480 -0.2322
 5369SOL     OW27565   1.367   2.416   4.495 -0.3000  0.2705 -0.3007
 5369SOL    HW127566   1.428   2.479   4.457 -1.4683  0.5394 -1.7305
 5369SOL    HW227567   1.300   2.414   4.427 -0.3846  1.1280 -0.2326
 5370SOL     OW27568   0.694   1.970   0.048 -0.0349 -0.4152  0.0234
 5370SOL    HW127569   0.714   1.891   0.098  1.1604  0.4496  0.9281
 5370SOL    HW227570   0.600   1.979   0.061 -0.0488  0.3865 -0.6494
 5371SOL     OW27571   4.518   3.479   6.810 -0.6799  0.1184  0.3598
 5371SOL    HW127572   4.543   3.483   6.718 -1.9236  0.5412  0.0366
 5371SOL    HW227573   4.427   3.502   6.792  0.2945  1.4512 -2.9285
 5372SOL     OW27574   1.515   3.355  12.728  0.2282  0.1643  0.0029
 5372SOL    HW127575   1.606   3.343  12.754  0.5409  2.6338  0.1366
 5372SOL    HW227576   1.478   3.411  12.797 -0.2204 -0.0741 -0.0490
 5373SOL     OW27577   0.470   3.125   3.580 -0.5274 -0.1415  0.1692
 5373SOL    HW127578   0.439   3.038   3.603 -0.5703 -0.7560 -2.2501
 5373SOL    HW227579   0.426   3.143   3.497  0.6383 -2.6955 -0.9998
 5374SOL     OW27580   4.438   3.683  10.906  0.1158 -0.0564 -0.1374
 5374SOL    HW127581   4.517   3.720  10.866  0.2208  1.5474  1.6008
 5374SOL    HW227582   4.467   3.640  10.986  0.3189  0.2371 -0.0582
 5375SOL     OW27583   2.578   1.942   8.233 -0.4533  0.3956 -0.3954
 5375SOL    HW127584   2.496   1.977   8.198  0.3457 -0.0899 -2.7483
 5375SOL    HW227585   2.571   1.858   8.189 -0.5741  0.6791 -0.9193
 5376SOL     OW27586   3.572   3.208   9.606 -0.1395 -0.1511  0.6292
 5376SOL    HW127587   3.629   3.152   9.552 -1.7811 -0.2786 -0.9549
 5376SOL    HW227588   3.625   3.220   9.685  0.8555 -1.4984  0.1752
 5377SOL     OW27589   0.505   3.106   6.392  0.1337  0.0119  0.3787
 5377SOL    HW127590   0.517   3.014   6.371 -1.4292 -0.1226  0.1118
 5377SOL    HW227591   0.506   3.143   6.303 -2.9676  0.6682  0.6320
 5378SOL     OW27592   1.658   2.211  12.523  0.5776  0.5171 -0.0344
 5378SOL    HW127593   1.722   2.160  12.474 -1.6015 -2.0394 -0.1889
 5378SOL    HW227594   1.637   2.156  12.599  0.5748  0.6879  0.0895
 5379SOL     OW27595   4.437   3.012  15.580 -0.2225  0.1989 -0.2764
 5379SOL    HW127596   4.368   2.971  15.527 -0.6481  1.7015 -0.8882
 5379SOL    HW227597   4.438   2.956  15.657 -0.2800  1.2474  0.4869
 5380SOL     OW27598   3.728   2.014   8.347 -0.0890 -0.2545  0.1100
 5380SOL    HW127599   3.745   1.922   8.367  0.2542 -0.5159 -1.3408
 5380SOL    HW227600   3.683   2.001   8.263 -0.9511  1.0497  0.3706
 5381SOL     OW27601   2.645   3.152   2.319  0.1204 -0.8735  0.2124
 5381SOL    HW127602   2.573   3.127   2.261  1.5982 -0.9397 -1.6205
 5381SOL    HW227603   2.707   3.082   2.300  0.7425 -0.9861  2.7419
 5382SOL     OW27604   1.278   4.422  14.786 -0.4430  0.1978 -0.4285
 5382SOL    HW127605   1.322   4.437  14.870 -0.1082 -1.1229 -0.3690
 5382SOL    HW227606   1.346   4.403  14.722 -0.3169  0.7880 -0.4666
 5383SOL     OW27607   2.018   1.149   3.768 -0.3308  0.3561 -0.5059
 5383SOL    HW127608   1.966   1.187   3.839  1.4945 -0.4531  1.2844
 5383SOL    HW227609   2.065   1.081   3.818 -1.0990  0.4989  0.4089
 5384SOL     OW27610   3.256   2.932   2.860  0.0319  0.0139  0.0353
 5384SOL    HW127611   3.241   2.907   2.951  1.2710  0.0004  0.2382
 5384SOL    HW227612   3.171   2.971   2.839 -0.0456  0.2750  0.8469
 5385SOL     OW27613   2.476   2.196  10.943  0.3208  0.2364 -0.0838
 5385SOL    HW127614   2.547   2.260  10.955 -1.7019  2.2246  1.1279
 5385SOL    HW227615   2.442   2.205  11.032  0.5242  2.1446 -0.1999
 5386SOL     OW27616   0.127   4.185   0.643  0.6706  0.4905 -0.0947
 5386SOL    HW127617   0.156   4.206   0.554 -0.2275 -1.0605 -0.7460
 5386SOL    HW227618   0.092   4.096   0.647 -0.1627  0.8671  0.9028
 5387SOL     OW27619   3.967   0.150   4.768  0.0466  0.0779  0.1526
 5387SOL    HW127620   4.004   0.147   4.856 -1.0209 -1.8632  0.5142
 5387SOL    HW227621   3.888   0.200   4.786  0.0878  1.1914 -2.7159
 5388SOL     OW27622   3.355   0.449  13.137 -0.0870 -0.0309  0.2577
 5388SOL    HW127623   3.416   0.386  13.174 -0.0507 -0.8053 -1.1332
 5388SOL    HW227624   3.410   0.526  13.143  0.4247 -0.3888  0.1101
 5389SOL     OW27625   3.896   0.802   9.827  0.2211  0.4240  0.7307
 5389SOL    HW127626   3.850   0.733   9.778  2.0493  0.5581 -1.2201
 5389SOL    HW227627   3.983   0.800   9.786 -0.4049 -0.2455 -0.6060
 5390SOL     OW27628   0.251   0.206   9.512 -0.0074 -0.3746  0.9004
 5390SOL    HW127629   0.331   0.155   9.527  1.5194  1.8364  0.1280
 5390SOL    HW227630   0.278   0.277   9.455  1.7076  0.5515  2.8647
 5391SOL     OW27631   3.186   3.512  14.044 -0.1355  0.0899  0.6113
 5391SOL    HW127632   3.256   3.448  14.031 -0.6652 -0.4403  0.3921
 5391SOL    HW227633   3.193   3.531  14.138  0.6981 -0.2086  0.6069
 5392SOL     OW27634   4.605   3.951   2.372  0.1001  0.4305 -0.1427
 5392SOL    HW127635   4.512   3.965   2.391  0.6927  1.5193  2.0807
 5392SOL    HW227636   4.612   3.966   2.278  1.2542  0.8615  0.0141
 5393SOL     OW27637   0.865   0.585  12.971 -0.1796  0.0466  0.0285
 5393SOL    HW127638   0.907   0.508  12.933 -0.6439 -0.9551  1.5508
 5393SOL    HW227639   0.805   0.615  12.903 -1.1329  1.0975  1.3491
 5394SOL     OW27640   3.814   1.345   5.726 -0.0353  0.5341 -0.4717
 5394SOL    HW127641   3.823   1.250   5.739 -0.7309  0.2500 -2.0473
 5394SOL    HW227642   3.719   1.344   5.739  0.1173 -1.3425  0.5775
 5395SOL     OW27643   3.503   1.468   6.656 -0.2883 -0.5251 -0.2220
 5395SOL    HW127644   3.449   1.460   6.734  1.4657  0.4478  1.0894
 5395SOL    HW227645   3.561   1.397   6.686  0.1458  0.6161  1.6080
 5396SOL     OW27646   2.395   3.164   2.161 -0.4792 -0.4446  0.9216
 5396SOL    HW127647   2.333   3.099   2.195 -1.1340  0.9964  2.4340
 5396SOL    HW227648   2.356   3.249   2.178 -0.4473 -0.4477  1.0080
 5397SOL     OW27649   1.616   0.675  17.176 -0.7731  0.2982  0.4208
 5397SOL    HW127650   1.695   0.730  17.173  0.3029 -1.3533 -1.3212
 5397SOL    HW227651   1.614   0.642  17.086 -1.8779 -0.7516  0.8316
 5398SOL     OW27652   0.960   1.339  17.308 -0.0108  0.2134 -0.0073
 5398SOL    HW127653   0.994   1.426  17.327 -3.0777  1.7034 -1.2650
 5398SOL    HW227654   0.949   1.292  17.391 -1.4762 -0.5157 -0.6025
 5399SOL     OW27655   4.440   0.749  10.163 -0.2317  0.2674  0.2624
 5399SOL    HW127656   4.442   0.807  10.088 -0.6339  0.0245  0.0636
 5399SOL    HW227657   4.489   0.669  10.142  1.4635  0.9573  1.5898
 5400SOL     OW27658   2.168   0.239   2.465 -0.0191  0.1316 -0.4868
 5400SOL    HW127659   2.137   0.178   2.398  2.2576 -0.1768 -1.2580
 5400SOL    HW227660   2.145   0.318   2.416  0.7268  0.6483 -0.0034
 5401SOL     OW27661   0.850   1.530   5.638 -0.0060 -0.0014 -0.6739
 5401SOL    HW127662   0.942   1.553   5.653 -0.0184 -0.5921  0.3767
 5401SOL    HW227663   0.801   1.597   5.686 -0.4191 -1.2393  0.6493
 5402SOL     OW27664   3.293   4.333   8.324 -0.0434 -0.3218 -0.4799
 5402SOL    HW127665   3.276   4.256   8.270  1.5256 -1.8467  1.1879
 5402SOL    HW227666   3.209   4.379   8.324  0.6903  1.0226 -0.8953
 5403SOL     OW27667   2.783   3.450   6.204  0.7635  0.4325 -0.0671
 5403SOL    HW127668   2.815   3.487   6.121  0.5445  1.2522  0.2123
 5403SOL    HW227669   2.710   3.401   6.166 -1.3445  3.8792 -0.4973
 5404SOL     OW27670   0.684   3.992   3.346  0.4711 -0.4716 -0.3498
 5404SOL    HW127671   0.633   3.936   3.288  1.0452 -0.4002 -0.9191
 5404SOL    HW227672   0.638   3.974   3.428  0.3807  0.9260 -0.1010
 5405SOL     OW27673   1.735   3.450   8.146  0.9634  0.4251  0.0894
 5405SOL    HW127674   1.724   3.522   8.083 -0.6690 -0.9267 -1.1634
 5405SOL    HW227675   1.643   3.424   8.147  0.3877  2.3605 -1.9038
 5406SOL     OW27676   2.669   0.937   0.618  0.4945 -0.6251 -0.0763
 5406SOL    HW127677   2.619   0.908   0.542 -1.2656  0.9968  0.4682
 5406SOL    HW227678   2.725   0.864   0.644  1.7840  0.9584  1.6089
 5407SOL     OW27679   3.804   1.791   8.518  0.0285  0.4664  0.0681
 5407SOL    HW127680   3.740   1.816   8.585 -1.8597 -0.5519 -1.3825
 5407SOL    HW227681   3.882   1.824   8.564 -0.9361 -0.9215  2.6954
 5408SOL     OW27682   0.434   3.617   6.270  0.4919  0.7149  0.0031
 5408SOL    HW127683   0.355   3.574   6.237 -0.1390  0.1522  2.2552
 5408SOL    HW227684   0.482   3.624   6.187  2.2590  1.2432  1.0691
 5409SOL     OW27685   1.457   2.065   1.751  0.2600  0.3442  0.2946
 5409SOL    HW127686   1.539   2.111   1.736 -0.5699  2.0687  1.0970
 5409SOL    HW227687   1.472   2.026   1.838  1.7251  0.2570 -0.0092
 5410SOL     OW27688   3.627   4.416   1.938 -0.0633 -0.4775  0.0494
 5410SOL    HW127689   3.609   4.509   1.943 -1.2497 -0.6042 -1.6724
 5410SOL    HW227690   3.722   4.417   1.935 -0.0214 -0.3155  1.2745
 5411SOL     OW27691   4.400   1.484   6.864 -0.2305 -0.0167  0.8505
 5411SOL    HW127692   4.430   1.460   6.952 -1.3972 -1.1914  0.9285
 5411SOL    HW227693   4.358   1.406   6.828 -0.3671  0.0458  0.8772
 5412SOL     OW27694   3.931   0.699  13.785 -0.2956  0.2232  0.0278
 5412SOL    HW127695   4.022   0.676  13.801  0.2562  1.2856 -1.5861
 5412SOL    HW227696   3.918   0.615  13.742  0.9570 -0.2839  0.6352
 5413SOL     OW27697   3.066   2.856   8.482 -0.3991 -0.1323  0.1921
 5413SOL    HW127698   3.100   2.768   8.463  1.8709  0.5668  0.9812
 5413SOL    HW227699   3.019   2.827   8.561 -0.7851 -1.2979 -0.4583
 5414SOL     OW27700   0.673   3.289  17.641 -0.0763 -0.1587 -0.0693
 5414SOL    HW127701   0.629   3.261   0.023  1.8144 -1.6990  0.4050
 5414SOL    HW227702   0.603   3.336  17.596 -0.4840  0.4279  1.1645
 5415SOL     OW27703   0.788   1.544   1.056 -0.1726  0.1921  0.0058
 5415SOL    HW127704   0.847   1.591   1.115 -0.7327  1.3047 -0.3302
 5415SOL    HW227705   0.824   1.587   0.978  0.6263 -0.8639 -0.2038
 5416SOL     OW27706   3.400   1.712   7.230  0.5481  0.4028 -0.0240
 5416SOL    HW127707   3.432   1.734   7.143  1.1270 -1.7277 -0.3644
 5416SOL    HW227708   3.475   1.732   7.286 -0.5149  2.0278  0.8105
 5417SOL     OW27709   4.619   2.984   9.250 -0.2039  0.4444 -0.2729
 5417SOL    HW127710   4.600   2.903   9.298 -0.9468 -0.6321 -2.3784
 5417SOL    HW227711   4.609   3.056   9.313  2.1152  0.5946 -0.0680
 5418SOL     OW27712   4.531   3.355  11.003  0.3744  0.3441  0.4944
 5418SOL    HW127713   4.445   3.352  11.045  1.4260  0.0008  2.6306
 5418SOL    HW227714   4.561   3.444  11.022  0.8720 -0.0068  1.4089
 5419SOL     OW27715   4.501   1.496  15.207  0.3673 -0.1392 -0.3777
 5419SOL    HW127716   4.576   1.436  15.212  0.0163 -0.7965 -2.8443
 5419SOL    HW227717   4.432   1.445  15.251  0.0041  0.2886 -0.4546
 5420SOL     OW27718   1.636   1.596   1.231 -0.7290  0.2419 -0.1559
 5420SOL    HW127719   1.594   1.655   1.293  0.8602  2.8082 -1.4820
 5420SOL    HW227720   1.724   1.594   1.269  0.1645  0.9418 -2.1354
 5421SOL     OW27721   0.346   0.439   9.369  0.4632  0.0747 -0.0825
 5421SOL    HW127722   0.263   0.487   9.365  1.5550  1.8499 -1.3985
 5421SOL    HW227723   0.344   0.389   9.288 -0.3942  1.4595 -0.9125
 5422SOL     OW27724   1.275   2.796   3.811  0.1391 -0.0616 -0.1151
 5422SOL    HW127725   1.213   2.815   3.741  0.8628  1.3234 -0.3957
 5422SOL    HW227726   1.313   2.718   3.770  0.0593 -0.7669  1.1587
 5423SOL     OW27727   4.465   1.406   4.525  0.1469 -0.3329 -0.1041
 5423SOL    HW127728   4.519   1.348   4.579 -0.8928 -1.0869  0.1275
 5423SOL    HW227729   4.528   1.432   4.457  1.2558 -1.5681  0.4409
 5424SOL     OW27730   0.734   2.433  15.184 -0.2666  0.5213 -0.2867
 5424SOL    HW127731   0.780   2.470  15.260  0.7716  1.3665 -1.3257
 5424SOL    HW227732   0.750   2.509  15.129  1.9100  1.8393  2.2009
 5425SOL     OW27733   0.421   2.683   5.554  0.0291 -0.0352 -0.2310
 5425SOL    HW127734   0.471   2.718   5.628  1.5896 -1.8403 -0.4392
 5425SOL    HW227735   0.488   2.678   5.486 -0.6207  0.6283 -0.9140
 5426SOL     OW27736   1.652   1.430   4.659 -0.5938  0.0665  0.4838
 5426SOL    HW127737   1.674   1.415   4.567  2.2618 -2.2767  1.5560
 5426SOL    HW227738   1.628   1.345   4.696  0.3307 -0.2475  0.3665
 5427SOL     OW27739   0.370   0.430   1.628 -0.3532 -0.8571  0.2913
 5427SOL    HW127740   0.415   0.510   1.654 -0.3676 -1.0825  1.0087
 5427SOL    HW227741   0.451   0.382   1.608  0.7050  1.0882 -0.0717
 5428SOL     OW27742   3.877   3.342   9.304 -0.0904 -0.2887  0.2964
 5428SOL    HW127743   3.891   3.323   9.397  0.1933  1.4859  0.6131
 5428SOL    HW227744   3.783   3.333   9.290  0.2969 -0.5788 -2.0365
 5429SOL     OW27745   3.745   0.588  10.770 -0.4321  0.7929  0.4639
 5429SOL    HW127746   3.667   0.531  10.769 -0.0910  0.4024 -5.3830
 5429SOL    HW227747   3.728   0.618  10.859 -2.0417  0.9216  0.1173
 5430SOL     OW27748   2.766   0.929   8.133 -0.6664  0.4088 -0.1370
 5430SOL    HW127749   2.858   0.901   8.130 -0.4148  1.1976  0.2011
 5430SOL    HW227750   2.771   1.007   8.188  5.3312  0.5511 -0.9234
 5431SOL     OW27751   2.833   0.162  16.383  0.3977  0.1080  0.2872
 5431SOL    HW127752   2.830   0.253  16.412 -0.6209  0.5614 -1.2548
 5431SOL    HW227753   2.896   0.166  16.311  1.1919  2.9342  1.1307
 5432SOL     OW27754   4.096   4.723   8.718  0.1334 -0.0421  0.0375
 5432SOL    HW127755   4.168   4.665   8.742  1.0347  0.9359 -0.2693
 5432SOL    HW227756   4.144   0.073   8.681 -0.8244  0.8105  0.5242
 5433SOL     OW27757   1.362   1.018  15.023  0.5111  0.1412  0.8083
 5433SOL    HW127758   1.324   1.096  14.981 -1.7343 -1.0938  0.5502
 5433SOL    HW227759   1.413   1.066  15.088  0.1128  1.5782  0.0807
 5434SOL     OW27760   0.495   2.494   9.079 -0.3583 -0.3545 -0.2465
 5434SOL    HW127761   0.539   2.445   9.010  1.6995 -2.1221  2.2795
 5434SOL    HW227762   0.423   2.521   9.022 -1.2462 -0.7240  0.6806
 5435SOL     OW27763   2.198   3.241  10.869  0.3622 -0.2978  0.2430
 5435SOL    HW127764   2.219   3.192  10.948 -0.7435 -2.0373 -0.5401
 5435SOL    HW227765   2.282   3.255  10.826  1.4785 -0.5268  2.3891
 5436SOL     OW27766   4.393   4.704  13.253 -0.6517 -0.0431  0.5461
 5436SOL    HW127767   4.432   0.016  13.333  1.9270  2.2018 -1.7572
 5436SOL    HW227768   4.322   4.647  13.284 -1.6974  0.6362 -0.6268
 5437SOL     OW27769   3.691   3.610   4.189  0.5122  0.0900 -0.1101
 5437SOL    HW127770   3.630   3.537   4.176 -1.3171  1.2979  1.6061
 5437SOL    HW227771   3.743   3.592   4.268 -2.0895 -0.4688  1.5069
 5438SOL     OW27772   3.876   3.952   4.127  0.0873  0.1630  0.4573
 5438SOL    HW127773   3.918   3.885   4.181  1.4846  1.6862  1.2623
 5438SOL    HW227774   3.914   3.932   4.041 -0.8001 -0.8530  0.3043
 5439SOL     OW27775   4.074   2.631   7.808 -0.4084  0.1928 -0.4545
 5439SOL    HW127776   4.023   2.710   7.789  0.9712  1.0800 -0.4884
 5439SOL    HW227777   4.113   2.654   7.893  0.6186  0.7492 -1.0719
 5440SOL     OW27778   1.265   1.582   7.368 -0.9344 -0.0364 -0.3160
 5440SOL    HW127779   1.288   1.570   7.276 -0.0575 -2.7675  0.2591
 5440SOL    HW227780   1.232   1.496   7.392  1.4498 -0.5192  1.2697
 5441SOL     OW27781   2.301   0.547   1.117  0.3338  0.2342  0.3724
 5441SOL    HW127782   2.258   0.467   1.087  0.2649 -0.1337  1.4290
 5441SOL    HW227783   2.330   0.502   1.197  0.4995  0.5562  0.4951
 5442SOL     OW27784   0.219   0.383   2.395 -0.5078 -0.4072 -0.0152
 5442SOL    HW127785   0.138   0.428   2.419 -1.5697 -2.5659  0.4281
 5442SOL    HW227786   0.195   0.314   2.334  1.8772 -0.4320 -0.9171
 5443SOL     OW27787   0.306   3.820   4.056 -0.2839  0.2202 -0.1811
 5443SOL    HW127788   0.341   3.751   3.999 -0.9220 -1.2046  1.1394
 5443SOL    HW227789   0.219   3.847   4.026  0.0103 -0.7121 -1.8708
 5444SOL     OW27790   0.797   0.890   8.059 -0.2766 -0.3685  0.1357
 5444SOL    HW127791   0.850   0.883   8.139  0.7429 -0.4107 -0.5414
 5444SOL    HW227792   0.709   0.875   8.095 -0.0214  2.8737  2.1846
 5445SOL     OW27793   0.147   3.339   2.422  0.0911 -0.1012  0.3774
 5445SOL    HW127794   0.160   3.249   2.452 -1.3692 -0.4937 -0.1530
 5445SOL    HW227795   0.144   3.325   2.328 -1.0250  1.9717  0.1018
 5446SOL     OW27796   4.472   1.933   9.336  0.0619  0.6878  0.6452
 5446SOL    HW127797   4.447   1.863   9.276 -0.7167  1.2008  0.3771
 5446SOL    HW227798   4.435   1.904   9.419  1.4223  2.0458  1.7348
 5447SOL     OW27799   2.242   3.756  15.683 -0.5563 -0.4563 -0.1366
 5447SOL    HW127800   2.161   3.776  15.636 -0.5820 -0.2260  0.0046
 5447SOL    HW227801   2.259   3.671  15.643  1.0624 -0.8965  1.4790
 5448SOL     OW27802   0.135   3.401   2.129  0.3935  0.3404  0.5058
 5448SOL    HW127803   0.173   3.485   2.155  0.5608  0.0007  1.3567
 5448SOL    HW227804   0.177   3.394   2.043 -0.4558  0.0823  0.1015
 5449SOL     OW27805   3.890   3.209   1.761  0.0474  0.2395  0.4416
 5449SOL    HW127806   3.964   3.207   1.822  0.6636  1.9025 -0.2445
 5449SOL    HW227807   3.882   3.114   1.747 -2.7050  0.1916  2.3284
 5450SOL     OW27808   3.737   0.008   4.937 -0.8178  0.6532  0.2041
 5450SOL    HW127809   3.831   0.006   4.955 -0.6330 -0.2152 -0.8832
 5450SOL    HW227810   3.739   0.101   4.912 -1.7997  0.5469 -0.2832
 5451SOL     OW27811   1.053   1.302   6.913  0.1988  0.3397 -0.2045
 5451SOL    HW127812   1.109   1.238   6.870  0.0571 -1.3706  2.1729
 5451SOL    HW227813   0.973   1.281   6.865 -0.3746  0.6891  0.5941
 5452SOL     OW27814   2.351   4.597  16.604 -0.6726  0.1854  0.5552
 5452SOL    HW127815   2.317   4.647  16.679  0.1013 -0.2446  1.1906
 5452SOL    HW227816   2.405   4.667  16.568  1.1694 -1.4194  0.2525
 5453SOL     OW27817   2.539   3.120   8.884  0.0123 -0.0458 -0.4588
 5453SOL    HW127818   2.459   3.148   8.928  0.0282 -1.2337  0.3306
 5453SOL    HW227819   2.581   3.202   8.860 -1.1126 -0.3503 -3.4625
 5454SOL     OW27820   4.504   1.492   9.430  0.0619 -0.0922 -0.0632
 5454SOL    HW127821   4.599   1.487   9.421  0.4475  0.5101  3.3919
 5454SOL    HW227822   4.481   1.399   9.437  1.4143 -0.3649  0.7941
 5455SOL     OW27823   0.511   3.260  12.634  0.3291  0.3518  0.1245
 5455SOL    HW127824   0.522   3.355  12.638  0.7804  0.3052  0.0339
 5455SOL    HW227825   0.416   3.256  12.629  0.3102  0.3634  0.4625
 5456SOL     OW27826   2.669   4.500  11.268  0.1977 -0.2846 -0.4819
 5456SOL    HW127827   2.709   4.577  11.226  1.6205 -0.3936  0.6782
 5456SOL    HW227828   2.631   4.542  11.345 -1.0109 -0.4771 -0.9774
 5457SOL     OW27829   1.565   4.388  12.344  0.0296 -0.0660 -0.3404
 5457SOL    HW127830   1.568   4.298  12.311 -4.3682 -0.1992 -0.3890
 5457SOL    HW227831   1.487   4.417  12.296 -1.3452 -0.4842  1.6707
 5458SOL     OW27832   1.401   2.682   8.790  0.1157  0.4220  0.0951
 5458SOL    HW127833   1.467   2.728   8.737  0.5036 -0.0408  0.1771
 5458SOL    HW227834   1.450   2.656   8.868 -0.7513  0.1488  0.5414
 5459SOL     OW27835   2.530   2.912   3.700 -0.4994 -0.2818 -0.1417
 5459SOL    HW127836   2.553   2.968   3.626  0.8099 -1.9954 -1.0399
 5459SOL    HW227837   2.498   2.969   3.769 -0.3983  2.8737 -2.7234
 5460SOL     OW27838   1.408   1.472   3.891 -0.5452  0.6115 -0.6386
 5460SOL    HW127839   1.365   1.388   3.873  0.0675  0.6980 -2.5603
 5460SOL    HW227840   1.342   1.534   3.923  0.5528  1.6991 -0.4892
 5461SOL     OW27841   0.236   2.290  15.764 -0.4349 -0.4176 -0.6038
 5461SOL    HW127842   0.265   2.373  15.802  3.5578 -2.1617  0.1893
 5461SOL    HW227843   0.147   2.275  15.796 -0.8821 -1.7142 -2.4304
 5462SOL     OW27844   3.769   3.687   6.554  0.2564  0.0446 -0.0242
 5462SOL    HW127845   3.751   3.627   6.627  3.2159  0.4189  1.0113
 5462SOL    HW227846   3.708   3.650   6.491  0.3755  0.3760 -0.3284
 5463SOL     OW27847   3.257   0.297   3.571 -0.7955 -0.4902 -0.1831
 5463SOL    HW127848   3.299   0.344   3.498 -0.4071  0.6072  0.7529
 5463SOL    HW227849   3.173   0.341   3.579 -0.6519  0.1687 -2.2316
 5464SOL     OW27850   4.278   3.801   5.542 -0.0123 -0.5395  0.2731
 5464SOL    HW127851   4.278   3.721   5.490  0.5380 -1.7454  2.1131
 5464SOL    HW227852   4.275   3.859   5.466 -0.9447  0.2027  0.8697
 5465SOL     OW27853   1.580   3.359   2.995 -0.2000 -0.3427  0.0896
 5465SOL    HW127854   1.550   3.425   2.933  0.3383 -1.1292 -1.0338
 5465SOL    HW227855   1.661   3.400   3.025  1.7461 -3.0705 -1.3493
 5466SOL     OW27856   2.255   4.087  16.939  0.3419 -0.5017  0.6521
 5466SOL    HW127857   2.238   4.006  16.892 -1.4176 -0.7277  1.6364
 5466SOL    HW227858   2.166   4.107  16.969  0.4755 -0.4261  0.9953
 5467SOL     OW27859   0.727   0.650   1.957  0.3358 -0.2705 -0.1828
 5467SOL    HW127860   0.743   0.663   1.863  2.5712 -0.9188  0.0949
 5467SOL    HW227861   0.673   0.719   1.994  0.3227 -1.7623  2.6066
 5468SOL     OW27862   2.053   0.040   9.621 -0.5760  0.3915  0.3769
 5468SOL    HW127863   2.140   0.076   9.636 -0.3102 -0.9267  1.9165
 5468SOL    HW227864   2.075   4.688   9.567 -1.3090 -0.4110  1.2152
 5469SOL     OW27865   1.069   1.847   6.538  0.1264 -0.1761  0.3862
 5469SOL    HW127866   1.079   1.758   6.572 -0.1016  0.3079  1.6947
 5469SOL    HW227867   1.157   1.857   6.501  0.3610  0.9796  1.2709
 5470SOL     OW27868   2.637   2.567   0.602 -0.0571 -0.3126 -0.6270
 5470SOL    HW127869   2.658   2.509   0.528 -2.5095 -0.7864 -0.9675
 5470SOL    HW227870   2.709   2.554   0.663 -0.3282  1.3015  0.0305
 5471SOL     OW27871   2.680   2.205  10.672 -0.0592 -0.2880 -0.3792
 5471SOL    HW127872   2.652   2.144  10.741  1.9941 -2.2345 -1.2990
 5471SOL    HW227873   2.613   2.273  10.683  1.0133  0.8596 -1.0601
 5472SOL     OW27874   0.473   2.381   7.709  0.3707 -0.2515 -0.2794
 5472SOL    HW127875   0.378   2.380   7.717  0.3104 -0.6101 -1.0603
 5472SOL    HW227876   0.485   2.440   7.634  1.5070 -3.5828 -2.7090
 5473SOL     OW27877   1.267   4.564   4.865 -0.6682 -0.7362 -0.1139
 5473SOL    HW127878   1.221   4.632   4.915  1.3375  1.0557 -0.6779
 5473SOL    HW227879   1.208   4.491   4.881 -2.2706  1.2128  2.8887
 5474SOL     OW27880   1.800   3.442   8.962 -0.6248 -0.2792  0.1847
 5474SOL    HW127881   1.730   3.411   8.906  0.9474  2.3826 -3.2640
 5474SOL    HW227882   1.769   3.425   9.051  0.0442  0.1810  0.5148
 5475SOL     OW27883   2.322   2.571  10.206 -0.3513  0.3178 -0.5967
 5475SOL    HW127884   2.389   2.541  10.144 -0.8065 -0.1682 -0.8520
 5475SOL    HW227885   2.329   2.508  10.277 -1.3148  0.8265 -0.0535
 5476SOL     OW27886   3.352   0.874  10.408 -0.9153  0.4794  0.3599
 5476SOL    HW127887   3.274   0.879  10.463 -1.4220  2.8243 -0.5471
 5476SOL    HW227888   3.397   0.799  10.446  2.2027  1.5860 -1.1251
 5477SOL     OW27889   0.193   1.973  16.349  0.1714  0.2163  0.1428
 5477SOL    HW127890   0.250   1.896  16.340  1.6160  1.0490  2.2401
 5477SOL    HW227891   0.201   2.007  16.260 -0.2054 -1.1958 -0.4396
 5478SOL     OW27892   2.945   1.148   7.074 -0.7731 -0.1225  0.5106
 5478SOL    HW127893   3.032   1.127   7.106 -0.6566 -1.9380 -0.9397
 5478SOL    HW227894   2.916   1.059   7.055 -2.0251 -0.1792  2.7873
 5479SOL     OW27895   2.037   1.396   9.463 -0.2342 -0.3870 -1.0648
 5479SOL    HW127896   2.067   1.378   9.553 -0.4547 -3.2091 -1.5504
 5479SOL    HW227897   1.948   1.361   9.461 -1.5485  2.9307 -0.9860
 5480SOL     OW27898   0.483   4.115  15.629 -0.0761 -0.8035 -0.7980
 5480SOL    HW127899   0.399   4.072  15.614 -0.4312 -0.2296 -0.4726
 5480SOL    HW227900   0.513   4.081  15.713  0.1049 -1.5360 -1.1652
 5481SOL     OW27901   0.708   3.440   7.203 -0.3144  0.5204  0.3262
 5481SOL    HW127902   0.679   3.476   7.287  1.6478 -0.3164  1.3705
 5481SOL    HW227903   0.746   3.357   7.232  0.2823  0.5953 -0.2597
 5482SOL     OW27904   2.598   0.410  17.205  0.0721  0.1266 -0.2379
 5482SOL    HW127905   2.650   0.352  17.261  1.1818 -0.9269 -2.3598
 5482SOL    HW227906   2.654   0.485  17.223 -2.1580  1.4169  1.2364
 5483SOL     OW27907   3.475   0.234  17.619 -0.2214 -0.5276 -0.2719
 5483SOL    HW127908   3.478   0.321  17.579  0.1894 -0.6060 -0.4135
 5483SOL    HW227909   3.562   0.199  17.598 -0.1650 -0.3841 -0.2798
 5484SOL     OW27910   2.571   3.869  15.963 -0.8121  0.3733 -0.2534
 5484SOL    HW127911   2.666   3.881  15.972 -0.8258  0.6540 -0.4696
 5484SOL    HW227912   2.553   3.930  15.891  1.5129 -0.5682 -1.6355
 5485SOL     OW27913   2.124   1.017  12.748 -0.0252  0.6137  0.2947
 5485SOL    HW127914   2.195   0.983  12.803  0.4951  1.9240  0.4145
 5485SOL    HW227915   2.158   1.099  12.715  2.3943 -0.6170 -0.2628
 5486SOL     OW27916   2.232   1.058   8.510  0.1880  0.4306  0.1253
 5486SOL    HW127917   2.250   1.017   8.595 -1.1103 -0.2133  0.1094
 5486SOL    HW227918   2.202   1.144   8.538  1.2562  1.4596 -1.9587
 5487SOL     OW27919   3.888   1.452  14.042  0.4729  0.6034  0.3719
 5487SOL    HW127920   3.832   1.376  14.026  2.0168 -0.6577  0.9517
 5487SOL    HW227921   3.832   1.491  14.109 -0.7046 -1.0258  0.3530
 5488SOL     OW27922   2.004   3.342   9.658  0.9204 -0.3406  0.1649
 5488SOL    HW127923   2.037   3.252   9.663  0.5943 -0.5079 -0.7282
 5488SOL    HW227924   1.967   3.347   9.570 -0.1406  0.2578  0.6458
 5489SOL     OW27925   0.417   0.406   2.809  0.2774  0.2503  0.1825
 5489SOL    HW127926   0.437   0.498   2.821  0.4462  0.2851 -0.3654
 5489SOL    HW227927   0.441   0.387   2.718  1.1746  0.9982  0.2617
 5490SOL     OW27928   2.143   3.482  11.191 -0.1459  0.4825  0.0923
 5490SOL    HW127929   2.172   3.568  11.222 -2.9895  1.0243  1.2310
 5490SOL    HW227930   2.051   3.503  11.177 -0.2227  1.1027  1.4955
 5491SOL     OW27931   0.128   1.515   0.831  0.2849 -0.0581 -1.0148
 5491SOL    HW127932   0.209   1.464   0.831  0.3538  0.0211 -4.2903
 5491SOL    HW227933   0.144   1.582   0.764 -1.9466  1.4962  0.0215
 5492SOL     OW27934   2.055   2.788   5.370  0.3790  0.2065  0.7589
 5492SOL    HW127935   2.026   2.755   5.285  3.2779  2.7860 -1.2314
 5492SOL    HW227936   2.144   2.753   5.374  0.6878  0.6960 -1.5888
 5493SOL     OW27937   4.122   1.575   7.524 -0.2252 -0.3020 -0.4704
 5493SOL    HW127938   4.209   1.541   7.544  0.0516  1.0425  0.6598
 5493SOL    HW227939   4.071   1.524   7.586 -1.0240 -0.9637 -1.6802
 5494SOL     OW27940   2.692   2.804  10.363 -0.2949 -0.6264 -0.2644
 5494SOL    HW127941   2.604   2.800  10.400 -0.9119 -0.3521 -1.7043
 5494SOL    HW227942   2.736   2.826  10.446  0.0369 -0.8345 -0.3844
 5495SOL     OW27943   0.188   4.591  16.960 -0.4714 -0.3377  0.8119
 5495SOL    HW127944   0.208   4.501  16.935  0.5016  0.1668 -0.2167
 5495SOL    HW227945   0.149   4.627  16.880  2.7676 -0.3412 -0.7718
 5496SOL     OW27946   1.233   3.915   9.227  0.2790  0.1565  0.3657
 5496SOL    HW127947   1.170   3.969   9.179  1.3441 -1.0494 -2.3947
 5496SOL    HW227948   1.176   3.886   9.298 -0.1559 -0.0344 -0.0612
 5497SOL     OW27949   2.779   0.165   2.369  0.5168  0.1774 -0.7818
 5497SOL    HW127950   2.733   0.106   2.310 -1.2523  0.0576  0.7473
 5497SOL    HW227951   2.869   0.141   2.346  0.7572 -0.6194  0.9686
 5498SOL     OW27952   2.780   2.089   1.979 -0.0495  0.3778 -0.0614
 5498SOL    HW127953   2.790   2.153   2.050  0.7547 -2.1148  2.0710
 5498SOL    HW227954   2.689   2.114   1.963 -0.3509 -0.2456  0.6901
 5499SOL     OW27955   1.060   2.865   5.653 -0.6465 -0.0551 -0.7413
 5499SOL    HW127956   1.076   2.934   5.717 -3.1163 -0.2411  0.0816
 5499SOL    HW227957   1.122   2.903   5.591 -0.4414  1.6512  0.5307
 5500SOL     OW27958   3.618   0.504  12.923 -0.0286  0.6704  0.5957
 5500SOL    HW127959   3.603   0.416  12.888  0.3532  1.6001 -1.8865
 5500SOL    HW227960   3.542   0.546  12.883  0.5661  0.2892 -0.9644
 5501SOL     OW27961   1.697   2.085  15.627 -0.2893 -0.6357 -0.2127
 5501SOL    HW127962   1.741   2.111  15.708  0.1852 -1.9781 -0.0349
 5501SOL    HW227963   1.666   2.167  15.588 -0.6900 -0.0392  1.3620
 5502SOL     OW27964   3.952   3.080   4.653 -0.0066  0.2876 -0.0723
 5502SOL    HW127965   4.016   3.011   4.638  0.0040  0.2263  0.2651
 5502SOL    HW227966   4.001   3.141   4.598  0.3280 -0.7574 -0.9151
 5503SOL     OW27967   4.536   3.492   3.804 -0.9228  0.2549  0.0049
 5503SOL    HW127968   4.621   3.450   3.818 -0.1213  2.2392  1.1283
 5503SOL    HW227969   4.555   3.536   3.721  0.2458  1.4321  0.8846
 5504SOL     OW27970   1.638   3.894   3.407 -0.3483 -0.6299 -0.2304
 5504SOL    HW127971   1.653   3.861   3.318  1.1455 -0.6199  0.0147
 5504SOL    HW227972   1.721   3.878   3.451 -0.0379  1.0318 -0.1916
 5505SOL     OW27973   4.272   0.533   7.176 -0.2825 -0.0097  0.4113
 5505SOL    HW127974   4.197   0.508   7.230 -0.0439  1.9714  1.6664
 5505SOL    HW227975   4.298   0.619   7.209  0.8494 -1.1796  2.5794
 5506SOL     OW27976   2.190   0.590   3.290  0.0116  0.1452 -0.0615
 5506SOL    HW127977   2.162   0.558   3.204  1.4116  1.4071 -0.9864
 5506SOL    HW227978   2.231   0.676   3.276  0.5692 -0.2588 -0.9107
 5507SOL     OW27979   2.241   2.771  11.728  0.1884  0.3220 -0.0678
 5507SOL    HW127980   2.226   2.707  11.658  0.1672  0.1856  0.0626
 5507SOL    HW227981   2.286   2.731  11.802 -1.4914  1.9296  1.8144
 5508SOL     OW27982   0.119   3.922   4.946 -0.2427  0.7876  0.0490
 5508SOL    HW127983   0.168   3.891   5.022  1.4369  2.8676 -0.2069
 5508SOL    HW227984   0.096   3.841   4.900  0.3533  1.0351 -0.6826
 5509SOL     OW27985   1.998   0.482   7.183  0.0082  0.8178  0.2879
 5509SOL    HW127986   2.082   0.494   7.228  1.2474 -0.4911 -1.7107
 5509SOL    HW227987   1.976   0.397   7.223 -1.8583  0.7235 -0.9457
 5510SOL     OW27988   2.841   2.648   2.156  0.1915 -0.0661 -0.8055
 5510SOL    HW127989   2.891   2.579   2.114  1.4281  0.6663 -0.5277
 5510SOL    HW227990   2.759   2.632   2.109 -0.6040 -0.0558  0.5831
 5511SOL     OW27991   2.365   1.494  11.165  0.0010 -0.0430 -0.0125
 5511SOL    HW127992   2.326   1.502  11.078  0.5466 -0.1270 -0.2650
 5511SOL    HW227993   2.303   1.425  11.192  0.4631 -0.5455 -0.2256
 5512SOL     OW27994   3.903   3.489   4.375  0.7012  0.0401  0.6523
 5512SOL    HW127995   3.929   3.398   4.360  0.5414  0.7204 -3.9049
 5512SOL    HW227996   3.879   3.484   4.467 -1.2391 -2.4020  0.0564
 5513SOL     OW27997   2.323   1.318  13.284  0.2448 -0.6035 -0.7705
 5513SOL    HW127998   2.407   1.294  13.324  0.4015  1.2171 -0.0410
 5513SOL    HW227999   2.311   1.406  13.319  0.5366 -0.6634 -0.5233
 5514SOL     OW28000   1.397   3.806   0.752 -0.4325 -0.7820 -0.3725
 5514SOL    HW128001   1.358   3.719   0.763 -3.8455  0.8006 -0.1504
 5514SOL    HW228002   1.444   3.809   0.836 -2.8166 -1.3556  0.9940
 5515SOL     OW28003   0.301   1.449   1.227  0.0384  0.1177 -0.6203
 5515SOL    HW128004   0.299   1.521   1.165 -0.1647  0.3162 -0.3822
 5515SOL    HW228005   0.265   1.384   1.166 -0.9298  0.0323  0.0476
 5516SOL     OW28006   2.605   1.646   7.426  0.0239 -0.5220  0.2732
 5516SOL    HW128007   2.693   1.683   7.433 -0.6141  1.0027  0.0723
 5516SOL    HW228008   2.609   1.650   7.331  0.8604 -0.7777  0.2926
 5517SOL     OW28009   3.468   1.880   3.054 -0.1057 -0.4789  0.2574
 5517SOL    HW128010   3.410   1.805   3.048  0.2759 -0.7439 -0.2023
 5517SOL    HW228011   3.408   1.947   3.021  0.6160  0.0278 -0.0350
 5518SOL     OW28012   4.371   0.869  17.476 -0.2364  0.0998  0.0834
 5518SOL    HW128013   4.416   0.932  17.419 -0.1543 -0.4933 -0.5080
 5518SOL    HW228014   4.281   0.873  17.444  0.1864 -2.9312 -1.4739
 5519SOL     OW28015   0.017   4.350   6.815  0.3785  0.2500 -0.2972
 5519SOL    HW128016   4.676   4.324   6.749 -0.9028 -1.0349  1.5083
 5519SOL    HW228017   0.083   4.399   6.766  1.3336 -0.4079  0.3579
 5520SOL     OW28018   4.677   0.417   7.984 -0.0258  0.1360  0.1417
 5520SOL    HW128019   4.593   0.383   7.953  1.1697 -1.7913 -0.9485
 5520SOL    HW228020   4.698   0.479   7.914  0.8610  0.1148  0.3900
 5521SOL     OW28021   0.188   2.266  16.343  0.6531 -0.0735  0.0098
 5521SOL    HW128022   0.178   2.171  16.351 -0.8484  0.1333  0.5236
 5521SOL    HW228023   0.161   2.288  16.432 -1.5612 -0.6724 -0.5060
 5522SOL     OW28024   2.891   2.190   4.756 -0.2081  0.0792  0.6109
 5522SOL    HW128025   2.926   2.105   4.783  0.5823 -0.8689 -3.3586
 5522SOL    HW228026   2.941   2.256   4.804 -0.5761  0.0830  0.9899
 5523SOL     OW28027   2.320   4.405   6.439  0.0907  0.0967  0.1384
 5523SOL    HW128028   2.332   4.425   6.346 -1.7642  1.2871  0.1457
 5523SOL    HW228029   2.316   4.309   6.436  1.7836  0.0127  0.7610
 5524SOL     OW28030   1.091   3.826   3.859  0.0742  0.1422  0.4600
 5524SOL    HW128031   1.027   3.896   3.865  0.3686  0.5778 -1.4691
 5524SOL    HW228032   1.053   3.791   3.778 -1.5264 -1.3567  1.8456
 5525SOL     OW28033   0.849   3.331   7.836  0.5156 -0.2446  0.1939
 5525SOL    HW128034   0.833   3.246   7.794  1.1450  1.0131 -2.5786
 5525SOL    HW228035   0.847   3.387   7.758  1.4276 -1.6592 -0.8495
 5526SOL     OW28036   3.377   4.301   4.095 -0.6339  0.3688 -0.0941
 5526SOL    HW128037   3.421   4.327   4.014 -1.2057  0.1942 -0.4608
 5526SOL    HW228038   3.460   4.314   4.141 -1.8341  0.2375  2.0926
 5527SOL     OW28039   2.736   4.068  11.210  0.2603 -0.6608 -0.5221
 5527SOL    HW128040   2.721   3.998  11.274 -1.0623 -1.9824 -2.3008
 5527SOL    HW228041   2.792   4.018  11.151  1.1530  0.6415 -0.7820
 5528SOL     OW28042   1.647   3.552   1.453 -0.2559  0.2349 -0.0017
 5528SOL    HW128043   1.631   3.540   1.546  0.1600  1.0572  0.1707
 5528SOL    HW228044   1.566   3.520   1.412 -1.2768 -0.6438  2.7178
 5529SOL     OW28045   2.784   0.966   6.828 -0.4403  0.2502  0.4355
 5529SOL    HW128046   2.732   1.028   6.879 -1.7427 -0.1848 -0.3680
 5529SOL    HW228047   2.755   0.982   6.738  0.6600  1.1939  0.2420
 5530SOL     OW28048   3.620   0.683   3.240  0.3678 -0.3675  0.1517
 5530SOL    HW128049   3.582   0.709   3.324  1.7952 -0.9578  0.9822
 5530SOL    HW228050   3.547   0.637   3.198  0.3818  0.3532 -0.6400
 5531SOL     OW28051   1.076   3.502   7.409  0.1017 -0.6607  0.4853
 5531SOL    HW128052   1.148   3.538   7.461  0.5377  0.0615 -0.6358
 5531SOL    HW228053   1.068   3.555   7.330  1.4726  1.4302  1.7377
 5532SOL     OW28054   3.654   2.051   6.408  0.1994  0.1699 -0.5438
 5532SOL    HW128055   3.565   2.081   6.428 -0.4932 -1.2186 -1.5817
 5532SOL    HW228056   3.676   1.993   6.481  0.1376 -1.5638 -1.9098
 5533SOL     OW28057   0.630   1.986   1.718 -0.2898  0.1586  0.0833
 5533SOL    HW128058   0.569   1.980   1.792 -0.1826  1.2658  0.2685
 5533SOL    HW228059   0.600   1.903   1.681 -1.9070  0.1138  1.5098
 5534SOL     OW28060   2.364   4.654  14.070 -0.6263 -0.1561 -0.0223
 5534SOL    HW128061   2.306   0.005  14.073 -0.9695 -0.3828 -0.9221
 5534SOL    HW228062   2.426   4.678  14.001 -1.2250  4.1160  0.9360
 5535SOL     OW28063   4.558   0.935  13.315 -0.0944 -0.0929  0.3917
 5535SOL    HW128064   4.501   0.996  13.268  0.1910 -0.6223 -0.6414
 5535SOL    HW228065   4.532   0.950  13.406 -0.4945  0.2797  0.2179
 5536SOL     OW28066   0.643   0.322   5.200  0.1718 -0.3399 -0.5939
 5536SOL    HW128067   0.612   0.236   5.170  0.2924 -0.4968 -0.2658
 5536SOL    HW228068   0.556   0.361   5.203 -0.3319 -1.2771 -2.4826
 5537SOL     OW28069   1.484   0.322   7.474 -0.2032  0.2702  0.3210
 5537SOL    HW128070   1.457   0.410   7.498  0.1631  1.0935 -2.2549
 5537SOL    HW228071   1.536   0.298   7.551  0.2975  0.8505  0.1660
 5538SOL     OW28072   4.416   3.386   5.588  0.1922  0.0996 -0.0054
 5538SOL    HW128073   4.363   3.460   5.614  2.3367  1.7825 -0.4104
 5538SOL    HW228074   4.436   3.333   5.665 -1.2111 -0.6141 -0.1425
 5539SOL     OW28075   1.921   4.554   6.222 -0.3125 -0.4284  0.3117
 5539SOL    HW128076   1.866   4.555   6.143 -1.4558 -2.3098  1.0821
 5539SOL    HW228077   1.947   4.463   6.212  1.0797  0.0286 -0.2625
 5540SOL     OW28078   2.773   0.845   7.170 -0.3752  0.0455 -0.0528
 5540SOL    HW128079   2.698   0.890   7.131  0.5990  2.5392  0.9212
 5540SOL    HW228080   2.799   0.910   7.236 -0.0082  1.8688 -1.9988
 5541SOL     OW28081   3.191   3.104  15.698  0.3811  0.0341 -0.0659
 5541SOL    HW128082   3.113   3.075  15.650  0.0697 -0.4877  0.7354
 5541SOL    HW228083   3.149   3.137  15.778 -1.6793 -0.3543 -0.9926
 5542SOL     OW28084   4.335   3.154  15.218  0.3772 -0.0978  0.2387
 5542SOL    HW128085   4.274   3.191  15.281  2.3314  0.0873  1.9970
 5542SOL    HW228086   4.292   3.182  15.137 -1.1704 -0.2350  1.0040
 5543SOL     OW28087   2.670   3.434  15.027  0.7678  0.0754 -0.1865
 5543SOL    HW128088   2.715   3.507  15.069  0.4533 -1.6125  3.1353
 5543SOL    HW228089   2.684   3.370  15.097 -0.4458  1.1062  0.9850
 5544SOL     OW28090   4.336   3.394   7.657 -0.1457 -0.3911  0.6920
 5544SOL    HW128091   4.259   3.348   7.690 -0.7876  0.0249 -0.2244
 5544SOL    HW228092   4.358   3.342   7.580  0.5364 -0.1502  0.7158
 5545SOL     OW28093   0.070   3.966   8.890  0.4035  0.2054 -0.4070
 5545SOL    HW128094   0.148   3.995   8.938  0.1643  0.5538 -0.2321
 5545SOL    HW228095   0.110   3.904   8.829  0.6481  1.5441 -1.5887
 5546SOL     OW28096   2.699   2.359   9.555  0.8795  0.2339  0.1590
 5546SOL    HW128097   2.722   2.268   9.572 -1.1621 -0.1920  0.5829
 5546SOL    HW228098   2.622   2.351   9.499 -0.9012  2.3069  2.3118
 5547SOL     OW28099   3.165   1.990  17.433 -0.3524  0.2157  0.5669
 5547SOL    HW128100   3.238   2.029  17.387  0.9635 -1.7882  0.9344
 5547SOL    HW228101   3.219   1.952  17.503 -1.9673  1.1877  2.3350
 5548SOL     OW28102   1.195   2.658   7.191 -0.1150 -0.1711 -1.0524
 5548SOL    HW128103   1.224   2.746   7.166 -0.8437  0.1155 -0.9273
 5548SOL    HW228104   1.113   2.673   7.239  0.5460 -0.4500  0.1636
 5549SOL     OW28105   0.036   4.593   4.726  0.2339 -0.0598 -0.0987
 5549SOL    HW128106   0.017   4.531   4.655  0.1660  0.7717 -0.8050
 5549SOL    HW228107   0.131   4.602   4.733  0.5386 -2.1818 -1.5778
 5550SOL     OW28108   0.447   0.632   1.066  0.0436 -0.0040  0.1383
 5550SOL    HW128109   0.488   0.665   1.146 -0.6082 -0.3404  0.6073
 5550SOL    HW228110   0.430   0.714   1.020  1.4465 -0.5918 -1.4201
 5551SOL     OW28111   3.862   3.483   8.858 -0.1246  0.6865 -0.0736
 5551SOL    HW128112   3.816   3.539   8.796  1.7593  0.7717 -1.3935
 5551SOL    HW228113   3.901   3.542   8.922 -0.3863  0.0328  0.6956
 5552SOL     OW28114   2.846   3.817   2.420 -0.4356  0.2786  0.0385
 5552SOL    HW128115   2.797   3.740   2.394  0.8700  0.2825 -2.4007
 5552SOL    HW228116   2.870   3.843   2.331 -2.6872  0.2980 -0.5734
 5553SOL     OW28117   4.700   3.751   3.285  0.7205  0.2609 -0.2470
 5553SOL    HW128118   4.630   3.694   3.319  1.0345 -0.2852 -0.5276
 5553SOL    HW228119   4.696   3.835   3.331  1.9985  0.1846  0.0127
 5554SOL     OW28120   3.479   1.702  15.316  0.1878 -0.3714  0.3278
 5554SOL    HW128121   3.548   1.663  15.261 -0.8652 -1.2742 -0.3527
 5554SOL    HW228122   3.526   1.757  15.379  0.9793  2.1528 -2.5075
 5555SOL     OW28123   2.932   0.673   3.134  0.2120 -0.2301  0.1184
 5555SOL    HW128124   2.925   0.579   3.113 -1.9978 -0.5057  2.1325
 5555SOL    HW228125   2.957   0.710   3.049  0.0107 -3.3758 -1.3525
 5556SOL     OW28126   0.744   3.191   1.802  0.0780  0.3223 -0.5965
 5556SOL    HW128127   0.774   3.101   1.804 -1.3479 -0.2076 -2.2218
 5556SOL    HW228128   0.711   3.194   1.712 -0.7209 -0.5505 -0.3362
 5557SOL     OW28129   3.572   3.013  10.221 -0.1312  0.0782 -0.0564
 5557SOL    HW128130   3.664   3.037  10.208 -0.5251  0.1416 -2.8234
 5557SOL    HW228131   3.552   2.956  10.147 -0.3311  1.3650 -0.9895
 5558SOL     OW28132   0.977   1.845   5.823  0.0661  0.6586  0.4818
 5558SOL    HW128133   0.915   1.804   5.884 -0.6994  0.7356 -0.2536
 5558SOL    HW228134   0.921   1.901   5.770  0.2558 -0.3416 -0.7713
 5559SOL     OW28135   2.126   2.456   9.323 -0.1516  0.5883  0.0348
 5559SOL    HW128136   2.052   2.396   9.314 -0.8094  1.5695 -1.1130
 5559SOL    HW228137   2.170   2.421   9.400  0.5864  0.0606 -0.6343
 5560SOL     OW28138   1.385   3.655   2.723  0.2605 -0.7543 -0.4909
 5560SOL    HW128139   1.386   3.560   2.736  0.3088 -0.9201 -1.6822
 5560SOL    HW228140   1.346   3.654   2.635 -0.0355  0.4818 -0.3773
 5561SOL     OW28141   3.430   3.004  16.572  0.4263 -0.4471  0.6255
 5561SOL    HW128142   3.473   2.973  16.492 -0.2711  0.8874 -0.2578
 5561SOL    HW228143   3.462   3.094  16.574  1.1643 -0.6653 -0.8065
 5562SOL     OW28144   1.639   1.882   9.453 -0.2587 -0.3835 -0.0995
 5562SOL    HW128145   1.634   1.838   9.537  4.1155 -2.2321 -0.8147
 5562SOL    HW228146   1.725   1.859   9.418  0.3107 -0.8515  1.6569
 5563SOL     OW28147   1.797   2.112   2.400  0.0446 -0.1530 -0.1365
 5563SOL    HW128148   1.842   2.028   2.400 -2.9534 -1.7764  0.3073
 5563SOL    HW228149   1.862   2.169   2.441 -1.1804  2.0432 -1.2562
 5564SOL     OW28150   1.030   3.953   5.933  0.1621 -0.2996 -0.1196
 5564SOL    HW128151   0.959   3.987   5.988  1.5633  1.1152  0.8075
 5564SOL    HW228152   1.096   4.022   5.939 -0.2775  0.0866  0.3663
 5565SOL     OW28153   0.945   3.548  15.839  0.1414 -0.1317 -0.5208
 5565SOL    HW128154   0.956   3.621  15.777  0.8692  0.9765  0.9251
 5565SOL    HW228155   0.927   3.485  15.769 -0.3728 -0.6698  0.1044
 5566SOL     OW28156   1.878   4.633   3.177  0.5413  0.0584 -0.0221
 5566SOL    HW128157   1.875   4.702   3.110 -0.1471  0.5656  0.5262
 5566SOL    HW228158   1.908   4.559   3.125  1.0704 -0.0640  0.4527
 5567SOL     OW28159   4.703   4.254   5.582  0.2272  0.2116 -0.6324
 5567SOL    HW128160   4.663   4.168   5.570  0.3988 -0.0057  0.3955
 5567SOL    HW228161   4.694   4.283   5.491 -0.1060  1.2221 -0.2782
 5568SOL     OW28162   2.570   2.073   7.843 -0.5760  0.2037 -0.4315
 5568SOL    HW128163   2.488   2.093   7.889  0.1725 -0.9161  1.4206
 5568SOL    HW228164   2.546   2.099   7.755  1.7812 -0.2904 -1.2239
 5569SOL     OW28165   3.150   0.537  12.681  0.2322 -0.1199 -0.1708
 5569SOL    HW128166   3.137   0.518  12.588  0.7947  1.0524 -0.4843
 5569SOL    HW228167   3.097   0.615  12.697 -0.0292 -0.2369 -0.4573
 5570SOL     OW28168   4.333   1.530   1.602 -0.1215  0.4110 -0.6373
 5570SOL    HW128169   4.358   1.620   1.580  0.3053  0.4359 -0.0566
 5570SOL    HW228170   4.263   1.562   1.660  0.8508 -0.3505  0.9415
 5571SOL     OW28171   0.348   3.213   3.322  0.0522 -0.4213 -0.2617
 5571SOL    HW128172   0.260   3.194   3.288 -0.4507 -1.3582  1.5021
 5571SOL    HW228173   0.333   3.303   3.352  2.2670  0.0458 -0.6039
 5572SOL     OW28174   4.607   1.417   0.454 -0.5690 -0.4118  0.2594
 5572SOL    HW128175   4.608   1.389   0.363  0.0320 -1.1214  0.4845
 5572SOL    HW228176   4.540   1.485   0.460  0.0196  0.1909  0.1246
 5573SOL     OW28177   4.153   3.667   7.711 -0.1906  0.1612 -0.6215
 5573SOL    HW128178   4.209   3.591   7.693  0.1117  0.2113  0.1071
 5573SOL    HW228179   4.173   3.713   7.630 -1.3236 -2.3185 -2.3038
 5574SOL     OW28180   3.954   0.421  10.737  0.0106  0.2328 -0.1544
 5574SOL    HW128181   3.892   0.493  10.721  2.2955  2.2342 -0.1186
 5574SOL    HW228182   3.971   0.446  10.828  1.6795  0.8049 -0.6063
 5575SOL     OW28183   3.321   0.211   5.282 -0.1542  0.7924 -0.7825
 5575SOL    HW128184   3.318   0.167   5.197  3.5867 -3.1117  1.0957
 5575SOL    HW228185   3.372   0.287   5.253  1.5284  0.6430  1.7307
 5576SOL     OW28186   2.057   4.127  15.050  0.0909  0.0208  0.0480
 5576SOL    HW128187   2.107   4.063  14.999 -0.3822 -3.0941  3.4937
 5576SOL    HW228188   2.124   4.182  15.091  1.0907  1.2537 -3.1945
 5577SOL     OW28189   1.658   1.673   7.265  0.2997  0.3752  0.1603
 5577SOL    HW128190   1.751   1.695   7.267  0.6805 -1.1565 -0.4096
 5577SOL    HW228191   1.663   1.577   7.265  0.6044  0.3953  1.3155
 5578SOL     OW28192   0.750   1.378   8.453 -0.3802  0.4312  0.3282
 5578SOL    HW128193   0.832   1.394   8.500  0.6609  0.2202 -1.4126
 5578SOL    HW228194   0.760   1.445   8.386 -2.2111  1.1388  0.7632
 5579SOL     OW28195   2.747   2.846   7.524  0.4536 -0.4163  0.0760
 5579SOL    HW128196   2.660   2.806   7.527  0.7090 -0.9790 -0.0080
 5579SOL    HW228197   2.726   2.936   7.497 -0.4673 -1.7840 -3.8298
 5580SOL     OW28198   1.131   0.252   2.446 -0.2166  0.7732  0.4908
 5580SOL    HW128199   1.134   0.268   2.540 -2.1447 -2.1094  1.0571
 5580SOL    HW228200   1.037   0.265   2.439 -0.7058 -1.7329  2.4613
 5581SOL     OW28201   0.819   0.123   1.565  0.0818 -0.0197 -0.0131
 5581SOL    HW128202   0.823   0.138   1.471 -2.3547  1.5662  0.1155
 5581SOL    HW228203   0.725   0.127   1.586  0.3655 -0.2967  1.3191
 5582SOL     OW28204   4.196   0.938  10.079 -0.1613 -0.0800 -0.1242
 5582SOL    HW128205   4.204   1.027  10.113  1.0473 -0.9127  1.7735
 5582SOL    HW228206   4.279   0.928  10.032  0.1192 -1.0125  0.5693
 5583SOL     OW28207   1.967   1.505   7.036 -0.0324  0.0099  0.4111
 5583SOL    HW128208   1.914   1.534   6.962 -1.4286 -0.5339  1.1907
 5583SOL    HW228209   1.948   1.412   7.045 -0.0865 -0.0584 -0.4300
 5584SOL     OW28210   2.569   1.391  11.382 -0.3008 -0.0124  0.1574
 5584SOL    HW128211   2.612   1.436  11.454  0.3098  1.4168 -1.1247
 5584SOL    HW228212   2.534   1.464  11.331 -0.1273  0.7928  1.1826
 5585SOL     OW28213   1.039   3.134  10.658  0.0331 -0.1737  0.5659
 5585SOL    HW128214   1.082   3.177  10.732 -1.7655 -0.3453  1.7127
 5585SOL    HW228215   1.087   3.164  10.581  2.7955 -2.1584  1.5451
 5586SOL     OW28216   1.989   0.422  13.392 -0.0165  0.7045  0.2193
 5586SOL    HW128217   2.052   0.483  13.430  0.7582 -0.6628  1.1189
 5586SOL    HW228218   1.952   0.476  13.322 -0.2608  0.2298 -0.0236
 5587SOL     OW28219   2.534   3.638   3.233 -0.0243  0.2571  0.1094
 5587SOL    HW128220   2.532   3.677   3.146  0.5042  0.9470  0.4025
 5587SOL    HW228221   2.578   3.699   3.292  0.5255  0.8650 -0.9326
 5588SOL     OW28222   0.626   3.416   1.909  0.3205 -0.5151  0.5230
 5588SOL    HW128223   0.575   3.359   1.966 -1.0689  1.8802  1.6991
 5588SOL    HW228224   0.666   3.345   1.858 -1.6395 -1.3577  0.1639
 5589SOL     OW28225   2.119   1.587   1.757 -0.4942 -0.0085  0.6522
 5589SOL    HW128226   2.031   1.572   1.789 -0.8243  1.0705  0.2368
 5589SOL    HW228227   2.130   1.682   1.757 -1.2839  0.0826  0.2910
 5590SOL     OW28228   4.696   1.758   6.796  0.8295 -0.0038 -0.5070
 5590SOL    HW128229   4.653   1.813   6.730  0.1061  1.3114  1.0523
 5590SOL    HW228230   4.646   1.677   6.785  1.3485 -0.4577  0.4983
 5591SOL     OW28231   1.192   1.655   2.737  0.0923  0.3959  0.4110
 5591SOL    HW128232   1.281   1.678   2.713 -0.1294  1.3196  0.4849
 5591SOL    HW228233   1.183   1.572   2.690 -1.9289  0.6040  0.4272
 5592SOL     OW28234   1.374   1.828   6.644 -0.1206 -0.4114 -0.8504
 5592SOL    HW128235   1.429   1.787   6.710 -0.3666  1.6818  0.6424
 5592SOL    HW228236   1.399   1.774   6.568  1.1604 -0.5673 -0.3166
 5593SOL     OW28237   4.550   3.326   2.393 -0.6360  0.0237 -0.0579
 5593SOL    HW128238   4.529   3.307   2.302 -1.4297 -1.6490  0.4759
 5593SOL    HW228239   4.591   3.412   2.403  0.3067 -0.7493  2.7939
 5594SOL     OW28240   0.929   0.982  14.930 -0.5791 -0.1520 -0.0424
 5594SOL    HW128241   0.887   1.062  14.962 -1.5721 -1.2471  1.4034
 5594SOL    HW228242   0.854   0.956  14.877 -0.1149 -0.6496 -0.4483
 5595SOL     OW28243   4.527   2.520   2.547  0.7668  0.2975 -0.3990
 5595SOL    HW128244   4.516   2.511   2.453 -0.0273 -0.5886 -0.2197
 5595SOL    HW228245   4.474   2.446   2.576  0.9239  0.0517 -0.7410
 5596SOL     OW28246   3.097   2.222   8.353  0.3262  0.1211  0.3192
 5596SOL    HW128247   3.069   2.255   8.268  2.2001 -1.8721 -1.0884
 5596SOL    HW228248   3.057   2.136   8.340 -0.9148  0.8303 -0.5170
 5597SOL     OW28249   0.151   2.747   9.948  0.2051  0.0247 -0.0044
 5597SOL    HW128250   0.159   2.653   9.937 -0.1211  0.1291 -1.1180
 5597SOL    HW228251   0.120   2.767   9.860  1.5324  2.8112  0.1626
 5598SOL     OW28252   1.988   2.013  16.136 -0.4636  0.1717 -0.3427
 5598SOL    HW128253   1.924   2.048  16.198 -1.5109 -0.5470 -1.0151
 5598SOL    HW228254   2.046   2.090  16.142 -0.4560  0.0553  1.1824
 5599SOL     OW28255   0.989   0.979   4.734 -0.4774  0.0841  0.3309
 5599SOL    HW128256   0.951   0.964   4.648 -1.9236  2.1478  0.6001
 5599SOL    HW228257   1.082   0.958   4.730 -0.7776 -1.2304  0.2763
 5600SOL     OW28258   0.187   3.598   6.821 -0.3062 -0.5956 -0.1874
 5600SOL    HW128259   0.158   3.566   6.907 -4.6496  1.0123 -1.0448
 5600SOL    HW228260   0.267   3.549   6.805  0.9146  0.5518  2.3310
 5601SOL     OW28261   2.317   0.859  14.146  0.4921 -0.6901 -0.0534
 5601SOL    HW128262   2.247   0.837  14.085  1.7026 -0.8100 -1.4175
 5601SOL    HW228263   2.261   0.886  14.218  1.7899 -0.9949  1.0861
 5602SOL     OW28264   0.613   1.454   4.027 -0.2144 -0.0745  0.3686
 5602SOL    HW128265   0.535   1.399   4.017 -0.3592 -0.0924  1.5823
 5602SOL    HW228266   0.588   1.542   4.057  0.2910  1.0849 -2.5697
 5603SOL     OW28267   2.781   1.493  16.011 -0.0886  0.0801 -0.2098
 5603SOL    HW128268   2.801   1.522  15.922 -1.8579  2.3270  0.1318
 5603SOL    HW228269   2.862   1.521  16.055 -0.0104 -2.7909  1.4824
 5604SOL     OW28270   3.709   2.202  11.122  0.8714 -0.3509  0.4895
 5604SOL    HW128271   3.783   2.244  11.079  1.0640 -0.8396  0.3540
 5604SOL    HW228272   3.672   2.163  11.043  1.8363  1.8363 -1.0455
 5605SOL     OW28273   0.902   4.407  16.745  0.8751  0.0590  0.4321
 5605SOL    HW128274   0.912   4.497  16.778 -1.0114  0.1600  0.7556
 5605SOL    HW228275   0.923   4.429  16.654 -3.6317 -2.2572 -1.1597
 5606SOL     OW28276   4.136   4.496   7.796  0.0816  0.8328 -0.0246
 5606SOL    HW128277   4.224   4.530   7.778 -0.0718  0.0039 -2.3742
 5606SOL    HW228278   4.152   4.482   7.889  1.3032  0.0378 -0.3657
 5607SOL     OW28279   0.498   0.543   9.033  0.0399  0.1767 -0.0688
 5607SOL    HW128280   0.526   0.632   9.013 -1.7624  0.8824  0.5190
 5607SOL    HW228281   0.584   0.504   9.052 -0.2839  0.6644  2.4217
 5608SOL     OW28282   4.063   4.357   8.445  0.3382  0.4008 -0.1946
 5608SOL    HW128283   3.997   4.369   8.513 -0.1945  0.7548 -0.7747
 5608SOL    HW228284   4.142   4.363   8.498  1.3348  1.9878 -1.8467
 5609SOL     OW28285   0.974   4.369  14.623 -0.1277  0.0446  0.2454
 5609SOL    HW128286   0.995   4.420  14.701  1.2799  1.3420 -0.9785
 5609SOL    HW228287   0.898   4.322  14.657  0.4319 -1.4563 -0.5738
 5610SOL     OW28288   2.655   1.328   2.553  0.1011 -0.2394  0.2164
 5610SOL    HW128289   2.742   1.301   2.581  0.7724  0.3143 -1.2927
 5610SOL    HW228290   2.684   1.359   2.467  0.6453  1.0842  0.8690
 5611SOL     OW28291   4.519   1.454  17.535 -0.1441  0.0492  0.0298
 5611SOL    HW128292   4.585   1.428  17.470  0.0207  0.3103  0.0946
 5611SOL    HW228293   4.518   1.372  17.585  1.0565  1.4357  2.2924
 5612SOL     OW28294   0.985   3.703  16.060 -0.1283  0.3827 -0.5444
 5612SOL    HW128295   0.983   3.646  15.982 -1.4497  0.6483 -0.6917
 5612SOL    HW228296   1.080   3.697  16.074 -0.4244  0.1595  1.3715
 5613SOL     OW28297   1.185   1.445   6.307  0.0387  0.1920  0.5770
 5613SOL    HW128298   1.180   1.368   6.250 -0.1953  0.7523 -0.1572
 5613SOL    HW228299   1.256   1.485   6.257 -0.1476  0.7223  0.7451
 5614SOL     OW28300   2.417   3.645   6.653 -0.4154  0.1037  0.1114
 5614SOL    HW128301   2.378   3.602   6.730 -0.8772 -0.8109 -0.6340
 5614SOL    HW228302   2.349   3.710   6.636 -1.4548 -1.1480 -0.5470
 5615SOL     OW28303   3.642   4.275   6.067  0.0075 -0.2396 -0.3129
 5615SOL    HW128304   3.588   4.269   5.989 -0.7709  1.7430  0.0775
 5615SOL    HW228305   3.668   4.367   6.078  1.1885 -0.7261  0.9768
 5616SOL     OW28306   2.279   2.210   3.940  1.0585 -0.1388  0.0832
 5616SOL    HW128307   2.221   2.237   4.011  0.9210  0.5480 -0.2850
 5616SOL    HW228308   2.368   2.237   3.964  0.7652 -1.4493  2.5557
 5617SOL     OW28309   1.549   2.893  10.755  0.3133 -0.3246  0.4481
 5617SOL    HW128310   1.472   2.940  10.722  0.7193 -0.3505 -0.5183
 5617SOL    HW228311   1.571   2.953  10.826  3.0510 -2.1294  1.1387
 5618SOL     OW28312   1.813   1.225   3.942  0.2959  0.1548  0.2244
 5618SOL    HW128313   1.759   1.281   3.886 -1.7519 -1.1299  0.9203
 5618SOL    HW228314   1.815   1.275   4.024  0.6176  0.0907  0.2550
 5619SOL     OW28315   1.772   3.420   4.243 -0.1150  0.8087 -0.1875
 5619SOL    HW128316   1.738   3.441   4.156  1.4250  3.5138 -0.1695
 5619SOL    HW228317   1.859   3.388   4.218 -0.0707  0.9575 -0.2254
 5620SOL     OW28318   2.742   2.894   8.965 -0.3142  0.0554  0.3008
 5620SOL    HW128319   2.798   2.968   8.942  0.4372 -0.5530  0.1911
 5620SOL    HW228320   2.659   2.941   8.975  0.4526  1.9433 -2.1720
 5621SOL     OW28321   0.062   4.663   2.160 -0.3730  0.3814 -0.0370
 5621SOL    HW128322   0.080   0.027   2.194  1.4204 -1.4547  3.7821
 5621SOL    HW228323   0.067   4.619   2.245 -3.0855 -1.1731 -0.6892
 5622SOL     OW28324   3.399   3.064   8.590  0.0606 -0.4929  0.0611
 5622SOL    HW128325   3.467   3.057   8.656  1.0928 -0.2491 -0.9878
 5622SOL    HW228326   3.381   3.158   8.599 -3.6591 -1.3707  1.8489
 5623SOL     OW28327   2.981   1.887  17.650 -0.1263 -0.2592  0.0981
 5623SOL    HW128328   2.891   1.896  17.683 -0.4321  0.9472 -1.0971
 5623SOL    HW228329   2.970   1.867  17.557  1.5998 -1.3194  0.1306
 5624SOL     OW28330   3.014   4.488   6.194  0.3744  0.2171  0.0460
 5624SOL    HW128331   3.074   4.423   6.158 -0.1546 -0.7715  0.9405
 5624SOL    HW228332   3.002   4.448   6.280 -1.3159  2.4143  0.8203
 5625SOL     OW28333   1.423   4.113  13.660  0.4106  0.4426 -0.3364
 5625SOL    HW128334   1.501   4.080  13.705 -0.3916 -1.6068 -0.4799
 5625SOL    HW228335   1.443   4.207  13.658  0.0054  0.5429  0.3779
 5626SOL     OW28336   3.720   1.899   6.665 -0.2251  0.5103  0.5140
 5626SOL    HW128337   3.712   1.805   6.681 -0.9900  0.6652  1.0362
 5626SOL    HW228338   3.712   1.931   6.755 -1.5358 -0.5359  0.7719
 5627SOL     OW28339   2.511   4.595  10.989 -0.4833 -0.2698 -0.6222
 5627SOL    HW128340   2.514   4.670  11.048 -1.8558  0.6890 -1.7819
 5627SOL    HW228341   2.593   4.598  10.940 -0.6084  2.4886 -0.6831
 5628SOL     OW28342   1.738   2.990   4.979  0.0391  0.2308  1.1489
 5628SOL    HW128343   1.792   3.023   4.906 -0.9501 -1.8439 -0.5081
 5628SOL    HW228344   1.658   3.040   4.963 -0.4743 -0.7153  0.8130
 5629SOL     OW28345   4.046   2.164   9.962 -0.2583  0.2820 -0.0082
 5629SOL    HW128346   4.109   2.096   9.986 -1.8196 -0.6345  1.5122
 5629SOL    HW228347   3.995   2.114   9.897  0.9547  0.2985 -0.9767
 5630SOL     OW28348   0.934   1.160   5.900 -0.0368 -0.1015 -0.6083
 5630SOL    HW128349   0.980   1.137   5.819  0.5694 -0.2237 -0.2229
 5630SOL    HW228350   0.874   1.085   5.906 -1.0285  0.5528 -2.2573
 5631SOL     OW28351   2.408   4.368   7.582 -0.3496 -0.5716  0.4109
 5631SOL    HW128352   2.437   4.281   7.609 -0.0351 -0.5099  0.2673
 5631SOL    HW228353   2.328   4.360   7.530 -0.5763 -0.1858  0.6986
 5632SOL     OW28354   2.850   4.712   6.926 -0.3703  0.1698 -0.6846
 5632SOL    HW128355   2.923   4.651   6.934  0.7048  1.5469 -0.0405
 5632SOL    HW228356   2.902   0.055   6.882  1.3322 -0.3259  0.5859
 5633SOL     OW28357   1.164   4.200   9.994 -0.2889 -0.4410  0.4760
 5633SOL    HW128358   1.182   4.265   9.926  1.0752 -1.9289 -0.6011
 5633SOL    HW228359   1.069   4.203   9.991 -0.2251  1.0768 -0.1167
 5634SOL     OW28360   2.561   2.832  11.688  0.3166 -0.2433  0.0281
 5634SOL    HW128361   2.552   2.832  11.784  1.0980  2.3856  0.0974
 5634SOL    HW228362   2.473   2.805  11.663  0.8313 -0.2803 -1.7102
 5635SOL     OW28363   3.069   4.235  16.874  0.6972 -0.3109  0.6962
 5635SOL    HW128364   3.017   4.306  16.837  1.7820  0.2327  0.2303
 5635SOL    HW228365   3.021   4.220  16.956 -0.1162 -1.2675  0.0469
 5636SOL     OW28366   3.283   3.873   3.004  0.1608  0.0101  0.1750
 5636SOL    HW128367   3.314   3.785   2.982  0.4739 -0.2278  1.5541
 5636SOL    HW228368   3.192   3.863   3.033 -0.0501 -1.5221 -1.0105
 5637SOL     OW28369   0.529   3.582   1.679 -0.8138  0.4146 -0.7426
 5637SOL    HW128370   0.569   3.541   1.756  5.1189  0.4005 -3.8330
 5637SOL    HW228371   0.464   3.643   1.715  1.5733  1.8472  1.1753
 5638SOL     OW28372   0.929   1.776   2.981 -0.0317  0.1935  0.0443
 5638SOL    HW128373   0.854   1.830   2.958 -1.5261 -2.2207 -0.8482
 5638SOL    HW228374   1.001   1.834   2.959 -1.0158  1.6175  0.6151
 5639SOL     OW28375   0.609   2.132   7.689  0.4260 -0.3510 -0.6378
 5639SOL    HW128376   0.574   2.220   7.703  2.6837  0.6674 -1.3964
 5639SOL    HW228377   0.622   2.129   7.594  2.8248 -0.9182 -0.2897
 5640SOL     OW28378   1.828   2.170  14.481  0.0382  0.8441 -0.5740
 5640SOL    HW128379   1.908   2.219  14.461  1.4950 -0.6333  1.7034
 5640SOL    HW228380   1.788   2.171  14.394  3.1238  0.2943 -1.9946
 5641SOL     OW28381   2.423   1.081   5.827  0.5252 -0.0091 -0.1733
 5641SOL    HW128382   2.452   1.147   5.764  0.9847 -0.2497 -0.2136
 5641SOL    HW228383   2.418   1.132   5.908  0.0779 -0.2617 -0.0446
 5642SOL     OW28384   0.948   1.490   7.789 -0.3038  0.5793 -0.7053
 5642SOL    HW128385   0.953   1.575   7.832  0.5670  0.0372  0.2859
 5642SOL    HW228386   0.860   1.477   7.754  0.2648 -0.8059 -1.6138
 5643SOL     OW28387   3.638   4.129   1.933 -0.0958 -0.6331  0.1532
 5643SOL    HW128388   3.661   4.221   1.924 -0.9971 -0.3057  1.3954
 5643SOL    HW228389   3.718   4.080   1.913 -0.7775 -2.1172  1.0774
 5644SOL     OW28390   4.019   3.340   6.355 -0.5261  0.5969  0.2246
 5644SOL    HW128391   4.079   3.360   6.283  0.1676 -1.9715  0.0746
 5644SOL    HW228392   3.936   3.326   6.309  0.5302 -2.0119 -0.9086
 5645SOL     OW28393   2.507   3.615   7.628  0.1981 -0.3294 -0.1235
 5645SOL    HW128394   2.425   3.635   7.583  1.1022  3.1401 -0.2960
 5645SOL    HW228395   2.481   3.639   7.717 -0.6864  0.8115 -0.6971
 5646SOL     OW28396   0.353   0.468   8.107 -0.9770 -0.2449  0.0472
 5646SOL    HW128397   0.447   0.462   8.121 -1.0333 -0.1989  0.4588
 5646SOL    HW228398   0.342   0.547   8.053 -0.0956  1.1430  1.8648
 5647SOL     OW28399   0.471   4.282   4.250 -0.7803  0.0867 -0.5169
 5647SOL    HW128400   0.389   4.304   4.295 -0.4036  0.6149 -0.0882
 5647SOL    HW228401   0.533   4.273   4.323 -1.5356  1.5191  0.3180
 5648SOL     OW28402   0.380   2.878  15.407 -0.1454  0.2150 -0.3876
 5648SOL    HW128403   0.430   2.923  15.475 -0.1384 -2.4749  1.3915
 5648SOL    HW228404   0.456   2.846  15.360 -0.4955 -2.5732  0.8971
 5649SOL     OW28405   3.641   1.926   9.079 -0.1686 -0.5601  0.5265
 5649SOL    HW128406   3.713   1.923   9.142  1.9102 -0.6039 -1.8671
 5649SOL    HW228407   3.694   1.934   9.000 -0.4140 -1.5550  0.2657
 5650SOL     OW28408   2.134   2.147   5.602  0.6806 -0.4737 -0.2929
 5650SOL    HW128409   2.124   2.229   5.554 -2.4799 -0.5565  0.2447
 5650SOL    HW228410   2.074   2.096   5.548 -0.9956  1.3822 -0.1571
 5651SOL     OW28411   2.373   3.108   5.652 -0.4022 -0.0823  0.1993
 5651SOL    HW128412   2.392   3.086   5.561  3.1516 -2.3297  1.4791
 5651SOL    HW228413   2.458   3.098   5.694 -1.2513  0.4060  2.0501
 5652SOL     OW28414   2.096   2.463   2.493 -0.3125  0.6994 -0.1844
 5652SOL    HW128415   2.057   2.422   2.416 -0.0124 -0.4982  0.3096
 5652SOL    HW228416   2.032   2.529   2.518 -3.4020 -2.1877 -0.4848
 5653SOL     OW28417   3.261   1.767   5.870 -0.1794 -0.8319  0.0728
 5653SOL    HW128418   3.288   1.779   5.960  1.1110 -0.8086 -0.3267
 5653SOL    HW228419   3.210   1.848   5.860 -1.2692 -1.3315  1.5634
 5654SOL     OW28420   2.654   3.811  12.771 -0.1956  1.0249 -0.4212
 5654SOL    HW128421   2.658   3.830  12.677 -0.5011  0.3763 -0.5623
 5654SOL    HW228422   2.746   3.789  12.790  0.3905  1.2363 -2.9062
 5655SOL     OW28423   4.253   4.217   2.397  0.6572  0.3400 -0.2062
 5655SOL    HW128424   4.208   4.293   2.358 -0.2165  0.8461  1.8297
 5655SOL    HW228425   4.344   4.240   2.379  0.8183  0.8174  1.2395
 5656SOL     OW28426   0.352   2.732   5.860 -0.1218 -0.3138  0.4219
 5656SOL    HW128427   0.284   2.786   5.819 -0.7383  0.8355  2.9731
 5656SOL    HW228428   0.432   2.761   5.816  1.6006 -2.8293  1.8612
 5657SOL     OW28429   2.827   3.965   8.343  0.0107 -0.2133  0.1084
 5657SOL    HW128430   2.762   4.021   8.301  1.3398  1.2651  0.0354
 5657SOL    HW228431   2.845   3.896   8.279  2.1145  0.8665 -0.4476
 5658SOL     OW28432   0.625   3.981   8.054  0.1923 -0.1511 -0.0193
 5658SOL    HW128433   0.614   3.887   8.069 -0.6585  0.1168  1.0532
 5658SOL    HW228434   0.549   3.990   7.997  0.2846  1.9235  0.1854
 5659SOL     OW28435   2.152   0.084   7.049  0.1160 -0.0744  0.4196
 5659SOL    HW128436   2.115   4.722   7.036  0.1308 -0.1475  0.8468
 5659SOL    HW228437   2.209   0.097   6.973 -0.4280  2.1091  0.3769
 5660SOL     OW28438   3.758   3.148   3.349 -0.6472 -0.8443 -0.0680
 5660SOL    HW128439   3.679   3.144   3.403 -1.3443 -4.3644 -1.3778
 5660SOL    HW228440   3.727   3.121   3.263  0.2141 -0.6125 -0.4552
 5661SOL     OW28441   0.799   1.629  17.225 -0.5210 -0.4499 -0.0947
 5661SOL    HW128442   0.786   1.603  17.134  1.4359 -2.1327  0.1050
 5661SOL    HW228443   0.843   1.714  17.226 -1.3011 -0.0531  0.7199
 5662SOL     OW28444   1.701   3.932   4.431  0.2550  0.0982 -0.3911
 5662SOL    HW128445   1.637   3.926   4.360  1.2987  0.7152 -1.3884
 5662SOL    HW228446   1.725   3.841   4.442 -0.7921 -0.1340  0.0332
 5663SOL     OW28447   4.401   0.792   4.455 -0.2152  0.1432 -0.0936
 5663SOL    HW128448   4.403   0.873   4.404  1.4823 -1.3727 -2.4308
 5663SOL    HW228449   4.323   0.807   4.508 -1.1354 -0.7329 -1.2035
 5664SOL     OW28450   0.221   1.402   2.837  0.0532 -0.1581 -0.2797
 5664SOL    HW128451   0.192   1.461   2.907 -2.7547 -0.3085 -1.3099
 5664SOL    HW228452   0.312   1.385   2.863  0.0375 -2.0141 -1.4031
 5665SOL     OW28453   0.460   4.304   2.560 -0.2275  0.1983  0.2005
 5665SOL    HW128454   0.532   4.366   2.550  0.6106 -1.0498 -1.5802
 5665SOL    HW228455   0.517   4.229   2.578  1.5104  1.0172 -1.8517
 5666SOL     OW28456   0.397   1.589   0.646 -0.2435  0.4967 -0.0702
 5666SOL    HW128457   0.354   1.548   0.572  0.0174 -1.8908  1.0973
 5666SOL    HW228458   0.402   1.514   0.706 -1.2849  1.1497  0.8281
 5667SOL     OW28459   1.993   2.677  16.398  0.2531 -0.0672 -0.1107
 5667SOL    HW128460   1.908   2.653  16.363 -0.1917  1.7085 -0.2800
 5667SOL    HW228461   1.966   2.745  16.460 -1.9283 -1.3850  0.3705
 5668SOL     OW28462   4.018   0.757  17.647 -0.0712  0.3888 -1.0137
 5668SOL    HW128463   3.973   0.722  17.570  2.1517 -3.4229 -0.5610
 5668SOL    HW228464   4.103   0.716  17.635  0.2149  1.0267 -1.1948
 5669SOL     OW28465   1.420   3.349   7.189  0.1961  0.3971 -0.4300
 5669SOL    HW128466   1.328   3.323   7.189  0.0282  0.9731  3.4907
 5669SOL    HW228467   1.427   3.388   7.277 -1.3114  0.4962 -0.3527
 5670SOL     OW28468   4.547   3.908   3.507  0.2865  0.0293  0.0781
 5670SOL    HW128469   4.520   3.936   3.595 -0.2536 -0.1050 -0.0403
 5670SOL    HW228470   4.574   3.991   3.466 -0.8104 -0.4190 -1.5443
 5671SOL     OW28471   3.951   1.296   0.929  0.1390 -0.1119 -0.0404
 5671SOL    HW128472   4.000   1.379   0.931  1.1486 -0.7786  3.0775
 5671SOL    HW228473   4.025   1.242   0.958  0.7682  1.1788  0.7798
 5672SOL     OW28474   2.938   2.106  10.626 -0.0034  0.0164  0.1020
 5672SOL    HW128475   2.903   2.029  10.671  2.5238 -1.3513 -0.2803
 5672SOL    HW228476   2.850   2.143  10.618 -1.8244 -4.4184 -0.5427
 5673SOL     OW28477   3.122   3.088   5.515  0.2296 -0.8859  0.6262
 5673SOL    HW128478   3.097   3.019   5.453  0.3613  0.8059 -1.2973
 5673SOL    HW228479   3.059   3.151   5.481 -0.1599 -1.6129 -0.0197
 5674SOL     OW28480   3.545   3.698   8.179  0.0442  0.4117 -0.1395
 5674SOL    HW128481   3.450   3.689   8.182  0.3008 -2.3802  0.3488
 5674SOL    HW228482   3.564   3.726   8.090  0.0762  0.3177 -0.1621
 5675SOL     OW28483   3.939   3.649   4.790 -0.1131  0.1880 -0.1726
 5675SOL    HW128484   3.861   3.653   4.845  2.5265 -3.0728  3.7757
 5675SOL    HW228485   3.952   3.740   4.763 -1.1247  0.6586  0.9126
 5676SOL     OW28486   1.582   2.868  12.670 -0.9256 -0.2279  0.3240
 5676SOL    HW128487   1.606   2.927  12.742  0.9861 -0.6047  0.0007
 5676SOL    HW228488   1.523   2.925  12.621  0.0559 -0.4883 -1.1619
 5677SOL     OW28489   1.959   3.276   4.094  0.0063 -0.1052  0.7055
 5677SOL    HW128490   2.048   3.283   4.059 -0.1870  0.5947  0.3576
 5677SOL    HW228491   1.945   3.182   4.082  0.6355  0.1501 -1.9734
 5678SOL     OW28492   1.922   1.689   7.741  0.3306  0.0624  0.1918
 5678SOL    HW128493   1.983   1.619   7.717  0.3458 -0.5940  2.0765
 5678SOL    HW228494   1.903   1.728   7.656  0.2328 -0.9510 -0.2510
 5679SOL     OW28495   0.850   3.920  14.150  0.1270 -0.5162 -0.1082
 5679SOL    HW128496   0.876   3.952  14.064 -3.1900  2.6171  0.0606
 5679SOL    HW228497   0.755   3.920  14.153  0.1071  0.0744 -0.5990
 5680SOL     OW28498   2.770   2.434   5.967 -0.1447 -0.3236 -0.0203
 5680SOL    HW128499   2.695   2.486   5.937  0.4325 -0.6820 -2.0303
 5680SOL    HW228500   2.808   2.405   5.885 -0.6651 -3.0636  0.7062
 5681SOL     OW28501   2.523   2.332   2.254  1.0023  0.3458 -0.0718
 5681SOL    HW128502   2.445   2.388   2.249 -0.7156 -1.9863  0.8632
 5681SOL    HW228503   2.480   2.247   2.259 -2.8136  2.1736 -1.0810
 5682SOL     OW28504   1.926   4.009   6.896  0.3598 -0.1778  0.4425
 5682SOL    HW128505   1.963   4.093   6.870 -0.3214  0.6813  2.2286
 5682SOL    HW228506   1.995   3.963   6.945 -1.5105 -1.8952  1.4643
 5683SOL     OW28507   0.765   0.289   4.019  0.1546  0.4790  0.4082
 5683SOL    HW128508   0.814   0.365   3.989  0.0466 -0.1369 -1.3017
 5683SOL    HW228509   0.683   0.320   4.059  0.0066 -1.2817  1.4734
 5684SOL     OW28510   4.073   2.657   5.117  0.4125  0.0820 -0.0613
 5684SOL    HW128511   4.108   2.744   5.134 -2.9773  1.0975  1.7467
 5684SOL    HW228512   4.123   2.629   5.040  0.4088  1.3350 -0.5176
 5685SOL     OW28513   4.296   0.800   7.241 -0.3076  0.3149  0.4331
 5685SOL    HW128514   4.250   0.867   7.291 -0.8173 -0.0985  0.5300
 5685SOL    HW228515   4.269   0.817   7.151  0.2920  1.1898  0.4245
 5686SOL     OW28516   0.134   2.962   6.574  0.3105 -0.7730  0.5276
 5686SOL    HW128517   0.187   2.912   6.636  1.8960  3.0792  2.2392
 5686SOL    HW228518   0.060   2.905   6.553 -0.9790  1.2723 -0.3889
 5687SOL     OW28519   0.481   3.598   9.598  0.0490 -0.3169 -0.2612
 5687SOL    HW128520   0.524   3.561   9.675  1.1524  0.6309 -0.4215
 5687SOL    HW228521   0.410   3.534   9.587 -0.9127  0.9799 -1.5343
 5688SOL     OW28522   2.126   3.628  13.308 -0.2787  0.2934 -0.4128
 5688SOL    HW128523   2.209   3.596  13.271  1.2495  0.8516  2.5816
 5688SOL    HW228524   2.144   3.715  13.344  1.9816  0.3686 -1.7217
 5689SOL     OW28525   1.134   0.539  12.765  0.8362 -0.0221  0.1738
 5689SOL    HW128526   1.056   0.491  12.793  0.4196  0.3473 -0.3511
 5689SOL    HW228527   1.133   0.607  12.833  2.4474  0.4877 -0.3368
 5690SOL     OW28528   4.288   0.804   8.058 -0.2072  0.0185 -0.3552
 5690SOL    HW128529   4.309   0.712   8.076  1.7998  0.6326  0.4058
 5690SOL    HW228530   4.265   0.810   7.965  0.6099  0.7912 -0.5040
 5691SOL     OW28531   2.517   0.556  15.134 -0.2498 -0.4709 -0.2340
 5691SOL    HW128532   2.491   0.596  15.217 -2.5824 -0.9105 -0.7786
 5691SOL    HW228533   2.550   0.641  15.106  0.1178 -0.2204  0.9420
 5692SOL     OW28534   0.233   2.787   7.864 -0.6341  0.0609 -0.4451
 5692SOL    HW128535   0.294   2.798   7.936 -0.9765 -1.5834  0.0978
 5692SOL    HW228536   0.173   2.722   7.900  0.5897  0.7165  2.7734
 5693SOL     OW28537   4.483   0.809   5.417 -0.2950  0.3780 -0.0741
 5693SOL    HW128538   4.428   0.759   5.477 -1.8610  1.4113 -0.6520
 5693SOL    HW228539   4.421   0.824   5.346 -0.2793 -0.4984 -0.2693
 5694SOL     OW28540   3.095   2.859  15.892  0.0996 -0.3307  0.4259
 5694SOL    HW128541   3.003   2.837  15.909  0.4180 -0.3644  2.1530
 5694SOL    HW228542   3.085   2.954  15.892 -0.7308 -0.4235 -1.5707
 5695SOL     OW28543   0.472   1.096  15.927 -0.3584  0.2350 -0.5891
 5695SOL    HW128544   0.483   1.002  15.915 -2.1374 -0.1066  0.5496
 5695SOL    HW228545   0.546   1.120  15.871  0.2075 -0.1209  0.0060
 5696SOL     OW28546   2.560   3.064   6.307  0.2418  0.5296 -0.0916
 5696SOL    HW128547   2.473   3.029   6.290 -0.1474  1.5944 -0.3224
 5696SOL    HW228548   2.552   3.095   6.397  2.6310 -0.3724  0.4343
 5697SOL     OW28549   4.458   4.139   5.248 -0.2954  0.4850 -0.5245
 5697SOL    HW128550   4.386   4.138   5.185 -1.2500  1.6008  0.5260
 5697SOL    HW228551   4.473   4.049   5.274 -0.0582  0.5357 -0.4888
 5698SOL     OW28552   4.659   3.967   6.326  0.3616 -0.2959  0.0810
 5698SOL    HW128553   4.607   3.973   6.406 -1.0537 -0.0786 -0.8414
 5698SOL    HW228554   4.661   4.060   6.305 -0.0011 -0.1336  0.7903
 5699SOL     OW28555   3.605   3.748   7.923 -0.2022  0.4748  0.4084
 5699SOL    HW128556   3.689   3.706   7.943  0.7003  2.8250  1.4673
 5699SOL    HW228557   3.630   3.839   7.907 -0.4859  0.4896  0.0329
 5700SOL     OW28558   1.594   0.100   6.068 -0.1642 -0.0632 -0.3187
 5700SOL    HW128559   1.617   0.129   6.156  0.4446 -1.4721 -0.0104
 5700SOL    HW228560   1.664   0.036   6.054 -0.5459 -0.2952 -1.2158
 5701SOL     OW28561   0.909   1.211  12.825  0.2331  0.4127  0.9145
 5701SOL    HW128562   0.975   1.151  12.791 -1.2341 -1.0052  0.5689
 5701SOL    HW228563   0.834   1.184  12.772  0.3641  0.3345  0.7700
 5702SOL     OW28564   3.587   3.805  14.600 -0.1264  0.1841  0.5627
 5702SOL    HW128565   3.583   3.896  14.569  3.1839  0.7638  1.7762
 5702SOL    HW228566   3.646   3.799  14.675  1.0281 -0.5682 -0.4030
 5703SOL     OW28567   0.529   1.037   7.275 -0.1432  0.4906  0.4966
 5703SOL    HW128568   0.551   0.958   7.325 -3.1446 -0.2370  0.6623
 5703SOL    HW228569   0.596   1.100   7.301 -0.3974  1.2892 -0.8042
 5704SOL     OW28570   1.317   3.454   4.247 -0.0352 -0.3981 -0.4436
 5704SOL    HW128571   1.347   3.487   4.162 -1.2555  0.7125 -0.4403
 5704SOL    HW228572   1.272   3.372   4.226  0.1752 -0.4314 -0.7782
 5705SOL     OW28573   3.741   0.802  10.049  0.4049 -0.0585  0.1260
 5705SOL    HW128574   3.776   0.729  10.102  1.3878  0.7410  0.5790
 5705SOL    HW228575   3.814   0.824   9.992 -0.3782  0.8022 -0.5318
 5706SOL     OW28576   2.651   3.726   6.760 -0.2552 -0.3480 -0.7186
 5706SOL    HW128577   2.591   3.766   6.822 -1.4540  0.8048 -2.6134
 5706SOL    HW228578   2.592   3.704   6.688 -0.6964 -0.6674 -0.2598
 5707SOL     OW28579   0.672   3.491  11.988  0.1293 -0.1627 -0.2334
 5707SOL    HW128580   0.703   3.561  12.046 -0.5753  1.8226 -2.2320
 5707SOL    HW228581   0.674   3.415  12.046  0.4972  0.2654  0.3274
 5708SOL     OW28582   4.315   1.715   9.500 -0.1605 -1.2088  0.2923
 5708SOL    HW128583   4.375   1.647   9.470  0.1815  0.2740 -2.4417
 5708SOL    HW228584   4.305   1.685   9.590  0.4129 -1.9987  0.0951
 5709SOL     OW28585   0.890   0.657   5.631 -0.4555 -0.1031 -0.4146
 5709SOL    HW128586   0.824   0.694   5.574 -0.0049 -0.5431 -1.2216
 5709SOL    HW228587   0.965   0.717   5.635 -0.7342  0.0942  2.2844
 5710SOL     OW28588   4.136   4.622  14.424 -0.1219 -0.3494 -0.0717
 5710SOL    HW128589   4.109   4.550  14.481  1.6832 -0.3330  0.8261
 5710SOL    HW228590   4.196   4.566  14.373  0.0015 -0.0338 -0.2742
 5711SOL     OW28591   0.970   0.417   5.851  0.1431 -0.4447  0.5061
 5711SOL    HW128592   0.951   0.427   5.757 -4.4695  3.3602  1.7827
 5711SOL    HW228593   0.953   0.324   5.865  0.6882 -0.6307 -0.0879
 5712SOL     OW28594   1.407   1.309   5.935 -0.6234 -0.3073  0.5035
 5712SOL    HW128595   1.488   1.317   5.885 -0.3738 -2.3966  0.5775
 5712SOL    HW228596   1.334   1.342   5.882  0.7464  2.5008  0.3283
 5713SOL     OW28597   3.848   0.170  10.881  1.1062  0.6640 -0.6182
 5713SOL    HW128598   3.767   0.206  10.844  0.1898 -0.4164  0.3457
 5713SOL    HW228599   3.861   0.228  10.956 -1.3321  2.2837 -1.3956
 5714SOL     OW28600   2.421   0.042  11.228 -0.6333 -0.4864 -0.0630
 5714SOL    HW128601   2.359   0.106  11.262  0.8398  1.5958 -1.2631
 5714SOL    HW228602   2.380   4.683  11.251 -2.1213 -0.1765 -1.5418
 5715SOL     OW28603   3.533   4.554   1.212 -0.6052 -0.0670 -0.7977
 5715SOL    HW128604   3.585   4.564   1.132 -0.0502  0.4778 -0.3684
 5715SOL    HW228605   3.460   4.614   1.199 -0.8279  0.1962  1.8329
 5716SOL     OW28606   2.215   4.233   8.464 -0.0505  0.7472 -0.5705
 5716SOL    HW128607   2.183   4.294   8.530 -2.7055  0.2629 -1.4111
 5716SOL    HW228608   2.306   4.228   8.494 -1.2905  2.5014  3.5880
 5717SOL     OW28609   2.546   4.323   3.675 -0.4292 -0.2187 -0.1146
 5717SOL    HW128610   2.486   4.286   3.610  1.7144 -1.1636 -1.5401
 5717SOL    HW228611   2.570   4.401   3.624 -2.1458  1.0273  0.9666
 5718SOL     OW28612   3.684   2.882  12.792  0.2933 -0.4602  0.2152
 5718SOL    HW128613   3.773   2.886  12.757  0.3687 -1.7397  0.2537
 5718SOL    HW228614   3.670   2.975  12.808 -0.6454 -0.6684  0.5877
 5719SOL     OW28615   2.014   2.924   0.877  0.2082 -0.5783 -0.7055
 5719SOL    HW128616   2.067   2.955   0.949 -1.6605  1.1408 -0.0648
 5719SOL    HW228617   1.932   2.915   0.926 -0.0741  3.2575 -0.4869
 5720SOL     OW28618   0.436   0.975  13.520  0.1156 -0.0368 -0.0486
 5720SOL    HW128619   0.358   1.031  13.518 -1.0792 -1.7068 -0.4247
 5720SOL    HW228620   0.403   0.893  13.558  0.9161 -0.6413 -0.6558
 5721SOL     OW28621   2.919   2.831  16.569 -0.0319  0.1217 -0.1276
 5721SOL    HW128622   2.874   2.842  16.486  0.6193 -2.3087 -0.8007
 5721SOL    HW228623   2.881   2.748  16.598  0.8535 -0.5801 -1.0044
 5722SOL     OW28624   3.080   1.788   7.773  0.3989  0.0681 -0.3582
 5722SOL    HW128625   3.087   1.868   7.723  0.1238  0.5874  0.4329
 5722SOL    HW228626   3.080   1.719   7.707 -3.2083 -1.0367  0.7784
 5723SOL     OW28627   3.728   1.359   8.212  0.2217  0.1011 -0.2419
 5723SOL    HW128628   3.738   1.273   8.252  1.7879 -0.3001 -1.5017
 5723SOL    HW228629   3.726   1.421   8.285 -0.9962 -0.6767  0.3824
 5724SOL     OW28630   0.011   3.971   3.768 -0.2012  0.5347 -0.8387
 5724SOL    HW128631   0.106   3.986   3.764 -0.0249 -0.1438  0.6252
 5724SOL    HW228632   4.698   4.059   3.770 -1.0772  0.1108  2.1369
 5725SOL     OW28633   4.381   2.266   8.474 -0.1121  0.1225 -0.3588
 5725SOL    HW128634   4.322   2.301   8.407 -0.1129 -2.0083 -1.4715
 5725SOL    HW228635   4.309   2.248   8.535  0.3446 -1.6084 -0.3492
 5726SOL     OW28636   0.214   4.046   4.224 -0.0893 -0.0212  0.2230
 5726SOL    HW128637   0.294   4.015   4.181  0.5386  3.6024 -1.1651
 5726SOL    HW228638   0.257   4.078   4.303 -0.7825 -0.0907  0.6269
 5727SOL     OW28639   3.734   3.168   3.830  0.4281 -0.8806  0.2329
 5727SOL    HW128640   3.713   3.262   3.832  1.0087 -0.7651  1.3023
 5727SOL    HW228641   3.815   3.160   3.780  0.0393  2.6966 -1.0177
 5728SOL     OW28642   1.487   2.093   0.273 -0.0021  0.1377 -0.2034
 5728SOL    HW128643   1.579   2.073   0.290 -0.9251 -2.5160  1.8152
 5728SOL    HW228644   1.486   2.188   0.283  0.3767  0.1492 -0.2691
 5729SOL     OW28645   2.220   2.612   4.119  0.5723  0.0247 -0.3963
 5729SOL    HW128646   2.157   2.668   4.165  0.6757 -0.6343  0.5516
 5729SOL    HW228647   2.295   2.672   4.124  1.3089 -0.8118 -1.4865
 5730SOL     OW28648   3.221   2.694  10.534  0.1941 -0.3216  0.2874
 5730SOL    HW128649   3.148   2.692  10.472  0.9703 -2.8276 -0.5386
 5730SOL    HW228650   3.252   2.604  10.528 -0.3396 -0.5735  1.2962
 5731SOL     OW28651   1.591   3.105   5.952  0.0917 -0.1339  0.0301
 5731SOL    HW128652   1.502   3.119   5.922  0.7172  1.8365 -0.9373
 5731SOL    HW228653   1.600   3.171   6.021 -1.5450  0.7151 -0.5682
 5732SOL     OW28654   1.698   2.665   3.052 -0.9449  0.5461 -0.0029
 5732SOL    HW128655   1.646   2.661   2.972  1.0637  1.1433 -1.3332
 5732SOL    HW228656   1.652   2.598   3.102  0.1304 -0.2990 -0.1452
 5733SOL     OW28657   1.873   0.464   1.692 -0.1895  0.0504 -0.0253
 5733SOL    HW128658   1.949   0.498   1.644  1.1605 -0.7716  1.5151
 5733SOL    HW228659   1.809   0.529   1.663 -0.0617  0.1052 -0.1853
 5734SOL     OW28660   3.714   1.330   6.020 -0.6423 -0.1624  0.0756
 5734SOL    HW128661   3.630   1.373   6.004  0.5823  1.5191 -1.7340
 5734SOL    HW228662   3.713   1.268   5.947  0.2380 -2.2668  1.8366
 5735SOL     OW28663   4.345   0.661   2.723 -0.2719  0.1529  0.1509
 5735SOL    HW128664   4.306   0.681   2.638  2.3099 -1.1803 -1.3649
 5735SOL    HW228665   4.430   0.706   2.719  0.5796 -1.6682 -2.5584
 5736SOL     OW28666   1.403   3.245  14.787 -0.1659  0.2277 -0.9128
 5736SOL    HW128667   1.328   3.222  14.731 -1.5428  1.4649  0.4276
 5736SOL    HW228668   1.436   3.161  14.820  1.1174  1.7843  1.7609
 5737SOL     OW28669   3.028   4.336   5.223  0.5845 -0.3755  0.0850
 5737SOL    HW128670   3.074   4.387   5.156 -1.3134  0.3165 -0.6878
 5737SOL    HW228671   3.101   4.280   5.251  0.6768 -1.6131 -2.5605
 5738SOL     OW28672   0.931   4.194   9.564  0.2451 -0.0274 -0.5323
 5738SOL    HW128673   0.990   4.193   9.639  1.1506  0.4657 -1.2515
 5738SOL    HW228674   0.979   4.165   9.487 -2.0266  1.1041 -2.3788
 5739SOL     OW28675   0.091   1.855   0.787  0.3305  0.2666  0.4984
 5739SOL    HW128676   0.076   1.803   0.708 -0.9962  0.6249  0.5108
 5739SOL    HW228677   0.185   1.844   0.796  0.3613  1.2328  1.3496
 5740SOL     OW28678   4.697   1.835   5.891  0.1354  0.3012 -0.2070
 5740SOL    HW128679   4.710   1.921   5.930  1.1352 -0.5334  1.2970
 5740SOL    HW228680   0.004   1.774   5.958 -1.4395 -0.7030 -0.3882
 5741SOL     OW28681   1.397   1.383   2.328  0.2332  0.7455  0.6208
 5741SOL    HW128682   1.400   1.290   2.305 -0.7164  1.0423 -0.6684
 5741SOL    HW228683   1.441   1.429   2.256 -2.7925  1.0450 -1.0381
 5742SOL     OW28684   1.312   0.887   6.080 -0.0720 -0.1561  0.3427
 5742SOL    HW128685   1.299   0.932   5.996  2.7606  0.4219  0.2162
 5742SOL    HW228686   1.329   0.963   6.135  1.5835 -0.8807  0.8388
 5743SOL     OW28687   0.054   0.784  10.065 -0.2182 -0.4969 -0.1881
 5743SOL    HW128688   0.146   0.773  10.040 -1.0457 -1.9369 -2.5647
 5743SOL    HW228689   0.021   0.695  10.052 -3.2473  0.6600 -0.2789
 5744SOL     OW28690   4.445   4.240  14.803 -0.3660 -0.1415 -0.3631
 5744SOL    HW128691   4.398   4.251  14.720  1.7537  2.3835 -1.2567
 5744SOL    HW228692   4.455   4.334  14.818 -1.5456  0.0422 -0.7129
 5745SOL     OW28693   4.614   1.131   3.352 -0.5248  0.1609 -0.3499
 5745SOL    HW128694   4.605   1.219   3.386 -0.7624  0.5789 -1.5035
 5745SOL    HW228695   4.706   1.111   3.369 -0.4220  0.8836 -0.0672
 5746SOL     OW28696   3.654   3.631   9.457 -0.6289  0.1583  0.3021
 5746SOL    HW128697   3.673   3.715   9.500 -1.1015 -0.1670  1.1418
 5746SOL    HW228698   3.746   3.615   9.433 -0.7017  2.4078 -1.4362
 5747SOL     OW28699   1.597   1.333   6.116 -0.0489 -0.1772 -0.1377
 5747SOL    HW128700   1.633   1.245   6.108  1.9448  0.5452  0.6378
 5747SOL    HW228701   1.508   1.326   6.082 -0.1739  1.1035 -0.0948
 5748SOL     OW28702   2.490   2.953  12.854  0.0780  0.1059  0.6931
 5748SOL    HW128703   2.550   2.920  12.920  1.2611 -2.2899 -1.5557
 5748SOL    HW228704   2.530   2.927  12.770 -1.1683 -1.9922  0.7465
 5749SOL     OW28705   1.126   1.611   3.800 -0.2321 -0.1129  0.1032
 5749SOL    HW128706   1.071   1.689   3.809 -2.5247 -1.8939  1.4227
 5749SOL    HW228707   1.106   1.586   3.710 -0.3827  2.5863 -0.6190
 5750SOL     OW28708   2.527   1.253  17.220  0.5949  0.1197 -0.6865
 5750SOL    HW128709   2.562   1.322  17.164  1.0963  0.8778  0.5599
 5750SOL    HW228710   2.583   1.180  17.192  1.3905 -0.0067  1.2268
 5751SOL     OW28711   0.746   1.620  16.947  0.1563 -0.1046  0.1405
 5751SOL    HW128712   0.707   1.703  16.975 -0.3839  0.5092 -2.3600
 5751SOL    HW228713   0.745   1.621  16.851  0.5493  2.5716  0.1702
 5752SOL     OW28714   2.725   2.510   6.311  0.0288 -0.3176  0.1544
 5752SOL    HW128715   2.665   2.581   6.333  1.9656  1.2474  0.3523
 5752SOL    HW228716   2.776   2.548   6.240 -0.1429  1.0095  0.7293
 5753SOL     OW28717   0.544   2.361  16.953  0.2933  0.0934  0.3319
 5753SOL    HW128718   0.480   2.414  17.001  0.0083  0.2551 -0.2282
 5753SOL    HW228719   0.506   2.274  16.961  0.5818  0.2292  3.1723
 5754SOL     OW28720   4.137   3.455  16.049 -0.0050 -0.5423 -1.0143
 5754SOL    HW128721   4.199   3.439  15.978  0.2783 -3.0384 -0.1870
 5754SOL    HW228722   4.209   3.451  16.112  0.3173 -1.4938 -1.4523
 5755SOL     OW28723   3.912   3.851   2.836  0.4321  0.4024  1.5130
 5755SOL    HW128724   3.911   3.874   2.743 -1.0006  0.6434  1.5864
 5755SOL    HW228725   3.988   3.899   2.869  0.4493  1.6968 -0.4023
 5756SOL     OW28726   0.973   0.509   4.365 -0.4434  0.2367  0.5431
 5756SOL    HW128727   0.942   0.426   4.400 -3.9314  1.2413 -0.1626
 5756SOL    HW228728   0.895   0.550   4.327 -0.1922  0.3546  0.1523
 5757SOL     OW28729   0.495   1.871   6.440 -0.2255  0.4236  0.3978
 5757SOL    HW128730   0.418   1.818   6.463  0.6344 -1.7412 -1.6838
 5757SOL    HW228731   0.537   1.875   6.526  2.7061 -0.7298 -0.9740
 5758SOL     OW28732   3.202   4.348   9.747 -0.0335 -0.1675  0.2042
 5758SOL    HW128733   3.278   4.290   9.735  0.0030  0.1451 -1.0913
 5758SOL    HW228734   3.129   4.288   9.735 -1.1449  1.0414  0.9493
 5759SOL     OW28735   4.266   4.600   3.184  0.4468  0.0856 -0.0189
 5759SOL    HW128736   4.272   4.574   3.092  0.7826 -0.5609  0.1791
 5759SOL    HW228737   4.332   4.541   3.222  1.7750  2.2911  1.0818
 5760SOL     OW28738   2.667   3.586   1.693 -0.1333 -0.3681 -0.0966
 5760SOL    HW128739   2.705   3.628   1.770 -1.3792  0.3837  0.1012
 5760SOL    HW228740   2.576   3.613   1.701  0.5520  1.5993  1.2138
 5761SOL     OW28741   4.695   0.101   8.249  0.0615  0.2591 -0.2718
 5761SOL    HW128742   4.650   0.115   8.165 -1.2224 -0.4395  0.3007
 5761SOL    HW228743   0.036   0.171   8.245  2.1247 -1.5894  1.2518
 5762SOL     OW28744   1.597   1.059   6.025  0.1435 -0.6860 -0.3796
 5762SOL    HW128745   1.581   1.003   5.949  0.9096 -2.1633  0.5368
 5762SOL    HW228746   1.571   1.011   6.104 -0.5447 -0.1071 -0.2566
 5763SOL     OW28747   2.531   2.050   4.882 -0.2294 -0.8778  0.1900
 5763SOL    HW128748   2.544   2.059   4.977  1.9373  0.1602 -0.1858
 5763SOL    HW228749   2.448   2.005   4.870  0.2152 -1.9309  1.0490
 5764SOL     OW28750   0.947   4.671  16.793  0.0022  0.3572  0.1691
 5764SOL    HW128751   0.991   4.719  16.722 -0.8766  1.6613  0.5071
 5764SOL    HW228752   0.915   0.016  16.851 -2.6910 -1.1348  0.4533
 5765SOL     OW28753   2.598   3.540   9.325 -0.8128  0.4887  0.3362
 5765SOL    HW128754   2.664   3.584   9.272 -0.8434  1.3160  0.9850
 5765SOL    HW228755   2.645   3.459   9.345 -1.3413  0.2080  0.4643
 5766SOL     OW28756   2.556   2.161   7.567  0.2071  0.3468  0.4640
 5766SOL    HW128757   2.523   2.250   7.573 -0.6621  0.1153 -0.9887
 5766SOL    HW228758   2.645   2.171   7.603 -0.3645  2.5158  1.2856
 5767SOL     OW28759   4.569   3.785   4.977 -0.6860 -0.4793  0.1697
 5767SOL    HW128760   4.602   3.874   4.963  0.9963 -1.2132 -0.5202
 5767SOL    HW228761   4.629   3.735   4.922 -1.5256 -0.9112 -0.3382
 5768SOL     OW28762   1.600   3.046   2.885 -0.0220 -0.2373  0.0175
 5768SOL    HW128763   1.522   3.051   2.829  1.0419 -2.6179 -1.6643
 5768SOL    HW228764   1.653   3.110   2.838 -2.0155  0.2586 -1.5822
 5769SOL     OW28765   0.417   0.794  10.275  0.0185 -0.4337  0.4138
 5769SOL    HW128766   0.339   0.846  10.294 -0.9801 -0.9156 -2.4067
 5769SOL    HW228767   0.484   0.839  10.326  1.3572 -1.1746 -0.6805
 5770SOL     OW28768   0.458   4.346   9.419 -0.1665 -0.2056  0.1541
 5770SOL    HW128769   0.548   4.343   9.452 -0.5774 -2.8860  1.0283
 5770SOL    HW228770   0.406   4.372   9.494  1.8790 -0.8917  1.7943
 5771SOL     OW28771   0.198   4.150   9.430  0.3830  0.6053  0.5430
 5771SOL    HW128772   0.244   4.067   9.445 -0.6826 -0.4489 -1.8812
 5771SOL    HW228773   0.238   4.196   9.503  2.6501 -0.6488  0.0939
 5772SOL     OW28774   2.136   0.077   2.233 -0.0086 -0.0360  0.0367
 5772SOL    HW128775   2.109   0.080   2.141 -0.1182 -1.0343  0.0374
 5772SOL    HW228776   2.093   4.718   2.251  1.4424 -1.0019 -0.9404
 5773SOL     OW28777   1.723   4.541   8.729 -0.0157 -0.1449 -0.9903
 5773SOL    HW128778   1.650   4.480   8.744 -0.1712 -0.2320 -2.0397
 5773SOL    HW228779   1.762   4.525   8.643 -1.2579 -3.4399 -0.9607
 5774SOL     OW28780   3.830   2.240  11.824 -0.1683  0.0321 -0.7735
 5774SOL    HW128781   3.814   2.327  11.861 -0.7007 -1.2352  1.9893
 5774SOL    HW228782   3.770   2.194  11.882 -1.4914 -0.9052 -2.8914
 5775SOL     OW28783   0.819   0.199   6.841 -0.2430 -0.0857  0.0755
 5775SOL    HW128784   0.801   0.291   6.820 -1.1673 -0.3794 -0.4244
 5775SOL    HW228785   0.728   0.170   6.849 -0.4635  1.0257  1.5711
 5776SOL     OW28786   1.749   3.084  17.515 -0.1286  0.3690 -0.3323
 5776SOL    HW128787   1.814   3.138  17.559  1.6350 -1.5984 -0.5222
 5776SOL    HW228788   1.778   3.068  17.425  0.7497  0.8170 -0.1228
 5777SOL     OW28789   2.322   2.374   0.987  0.4040  0.1639 -0.2700
 5777SOL    HW128790   2.333   2.379   0.892 -1.4642 -0.4673 -0.5252
 5777SOL    HW228791   2.227   2.379   0.997  0.3192 -0.5732 -0.6380
 5778SOL     OW28792   1.610   4.159   7.081 -0.1349 -0.0814  0.3456
 5778SOL    HW128793   1.634   4.196   7.167  1.2134  0.6798 -0.3619
 5778SOL    HW228794   1.542   4.224   7.064 -0.0687 -0.1120 -0.0211
 5779SOL     OW28795   0.646   4.175   1.751 -0.1115 -0.5903 -0.6247
 5779SOL    HW128796   0.730   4.219   1.738 -1.0143  1.0893 -0.7963
 5779SOL    HW228797   0.608   4.193   1.665  0.9223  0.4801 -0.8523
 5780SOL     OW28798   4.236   2.236  16.394  0.4556 -0.3442 -0.1619
 5780SOL    HW128799   4.197   2.187  16.322  1.1621 -0.7121 -0.2910
 5780SOL    HW228800   4.322   2.240  16.353  0.6125  4.5369  0.6454
 5781SOL     OW28801   2.708   0.153   8.228 -0.7268  0.1650  0.1479
 5781SOL    HW128802   2.747   0.222   8.176  0.5610  0.7312  1.8670
 5781SOL    HW228803   2.783   0.093   8.230 -0.0805  0.9863  0.3512
 5782SOL     OW28804   0.291   0.636   5.368  0.3248  0.0659 -0.7873
 5782SOL    HW128805   0.215   0.692   5.351 -0.1622 -0.8090 -1.4647
 5782SOL    HW228806   0.346   0.697   5.417  1.1023 -1.3403  0.0941
 5783SOL     OW28807   1.673   1.336   2.789 -0.1144  0.0995 -0.0552
 5783SOL    HW128808   1.653   1.292   2.872 -0.7819 -1.2126 -0.9129
 5783SOL    HW228809   1.754   1.287   2.770 -0.8686 -1.5841  1.0219
 5784SOL     OW28810   2.769   3.150   8.537  0.0101  0.6588 -0.2388
 5784SOL    HW128811   2.737   3.095   8.608  1.1603  0.2053 -0.0813
 5784SOL    HW228812   2.768   3.235   8.581 -2.6907  0.0327  0.8953
 5785SOL     OW28813   1.548   3.918   5.225 -0.0874  0.5156 -0.1052
 5785SOL    HW128814   1.508   3.864   5.157  2.1148 -0.1082 -0.8928
 5785SOL    HW228815   1.613   3.858   5.262 -1.3417 -1.1073 -0.5398
 5786SOL     OW28816   0.403   1.337   8.994  0.0544 -0.3328  0.2224
 5786SOL    HW128817   0.330   1.333   8.932  1.6277 -1.2897 -1.5761
 5786SOL    HW228818   0.444   1.423   8.985 -0.1330  0.0793  3.6351
 5787SOL     OW28819   0.405   0.339   5.450  0.0520 -0.0819  0.0632
 5787SOL    HW128820   0.404   0.372   5.360 -1.6529 -0.1979  0.0563
 5787SOL    HW228821   0.374   0.416   5.496 -1.0324  0.6110 -1.8433
 5788SOL     OW28822   4.476   1.354  14.948  0.1640  0.3714 -0.0867
 5788SOL    HW128823   4.570   1.351  14.930  0.1645  0.3450 -0.0801
 5788SOL    HW228824   4.473   1.412  15.024  0.2285  1.0821 -0.6213
 5789SOL     OW28825   0.246   3.985   8.237  0.5590  0.5897 -0.1545
 5789SOL    HW128826   0.156   4.013   8.226  1.1521  2.1338 -1.1590
 5789SOL    HW228827   0.241   3.909   8.294  1.3115  0.5470 -0.1374
 5790SOL     OW28828   3.555   0.027   2.360  0.4406  0.2106 -0.0682
 5790SOL    HW128829   3.547   0.122   2.349 -0.2611  0.3886  2.0453
 5790SOL    HW228830   3.632   0.019   2.416 -0.9791 -0.9707  1.7095
 5791SOL     OW28831   1.702   2.117   8.553 -0.0307 -0.1627 -0.2256
 5791SOL    HW128832   1.763   2.094   8.483  0.0160  3.0567 -1.2388
 5791SOL    HW228833   1.667   2.031   8.577  1.0247  0.4521  3.3965
 5792SOL     OW28834   3.139   3.001   8.269  0.5421  0.0211 -0.2871
 5792SOL    HW128835   3.126   2.939   8.340 -1.1399 -2.1234 -2.4542
 5792SOL    HW228836   3.075   2.971   8.204 -0.1885  2.6272 -0.7816
 5793SOL     OW28837   2.390   1.407  13.910 -0.3287  0.3744 -0.0070
 5793SOL    HW128838   2.377   1.420  13.816  0.6955  0.5967 -0.1253
 5793SOL    HW228839   2.482   1.380  13.903  0.1008  1.9402 -0.5159
 5794SOL     OW28840   1.456   2.003  11.973  0.4613  0.2452 -0.2563
 5794SOL    HW128841   1.512   2.064  12.020 -0.0777 -0.7925  1.7842
 5794SOL    HW228842   1.508   1.923  11.967 -0.8667 -0.6120 -0.4944
 5795SOL     OW28843   4.464   4.327  10.593 -0.0406  0.3596 -0.6304
 5795SOL    HW128844   4.480   4.416  10.563  1.2124  0.3444 -0.0296
 5795SOL    HW228845   4.553   4.299  10.616  0.2326  2.7811  1.1944
 5796SOL     OW28846   2.593   0.153   5.287  0.5000 -0.3417 -0.2148
 5796SOL    HW128847   2.648   0.175   5.362 -0.3035 -0.0108  0.2786
 5796SOL    HW228848   2.607   0.058   5.281 -1.5913 -0.6041 -1.0982
 5797SOL     OW28849   0.472   4.031   5.921  0.0902 -0.2542  0.2012
 5797SOL    HW128850   0.441   3.948   5.885 -2.8963  0.8515  0.2524
 5797SOL    HW228851   0.433   4.023   6.008  0.6321  2.1728  0.6511
 5798SOL     OW28852   3.365   0.050  15.444 -0.1793  0.1289 -0.0458
 5798SOL    HW128853   3.461   0.057  15.447 -0.0554 -1.9847  1.0565
 5798SOL    HW228854   3.332   0.137  15.421 -2.3785 -0.6820  0.0229
 5799SOL     OW28855   2.309   0.077   5.275  0.5993  0.3648 -0.2917
 5799SOL    HW128856   2.260   0.009   5.228  2.6266 -1.8745  0.8389
 5799SOL    HW228857   2.355   0.122   5.204  1.6778  1.0032  0.8258
 5800SOL     OW28858   4.532   3.880   1.057 -0.5935  0.1290 -0.2819
 5800SOL    HW128859   4.551   3.967   1.093 -0.0077 -0.4280  0.7779
 5800SOL    HW228860   4.448   3.910   1.024 -0.1131  0.2705 -1.3550
 5801SOL     OW28861   3.168   3.233   7.439  0.0850 -0.2802  0.1351
 5801SOL    HW128862   3.168   3.138   7.428 -0.5159 -0.1340 -1.1214
 5801SOL    HW228863   3.156   3.263   7.349 -0.1566 -0.3805  0.1329
 5802SOL     OW28864   2.768   0.472   2.514  0.0966  0.0941 -0.0951
 5802SOL    HW128865   2.760   0.388   2.559  2.8831  0.4086  0.9678
 5802SOL    HW228866   2.856   0.459   2.479 -0.2148  0.2574 -0.9314
 5803SOL     OW28867   0.882   1.296   6.680  0.5773 -0.3200 -0.7820
 5803SOL    HW128868   0.822   1.236   6.634  0.5597 -0.3214 -0.7568
 5803SOL    HW228869   0.901   1.356   6.608 -1.0648  0.5677 -0.4658
 5804SOL     OW28870   2.417   1.593   4.667  0.2852  0.0629  0.5073
 5804SOL    HW128871   2.455   1.636   4.743  3.9096 -0.0587 -1.2039
 5804SOL    HW228872   2.348   1.534   4.698  0.1933  0.5064  1.1357
 5805SOL     OW28873   0.315   0.155   1.468 -0.3135  0.1842 -0.5042
 5805SOL    HW128874   0.307   0.248   1.448  1.7641  0.7653  1.2925
 5805SOL    HW228875   0.222   0.131   1.469  1.1620 -5.4428  3.9175
 5806SOL     OW28876   3.142   2.239   3.795  0.1515  0.6111  0.1777
 5806SOL    HW128877   3.107   2.323   3.825 -0.2584 -0.5204  2.9046
 5806SOL    HW228878   3.237   2.254   3.800 -0.0880  1.7642  1.3714
 5807SOL     OW28879   2.474   3.187   3.710  0.0702  0.2423  0.0381
 5807SOL    HW128880   2.497   3.225   3.625  0.1818 -1.5255 -0.7337
 5807SOL    HW228881   2.378   3.189   3.703 -0.0155 -1.9046  0.6034
 5808SOL     OW28882   2.514   4.063  15.763  0.0529  0.3637  0.1599
 5808SOL    HW128883   2.581   4.074  15.696 -0.1057  3.9922  0.5546
 5808SOL    HW228884   2.521   4.149  15.806 -4.1857  1.1892 -0.7534
 5809SOL     OW28885   2.734   0.633  11.690  0.3371 -0.4679  0.0258
 5809SOL    HW128886   2.658   0.658  11.638  0.9739  0.1277 -0.6115
 5809SOL    HW228887   2.697   0.617  11.777 -0.6165 -1.2470 -0.5195
 5810SOL     OW28888   4.657   1.156   0.974 -0.1307 -0.0319  0.8067
 5810SOL    HW128889   4.590   1.143   1.040  0.7197 -0.6721  1.5483
 5810SOL    HW228890   4.631   1.241   0.938 -0.2431 -1.1436 -1.7480
 5811SOL     OW28891   3.423   4.462   2.678 -0.2413 -0.2472  0.1250
 5811SOL    HW128892   3.452   4.395   2.616  0.6818  0.3809 -0.1229
 5811SOL    HW228893   3.335   4.432   2.699  0.3067 -0.1839  2.5075
 5812SOL     OW28894   3.160   3.267   4.165  0.5118  0.4166 -0.6313
 5812SOL    HW128895   3.081   3.240   4.118  0.9421 -1.0181 -0.5280
 5812SOL    HW228896   3.215   3.190   4.153 -0.3309 -0.3457  0.4177
 5813SOL     OW28897   3.026   0.340   4.216  0.1543 -0.0985  0.1289
 5813SOL    HW128898   2.971   0.418   4.224  0.2494 -0.0325  0.1369
 5813SOL    HW228899   3.111   0.375   4.188 -0.9226  0.8227 -2.0107
 5814SOL     OW28900   0.352   3.582   3.899 -0.0990 -0.4531  0.2532
 5814SOL    HW128901   0.428   3.608   3.846 -0.5327  0.2555 -0.0069
 5814SOL    HW228902   0.361   3.487   3.911 -0.1491 -0.5005 -0.0990
 5815SOL     OW28903   1.880   2.279   3.251 -0.1586  0.3239  0.3258
 5815SOL    HW128904   1.859   2.245   3.338 -1.1070 -0.9155 -0.3882
 5815SOL    HW228905   1.803   2.253   3.200  0.5647 -1.6091  0.2211
 5816SOL     OW28906   4.536   3.967   5.636 -0.2720 -0.1061  0.5188
 5816SOL    HW128907   4.516   3.886   5.682  1.8271 -1.0641 -0.2482
 5816SOL    HW228908   4.448   4.005   5.640 -0.5026 -0.4682 -1.1346
 5817SOL     OW28909   3.720   0.999   4.931  0.3235  0.2438  0.4315
 5817SOL    HW128910   3.781   1.073   4.938 -1.1186  1.5637 -0.9606
 5817SOL    HW228911   3.743   0.971   4.843 -4.4686 -0.9860 -0.4265
 5818SOL     OW28912   0.295   4.415   9.219  0.3909  0.2133 -0.2058
 5818SOL    HW128913   0.339   4.388   9.139 -1.2506  0.9617 -1.3653
 5818SOL    HW228914   0.353   4.386   9.290  2.0945  2.2077 -0.7545
 5819SOL     OW28915   2.643   0.578   8.218 -0.5904 -1.1502  0.1301
 5819SOL    HW128916   2.611   0.552   8.305 -0.9117  1.7318  0.9012
 5819SOL    HW228917   2.726   0.532   8.209 -1.3549 -2.5402  0.2044
 5820SOL     OW28918   2.981   4.669  10.320 -0.0281 -0.1301 -0.2365
 5820SOL    HW128919   2.980   4.715  10.236  0.8655 -1.4910 -1.0010
 5820SOL    HW228920   2.971   0.012  10.387 -2.5476 -0.5262 -0.2145
 5821SOL     OW28921   3.791   1.012   7.710 -0.3962 -0.2972 -0.6888
 5821SOL    HW128922   3.719   0.964   7.670  1.1199 -2.7621 -0.4451
 5821SOL    HW228923   3.863   1.017   7.647  1.8590 -1.0966  1.8102
 5822SOL     OW28924   0.206   1.973   4.404 -0.3298  0.2518 -0.1703
 5822SOL    HW128925   0.169   1.885   4.403  0.8687 -0.2632  0.4283
 5822SOL    HW228926   0.299   1.951   4.406 -0.3144  0.1227 -1.8383
 5823SOL     OW28927   3.116   1.146  10.838  0.0011  0.2694 -0.3998
 5823SOL    HW128928   3.043   1.084  10.832 -0.7092  1.2037 -1.5565
 5823SOL    HW228929   3.163   1.117  10.916  0.1346  3.0072  0.5383
 5824SOL     OW28930   1.301   3.163   4.192  0.8901  0.3120 -0.1339
 5824SOL    HW128931   1.361   3.161   4.117  2.8894  0.8527  1.4536
 5824SOL    HW228932   1.219   3.174   4.144 -0.0858 -0.7431  1.3237
 5825SOL     OW28933   2.145   1.101   3.296 -0.0304  0.2852  0.0778
 5825SOL    HW128934   2.086   1.131   3.364  0.3958  0.0779  0.5443
 5825SOL    HW228935   2.077   1.072   3.235 -0.9529  0.3134  1.0936
 5826SOL     OW28936   1.295   1.064   5.881 -0.4033  0.2095  0.3203
 5826SOL    HW128937   1.277   1.092   5.792  1.0254  0.5570  0.1359
 5826SOL    HW228938   1.324   1.148   5.919  0.7063 -1.0404  2.2681
 5827SOL     OW28939   2.083   0.122   9.917  0.1877 -0.2281 -0.2607
 5827SOL    HW128940   2.164   0.142   9.964  0.2509  0.4382 -0.6582
 5827SOL    HW228941   2.116   0.100   9.830 -2.1951 -1.0063 -0.9748
 5828SOL     OW28942   3.207   4.679   3.340  0.0090 -0.3013 -0.3729
 5828SOL    HW128943   3.138   0.007   3.301 -0.6778 -1.4459 -0.6720
 5828SOL    HW228944   3.286   4.719   3.304  0.7640 -1.8548 -0.4326
 5829SOL     OW28945   4.012   2.728   6.662 -0.1137 -0.3815 -0.3304
 5829SOL    HW128946   4.004   2.822   6.679  1.0467 -0.5331  1.0558
 5829SOL    HW228947   3.993   2.693   6.749 -2.1708  3.0782  0.5933
 5830SOL     OW28948   2.241   0.488   2.131  0.1368  0.5865 -0.1370
 5830SOL    HW128949   2.194   0.550   2.075  4.4277  1.2585 -2.9838
 5830SOL    HW228950   2.171   0.443   2.178  0.8352  0.6414  0.9504
 5831SOL     OW28951   0.989   4.453   4.768 -0.5686  0.0042 -0.2541
 5831SOL    HW128952   0.958   4.367   4.740  3.5731 -1.0009 -1.7721
 5831SOL    HW228953   1.048   4.425   4.839 -1.1793  3.2221  1.5354
 5832SOL     OW28954   1.845   2.037   6.043 -0.3476  0.3900 -0.6758
 5832SOL    HW128955   1.879   2.072   5.961  2.1113 -0.9667 -0.2284
 5832SOL    HW228956   1.811   2.112   6.092  1.6142  0.9791 -0.2129
 5833SOL     OW28957   0.770   1.206   8.051  0.6498  0.2001  0.3717
 5833SOL    HW128958   0.762   1.115   8.082  2.1298  0.0197  0.2696
 5833SOL    HW228959   0.866   1.214   8.054  0.6493 -0.2745  1.4822
 5834SOL     OW28960   4.525   0.637  13.509  0.4142 -0.2371 -0.1275
 5834SOL    HW128961   4.591   0.651  13.577  0.1354  0.1241  0.0648
 5834SOL    HW228962   4.475   0.718  13.508 -1.5892 -1.4413  2.7694
 5835SOL     OW28963   4.144   1.063  14.057 -0.0496  0.5582 -0.9714
 5835SOL    HW128964   4.159   1.155  14.037  4.3375  0.1917  0.6011
 5835SOL    HW228965   4.089   1.065  14.136  1.0633 -0.2353 -0.1748
 5836SOL     OW28966   2.477   2.409   9.396 -0.4439  0.2358  0.4464
 5836SOL    HW128967   2.404   2.353   9.424 -0.5581  0.2699  0.2170
 5836SOL    HW228968   2.427   2.470   9.341 -1.5856 -2.6748 -1.7500
 5837SOL     OW28969   0.932   2.513   7.302 -0.0951  0.8480  0.1340
 5837SOL    HW128970   0.968   2.595   7.338  1.6845 -0.7218  1.9412
 5837SOL    HW228971   0.846   2.519   7.343  0.3581 -0.0008  1.2293
 5838SOL     OW28972   1.248   3.292   3.737  0.5861 -0.1028 -0.1763
 5838SOL    HW128973   1.178   3.269   3.676  1.0376  1.5400 -1.3362
 5838SOL    HW228974   1.323   3.273   3.680  0.4981  0.1512 -0.3770
 5839SOL     OW28975   2.640   1.222   4.058  0.6444  0.3680 -0.7943
 5839SOL    HW128976   2.700   1.290   4.028  1.8695  0.5612  2.1329
 5839SOL    HW228977   2.691   1.142   4.072  3.1683  1.5542 -2.9280
 5840SOL     OW28978   4.336   0.119  13.018 -0.2705 -0.3434 -0.3103
 5840SOL    HW128979   4.353   0.085  13.106 -0.3786 -3.8889 -1.6524
 5840SOL    HW228980   4.312   0.210  13.035  0.1629 -0.3511  0.3361
 5841SOL     OW28981   3.811   4.087   8.832 -0.3816 -0.1785  0.0985
 5841SOL    HW128982   3.888   4.107   8.778  1.7484 -0.9809  2.7871
 5841SOL    HW228983   3.774   4.015   8.783  1.2602 -1.5217  0.8243
 5842SOL     OW28984   2.488   2.720   9.486 -0.4939 -0.1985  0.0174
 5842SOL    HW128985   2.482   2.696   9.578  0.9975 -0.1176  0.1315
 5842SOL    HW228986   2.542   2.799   9.491  0.9804 -1.2366  0.6792
 5843SOL     OW28987   4.266   3.605   5.778 -0.2439 -0.3365  0.1132
 5843SOL    HW128988   4.194   3.663   5.752 -0.6007 -0.2360  1.2832
 5843SOL    HW228989   4.216   3.555   5.843 -1.3955 -0.3266 -0.7730
 5844SOL     OW28990   2.039   0.900   6.398  0.2596 -0.2822 -0.1214
 5844SOL    HW128991   1.989   0.859   6.328  2.3196 -1.2244 -1.0327
 5844SOL    HW228992   2.004   0.866   6.480 -0.1281  1.1756  0.3226
 5845SOL     OW28993   1.637   0.517   3.459  0.7501 -0.2556 -0.0480
 5845SOL    HW128994   1.621   0.594   3.513  0.3588 -0.0691 -0.4324
 5845SOL    HW228995   1.577   0.530   3.386 -1.6039 -1.9625  1.5973
 5846SOL     OW28996   3.053   0.491  14.842  0.6602  0.5055 -0.2824
 5846SOL    HW128997   3.106   0.473  14.920 -0.1186  2.2820  0.6471
 5846SOL    HW228998   3.112   0.557  14.806 -2.1582  2.3754 -1.4757
 5847SOL     OW28999   4.673   4.391   9.152 -0.1162 -0.3059 -0.1279
 5847SOL    HW129000   4.648   4.313   9.101  0.3907  0.6301 -1.7973
 5847SOL    HW229001   4.685   4.353   9.239  2.9365  2.1091  0.4669
 5848SOL     OW29002   1.396   3.081  10.616  0.0874  0.3140  0.0969
 5848SOL    HW129003   1.329   3.077  10.548  0.4035 -1.3216 -0.1155
 5848SOL    HW229004   1.481   3.098  10.577  0.1405  0.5166  0.3019
 5849SOL     OW29005   1.448   1.703   5.786 -0.1189 -0.0666  0.1163
 5849SOL    HW129006   1.454   1.798   5.778 -2.6864 -0.1031 -2.2560
 5849SOL    HW229007   1.356   1.681   5.805  0.1170 -0.3613  0.9201
 5850SOL     OW29008   0.909   2.614   6.804  0.2495 -0.0729  0.6324
 5850SOL    HW129009   0.932   2.561   6.881  0.2924 -1.8986 -0.6192
 5850SOL    HW229010   0.911   2.701   6.842 -1.7258  0.4565 -0.4868
 5851SOL     OW29011   3.168   1.664   2.213 -0.5667 -0.1062  0.0752
 5851SOL    HW129012   3.216   1.702   2.140  2.9935 -1.3663  1.7706
 5851SOL    HW229013   3.232   1.606   2.253 -1.7276 -2.0434 -0.8442
 5852SOL     OW29014   4.320   4.434   5.151 -0.2051 -0.4008  0.7523
 5852SOL    HW129015   4.411   4.463   5.155 -0.0764 -0.5625 -1.2050
 5852SOL    HW229016   4.305   4.439   5.056  1.2782 -1.4383  0.4728
 5853SOL     OW29017   1.956   1.530   3.873 -0.5630 -0.3460  0.0241
 5853SOL    HW129018   1.979   1.621   3.855 -0.9238 -0.1193  0.7109
 5853SOL    HW229019   1.926   1.502   3.786  2.3966 -0.4729 -0.9581
 5854SOL     OW29020   2.249   0.653  12.940  0.1465  0.0674  0.0139
 5854SOL    HW129021   2.195   0.642  12.861 -1.2214  0.9004  0.8334
 5854SOL    HW229022   2.287   0.736  12.913  1.3582  0.1225  1.9529
 5855SOL     OW29023   4.069   3.185   1.049  0.5069 -0.3689 -0.1791
 5855SOL    HW129024   4.065   3.280   1.040  2.7123 -0.0123  2.6495
 5855SOL    HW229025   3.976   3.164   1.037  0.3390 -0.0591  0.5597
 5856SOL     OW29026   1.481   1.762  16.856 -0.7349  0.0931  0.0812
 5856SOL    HW129027   1.455   1.670  16.861  0.1174 -0.0580  1.6268
 5856SOL    HW229028   1.472   1.783  16.949 -1.1500 -1.3629  0.3646
 5857SOL     OW29029   0.202   3.572   2.559  0.1455  0.0807 -0.2971
 5857SOL    HW129030   0.196   3.485   2.519  0.7427 -0.7288  1.3281
 5857SOL    HW229031   0.146   3.626   2.504  1.9326  0.3572 -1.8216
 5858SOL     OW29032   0.699   3.997   0.309 -0.0753  0.0826  0.5546
 5858SOL    HW129033   0.793   3.982   0.314 -0.4027 -1.0425  3.0307
 5858SOL    HW229034   0.708   4.086   0.343 -2.0430  0.3129  0.4836
 5859SOL     OW29035   4.162   3.475   4.532 -0.6542  0.3604 -0.0046
 5859SOL    HW129036   4.119   3.551   4.493 -3.1390 -1.1696 -0.2497
 5859SOL    HW229037   4.087   3.417   4.543  0.7316 -1.8198 -2.2861
 5860SOL     OW29038   2.986   4.650   5.244  0.1470 -0.6909 -0.6883
 5860SOL    HW129039   2.901   4.612   5.221  0.3330 -2.0650  0.8730
 5860SOL    HW229040   3.024   4.678   5.161 -3.2896 -0.2006 -2.1220
 5861SOL     OW29041   3.303   0.405  14.661  0.4295  0.4856 -0.3000
 5861SOL    HW129042   3.258   0.377  14.741 -0.9699 -0.8648 -1.5731
 5861SOL    HW229043   3.376   0.457  14.694 -0.3749  0.8127  0.9992
 5862SOL     OW29044   4.077   3.256  15.799  0.0957  0.2758 -0.1453
 5862SOL    HW129045   4.020   3.288  15.730  0.7419 -1.2251 -1.3673
 5862SOL    HW229046   4.153   3.312  15.784 -0.1721  0.7240  0.1564
 5863SOL     OW29047   2.997   0.928   1.392  0.4848 -0.2328  0.2524
 5863SOL    HW129048   3.089   0.920   1.366  0.5936 -0.2239  0.6295
 5863SOL    HW229049   2.970   0.960   1.307  0.4369 -0.4389  0.1899
 5864SOL     OW29050   4.038   1.430   7.733  0.1199  0.2955  0.3016
 5864SOL    HW129051   3.983   1.427   7.812 -0.5937 -1.3926 -0.2563
 5864SOL    HW229052   4.034   1.338   7.708 -0.0796  1.4569 -3.9420
 5865SOL     OW29053   1.920   4.285   6.155  0.1056  0.8228  0.0467
 5865SOL    HW129054   1.936   4.249   6.068  1.3039  1.4958 -0.0082
 5865SOL    HW229055   1.846   4.235   6.191 -0.3009 -0.6304 -2.8039
 5866SOL     OW29056   2.571   4.024   4.865  0.1281  0.3793 -0.0454
 5866SOL    HW129057   2.559   3.944   4.813 -0.1490  1.2961 -1.4125
 5866SOL    HW229058   2.516   4.007   4.941 -0.1965 -0.6227 -0.4891
 5867SOL     OW29059   3.299   2.023   5.486  0.9135  0.1154 -0.0843
 5867SOL    HW129060   3.217   1.973   5.487  0.6906  0.4540 -1.3205
 5867SOL    HW229061   3.268   2.112   5.503  0.2144 -0.5879  2.3486
 5868SOL     OW29062   0.467   1.090  10.685 -0.1022  0.1758 -0.9539
 5868SOL    HW129063   0.423   1.127  10.762  2.6133 -1.0875  1.1749
 5868SOL    HW229064   0.507   1.014  10.727 -2.0829  0.1399  0.8730
 5869SOL     OW29065   4.370   4.452   7.222  0.4221 -0.2871 -0.3132
 5869SOL    HW129066   4.462   4.479   7.220  0.3863 -0.0287  2.0317
 5869SOL    HW229067   4.370   4.368   7.177 -0.4219  0.2518 -1.3049
 5870SOL     OW29068   3.550   1.298   6.327 -0.0055  0.0886  0.3891
 5870SOL    HW129069   3.487   1.327   6.393 -0.4569 -0.7808  0.3326
 5870SOL    HW229070   3.619   1.361   6.348 -0.7096  1.1758 -0.5580
 5871SOL     OW29071   1.110   0.321   6.419  0.1148 -0.1657  0.0554
 5871SOL    HW129072   1.113   0.302   6.325  3.6771  0.8324 -0.0362
 5871SOL    HW229073   1.190   0.373   6.429 -0.1967  0.0060  1.6713
 5872SOL     OW29074   2.913   4.305  13.127  0.0835  0.0420 -0.6001
 5872SOL    HW129075   2.910   4.264  13.213  1.8527 -1.1721 -1.1177
 5872SOL    HW229076   2.993   4.272  13.085 -1.3049 -3.4149 -0.5639
 5873SOL     OW29077   2.610   1.531   4.026  0.0962  0.2666 -0.3997
 5873SOL    HW129078   2.556   1.452   4.031  2.0966 -1.1917 -1.3742
 5873SOL    HW229079   2.537   1.592   4.026 -0.0677  0.0710 -0.1209
 5874SOL     OW29080   2.551   4.682  11.451  0.1886 -0.0030  0.2327
 5874SOL    HW129081   2.543   4.682  11.547  0.6893  1.3133  0.2736
 5874SOL    HW229082   2.461   4.705  11.429 -0.1428 -1.0284  0.5325
 5875SOL     OW29083   1.049   2.222   5.217 -0.3456  0.1939  0.6105
 5875SOL    HW129084   1.072   2.205   5.126  0.4022 -0.1014  0.8558
 5875SOL    HW229085   1.044   2.137   5.261 -1.4620 -0.0386  0.0376
 5876SOL     OW29086   0.888   2.508   7.885  0.4123  0.2958  0.2203
 5876SOL    HW129087   0.958   2.493   7.949  2.0201 -2.6992 -2.2634
 5876SOL    HW229088   0.870   2.419   7.853  0.5526 -0.5597  2.5105
 5877SOL     OW29089   1.347   4.688   6.161 -0.3257  0.0389  0.3547
 5877SOL    HW129090   1.312   4.623   6.222  0.2829 -0.1745  0.4688
 5877SOL    HW229091   1.441   4.675   6.172 -0.5141  0.2353  2.1449
 5878SOL     OW29092   0.746   2.344   8.497 -0.8216  0.2889 -0.8040
 5878SOL    HW129093   0.764   2.251   8.502 -2.6934 -0.0119  0.5622
 5878SOL    HW229094   0.819   2.381   8.448 -2.2228  0.5625 -2.6801
 5879SOL     OW29095   4.346   2.029  13.545 -0.2116 -0.1991 -0.2656
 5879SOL    HW129096   4.343   1.977  13.465 -2.1068 -0.6902  0.1017
 5879SOL    HW229097   4.264   2.003  13.589  1.0512 -0.0785  2.1739
 5880SOL     OW29098   3.066   1.868   8.765 -0.3135 -0.4323 -0.3481
 5880SOL    HW129099   2.981   1.890   8.727 -0.6714  0.5069  0.9749
 5880SOL    HW229100   3.071   1.777   8.736  2.2599  0.3354 -2.2870
 5881SOL     OW29101   2.078   2.689  13.727 -0.0470  0.3955 -0.1997
 5881SOL    HW129102   2.084   2.599  13.760  0.8952  0.8114  0.7699
 5881SOL    HW229103   2.163   2.696  13.684  1.1796 -0.1058  2.1011
 5882SOL     OW29104   2.453   0.801   8.438  0.0298  0.0787 -0.3630
 5882SOL    HW129105   2.479   0.711   8.417 -0.6295 -0.3729  0.7443
 5882SOL    HW229106   2.417   0.780   8.525  0.6663 -3.0254 -0.8500
 5883SOL     OW29107   3.624   0.573   7.598  0.2286  0.1336 -0.0234
 5883SOL    HW129108   3.617   0.540   7.688 -1.1791  1.2961  0.2835
 5883SOL    HW229109   3.572   0.652   7.590 -2.6207 -1.7052  0.4429
 5884SOL     OW29110   4.287   1.736   1.927  0.2291  0.0449 -0.4766
 5884SOL    HW129111   4.224   1.680   1.883  0.7916 -0.7826 -0.2323
 5884SOL    HW229112   4.237   1.816   1.944  0.3430 -0.0524  0.3460
 5885SOL     OW29113   0.277   0.507  14.879 -0.6323 -0.1980  0.1570
 5885SOL    HW129114   0.204   0.569  14.871 -1.1727 -0.8393  0.1803
 5885SOL    HW229115   0.325   0.542  14.954 -0.4319  1.4550 -0.7223
 5886SOL     OW29116   1.263   4.490   4.570  0.3200 -0.2050  0.3966
 5886SOL    HW129117   1.234   4.400   4.583  2.1207 -0.5567  2.0178
 5886SOL    HW229118   1.265   4.520   4.661  0.1322 -0.3426  0.4461
 5887SOL     OW29119   2.517   0.030   7.535  0.1626  0.3768  0.0746
 5887SOL    HW129120   2.604   0.068   7.530  0.6684 -0.7477  0.2512
 5887SOL    HW229121   2.549   4.674   7.575  1.5197  1.3725  0.9864
 5888SOL     OW29122   1.453   3.650   7.862 -0.4614  0.3817 -0.4799
 5888SOL    HW129123   1.516   3.669   7.792  1.8259  0.3210  1.5309
 5888SOL    HW229124   1.503   3.644   7.944  0.3680 -0.0072 -1.0147
 5889SOL     OW29125   4.120   3.201   7.461  0.1102  0.0060  0.1480
 5889SOL    HW129126   4.213   3.188   7.448  0.0778  0.9958 -1.0373
 5889SOL    HW229127   4.116   3.295   7.449  1.5950  0.1760  0.9793
 5890SOL     OW29128   1.309   0.818   8.590 -0.4687 -0.1196 -0.3073
 5890SOL    HW129129   1.305   0.903   8.633  1.2487 -0.6360  0.8583
 5890SOL    HW229130   1.401   0.809   8.567 -0.9977  2.1987 -3.4040
 5891SOL     OW29131   1.297   4.323   2.970  0.2171  0.2563  0.3496
 5891SOL    HW129132   1.335   4.250   3.018  0.7230 -0.5984 -1.3474
 5891SOL    HW229133   1.286   4.291   2.880 -0.0135 -0.2418  0.5594
 5892SOL     OW29134   0.769   0.358   2.726  0.3960 -0.0429  0.4617
 5892SOL    HW129135   0.711   0.361   2.650  0.3946  2.5545  0.5782
 5892SOL    HW229136   0.766   0.264   2.744 -1.0171 -0.3555 -1.5392
 5893SOL     OW29137   3.478   1.452  14.358 -0.2851  0.3559  0.6125
 5893SOL    HW129138   3.455   1.407  14.276  0.4394  2.3490 -0.6818
 5893SOL    HW229139   3.402   1.510  14.367 -0.5408 -0.0497  1.0621
 5894SOL     OW29140   3.090   3.159   1.024 -0.0641 -0.6154 -0.1546
 5894SOL    HW129141   3.012   3.175   0.971  0.2454 -1.4127 -0.8514
 5894SOL    HW229142   3.151   3.224   0.989 -0.0722  0.2764  1.4992
 5895SOL     OW29143   2.649   1.046  17.039 -0.0085 -0.3364 -0.4848
 5895SOL    HW129144   2.661   1.070  16.947  0.1752  1.3421 -0.0231
 5895SOL    HW229145   2.581   0.979  17.030 -0.2607 -0.3706  1.5241
 5896SOL     OW29146   1.138   2.366   6.336 -0.1613 -0.3823  0.1317
 5896SOL    HW129147   1.086   2.414   6.401  1.4942  1.7921 -0.1408
 5896SOL    HW229148   1.086   2.372   6.256 -0.5144  0.3231  0.4158
 5897SOL     OW29149   0.731   3.864  17.080  0.2499  0.0465  0.1315
 5897SOL    HW129150   0.695   3.844  17.166  0.4643 -0.5735  0.0755
 5897SOL    HW229151   0.823   3.873  17.105  0.6310  1.5556 -1.7986
 5898SOL     OW29152   3.129   0.449   6.770  0.3598  0.0679  0.6672
 5898SOL    HW129153   3.155   0.406   6.688 -0.8667  0.1055  0.2701
 5898SOL    HW229154   3.059   0.388   6.792 -0.6808  0.7684 -0.7134
 5899SOL     OW29155   0.113   1.173   7.587 -0.3492 -0.2252  0.3110
 5899SOL    HW129156   0.183   1.143   7.528  0.2657  2.0745 -0.0993
 5899SOL    HW229157   0.155   1.214   7.663 -0.2567  0.9553 -0.3844
 5900SOL     OW29158   4.026   1.938   5.611 -0.4762 -0.0701 -0.4430
 5900SOL    HW129159   4.011   2.028   5.642  0.6382 -0.2164  0.5164
 5900SOL    HW229160   4.032   1.881   5.687 -0.2489 -0.3257 -0.6545
 5901SOL     OW29161   1.202   2.866   2.645  0.4370  0.0828 -0.1631
 5901SOL    HW129162   1.185   2.800   2.712  1.0884  1.7776  1.6578
 5901SOL    HW229163   1.139   2.833   2.581 -0.1636  1.4849 -0.2885
 5902SOL     OW29164   2.629   2.145   1.159  0.1481 -0.1826 -0.2419
 5902SOL    HW129165   2.706   2.090   1.172 -1.4759 -2.3511  0.0038
 5902SOL    HW229166   2.562   2.091   1.201 -0.9391 -0.2380 -2.0868
 5903SOL     OW29167   2.763   2.973   0.665  0.1134  0.3459  0.0438
 5903SOL    HW129168   2.817   2.904   0.626  1.3562  0.8085  0.9321
 5903SOL    HW229169   2.699   2.928   0.721  2.3083 -1.3464  1.2014
 5904SOL     OW29170   2.524   2.187   0.913 -0.4343 -0.3266 -0.5406
 5904SOL    HW129171   2.459   2.242   0.956 -0.8330 -0.3569 -1.1025
 5904SOL    HW229172   2.588   2.176   0.983 -1.1766  0.1400  0.2193
 5905SOL     OW29173   1.613   1.165   7.985 -0.4046 -0.0593  0.3498
 5905SOL    HW129174   1.637   1.183   8.076  0.6276  1.3763 -0.2098
 5905SOL    HW229175   1.568   1.246   7.961 -0.4586 -0.1392  0.1885
 5906SOL     OW29176   2.301   3.606   5.140  0.3089 -0.1587  0.0644
 5906SOL    HW129177   2.327   3.693   5.171 -2.3158  0.4348  0.5881
 5906SOL    HW229178   2.225   3.591   5.196  0.4233 -0.2681  0.1923
 5907SOL     OW29179   1.660   0.809   7.074 -0.2365 -0.4527 -0.1610
 5907SOL    HW129180   1.669   0.873   7.144 -2.5690 -0.9646  0.6284
 5907SOL    HW229181   1.740   0.757   7.080 -0.4485 -0.7158  0.3594
 5908SOL     OW29182   3.197   2.259   5.623 -0.2818 -0.1050  0.0516
 5908SOL    HW129183   3.163   2.329   5.568  0.0308  1.9927  2.4834
 5908SOL    HW229184   3.249   2.311   5.685  0.4144  3.5874 -3.6032
 5909SOL     OW29185   4.364   2.372   2.107 -0.5644 -0.3678 -0.3430
 5909SOL    HW129186   4.438   2.344   2.052  0.8628 -1.6268  2.2271
 5909SOL    HW229187   4.338   2.288   2.145  1.2473 -0.8154 -0.0995
 5910SOL     OW29188   3.546   4.697   5.797  0.0298  0.2208  0.4290
 5910SOL    HW129189   3.525   4.656   5.881 -4.1714  0.2719 -0.5831
 5910SOL    HW229190   3.614   0.037   5.816  0.5602  0.4019 -2.0703
 5911SOL     OW29191   4.521   0.467   5.874 -1.0588  0.4551 -0.3809
 5911SOL    HW129192   4.574   0.466   5.795 -0.8094 -1.9938 -0.2059
 5911SOL    HW229193   4.433   0.466   5.837 -1.3562  0.3772  0.3209
 5912SOL     OW29194   2.232   1.866   7.650  0.3095  0.6114 -0.0894
 5912SOL    HW129195   2.279   1.786   7.628  0.4291  0.7385 -0.2965
 5912SOL    HW229196   2.275   1.920   7.584  0.6890  0.1897 -0.1850
 5913SOL     OW29197   2.405   4.551   7.794  0.2678  0.4768 -0.2742
 5913SOL    HW129198   2.334   4.486   7.786 -0.1748  1.0535 -1.0195
 5913SOL    HW229199   2.439   4.549   7.705  1.1018  1.3866  0.0235
 5914SOL     OW29200   1.592   3.396   6.447  0.4671  0.6393  0.2861
 5914SOL    HW129201   1.515   3.431   6.492  0.6074  1.7735 -0.3558
 5914SOL    HW229202   1.580   3.431   6.359 -1.8024  1.8130  1.0478
 5915SOL     OW29203   3.433   2.503   6.235  0.6339  0.0358 -0.4711
 5915SOL    HW129204   3.346   2.536   6.259  0.5499  0.2698 -1.0876
 5915SOL    HW229205   3.447   2.435   6.301  0.8962  0.5119 -0.0413
 5916SOL     OW29206   1.528   0.027   2.155 -0.1338  0.0738  0.1466
 5916SOL    HW129207   1.459   4.691   2.182 -2.2406  1.5302 -2.0259
 5916SOL    HW229208   1.543   0.074   2.236  0.3518 -1.2029  0.7989
 5917SOL     OW29209   0.645   1.445  12.070  0.3501  0.3198 -0.1883
 5917SOL    HW129210   0.731   1.469  12.104  0.4120 -0.0384 -0.0943
 5917SOL    HW229211   0.597   1.412  12.146 -2.8881  0.4485 -2.1834
 5918SOL     OW29212   3.499   0.052  10.713  0.2619 -0.8082 -0.2178
 5918SOL    HW129213   3.543   0.132  10.740  0.8891 -0.9441 -0.8275
 5918SOL    HW229214   3.411   0.082  10.691  0.3501  1.2863  2.2906
 5919SOL     OW29215   2.778   2.908   3.365 -0.6396  0.2146  0.4533
 5919SOL    HW129216   2.705   2.963   3.395  0.2962  2.7223 -1.7816
 5919SOL    HW229217   2.834   2.971   3.318  0.7725  0.5066  2.5702
 5920SOL     OW29218   1.665   2.785   1.969 -0.1336 -0.1368  0.1955
 5920SOL    HW129219   1.721   2.786   1.892 -0.4888 -2.0833 -0.0805
 5920SOL    HW229220   1.688   2.871   2.003 -2.9620  0.6723  0.0643
 5921SOL     OW29221   3.933   3.091  14.898  0.7156  0.1077 -0.0857
 5921SOL    HW129222   3.900   3.162  14.953 -1.7009  0.5569 -2.0928
 5921SOL    HW229223   3.894   3.016  14.941  3.1036 -1.6569 -0.9703
 5922SOL     OW29224   3.642   1.814   4.973 -0.1114 -0.4439  0.3731
 5922SOL    HW129225   3.624   1.905   4.994 -0.0758 -0.0110 -1.4898
 5922SOL    HW229226   3.728   1.807   5.016  0.7588 -0.3509 -1.3439
 5923SOL     OW29227   1.644   0.411   2.505  0.6167  0.4552 -0.3235
 5923SOL    HW129228   1.610   0.467   2.436 -0.9006  1.0361  0.9023
 5923SOL    HW229229   1.738   0.428   2.504  0.7549 -0.4019 -1.7139
 5924SOL     OW29230   1.086   3.165   3.521 -0.5926 -0.4086  0.1642
 5924SOL    HW129231   1.131   3.213   3.451 -2.0544 -0.0407 -0.5175
 5924SOL    HW229232   0.994   3.170   3.495 -0.1838  0.2860 -1.1887
 5925SOL     OW29233   1.751   0.398   5.328 -0.3178 -0.0639  0.0966
 5925SOL    HW129234   1.755   0.333   5.398 -4.0179  0.2959  0.5901
 5925SOL    HW229235   1.657   0.402   5.312 -0.4473  0.9206  1.1865
 5926SOL     OW29236   2.495   1.163   3.128  0.5028  0.3225  0.3175
 5926SOL    HW129237   2.429   1.209   3.180 -1.3275 -1.5085 -0.3724
 5926SOL    HW229238   2.504   1.079   3.172 -1.1939  0.0885  0.2079
 5927SOL     OW29239   1.509   2.440  13.471 -0.2155  0.3735  0.1477
 5927SOL    HW129240   1.448   2.506  13.437 -2.8624 -1.3751  1.4775
 5927SOL    HW229241   1.469   2.360  13.437 -0.8307  0.8999 -0.3762
 5928SOL     OW29242   2.833   1.177   4.369 -0.2111  0.8074 -0.6394
 5928SOL    HW129243   2.919   1.217   4.353 -0.6036  1.1491 -1.8498
 5928SOL    HW229244   2.833   1.103   4.309  0.2598  1.3786 -1.3423
 5929SOL     OW29245   3.296   0.627   4.276 -0.2745 -0.0976  0.0230
 5929SOL    HW129246   3.337   0.545   4.248 -0.8326 -0.8675  1.4396
 5929SOL    HW229247   3.266   0.668   4.195  0.8273 -0.0018 -0.3272
 5930SOL     OW29248   1.675   0.010  16.464 -0.5448  0.1764 -0.5813
 5930SOL    HW129249   1.731   4.658  16.478 -0.2538  0.5478  0.2246
 5930SOL    HW229250   1.648   4.694  16.381  1.2072  0.7657 -1.4410
 5931SOL     OW29251   0.215   0.761   9.812  0.5005  0.7271  0.5666
 5931SOL    HW129252   0.221   0.854   9.790  1.0039  0.5865  0.1081
 5931SOL    HW229253   0.155   0.734   9.743 -0.2630 -1.9315  2.2615
 5932SOL     OW29254   4.208   1.665   4.181 -0.2601  0.0661 -0.5456
 5932SOL    HW129255   4.275   1.654   4.114  1.7511  0.3365  1.4128
 5932SOL    HW229256   4.248   1.628   4.261 -0.3362  0.4074 -0.3505
 5933SOL     OW29257   0.744   1.001   5.290  0.5622 -0.1661  0.5240
 5933SOL    HW129258   0.672   1.055   5.258  1.2022 -0.1685 -0.9743
 5933SOL    HW229259   0.793   0.978   5.211 -0.9532 -1.2477 -0.0823
 5934SOL     OW29260   2.309   0.349   5.604 -0.6698 -0.3312  0.7175
 5934SOL    HW129261   2.398   0.317   5.613 -0.2753  0.6462  0.2758
 5934SOL    HW229262   2.309   0.395   5.520  0.7127  0.8067  1.3452
 5935SOL     OW29263   2.705   1.630  16.686  0.5808 -0.5718  0.2734
 5935SOL    HW129264   2.627   1.652  16.737  0.4751 -1.5537  0.5294
 5935SOL    HW229265   2.773   1.635  16.754 -1.0280  1.0487  1.7558
 5936SOL     OW29266   1.951   3.704   8.109  0.3659  0.2101 -0.5033
 5936SOL    HW129267   1.857   3.708   8.126  0.2367 -0.0384 -1.1352
 5936SOL    HW229268   1.990   3.652   8.179  0.3402 -1.2251 -1.5572
 5937SOL     OW29269   4.270   2.972  12.118 -0.8926  0.2635  0.3161
 5937SOL    HW129270   4.233   3.003  12.035  0.2181  0.7243 -0.0083
 5937SOL    HW229271   4.206   2.906  12.143 -2.3833  0.6041 -2.5602
 5938SOL     OW29272   2.620   1.046   7.823 -0.2939 -0.0826 -0.3924
 5938SOL    HW129273   2.705   1.004   7.834  0.4405  1.8770  1.3951
 5938SOL    HW229274   2.640   1.139   7.835  0.1730 -0.0430 -1.4998
 5939SOL     OW29275   1.176   1.337  17.123  0.3114  0.6152 -0.2485
 5939SOL    HW129276   1.090   1.312  17.156  1.2352  0.1734  1.8814
 5939SOL    HW229277   1.189   1.417  17.175  1.3623  0.0253  0.3857
 5940SOL     OW29278   2.135   2.026   5.164 -0.8433 -0.2010 -0.7027
 5940SOL    HW129279   2.219   1.993   5.195 -1.5139  0.1271  1.4569
 5940SOL    HW229280   2.165   2.095   5.105 -1.1279 -0.8565 -1.6145
 5941SOL     OW29281   3.519   0.653   1.173  0.2054  0.6931 -0.0604
 5941SOL    HW129282   3.607   0.617   1.190  0.5289  0.9966 -1.1137
 5941SOL    HW229283   3.454   0.593   1.210  1.7550 -0.4440  0.8929
 5942SOL     OW29284   2.628   3.658   5.762 -0.2223  0.3558  0.0613
 5942SOL    HW129285   2.596   3.718   5.829 -0.2425  1.4197 -0.9008
 5942SOL    HW229286   2.688   3.602   5.812 -0.2517  1.0667  0.8939
 5943SOL     OW29287   2.453   2.971  17.255 -0.6385 -0.6479 -0.6512
 5943SOL    HW129288   2.490   2.886  17.278  0.2586 -0.6637 -2.2054
 5943SOL    HW229289   2.386   2.977  17.323 -2.2680 -2.0917 -2.1314
 5944SOL     OW29290   3.006   1.451  12.499  0.4317 -0.6538 -0.3551
 5944SOL    HW129291   3.100   1.434  12.504  0.5120  0.9802  3.8391
 5944SOL    HW229292   2.979   1.384  12.562  0.8325  0.3507  0.8745
 5945SOL     OW29293   1.081   1.298  14.267 -0.3779 -0.1569 -0.5777
 5945SOL    HW129294   1.150   1.257  14.320 -2.0909 -3.8795 -1.2141
 5945SOL    HW229295   1.121   1.384  14.281  1.0797 -1.1161  1.2149
 5946SOL     OW29296   2.946   0.085   3.275  0.0046  0.2480  0.1196
 5946SOL    HW129297   2.883   0.143   3.234  1.7673  0.5923 -2.0846
 5946SOL    HW229298   2.884   0.023   3.314 -0.6083 -0.5229 -2.0804
 5947SOL     OW29299   4.101   1.586   6.064 -0.5559  0.2156 -0.5048
 5947SOL    HW129300   4.016   1.591   6.108 -0.1200 -1.0652  0.4926
 5947SOL    HW229301   4.144   1.511   6.105 -1.5104 -0.2304 -0.3222
 5948SOL     OW29302   1.386   4.081   6.813 -0.2851 -0.6724  0.1360
 5948SOL    HW129303   1.373   4.052   6.903 -1.8703 -0.8470 -0.1399
 5948SOL    HW229304   1.327   4.016   6.774  1.0583 -1.7545 -0.0835
 5949SOL     OW29305   2.090   0.867  12.045 -0.7238  0.1107  0.4640
 5949SOL    HW129306   2.016   0.920  12.075 -0.1595  2.4271 -2.2418
 5949SOL    HW229307   2.040   0.826  11.974 -0.9853  2.8052 -0.9011
 5950SOL     OW29308   0.172   2.326   7.730 -0.2311 -0.9283 -0.6991
 5950SOL    HW129309   0.170   2.341   7.825 -2.0095 -0.1619 -0.8573
 5950SOL    HW229310   0.087   2.362   7.705  0.3254  1.1400  0.3998
 5951SOL     OW29311   2.396   1.344   4.974  0.2746  0.6761  0.1091
 5951SOL    HW129312   2.304   1.365   4.990 -0.3137 -1.3391 -0.7068
 5951SOL    HW229313   2.400   1.304   4.888  0.9401  0.7294  0.1209
 5952SOL     OW29314   1.487   2.887  15.651  0.0204  0.4363 -0.7457
 5952SOL    HW129315   1.568   2.885  15.703 -0.4990 -0.1792  0.0270
 5952SOL    HW229316   1.512   2.954  15.587 -1.4898  1.5944 -0.1489
 5953SOL     OW29317   0.975   3.114   7.488  0.1610  0.0534  0.5117
 5953SOL    HW129318   0.952   3.090   7.578 -1.3292  0.6315  0.2907
 5953SOL    HW229319   1.067   3.140   7.493  0.7477 -1.7746 -0.9182
 5954SOL     OW29320   0.089   3.087   0.664 -0.5655 -0.0896  0.1026
 5954SOL    HW129321   0.151   3.159   0.646  0.3515 -0.6003  1.2236
 5954SOL    HW229322   0.108   3.063   0.755  0.5551 -0.9065 -0.3517
 5955SOL     OW29323   3.044   0.530  16.543 -0.8286 -0.1681  0.1661
 5955SOL    HW129324   3.084   0.450  16.511 -1.0068 -0.2148  0.0603
 5955SOL    HW229325   3.059   0.514  16.636  0.3654  1.7844  0.3317
 5956SOL     OW29326   0.576   0.882   1.996  0.2485 -0.1124  0.3330
 5956SOL    HW129327   0.658   0.932   1.997 -0.2966  0.7847 -0.7551
 5956SOL    HW229328   0.545   0.899   1.907  1.7168  1.0345  0.0329
 5957SOL     OW29329   3.355   1.768  13.290  0.0775 -0.0784  0.1778
 5957SOL    HW129330   3.418   1.802  13.226  0.3215  0.6321  0.8017
 5957SOL    HW229331   3.387   1.804  13.372 -1.4236 -0.5466  0.9644
 5958SOL     OW29332   2.259   3.792   6.473  0.1851 -0.3480  0.3013
 5958SOL    HW129333   2.325   3.756   6.414  0.7936 -0.8287  1.2763
 5958SOL    HW229334   2.181   3.746   6.443  0.5436  0.0245 -1.2088
 5959SOL     OW29335   1.618   1.483   4.226 -0.3625 -0.4159 -0.4903
 5959SOL    HW129336   1.705   1.503   4.190  1.2010 -3.5502  1.5460
 5959SOL    HW229337   1.602   1.402   4.178  1.4714 -1.9866  1.5503
 5960SOL     OW29338   0.185   0.081  10.965 -0.4931 -0.5041 -0.2576
 5960SOL    HW129339   0.253   0.041  11.019 -0.4271  2.3308  1.7450
 5960SOL    HW229340   0.232   0.100  10.885  0.9804 -2.3647  0.1641
 5961SOL     OW29341   3.567   1.117   6.551 -0.5539  0.0164 -0.5751
 5961SOL    HW129342   3.555   1.168   6.472  1.1684  1.5035  0.1203
 5961SOL    HW229343   3.496   1.052   6.553  0.2783 -0.9703 -3.0864
 5962SOL     OW29344   3.108   2.065   0.139  0.3564 -0.3235 -0.1906
 5962SOL    HW129345   3.025   2.067   0.186  0.2236  0.0039 -0.4328
 5962SOL    HW229346   3.087   1.995   0.078 -0.8177 -0.4041  0.3096
 5963SOL     OW29347   3.532   0.647   6.558 -0.9399 -0.0434  0.8084
 5963SOL    HW129348   3.470   0.661   6.630 -1.6472  1.1656 -0.0539
 5963SOL    HW229349   3.607   0.699   6.585 -0.3753 -0.2550 -0.3478
 5964SOL     OW29350   4.465   3.615   7.700  0.0073 -0.6793  0.3857
 5964SOL    HW129351   4.560   3.606   7.691 -0.3212 -2.9621 -0.6771
 5964SOL    HW229352   4.436   3.524   7.698 -0.9909 -0.3580  0.3262
 5965SOL     OW29353   0.303   3.826   2.432  0.2688  0.4495  0.7549
 5965SOL    HW129354   0.225   3.781   2.402  0.9603 -0.5255  0.4286
 5965SOL    HW229355   0.338   3.856   2.348  0.9364 -0.2067  0.8003
 5966SOL     OW29356   3.815   0.581   2.308 -0.2451  1.0601  0.4665
 5966SOL    HW129357   3.729   0.542   2.294  0.7670 -1.0352  0.0626
 5966SOL    HW229358   3.816   0.661   2.255  3.0737  0.1250 -0.9338
 5967SOL     OW29359   1.564   4.200   7.633 -0.0201  0.2326  0.7233
 5967SOL    HW129360   1.492   4.203   7.696  0.0733  2.0300  0.7253
 5967SOL    HW229361   1.525   4.236   7.553  1.1083  1.1578  0.5984
 5968SOL     OW29362   2.694   3.714   6.346  0.1833  0.0123  0.4736
 5968SOL    HW129363   2.734   3.663   6.275 -0.5048 -1.1021  0.8895
 5968SOL    HW229364   2.765   3.769   6.377  1.7849 -0.4187 -2.4277
 5969SOL     OW29365   0.935   2.559   9.236 -0.2123  0.1205  0.0570
 5969SOL    HW129366   0.913   2.624   9.170  0.6224 -2.2669 -2.5343
 5969SOL    HW229367   1.027   2.550   9.212  0.5475  0.5723  2.7485
 5970SOL     OW29368   3.128   0.435  16.193  0.1031  0.2630  0.8124
 5970SOL    HW129369   3.108   0.523  16.160 -0.3934 -0.0556  0.2455
 5970SOL    HW229370   3.220   0.441  16.216  0.9756 -3.6121 -1.6390
 5971SOL     OW29371   0.473   1.752   8.251  0.2361 -0.7902 -0.0668
 5971SOL    HW129372   0.416   1.681   8.281  0.8637 -0.5453  1.7384
 5971SOL    HW229373   0.406   1.820   8.242  2.0846  0.7254 -2.2195
 5972SOL     OW29374   0.632   0.262   6.582  0.0413 -0.2798  0.0400
 5972SOL    HW129375   0.653   0.170   6.599 -0.3928 -0.2931  0.5138
 5972SOL    HW229376   0.661   0.271   6.491  1.8511  1.5420  0.8055
 5973SOL     OW29377   2.166   3.202   5.797 -0.0741  0.3488 -0.4748
 5973SOL    HW129378   2.243   3.185   5.743  0.2685 -2.1563  0.8197
 5973SOL    HW229379   2.112   3.170   5.725 -1.6007 -0.3872  1.0079
 5974SOL     OW29380   0.706   1.746   4.237  0.1633  0.5008 -0.2176
 5974SOL    HW129381   0.702   1.827   4.188 -0.2013 -0.0984 -1.1739
 5974SOL    HW229382   0.627   1.752   4.291  0.2808 -0.7766  0.1112
 5975SOL     OW29383   1.644   2.275   7.730 -0.2480 -0.3462  0.1343
 5975SOL    HW129384   1.554   2.246   7.744 -0.0148 -0.6108  1.0792
 5975SOL    HW229385   1.676   2.185   7.722 -2.5325 -1.0869 -0.7611
 5976SOL     OW29386   1.402   4.670  14.898  0.2433 -0.0636  0.2307
 5976SOL    HW129387   1.366   4.664  14.810 -0.9456  0.1677  0.7019
 5976SOL    HW229388   1.322   4.673  14.950  0.3767  1.6819  0.3076
 5977SOL     OW29389   3.582   0.272  13.173  0.5252  0.1229  0.5657
 5977SOL    HW129390   3.532   0.244  13.249  3.3168  0.4356  2.5357
 5977SOL    HW229391   3.625   0.192  13.140  1.0131 -0.5215  2.7812
 5978SOL     OW29392   3.536   0.725   2.401 -0.1779  0.4284  0.3219
 5978SOL    HW129393   3.520   0.786   2.330  0.8655  0.0894 -0.2024
 5978SOL    HW229394   3.563   0.647   2.352  1.0954  1.3306 -0.4174
 5979SOL     OW29395   0.107   4.474   1.488 -0.5829 -0.4513  0.2376
 5979SOL    HW129396   0.198   4.493   1.465 -0.4518  0.1132  1.2080
 5979SOL    HW229397   0.122   4.460   1.581  0.7256  0.4770  0.1691
 5980SOL     OW29398   3.300   1.662  13.899 -0.0208  0.2817 -0.3078
 5980SOL    HW129399   3.221   1.678  13.950 -1.4842 -0.6826 -2.2562
 5980SOL    HW229400   3.259   1.637  13.817 -2.4537  0.8320  0.7439
 5981SOL     OW29401   3.940   1.717   4.488  0.4694 -0.4220 -0.2542
 5981SOL    HW129402   3.998   1.740   4.416 -0.3483  1.0571 -0.4321
 5981SOL    HW229403   3.923   1.624   4.473  0.0494 -0.5771  1.1709
 5982SOL     OW29404   1.112   3.029   7.935  0.5928  0.3100 -0.0378
 5982SOL    HW129405   1.134   2.955   7.992  1.1573  0.2997 -0.2682
 5982SOL    HW229406   1.023   3.040   7.967  0.7342  0.2253  0.3895
 5983SOL     OW29407   2.319   2.200   2.978  0.1300  0.9871  0.3115
 5983SOL    HW129408   2.298   2.289   3.005 -2.5903  0.4805 -0.1821
 5983SOL    HW229409   2.350   2.163   3.061 -0.1520  0.5896  0.2387
 5984SOL     OW29410   3.353   4.590   5.164 -0.8331  0.3225 -0.0901
 5984SOL    HW129411   3.363   4.610   5.257  0.6609  1.5209 -0.5087
 5984SOL    HW229412   3.309   4.672   5.141  0.1976  0.8686 -0.1203
 5985SOL     OW29413   1.096   4.149  16.813 -0.6724  0.0718 -0.4643
 5985SOL    HW129414   1.040   4.089  16.764 -1.8416  0.4807  0.3533
 5985SOL    HW229415   1.050   4.233  16.805 -1.2996 -0.3182 -0.9308
 5986SOL     OW29416   2.218   1.293  15.315  0.1147  0.2592  0.0085
 5986SOL    HW129417   2.221   1.272  15.408  1.0919 -0.3432 -0.1573
 5986SOL    HW229418   2.287   1.234  15.286  0.4979  1.2739 -1.1365
 5987SOL     OW29419   3.165   1.363   3.395 -0.6076 -0.1848  0.5212
 5987SOL    HW129420   3.118   1.342   3.315  0.4779  0.5667 -0.3176
 5987SOL    HW229421   3.183   1.279   3.437  1.8038 -0.5976 -1.3048
 5988SOL     OW29422   2.828   3.261   5.659 -0.2754 -0.4721  0.4993
 5988SOL    HW129423   2.845   3.263   5.564 -2.7195 -0.0208  0.0614
 5988SOL    HW229424   2.884   3.328   5.697  0.7190 -0.8830 -0.2300
 5989SOL     OW29425   3.204   3.303  17.345  0.2459  0.5136 -0.1018
 5989SOL    HW129426   3.246   3.351  17.274  0.8220  1.5070  0.9000
 5989SOL    HW229427   3.135   3.355  17.386  0.7073  0.4422  0.7678
 5990SOL     OW29428   1.475   4.511   3.078 -0.1278 -0.1177  0.8079
 5990SOL    HW129429   1.559   4.485   3.115  0.3787 -0.8117 -0.8726
 5990SOL    HW229430   1.438   4.428   3.047 -0.1584  0.4426 -0.6442
 5991SOL     OW29431   3.684   2.887   4.024 -0.3006  0.2212 -0.0519
 5991SOL    HW129432   3.623   2.936   3.969  1.7316  2.6744 -0.1034
 5991SOL    HW229433   3.624   2.821   4.060 -1.7903  1.6059  0.0132
 5992SOL     OW29434   2.499   0.803   9.384  1.2593 -0.6752  0.2884
 5992SOL    HW129435   2.439   0.866   9.344 -0.1316 -1.7372  0.7223
 5992SOL    HW229436   2.505   0.844   9.471 -0.2626  1.6411 -0.7008
 5993SOL     OW29437   2.993   1.249   9.614 -0.0451  0.2097 -0.1625
 5993SOL    HW129438   2.957   1.268   9.701  1.1046 -0.3817  0.4364
 5993SOL    HW229439   3.011   1.340   9.588  0.0116 -0.0958 -1.1786
 5994SOL     OW29440   1.498   0.297   7.216  0.7075 -0.4913  0.0627
 5994SOL    HW129441   1.591   0.278   7.230  1.2590  1.1266 -1.5142
 5994SOL    HW229442   1.489   0.327   7.307 -1.8242  0.3958 -0.4990
 5995SOL     OW29443   2.009   0.165  16.527 -0.2690 -0.1535 -0.1506
 5995SOL    HW129444   2.021   0.071  16.512  0.7419  0.1870 -1.4861
 5995SOL    HW229445   1.953   0.164  16.604  0.9339  0.2952  0.7187
 5996SOL     OW29446   3.538   0.078  13.592  0.9010 -0.1214  0.0545
 5996SOL    HW129447   3.462   0.037  13.632 -0.5364  0.5166 -2.0354
 5996SOL    HW229448   3.599   0.011  13.624  1.4077  0.3367  0.0484
 5997SOL     OW29449   0.651   2.873   7.788  0.5360  0.1862 -0.7733
 5997SOL    HW129450   0.622   2.786   7.761  1.9678 -0.0556 -1.5687
 5997SOL    HW229451   0.612   2.931   7.723 -1.8614 -0.7276 -0.1185
 5998SOL     OW29452   1.580   0.524  15.221 -0.1425  0.5054 -0.1949
 5998SOL    HW129453   1.644   0.578  15.267  0.0198  1.8888 -2.0518
 5998SOL    HW229454   1.501   0.545  15.270 -1.1614  1.3233 -2.1933
 5999SOL     OW29455   1.157   1.598  16.133  0.2580  0.4977 -0.0365
 5999SOL    HW129456   1.188   1.688  16.126  1.0194  0.0897 -1.9958
 5999SOL    HW229457   1.079   1.603  16.079 -1.3996  2.4597  2.5601
 6000SOL     OW29458   4.267   1.291   6.745 -0.4921  0.4491  0.3571
 6000SOL    HW129459   4.305   1.229   6.683 -0.5070  0.6207  0.1766
 6000SOL    HW229460   4.223   1.248   6.818  1.4643  0.4744  1.5503
 6001SOL     OW29461   0.236   4.051  15.526  0.7189 -0.2705  0.0704
 6001SOL    HW129462   0.161   4.103  15.499 -0.1975 -0.8640  1.5003
 6001SOL    HW229463   0.235   3.974  15.469 -0.6819  0.8106 -1.3558
 6002SOL     OW29464   1.020   2.194   8.177  0.4703  0.6041  0.4242
 6002SOL    HW129465   0.971   2.139   8.116 -0.4634  0.7872  1.0040
 6002SOL    HW229466   1.110   2.168   8.158  1.5590  5.1190 -0.5518
 6003SOL     OW29467   3.823   2.722   4.720  0.1274  0.0353 -0.3540
 6003SOL    HW129468   3.878   2.781   4.771 -2.2109  0.9042  1.1443
 6003SOL    HW229469   3.836   2.642   4.772  1.2382  0.0347 -0.6419
 6004SOL     OW29470   1.091   2.924   3.992 -0.1618 -0.1719 -0.2613
 6004SOL    HW129471   1.130   3.011   3.986 -4.1147  1.7803  2.3397
 6004SOL    HW229472   1.151   2.872   3.939 -0.0312 -0.4284  0.1355
 6005SOL     OW29473   3.662   2.929  10.525 -0.0253  0.2851 -0.1906
 6005SOL    HW129474   3.587   2.903  10.471 -0.6484 -1.4971  1.5593
 6005SOL    HW229475   3.643   3.022  10.539  1.8632  1.0870 -2.8183
 6006SOL     OW29476   1.811   1.158   7.780  0.0255  0.1251  0.5123
 6006SOL    HW129477   1.725   1.177   7.817 -0.6500 -0.6238 -0.6843
 6006SOL    HW229478   1.869   1.184   7.851  2.5079  0.7950 -1.7637
 6007SOL     OW29479   3.039   4.152   6.166  0.6063 -0.4111 -0.2349
 6007SOL    HW129480   3.020   4.183   6.077 -3.4612  0.9151  1.1095
 6007SOL    HW229481   3.134   4.162   6.164  0.4820  0.7123 -0.7977
 6008SOL     OW29482   4.152   4.061   7.726  0.2595  0.0585  0.5541
 6008SOL    HW129483   4.090   4.134   7.729 -1.4534 -1.2730 -2.2410
 6008SOL    HW229484   4.167   4.045   7.633 -2.9110 -2.0903  0.4418
 6009SOL     OW29485   1.689   3.179  14.751 -0.5712  0.0052  0.0307
 6009SOL    HW129486   1.692   3.110  14.685 -1.6581 -1.2576  1.2963
 6009SOL    HW229487   1.599   3.212  14.740 -0.7915 -0.5303  0.2626
 6010SOL     OW29488   2.809   0.330  13.544 -0.0304 -0.3035 -0.2753
 6010SOL    HW129489   2.850   0.305  13.461 -0.2856 -0.3772 -0.3782
 6010SOL    HW229490   2.874   0.301  13.608  1.4198 -1.4036 -2.2419
 6011SOL     OW29491   3.009   4.578  10.852 -0.1899  0.4586  0.0518
 6011SOL    HW129492   3.034   4.552  10.764  0.4017  0.6387  0.1658
 6011SOL    HW229493   2.950   4.650  10.830 -0.5830  0.1130 -0.0187
 6012SOL     OW29494   0.101   2.855   5.720 -0.7629 -0.0969  0.1265
 6012SOL    HW129495   0.089   2.949   5.726  0.1951  0.1933 -2.4152
 6012SOL    HW229496   0.106   2.836   5.626 -0.9747 -0.3410  0.1643
 6013SOL     OW29497   0.137   2.020   7.153  0.3803 -0.0825 -0.0135
 6013SOL    HW129498   0.188   2.000   7.075 -0.5894 -1.2219 -0.3552
 6013SOL    HW229499   0.073   1.952   7.135 -0.3332  0.7100 -0.4806
 6014SOL     OW29500   1.747   4.274  14.225 -0.5888  0.2815  0.0351
 6014SOL    HW129501   1.840   4.261  14.207 -1.0929 -3.4076  0.2096
 6014SOL    HW229502   1.719   4.302  14.138 -1.4120  0.3339  0.3133
 6015SOL     OW29503   4.001   2.509  11.340 -0.0004  0.2363  0.2152
 6015SOL    HW129504   4.085   2.541  11.374  0.1621  1.4156 -1.2990
 6015SOL    HW229505   4.028   2.426  11.300 -0.9020  0.4942 -0.9252
 6016SOL     OW29506   0.285   3.318   7.375 -0.8187  0.0365  0.2161
 6016SOL    HW129507   0.226   3.243   7.385 -1.2093  0.5562  1.8034
 6016SOL    HW229508   0.368   3.283   7.343 -1.8361 -0.8980 -1.4206
 6017SOL     OW29509   3.130   1.454   4.625  0.2049 -0.1164 -0.3220
 6017SOL    HW129510   3.058   1.481   4.682 -1.5148  0.6452 -2.8355
 6017SOL    HW229511   3.097   1.487   4.541  1.9840  1.1812 -0.5092
 6018SOL     OW29512   3.988   4.656   3.192 -0.5879 -0.3279 -0.0492
 6018SOL    HW129513   4.079   4.628   3.186 -0.4579  0.1569 -0.3164
 6018SOL    HW229514   3.951   4.610   3.117 -0.9262  0.9165 -0.6391
 6019SOL     OW29515   3.075   1.231  11.698  0.4191 -0.3450  0.0037
 6019SOL    HW129516   3.139   1.169  11.734 -0.9483 -0.0244  2.9862
 6019SOL    HW229517   3.117   1.312  11.728 -3.9111  1.7737  0.2079
 6020SOL     OW29518   1.338   2.967   1.979  0.0972  0.6409  0.2054
 6020SOL    HW129519   1.264   3.008   2.023  0.7808  0.3499  1.6379
 6020SOL    HW229520   1.296   2.891   1.940 -1.3405  1.0685  0.9406
 6021SOL     OW29521   2.277   0.090  11.512  0.7117  0.0605 -0.2235
 6021SOL    HW129522   2.207   0.094  11.578 -0.3366 -1.5668 -1.2169
 6021SOL    HW229523   2.236   0.037  11.443  4.4550 -2.9958 -0.1141
 6022SOL     OW29524   2.099   0.565   2.984 -0.8018  0.0996 -0.2439
 6022SOL    HW129525   2.185   0.542   2.948  0.1325  0.7622  1.5687
 6022SOL    HW229526   2.108   0.657   2.961  0.0553  0.2525  0.7189
 6023SOL     OW29527   4.196   0.144  16.439 -0.4703 -0.2984 -0.2235
 6023SOL    HW129528   4.125   0.177  16.383 -0.4289  0.8696  0.3963
 6023SOL    HW229529   4.271   0.182  16.393 -1.3550  1.6416 -0.0903
 6024SOL     OW29530   2.099   4.487   0.051 -0.2323 -0.1521  0.3819
 6024SOL    HW129531   2.186   4.517   0.076 -2.0749  3.6760  2.1099
 6024SOL    HW229532   2.104   4.483  17.654  1.7587  0.9714  0.4466
 6025SOL     OW29533   3.658   1.753   7.388  0.2429 -0.0362  0.4179
 6025SOL    HW129534   3.723   1.700   7.434 -1.0807 -2.9397 -1.0117
 6025SOL    HW229535   3.611   1.787   7.464 -0.5718 -1.0005  0.3503
 6026SOL     OW29536   0.003   3.660   4.830 -0.3627 -0.3186 -0.1448
 6026SOL    HW129537   0.042   3.578   4.862  0.3397 -0.3870 -1.1648
 6026SOL    HW229538   0.001   3.651   4.734 -0.9362 -1.0046 -0.0631
 6027SOL     OW29539   3.446   3.820   1.862  0.1932  0.1466  0.3046
 6027SOL    HW129540   3.443   3.915   1.854 -0.7036  0.0248 -0.7996
 6027SOL    HW229541   3.406   3.817   1.948 -0.8968 -1.4925 -0.2527
 6028SOL     OW29542   1.791   2.989   3.075 -0.0684  0.1869  0.3728
 6028SOL    HW129543   1.714   3.012   3.023  1.1151 -1.1771 -1.9738
 6028SOL    HW229544   1.790   2.895   3.057 -0.3793 -0.3099  3.0052
 6029SOL     OW29545   1.967   4.429   8.054 -0.0544  0.5905  0.5587
 6029SOL    HW129546   2.040   4.412   8.114  0.5994  2.1083  0.1982
 6029SOL    HW229547   1.985   4.514   8.014 -1.8450  1.2411  1.1633
 6030SOL     OW29548   0.417   2.683   4.673  0.0548  0.2966 -0.1960
 6030SOL    HW129549   0.413   2.617   4.603  0.4076 -0.2492  0.2995
 6030SOL    HW229550   0.467   2.757   4.638  2.4150 -1.0187  0.3522
 6031SOL     OW29551   4.536   3.624   4.101  0.0409  0.5432  1.0206
 6031SOL    HW129552   4.470   3.661   4.043  0.0941  2.1992  1.9897
 6031SOL    HW229553   4.624   3.643   4.068  0.5092  0.0376  1.9748
 6032SOL     OW29554   0.349   4.499   6.809  0.2335 -0.1140  0.0948
 6032SOL    HW129555   0.370   4.592   6.810  0.4836 -0.1636 -0.5789
 6032SOL    HW229556   0.387   4.460   6.888 -1.2516 -2.7612 -0.4882
 6033SOL     OW29557   3.904   3.786   8.827  0.2751 -0.9262 -0.2678
 6033SOL    HW129558   3.857   3.822   8.752  0.4214 -0.0616  0.0570
 6033SOL    HW229559   3.961   3.860   8.850  0.7826 -0.8685 -1.6899
 6034SOL     OW29560   1.217   2.297   2.686  0.3798 -0.1788  0.1906
 6034SOL    HW129561   1.164   2.308   2.607 -1.2455  0.3169  1.3390
 6034SOL    HW229562   1.274   2.371   2.669  1.7368 -0.8745  1.6963
 6035SOL     OW29563   0.222   4.016   3.334 -0.7406  0.0873 -0.2064
 6035SOL    HW129564   0.209   3.926   3.364  0.4735  0.1828  0.5618
 6035SOL    HW229565   0.273   4.049   3.407  0.5409 -0.8483 -0.6882
 6036SOL     OW29566   1.652   0.898   7.490  0.1392  0.1279 -0.2929
 6036SOL    HW129567   1.615   0.829   7.545 -0.3374  2.2250  1.9792
 6036SOL    HW229568   1.737   0.911   7.532 -0.5089 -2.2614  1.7471
 6037SOL     OW29569   1.388   0.824  13.838 -0.0575 -0.2687  0.5327
 6037SOL    HW129570   1.434   0.907  13.846 -1.8006  0.7467  0.0063
 6037SOL    HW229571   1.301   0.849  13.806  0.4661 -1.2511 -1.6962
 6038SOL     OW29572   3.143   0.553   6.059  0.5225 -0.3534  0.0807
 6038SOL    HW129573   3.139   0.596   6.144 -1.8589  1.0517 -0.7302
 6038SOL    HW229574   3.175   0.610   5.989  2.1503 -1.2279  0.0996
 6039SOL     OW29575   0.619   0.117  13.365  0.3302 -0.3478  0.6873
 6039SOL    HW129576   0.615   0.185  13.297  1.2201 -2.1514 -1.1905
 6039SOL    HW229577   0.575   0.048  13.315  0.7291  1.6489 -2.4164
 6040SOL     OW29578   3.476   2.733   2.073  0.2455 -0.0649  0.0297
 6040SOL    HW129579   3.411   2.760   2.008  0.3914 -0.7244 -0.3847
 6040SOL    HW229580   3.548   2.750   2.012 -0.6187 -0.6923 -1.1632
 6041SOL     OW29581   1.875   0.556   0.771  0.3592 -0.4257 -0.0697
 6041SOL    HW129582   1.841   0.472   0.743 -1.5585  0.1384  0.5494
 6041SOL    HW229583   1.849   0.562   0.863  0.3881 -2.0718  0.0385
 6042SOL     OW29584   1.808   1.943   2.049  0.4506 -0.2811  0.3278
 6042SOL    HW129585   1.781   1.928   1.958 -0.3111 -0.3961  0.5769
 6042SOL    HW229586   1.860   2.023   2.042  0.3934 -0.1966  0.9145
 6043SOL     OW29587   1.051   2.577   2.139 -0.8770 -0.2892 -0.3104
 6043SOL    HW129588   1.116   2.510   2.161 -0.4376 -0.0679 -0.9231
 6043SOL    HW229589   0.989   2.567   2.211  0.0889 -2.1579  0.2763
 6044SOL     OW29590   3.027   3.995   5.620 -0.4423  0.1988  0.4288
 6044SOL    HW129591   3.096   3.944   5.577 -0.6523 -0.2907  0.6814
 6044SOL    HW229592   2.950   3.941   5.603 -1.5079  1.8059  0.0951
 6045SOL     OW29593   1.014   2.333  16.331 -1.0134  0.7067  0.6877
 6045SOL    HW129594   0.986   2.401  16.270 -0.0685  1.2827  0.8945
 6045SOL    HW229595   0.932   2.328  16.379 -1.0498  1.6661  0.7264
 6046SOL     OW29596   3.568   4.225   2.527 -0.2591 -0.0812  0.1659
 6046SOL    HW129597   3.611   4.147   2.493  0.9594  0.9426 -0.6543
 6046SOL    HW229598   3.633   4.293   2.510 -0.6122 -0.0278 -0.9814
 6047SOL     OW29599   2.320   2.512   2.300  0.1025  0.0324  0.1491
 6047SOL    HW129600   2.258   2.464   2.353  2.2060 -1.3569  1.3206
 6047SOL    HW229601   2.274   2.519   2.216  2.7445  0.4437 -1.2784
 6048SOL     OW29602   4.691   0.106  10.019  0.6858 -0.3436  0.4187
 6048SOL    HW129603   0.055   0.103   9.985  0.5624 -0.6476  0.1286
 6048SOL    HW229604   4.702   0.069  10.107  0.4765  0.0326  0.6070
 6049SOL     OW29605   1.972   2.765  16.991  0.6996  0.2899 -0.2363
 6049SOL    HW129606   2.016   2.720  17.063  2.6535 -1.7574 -2.7190
 6049SOL    HW229607   1.957   2.854  17.024 -0.8921  0.0658 -0.3755
 6050SOL     OW29608   3.911   2.508   6.546  0.3776  0.5033 -0.8556
 6050SOL    HW129609   3.949   2.589   6.580 -1.7045  1.2679 -0.3152
 6050SOL    HW229610   3.979   2.476   6.487  0.3383  0.4418 -0.8682
 6051SOL     OW29611   3.190   1.476   9.866  0.1909  0.1183 -0.2908
 6051SOL    HW129612   3.116   1.498   9.922 -0.8345 -1.7761 -0.9127
 6051SOL    HW229613   3.173   1.542   9.798  0.9478  0.9402  0.3197
 6052SOL     OW29614   1.419   0.276   4.394  0.2041  0.5829 -0.0971
 6052SOL    HW129615   1.325   0.293   4.394  0.1941  0.5304 -0.0297
 6052SOL    HW229616   1.434   0.242   4.306 -1.4813 -0.1782 -0.1054
 6053SOL     OW29617   0.382   3.962   7.941  0.3550 -0.7909 -0.1814
 6053SOL    HW129618   0.351   4.031   7.882 -0.3047 -0.6478  0.3291
 6053SOL    HW229619   0.317   3.950   8.011  1.5246  0.1239  1.0615
 6054SOL     OW29620   0.815   1.703  16.256  0.3213 -0.0551 -0.5786
 6054SOL    HW129621   0.818   1.615  16.217  0.4367  0.1353 -0.9908
 6054SOL    HW229622   0.885   1.753  16.215  0.3221  0.9108  0.6057
 6055SOL     OW29623   0.249   1.886   8.154 -0.2526  0.2646  0.2733
 6055SOL    HW129624   0.157   1.866   8.138 -0.1560  1.5162 -1.8232
 6055SOL    HW229625   0.270   1.905   8.062 -0.3129  2.5433  0.7387
 6056SOL     OW29626   1.049   1.012   7.603 -0.2467  0.3283 -0.5781
 6056SOL    HW129627   1.084   1.015   7.513  0.0512  1.7364 -0.4158
 6056SOL    HW229628   1.120   0.964   7.647 -0.7282 -2.1214 -2.4514
 6057SOL     OW29629   3.981   2.546  13.646 -0.2410 -0.1682  0.2268
 6057SOL    HW129630   3.995   2.452  13.642  1.9561  0.1697 -0.0302
 6057SOL    HW229631   4.072   2.576  13.649  0.3782 -1.8890 -1.6948
 6058SOL     OW29632   3.200   0.624   7.485 -0.2181 -0.5346 -0.2178
 6058SOL    HW129633   3.216   0.716   7.464  1.3891 -1.2409 -2.0738
 6058SOL    HW229634   3.176   0.576   7.406  0.7823 -0.7159 -0.4038
 6059SOL     OW29635   4.372   4.542   7.676  0.7416  0.1975 -0.0875
 6059SOL    HW129636   4.451   4.553   7.622 -0.6056  1.6404 -1.7427
 6059SOL    HW229637   4.338   4.466   7.629 -0.4560  0.3020  0.6217
 6060SOL     OW29638   2.284   1.959   1.068  0.3723 -0.3523 -0.3664
 6060SOL    HW129639   2.339   1.990   1.140 -2.1230  1.5522  0.6952
 6060SOL    HW229640   2.265   1.870   1.097 -0.9245  0.1550  0.3497
 6061SOL     OW29641   1.521   0.530   6.619 -0.6452 -0.0736  0.3235
 6061SOL    HW129642   1.504   0.544   6.712  0.5229 -2.9544  0.9420
 6061SOL    HW229643   1.615   0.515   6.622 -0.4307  1.2403  0.1446
 6062SOL     OW29644   4.635   1.952  12.539  0.1483  0.0739 -0.4798
 6062SOL    HW129645   4.676   1.989  12.461 -0.8401  2.7877  0.2778
 6062SOL    HW229646   4.542   1.948  12.515  0.2456  0.7320 -0.9885
 6063SOL     OW29647   2.007   1.040  12.489  0.1627 -0.2273  0.2235
 6063SOL    HW129648   2.036   1.131  12.487 -1.1202  0.0943 -2.6063
 6063SOL    HW229649   1.997   1.029  12.584  2.4223 -0.3198  0.4613
 6064SOL     OW29650   3.838   1.096  10.054 -0.0847  0.1293 -0.3849
 6064SOL    HW129651   3.744   1.103  10.036  0.0737  2.0724 -0.4646
 6064SOL    HW229652   3.881   1.119   9.971  0.8892 -2.1090 -0.4889
 6065SOL     OW29653   1.806   0.783   1.317  0.1826 -0.4852 -0.4358
 6065SOL    HW129654   1.780   0.863   1.362 -0.5649  0.0223 -1.7587
 6065SOL    HW229655   1.892   0.765   1.355  0.0265  0.7248  0.4733
 6066SOL     OW29656   1.960   1.560   0.266  0.1003  0.2446  0.0005
 6066SOL    HW129657   1.976   1.548   0.359 -0.4069 -3.5928 -0.4044
 6066SOL    HW229658   2.033   1.508   0.232  0.3506 -0.4226  1.6008
 6067SOL     OW29659   4.168   1.927   3.948  0.1870  0.2413 -0.1653
 6067SOL    HW129660   4.235   1.952   3.883  0.6385 -1.6616 -0.4589
 6067SOL    HW229661   4.146   1.838   3.920  0.1021 -0.6433  2.7604
 6068SOL     OW29662   3.811   1.009   9.225 -0.5432 -0.3100  0.6839
 6068SOL    HW129663   3.797   0.922   9.263 -0.3187  0.6574  2.9847
 6068SOL    HW229664   3.861   1.046   9.298  1.5290  0.1851 -0.9898
 6069SOL     OW29665   2.414   1.190   0.515 -0.9859  0.3891 -0.3447
 6069SOL    HW129666   2.497   1.210   0.473 -0.8405 -1.1075 -0.7424
 6069SOL    HW229667   2.442   1.198   0.606  2.5490  0.7733 -1.4828
 6070SOL     OW29668   1.056   2.521  15.552  0.4059 -0.0306  0.2971
 6070SOL    HW129669   1.126   2.540  15.614  1.3496  3.1069 -1.7639
 6070SOL    HW229670   1.105   2.474  15.485 -2.9581 -0.0290 -2.1808
 6071SOL     OW29671   4.479   2.463   7.225  0.5464 -0.2726 -0.0911
 6071SOL    HW129672   4.492   2.528   7.293  3.2496 -0.8041 -0.0869
 6071SOL    HW229673   4.492   2.517   7.147  1.4930 -1.6376 -0.8950
 6072SOL     OW29674   2.457   4.063  17.644 -0.3693 -0.2372  0.5418
 6072SOL    HW129675   2.536   4.111  17.670 -0.1645  0.5877 -1.6268
 6072SOL    HW229676   2.391   4.132  17.639  2.4470  2.5671  1.6838
 6073SOL     OW29677   0.787   2.430   2.524 -0.1562  0.1188  0.4543
 6073SOL    HW129678   0.772   2.444   2.618 -0.0667 -0.8000  0.5982
 6073SOL    HW229679   0.698   2.426   2.488 -0.5316 -1.3528  1.5522
 6074SOL     OW29680   0.859   0.866   7.446  0.3924  0.1671 -0.1799
 6074SOL    HW129681   0.917   0.862   7.522  0.3185  1.8887 -0.0230
 6074SOL    HW229682   0.926   0.877   7.378 -0.4519  0.3117 -0.9928
 6075SOL     OW29683   0.104   3.641   7.593  0.7182  0.3108  0.1889
 6075SOL    HW129684   0.033   3.578   7.579  2.2136 -0.4397 -3.8569
 6075SOL    HW229685   0.175   3.588   7.628 -0.8017 -2.2044 -0.5755
 6076SOL     OW29686   0.722   0.621   7.410  0.2769 -0.9672 -0.1627
 6076SOL    HW129687   0.681   0.604   7.495 -0.4941  1.6150  0.0073
 6076SOL    HW229688   0.752   0.712   7.421 -1.6003 -0.1797 -1.6223
 6077SOL     OW29689   4.475   1.912   7.664 -0.4592 -0.3839  0.0745
 6077SOL    HW129690   4.447   1.863   7.741 -0.0946 -0.5764  0.0856
 6077SOL    HW229691   4.413   1.888   7.596 -0.4724  0.0655 -0.0703
 6078SOL     OW29692   4.151   2.417   6.393  0.3629 -0.6390 -0.5405
 6078SOL    HW129693   4.221   2.410   6.329  0.0115 -2.2720 -0.7460
 6078SOL    HW229694   4.090   2.354   6.356  0.9481 -1.0683 -0.7763
 6079SOL     OW29695   0.531   0.480   0.599  0.0980  0.2661 -0.1688
 6079SOL    HW129696   0.587   0.422   0.650  0.2357  1.3169  0.8508
 6079SOL    HW229697   0.602   0.522   0.551  0.3744 -2.3668 -2.0537
 6080SOL     OW29698   4.015   2.376   6.100  0.5034 -0.0270 -0.2692
 6080SOL    HW129699   4.028   2.298   6.155  1.7883 -1.2013 -2.2484
 6080SOL    HW229700   4.103   2.391   6.066  0.8514  0.0890  0.6821
 6081SOL     OW29701   0.017   1.984   9.320  0.2467 -1.5005 -0.5860
 6081SOL    HW129702   4.646   1.975   9.317  0.1091  0.1146 -1.2286
 6081SOL    HW229703   0.034   1.902   9.366 -0.2479 -1.4652 -0.3425
 6082SOL     OW29704   3.430   4.361   4.472 -0.4618  0.6243  0.2332
 6082SOL    HW129705   3.491   4.392   4.405 -0.9977  1.4503  0.1300
 6082SOL    HW229706   3.348   4.387   4.430 -0.6299  1.0577  0.8371
 6083SOL     OW29707   0.020   2.481  10.235 -0.3187 -0.5225 -0.3625
 6083SOL    HW129708   0.012   2.575  10.222  2.0647 -0.4864 -1.6482
 6083SOL    HW229709   4.688   2.443  10.168  2.3469 -0.2761 -2.7323
 6084SOL     OW29710   1.940   0.874  15.945  0.0321 -0.4009  0.2057
 6084SOL    HW129711   2.007   0.814  15.914  0.8373  0.7864 -0.3745
 6084SOL    HW229712   1.944   0.833  16.032  0.3586 -0.8880 -0.0409
 6085SOL     OW29713   0.782   1.436  15.813  0.0270  1.0942  0.5790
 6085SOL    HW129714   0.865   1.388  15.817 -0.6803 -0.0389  1.6288
 6085SOL    HW229715   0.795   1.481  15.730 -1.2743  0.2218 -0.0960
 6086SOL     OW29716   3.997   0.269   6.191  0.0147 -0.4298 -0.0784
 6086SOL    HW129717   3.980   0.212   6.266 -2.3293 -0.0170 -0.3013
 6086SOL    HW229718   3.914   0.315   6.182  0.6236  0.8941  1.1016
 6087SOL     OW29719   1.171   0.337   8.291  0.4660 -0.5693 -0.0289
 6087SOL    HW129720   1.156   0.431   8.287 -1.2826 -0.8170  0.4161
 6087SOL    HW229721   1.262   0.330   8.319  0.4768 -1.0198 -0.1678
 6088SOL     OW29722   0.964   2.901   6.353 -0.0175  0.3593  0.6111
 6088SOL    HW129723   1.059   2.895   6.365  0.2125  0.0773 -1.3125
 6088SOL    HW229724   0.947   2.807   6.365 -0.1084  0.1372 -1.2710
 6089SOL     OW29725   2.925   1.241   6.781  0.2787 -0.3634 -0.4840
 6089SOL    HW129726   2.950   1.296   6.856 -0.8314 -1.7081  0.8891
 6089SOL    HW229727   2.892   1.308   6.721 -0.3819 -0.8595 -0.6738
 6090SOL     OW29728   3.171   1.759   7.388 -0.9512 -0.0630 -0.3378
 6090SOL    HW129729   3.239   1.707   7.346  0.8724  2.4168 -0.4544
 6090SOL    HW229730   3.132   1.698   7.451 -0.2512  0.7724  0.9183
 6091SOL     OW29731   2.118   2.459  13.861  0.0892 -0.3902 -0.1199
 6091SOL    HW129732   2.092   2.367  13.855  0.6788 -0.4858 -1.1334
 6091SOL    HW229733   2.205   2.462  13.900  0.7049  0.0801 -1.5412
 6092SOL     OW29734   2.341   3.431   2.177 -0.7062  0.1406  0.1980
 6092SOL    HW129735   2.349   3.463   2.088 -0.7690 -2.7120 -0.8225
 6092SOL    HW229736   2.257   3.470   2.202 -0.6442 -0.6281  1.6425
 6093SOL     OW29737   2.439   3.372   7.834  0.5923 -0.0944  0.2572
 6093SOL    HW129738   2.434   3.465   7.855 -1.9908 -0.1970  0.0830
 6093SOL    HW229739   2.372   3.339   7.894  1.6204 -1.5775  0.5906
 6094SOL     OW29740   4.111   1.276   0.229  0.0987 -0.1749  0.1485
 6094SOL    HW129741   4.159   1.358   0.240  2.6237 -1.2878 -2.5486
 6094SOL    HW229742   4.183   1.218   0.257 -0.3491 -1.7767 -2.0004
 6095SOL     OW29743   0.095   2.091   2.972 -0.0470  0.0782  0.0030
 6095SOL    HW129744   0.032   2.026   3.004 -0.4575  0.9273  0.9317
 6095SOL    HW229745   0.147   2.046   2.906 -2.7813 -3.6547  0.3883
 6096SOL     OW29746   2.011   1.835  13.831 -0.5115  0.7513  0.7414
 6096SOL    HW129747   2.101   1.804  13.820 -0.1300  1.7290  1.0339
 6096SOL    HW229748   1.961   1.755  13.815 -3.4965  2.5735  0.9538
 6097SOL     OW29749   3.741   1.237  13.959 -0.3801  0.5448  0.0290
 6097SOL    HW129750   3.773   1.168  13.901  0.7389  0.8066  0.3408
 6097SOL    HW229751   3.650   1.211  13.973  0.4088 -1.8140  0.6651
 6098SOL     OW29752   4.658   4.707   9.716  0.2478 -0.2038 -0.0190
 6098SOL    HW129753   4.596   0.022   9.776  1.3396  0.7030  0.5146
 6098SOL    HW229754   4.613   4.623   9.708  0.3446 -0.3628  1.2450
 6099SOL     OW29755   1.786   2.095   4.898  0.0610  0.0915  0.4319
 6099SOL    HW129756   1.709   2.145   4.871 -0.2456 -1.2524 -1.1242
 6099SOL    HW229757   1.857   2.123   4.841 -1.9833  1.6389 -1.3399
 6100SOL     OW29758   4.249   4.039   6.961  0.4077 -0.4582 -0.3693
 6100SOL    HW129759   4.341   4.064   6.974  0.0471  0.0321  1.2590
 6100SOL    HW229760   4.210   4.125   6.966  2.2910  0.4491 -1.0693
 6101SOL     OW29761   3.915   3.818   7.550  0.5198  0.4008  0.1497
 6101SOL    HW129762   3.917   3.810   7.645 -4.8036  0.7744  0.3361
 6101SOL    HW229763   3.834   3.869   7.541  1.2601  1.9695  2.3214
 6102SOL     OW29764   0.940   4.677   1.131  0.3920  0.1297  0.2862
 6102SOL    HW129765   0.976   4.720   1.054  1.1511 -0.0408  0.5511
 6102SOL    HW229766   0.867   4.633   1.087  1.0633 -1.5797  0.8780
 6103SOL     OW29767   3.163   1.202   3.629  0.3068 -0.5741 -0.0822
 6103SOL    HW129768   3.206   1.122   3.599  1.8821  0.3600 -0.3014
 6103SOL    HW229769   3.073   1.176   3.647  0.7671 -1.0948  1.4312
 6104SOL     OW29770   0.795   4.030  17.400  0.1387  0.1526 -0.7337
 6104SOL    HW129771   0.816   3.970  17.472 -0.7415 -0.4257 -0.9544
 6104SOL    HW229772   0.865   4.003  17.341 -0.7343 -0.4861 -1.4686
 6105SOL     OW29773   1.705   0.586   9.026 -0.4510  0.0738 -0.4751
 6105SOL    HW129774   1.690   0.492   9.016  0.1208 -0.0166 -0.4591
 6105SOL    HW229775   1.628   0.606   9.078 -1.8777 -0.0777 -2.5195
 6106SOL     OW29776   1.759   2.405   2.801 -0.1217 -0.6169 -0.0429
 6106SOL    HW129777   1.770   2.479   2.741 -0.4457 -0.7131 -0.2242
 6106SOL    HW229778   1.847   2.396   2.836  0.6524 -1.4942 -2.1756
 6107SOL     OW29779   4.455   2.705   5.431 -0.1335  0.1895  0.4808
 6107SOL    HW129780   4.504   2.627   5.457 -0.9289 -1.4168 -2.9291
 6107SOL    HW229781   4.464   2.715   5.337  0.4793 -1.0652  0.4066
 6108SOL     OW29782   2.374   2.114   3.239 -0.6037 -0.5306 -0.3515
 6108SOL    HW129783   2.322   2.079   3.311  1.2955 -1.7134  0.4230
 6108SOL    HW229784   2.464   2.116   3.271 -0.7286  0.8296 -0.0483
 6109SOL     OW29785   3.126   1.997   2.048  0.6664  0.7765 -0.0122
 6109SOL    HW129786   3.105   1.978   1.957  1.7908 -1.8614  0.2651
 6109SOL    HW229787   3.202   1.940   2.061  0.3491  0.1695 -0.8156
 6110SOL     OW29788   0.088   4.190   9.765 -0.8882  0.3828 -0.0895
 6110SOL    HW129789   0.083   4.165   9.857 -1.2938 -0.9612 -0.4798
 6110SOL    HW229790   0.179   4.173   9.744  0.3393  2.2606  3.7057
 6111SOL     OW29791   1.528   0.179  14.617 -0.0432 -0.1686  0.0023
 6111SOL    HW129792   1.620   0.203  14.606 -0.4174  2.1249  1.8786
 6111SOL    HW229793   1.527   0.084  14.624 -0.0392 -0.3128 -1.7980
 6112SOL     OW29794   0.021   0.167   6.358  0.1297 -0.6819 -0.0883
 6112SOL    HW129795   0.071   0.232   6.309 -1.0557  1.2635  1.2544
 6112SOL    HW229796   4.656   0.188   6.332  0.3665  0.4146 -0.0139
 6113SOL     OW29797   0.715   3.107   5.356  0.0331  0.0091  0.3678
 6113SOL    HW129798   0.779   3.174   5.382 -1.4954  1.4593  0.4441
 6113SOL    HW229799   0.632   3.146   5.384 -0.3830  0.3656 -1.3542
 6114SOL     OW29800   4.426   2.314   3.755 -0.2592 -0.2573 -0.4149
 6114SOL    HW129801   4.428   2.388   3.816 -2.8807  1.4710 -2.4094
 6114SOL    HW229802   4.518   2.290   3.748 -0.7362 -2.2578  0.2663
 6115SOL     OW29803   2.610   3.392   8.342 -0.6137  0.0251  0.5593
 6115SOL    HW129804   2.614   3.396   8.247  0.8716  1.9647  0.7053
 6115SOL    HW229805   2.644   3.481   8.352 -0.8127  0.2921 -1.1193
 6116SOL     OW29806   2.137   1.307   1.646 -0.2214  0.1983  0.1995
 6116SOL    HW129807   2.145   1.402   1.647  0.6497  0.1278 -0.0308
 6116SOL    HW229808   2.115   1.292   1.554  0.8132  1.0356 -0.1849
 6117SOL     OW29809   3.510   0.828   9.910 -0.2033 -0.1804 -0.2241
 6117SOL    HW129810   3.461   0.746   9.918 -0.6032  0.1004  0.2553
 6117SOL    HW229811   3.587   0.820   9.966 -1.0045 -0.8775  0.7849
 6118SOL     OW29812   2.431   2.319  13.295  0.0801 -0.4982 -0.2968
 6118SOL    HW129813   2.347   2.345  13.333 -0.2077 -1.4975 -0.2562
 6118SOL    HW229814   2.447   2.390  13.233 -1.2705 -1.0358 -1.2669
 6119SOL     OW29815   1.277   4.301   9.145 -0.2929 -0.4179  0.4135
 6119SOL    HW129816   1.347   4.242   9.172 -1.0238 -0.9569  1.1594
 6119SOL    HW229817   1.255   4.353   9.222  1.2744 -0.3253  0.7984
 6120SOL     OW29818   3.164   3.020  17.327 -0.3429 -0.4319 -0.5152
 6120SOL    HW129819   3.146   3.113  17.315  2.3865  0.2227  0.4454
 6120SOL    HW229820   3.252   3.010  17.366  0.1422 -0.1297 -1.5543
 6121SOL     OW29821   1.636   2.376  12.294 -0.1575  0.3487 -0.3615
 6121SOL    HW129822   1.645   2.363  12.388  2.4423  0.8962 -0.5356
 6121SOL    HW229823   1.615   2.468  12.283  1.9241  1.0639  1.5294
 6122SOL     OW29824   2.176   2.924  12.474 -0.4041  0.3805 -0.7391
 6122SOL    HW129825   2.166   3.019  12.465 -1.6876  0.2333 -0.9250
 6122SOL    HW229826   2.209   2.907  12.563  1.7158  0.1702 -1.5625
 6123SOL     OW29827   2.743   3.938  12.541  0.1065  0.8468  0.1529
 6123SOL    HW129828   2.759   4.032  12.531 -1.7069  1.0406 -0.9820
 6123SOL    HW229829   2.833   3.906  12.540 -0.1875  0.0926 -1.0563
 6124SOL     OW29830   2.499   4.566   4.102 -0.4428 -0.4001 -0.1291
 6124SOL    HW129831   2.526   4.647   4.060 -1.3467 -0.6423 -1.1644
 6124SOL    HW229832   2.509   4.498   4.035  2.2982 -0.4457  0.3340
 6125SOL     OW29833   2.840   2.324   1.127 -0.4571  0.7216  0.0455
 6125SOL    HW129834   2.756   2.280   1.140 -0.1814 -0.1313 -1.0783
 6125SOL    HW229835   2.809   2.402   1.080  1.0725  1.4328  0.2240
 6126SOL     OW29836   3.070   4.458  10.622 -0.0237  0.3117 -0.2286
 6126SOL    HW129837   3.144   4.518  10.608  1.9137 -2.1255 -0.3250
 6126SOL    HW229838   3.070   4.398  10.548 -1.0939 -0.3315  0.2900
 6127SOL     OW29839   0.551   4.013  15.878 -0.1212 -0.1904 -0.5869
 6127SOL    HW129840   0.486   3.943  15.885 -1.1645  0.7605 -0.6965
 6127SOL    HW229841   0.606   3.992  15.952  0.9054  1.2413 -0.9354
 6128SOL     OW29842   0.792   4.340  11.931  0.1342  0.4701  0.1508
 6128SOL    HW129843   0.792   4.277  11.859 -0.3464 -1.6643  2.0170
 6128SOL    HW229844   0.714   4.391  11.909  0.4953  1.1514  0.4439
 6129SOL     OW29845   1.699   1.829   3.809  0.0652 -0.4175 -0.6692
 6129SOL    HW129846   1.764   1.759   3.795  0.2910 -0.4316  0.4416
 6129SOL    HW229847   1.649   1.796   3.734 -1.3251  1.1300 -0.4145
 6130SOL     OW29848   3.343   2.356   3.545  0.2575  0.2685 -0.3591
 6130SOL    HW129849   3.394   2.311   3.478 -0.2381 -2.3334  1.0053
 6130SOL    HW229850   3.367   2.444   3.517 -1.9924  0.2413 -2.3932
 6131SOL     OW29851   3.823   1.381   7.930  0.1166  0.0622  0.1294
 6131SOL    HW129852   3.859   1.297   7.901 -0.3328  0.4654 -1.5485
 6131SOL    HW229853   3.801   1.359   8.021  0.0625 -1.3217 -0.2183
 6132SOL     OW29854   1.457   1.779   6.062  0.0111 -0.2356 -0.1131
 6132SOL    HW129855   1.511   1.752   5.988  0.1918  3.6603 -1.4398
 6132SOL    HW229856   1.393   1.830   6.012  0.2561 -0.9076 -1.1138
 6133SOL     OW29857   1.859   1.611  11.834  0.2482 -0.3974 -0.2710
 6133SOL    HW129858   1.935   1.558  11.810  0.4224 -0.3430  0.1738
 6133SOL    HW229859   1.784   1.554  11.821 -1.9918  2.3085  0.6905
 6134SOL     OW29860   1.133   2.451   4.715 -0.7658  0.0869 -0.0735
 6134SOL    HW129861   1.228   2.445   4.708 -0.8247  0.1944 -0.9579
 6134SOL    HW229862   1.109   2.384   4.650  0.3508  0.1916 -0.5909
 6135SOL     OW29863   2.353   0.719   1.588  0.1947 -0.2237  0.6347
 6135SOL    HW129864   2.353   0.715   1.492 -0.6611  1.7169  0.5519
 6135SOL    HW229865   2.445   0.721   1.612  0.3285 -2.3742  0.2928
 6136SOL     OW29866   0.999   2.112   5.571 -0.1605 -0.1162 -0.3310
 6136SOL    HW129867   0.995   2.139   5.479  1.4889  1.1613 -0.0215
 6136SOL    HW229868   1.090   2.086   5.582 -0.0140 -0.3997 -2.3163
 6137SOL     OW29869   1.070   0.585   4.609 -0.6031 -0.0375 -0.4392
 6137SOL    HW129870   1.028   0.568   4.524 -0.9058 -3.3087  0.3351
 6137SOL    HW229871   1.160   0.596   4.579 -0.4300  0.7381  0.3727
 6138SOL     OW29872   0.737   2.602   3.582 -0.0597  0.2226 -0.4941
 6138SOL    HW129873   0.673   2.588   3.512 -0.7107 -1.3540  0.4151
 6138SOL    HW229874   0.789   2.522   3.572  0.3579  0.5307 -0.7893
 6139SOL     OW29875   0.465   1.799   4.364 -0.1150 -0.3075  0.0619
 6139SOL    HW129876   0.396   1.734   4.380  1.6686 -1.6737  2.0541
 6139SOL    HW229877   0.420   1.850   4.296 -1.7672  0.6572  1.8909
 6140SOL     OW29878   4.066   0.525   7.364 -0.6948 -0.1770 -0.4088
 6140SOL    HW129879   3.983   0.479   7.376  0.4175 -2.3900 -1.0578
 6140SOL    HW229880   4.028   0.612   7.372 -3.0072 -1.1291 -0.9506
 6141SOL     OW29881   4.086   1.010  13.800 -0.0503 -0.4791 -0.0300
 6141SOL    HW129882   4.124   1.021  13.887 -1.7173 -0.6875  0.7145
 6141SOL    HW229883   3.996   1.022  13.830 -1.4590  1.2962 -4.9724
 6142SOL     OW29884   0.885   3.392  15.638 -0.0826  0.5955 -0.7082
 6142SOL    HW129885   0.948   3.348  15.581 -1.3582 -1.0071 -0.8808
 6142SOL    HW229886   0.811   3.403  15.578 -0.5804  0.4735 -0.1152
 6143SOL     OW29887   4.148   3.365   5.218  0.4197  0.6555  0.4188
 6143SOL    HW129888   4.238   3.356   5.250  0.8556 -4.0946 -2.0855
 6143SOL    HW229889   4.156   3.304   5.145 -2.1806  0.0660  0.6240
 6144SOL     OW29890   0.418   4.196   6.759  0.3312 -0.5158 -0.2320
 6144SOL    HW129891   0.391   4.274   6.807  3.6055 -0.0736  0.9003
 6144SOL    HW229892   0.333   4.173   6.720  0.4675 -1.0266 -0.2295
 6145SOL     OW29893   4.645   3.832  15.177 -0.6041  0.2560 -0.2550
 6145SOL    HW129894   4.672   3.806  15.265  1.1377 -1.4017 -1.2752
 6145SOL    HW229895   4.668   3.924  15.167  2.2942 -0.3265  1.1441
 6146SOL     OW29896   3.868   3.511   1.265  0.3706 -0.1968 -0.3109
 6146SOL    HW129897   3.880   3.467   1.349  2.7572  1.2437  0.1051
 6146SOL    HW229898   3.936   3.579   1.268 -1.0545  1.1844  0.4981
 6147SOL     OW29899   1.053   2.207   3.654  0.3194  0.1186  0.6549
 6147SOL    HW129900   1.119   2.215   3.586 -2.0789  0.2156 -1.6490
 6147SOL    HW229901   1.054   2.114   3.680 -2.3715 -0.6873 -2.1722
 6148SOL     OW29902   2.024   4.265   6.830  0.2041  0.2320  0.0655
 6148SOL    HW129903   1.930   4.285   6.827 -0.0734 -0.7786  1.8903
 6148SOL    HW229904   2.041   4.290   6.739 -2.9912  0.3930 -0.4917
 6149SOL     OW29905   4.693   4.452  17.011  0.3365  0.1933 -0.2040
 6149SOL    HW129906   0.033   4.523  17.014 -0.0396  0.4990  0.7688
 6149SOL    HW229907   4.626   4.480  17.074  1.9810  2.1406  0.6935
 6150SOL     OW29908   2.095   3.621   9.520  0.2016 -0.1433 -0.1873
 6150SOL    HW129909   2.149   3.564   9.466 -0.4146  0.1505 -1.0957
 6150SOL    HW229910   2.132   3.707   9.501 -0.6964  0.0250 -1.1696
 6151SOL     OW29911   2.932   1.445  16.269 -0.5391  0.5093 -0.6602
 6151SOL    HW129912   2.984   1.383  16.321  0.6688  2.7532  0.7998
 6151SOL    HW229913   2.950   1.528  16.312  1.7772 -0.8781  1.0898
 6152SOL     OW29914   3.397   0.230   6.818 -0.6827  0.5484  0.2454
 6152SOL    HW129915   3.473   0.252   6.763  1.1677 -0.1439  2.5590
 6152SOL    HW229916   3.331   0.221   6.749 -0.9572 -0.8743  0.7046
 6153SOL     OW29917   1.981   0.242  17.007  0.5362  0.4419  0.1631
 6153SOL    HW129918   1.958   0.335  17.004  1.8007  0.7094 -1.8893
 6153SOL    HW229919   1.987   0.224  17.101  0.3122 -0.5850 -0.0181
 6154SOL     OW29920   3.045   4.178   4.625  0.1022  0.0246  0.2317
 6154SOL    HW129921   3.097   4.156   4.702 -0.7833  0.2588  0.9006
 6154SOL    HW229922   2.979   4.109   4.616  0.5025 -0.4726  1.0964
 6155SOL     OW29923   0.246   0.524   3.241 -0.3049 -0.0711 -0.4549
 6155SOL    HW129924   0.317   0.588   3.244  0.3064 -0.7975  0.6481
 6155SOL    HW229925   0.216   0.534   3.331 -2.0862 -1.2950 -0.9123
 6156SOL     OW29926   2.959   1.392   2.551 -0.1438 -0.3098  0.3038
 6156SOL    HW129927   2.943   1.298   2.539  0.6769 -0.2536 -1.1626
 6156SOL    HW229928   3.050   1.408   2.526 -0.1629 -0.2159  0.2944
 6157SOL     OW29929   0.858   1.014  13.025  0.2419 -0.3133 -0.5282
 6157SOL    HW129930   0.794   0.968  12.970 -0.1869  0.2256 -0.4767
 6157SOL    HW229931   0.870   1.091  12.970  0.8831 -0.1469 -0.1500
 6158SOL     OW29932   4.619   4.646   3.096 -0.6515  0.1519 -0.3082
 6158SOL    HW129933   4.681   4.706   3.055 -0.8410 -0.3049 -1.2889
 6158SOL    HW229934   4.569   4.615   3.020  0.2516 -0.1414 -0.7963
 6159SOL     OW29935   1.434   0.721   5.228 -0.1731 -0.3000  0.2785
 6159SOL    HW129936   1.404   0.638   5.190 -2.3552  0.7064 -0.2034
 6159SOL    HW229937   1.497   0.748   5.161 -0.1170  0.0290  0.4656
 6160SOL     OW29938   2.656   0.255   8.472  0.1083 -0.2565 -0.3750
 6160SOL    HW129939   2.699   0.339   8.458 -1.9481  0.7740 -0.4672
 6160SOL    HW229940   2.681   0.220   8.386 -0.4120 -0.1165 -0.5794
 6161SOL     OW29941   3.762   2.720  17.272 -0.5662 -0.3035  0.2557
 6161SOL    HW129942   3.700   2.769  17.326 -0.7076 -0.7886  0.5284
 6161SOL    HW229943   3.727   2.631  17.277 -2.3128  0.3220 -0.9242
 6162SOL     OW29944   1.546   4.646  12.783 -0.3268  0.1226 -0.5788
 6162SOL    HW129945   1.582   4.623  12.697  0.6747 -0.4107 -0.0151
 6162SOL    HW229946   1.495   0.000  12.763 -2.5498 -0.8436  1.4754
 6163SOL     OW29947   0.694   1.338   7.160  0.3135  0.0923  0.0397
 6163SOL    HW129948   0.782   1.361   7.191 -0.2710  1.2545  0.8187
 6163SOL    HW229949   0.661   1.302   7.243 -1.4184 -0.6785 -0.9848
 6164SOL     OW29950   0.629   4.724   1.897  0.0831 -0.3625 -0.6586
 6164SOL    HW129951   0.599   0.088   1.878 -0.1258 -0.3353 -0.1975
 6164SOL    HW229952   0.725   4.719   1.905  0.2552 -0.4583 -2.6804
 6165SOL     OW29953   3.835   2.847   5.261  0.5639  0.7352  0.2921
 6165SOL    HW129954   3.914   2.850   5.316  0.3062  3.0268  0.5537
 6165SOL    HW229955   3.810   2.939   5.269 -0.2676  0.6055 -0.9572
 6166SOL     OW29956   2.049   3.331  13.675 -0.0349  0.3547  0.7796
 6166SOL    HW129957   2.067   3.248  13.719 -1.0622 -0.5773 -0.5796
 6166SOL    HW229958   2.035   3.399  13.741 -2.5679 -1.0769  1.7162
 6167SOL     OW29959   4.355   1.157   0.256  0.2922 -0.4007 -0.2181
 6167SOL    HW129960   4.359   1.110   0.173  0.1245 -0.4376 -0.2045
 6167SOL    HW229961   4.354   1.241   0.211  1.8180  0.3946  1.2256
 6168SOL     OW29962   2.881   2.839   9.323 -0.3617  0.2285  0.6258
 6168SOL    HW129963   2.860   2.924   9.286  2.7358  0.2394 -1.1488
 6168SOL    HW229964   2.929   2.864   9.402  0.3668 -1.6770  0.7913
 6169SOL     OW29965   4.026   2.672   6.083 -0.0748 -0.3046  0.0130
 6169SOL    HW129966   3.977   2.706   6.158  0.6612 -0.6044  0.6380
 6169SOL    HW229967   3.978   2.590   6.072 -0.6507 -0.1255  1.1170
 6170SOL     OW29968   4.319   4.038   2.137 -0.3707  0.5672  0.1894
 6170SOL    HW129969   4.236   4.054   2.093 -0.5119 -2.4729 -0.6513
 6170SOL    HW229970   4.379   4.007   2.069  0.7241  0.6169  1.1253
 6171SOL     OW29971   0.856   1.421   6.013  0.4653 -0.5978 -0.1115
 6171SOL    HW129972   0.895   1.334   6.005  1.5136 -0.2546  1.2652
 6171SOL    HW229973   0.786   1.409   6.077  0.9697  1.2579  0.7667
 6172SOL     OW29974   2.465   2.959  13.525  0.2179 -0.0975  0.2583
 6172SOL    HW129975   2.476   2.961  13.430  2.6000 -2.8410  0.4993
 6172SOL    HW229976   2.407   3.034  13.539  0.5724 -0.1464  1.9929
 6173SOL     OW29977   1.498   0.552  16.457 -0.6628  0.5286 -0.0458
 6173SOL    HW129978   1.517   0.463  16.427  1.5588  1.0262 -0.0652
 6173SOL    HW229979   1.500   0.532  16.551 -0.7472  0.1135 -0.1321
 6174SOL     OW29980   3.159   3.314   7.173  0.3840 -0.1866  0.1724
 6174SOL    HW129981   3.091   3.313   7.105  1.2638 -0.5958 -0.7079
 6174SOL    HW229982   3.200   3.399   7.154  0.5283 -0.1056  0.8509
 6175SOL     OW29983   4.396   0.990   2.717 -0.3379  0.8719  0.4884
 6175SOL    HW129984   4.470   1.049   2.710  0.6499 -0.5041 -0.6104
 6175SOL    HW229985   4.358   1.020   2.800  0.0696  1.3868  0.4886
 6176SOL     OW29986   0.176   0.530   4.736 -0.3810 -0.5611 -0.1468
 6176SOL    HW129987   0.094   0.539   4.686 -0.4306 -1.1393 -0.1630
 6176SOL    HW229988   0.231   0.604   4.709 -0.1958 -0.8250 -0.4914
 6177SOL     OW29989   4.395   1.799   1.608  0.4593  0.8856 -0.0477
 6177SOL    HW129990   4.444   1.829   1.532  1.7604  0.5506  0.6557
 6177SOL    HW229991   4.430   1.843   1.686  1.9799  2.6257 -1.7044
 6178SOL     OW29992   3.907   3.745   7.834 -0.3048 -0.1744 -0.3100
 6178SOL    HW129993   3.984   3.718   7.785 -0.4249  0.8430 -1.0583
 6178SOL    HW229994   3.948   3.811   7.890 -1.5546  0.7562 -0.5003
 6179SOL     OW29995   0.237   2.896   1.240  0.1634 -0.0499 -0.2584
 6179SOL    HW129996   0.318   2.871   1.196  1.3015 -1.0318  2.4212
 6179SOL    HW229997   0.280   2.963   1.293  1.9924 -1.4249 -0.0108
 6180SOL     OW29998   1.146   3.023  11.011  0.5826  0.1084  0.0593
 6180SOL    HW129999   1.155   3.117  11.000 -0.2845  0.1888  0.0363
 6180SOL    HW230000   1.053   3.018  11.034  0.1777  1.3726 -1.3436
 6181SOL     OW30001   4.142   1.050   0.482  0.1739  0.5519 -0.2610
 6181SOL    HW130002   4.235   1.028   0.487 -0.3424 -2.0749 -2.1028
 6181SOL    HW230003   4.133   1.121   0.545 -2.2400  1.1693 -1.3168
 6182SOL     OW30004   4.491   2.790  15.261 -0.5737  0.2075 -0.3105
 6182SOL    HW130005   4.470   2.709  15.307 -1.0696  0.1582 -0.6298
 6182SOL    HW230006   4.411   2.840  15.275 -0.1423  1.3704 -1.8972
 6183SOL     OW30007   4.214   3.089   7.911 -0.0238  0.2017  0.0625
 6183SOL    HW130008   4.210   3.184   7.921 -2.7825  0.0528  0.3406
 6183SOL    HW230009   4.248   3.082   8.000 -1.3087 -1.4462  0.4322
 6184SOL     OW30010   1.452   2.078  17.656  0.4964 -0.0563 -0.4528
 6184SOL    HW130011   1.370   2.114  17.623 -0.7589 -1.2679  1.3931
 6184SOL    HW230012   1.428   2.044   0.043 -0.6502  0.3920 -0.5955
 6185SOL     OW30013   2.913   3.429   4.468 -0.2971  0.0355 -0.2374
 6185SOL    HW130014   2.964   3.466   4.395  2.3882  0.1359  1.6942
 6185SOL    HW230015   2.971   3.363   4.506  0.2942  1.3871  1.2380
 6186SOL     OW30016   1.080   3.408   8.319 -0.5208 -0.3872  0.0818
 6186SOL    HW130017   1.019   3.375   8.254 -2.0504 -0.0755  1.3529
 6186SOL    HW230018   1.139   3.463   8.267 -1.0156  1.2979  1.3127
 6187SOL     OW30019   1.262   4.584   8.317 -0.3739  0.4489 -0.1293
 6187SOL    HW130020   1.201   4.620   8.253  1.1095 -0.8039 -2.2191
 6187SOL    HW230021   1.210   4.506   8.338 -0.8993  1.0182  0.6968
 6188SOL     OW30022   4.185   2.253   4.540 -0.0183 -0.1125  0.9262
 6188SOL    HW130023   4.219   2.342   4.553 -0.1648  0.2181 -0.8966
 6188SOL    HW230024   4.091   2.272   4.537  0.2039  1.0869  1.4541
 6189SOL     OW30025   2.432   0.016   7.109 -0.5174 -0.5097  0.3938
 6189SOL    HW130026   2.353   4.718   7.061  1.1851 -2.1209 -1.6527
 6189SOL    HW230027   2.496   0.022   7.038  1.4652 -0.8668  2.1477
 6190SOL     OW30028   0.777   4.302   8.758 -0.1753 -0.0280  0.2906
 6190SOL    HW130029   0.738   4.362   8.695  1.1436  2.2943  1.6875
 6190SOL    HW230030   0.702   4.265   8.805 -0.1034 -0.3333  0.1621
 6191SOL     OW30031   4.070   0.016   1.221 -0.2099  0.2859  0.0437
 6191SOL    HW130032   4.156   0.037   1.257  0.6305 -0.0730 -1.7630
 6191SOL    HW230033   4.047   4.672   1.284 -0.5276  0.7196  0.4015
 6192SOL     OW30034   3.807   0.767   9.399  0.1791 -0.7051  0.5754
 6192SOL    HW130035   3.898   0.797   9.396  0.8703 -2.8194  0.9891
 6192SOL    HW230036   3.807   0.707   9.473 -0.1355 -1.5544 -0.1149
 6193SOL     OW30037   1.290   1.468  14.315  0.0821 -0.0686 -0.5323
 6193SOL    HW130038   1.364   1.471  14.254  1.1583  0.7681  0.8180
 6193SOL    HW230039   1.319   1.537  14.374  0.2073  1.1282 -1.9804
 6194SOL     OW30040   3.903   1.379   7.015  0.3263 -0.3139 -0.2044
 6194SOL    HW130041   3.936   1.469   7.015  0.4784 -0.3711  1.6108
 6194SOL    HW230042   3.814   1.395   7.046  0.9537 -2.1859  2.6060
 6195SOL     OW30043   0.426   3.233   3.981 -0.0886 -0.6301 -0.4930
 6195SOL    HW130044   0.511   3.253   4.020 -0.9301  0.1333  0.9428
 6195SOL    HW230045   0.423   3.142   4.011 -1.2624  0.2769  2.1515
 6196SOL     OW30046   0.322   3.192   8.280  0.0713  0.6457 -0.5863
 6196SOL    HW130047   0.348   3.239   8.359 -1.3814  2.2282 -1.0682
 6196SOL    HW230048   0.228   3.206   8.280  0.0069  0.1575  1.6405
 6197SOL     OW30049   3.193   0.788   9.786  0.5052  0.1413  0.2080
 6197SOL    HW130050   3.230   0.765   9.871 -0.0058  3.1263  1.2567
 6197SOL    HW230051   3.241   0.731   9.726  0.7934  1.5410 -0.8915
 6198SOL     OW30052   2.634   1.168   5.010  0.1256 -0.5100 -0.1805
 6198SOL    HW130053   2.548   1.201   4.985  0.1966 -0.4460 -0.3451
 6198SOL    HW230054   2.685   1.189   4.931  0.8309 -2.1039 -0.1585
 6199SOL     OW30055   2.386   1.640   7.603  0.3244  0.0015 -0.3496
 6199SOL    HW130056   2.403   1.549   7.627  2.7419  1.0742  2.0705
 6199SOL    HW230057   2.437   1.643   7.522  1.2286  1.1013  0.2454
 6200SOL     OW30058   1.762   2.526   1.979  0.0686  0.4731  0.1371
 6200SOL    HW130059   1.765   2.534   2.074 -0.0691 -2.1335  0.3669
 6200SOL    HW230060   1.733   2.612   1.947  2.4803  1.0036 -0.6171
 6201SOL     OW30061   0.827   4.296  13.086  0.5138  0.0671 -0.0713
 6201SOL    HW130062   0.846   4.284  12.993 -1.0034 -0.1269 -0.3686
 6201SOL    HW230063   0.762   4.228  13.105 -0.9945  1.6096  0.3011
 6202SOL     OW30064   4.514   1.958   3.912  0.6801  0.2778  0.1834
 6202SOL    HW130065   4.598   1.937   3.870  0.6254 -1.5082  1.0051
 6202SOL    HW230066   4.502   1.898   3.985 -2.9278  1.5439  0.6457
 6203SOL     OW30067   0.919   2.204   2.761 -0.3985  0.0118  0.3686
 6203SOL    HW130068   0.874   2.162   2.688  1.6930 -0.4234 -0.6793
 6203SOL    HW230069   1.007   2.212   2.725 -1.6630  0.7795 -2.5172
 6204SOL     OW30070   2.607   3.404  11.840  0.7806  0.2027  0.3271
 6204SOL    HW130071   2.535   3.354  11.801 -0.7294  2.6869 -0.0405
 6204SOL    HW230072   2.571   3.424  11.926 -0.0294 -0.7953  0.2248
 6205SOL     OW30073   2.924   3.970   2.183 -0.1047 -0.4328 -0.5574
 6205SOL    HW130074   3.020   3.969   2.180 -0.1256  0.4687 -1.8081
 6205SOL    HW230075   2.901   4.050   2.136  0.9901  0.2101  0.0117
 6206SOL     OW30076   1.127   0.950   2.679  0.5308  0.9828 -0.1748
 6206SOL    HW130077   1.220   0.961   2.659  0.7006 -1.2425 -0.6564
 6206SOL    HW230078   1.092   1.024   2.727 -2.1134 -0.8940  0.7423
 6207SOL     OW30079   1.532   0.920  14.590  0.6193  0.3542  0.6213
 6207SOL    HW130080   1.529   0.975  14.512  1.5202 -0.4953 -0.0140
 6207SOL    HW230081   1.575   0.969  14.660 -0.2578  0.8474  0.8170
 6208SOL     OW30082   4.220   0.132   8.318  0.0055 -0.0833 -0.8940
 6208SOL    HW130083   4.184   0.043   8.325  1.2043 -0.3331  1.9175
 6208SOL    HW230084   4.209   0.167   8.406  0.0382 -0.6138 -0.6802
 6209SOL     OW30085   3.263   2.455  14.086 -0.0601 -0.0783  0.1383
 6209SOL    HW130086   3.299   2.510  14.156 -1.2832 -0.9482  1.4667
 6209SOL    HW230087   3.270   2.510  14.009  1.9354  0.3341  0.6159
 6210SOL     OW30088   0.712   1.558   2.631 -0.1183 -0.5457  0.0101
 6210SOL    HW130089   0.742   1.648   2.645  1.4432 -0.7269 -2.1873
 6210SOL    HW230090   0.793   1.507   2.634 -0.1990 -0.6937 -0.3221
 6211SOL     OW30091   4.421   0.954  13.832  0.6431  0.1665 -0.1441
 6211SOL    HW130092   4.399   1.027  13.889 -3.0738 -1.3642  0.3649
 6211SOL    HW230093   4.470   0.893  13.888  1.7205  0.5898 -0.6284
 6212SOL     OW30094   3.713   1.619   2.724 -0.8321 -0.1131  0.0998
 6212SOL    HW130095   3.675   1.532   2.712 -1.5822  0.2335 -0.0583
 6212SOL    HW230096   3.796   1.623   2.677 -1.2074  1.0997 -0.4692
 6213SOL     OW30097   2.098   3.224   8.977  0.9636 -0.3671  0.4089
 6213SOL    HW130098   2.127   3.250   8.890  0.5920  1.0347  0.7123
 6213SOL    HW230099   2.174   3.255   9.027  0.0357  0.1318  1.5031
 6214SOL     OW30100   3.359   2.578   9.361 -0.0502  0.0299 -0.0846
 6214SOL    HW130101   3.311   2.496   9.355 -0.1778  0.1814 -1.1628
 6214SOL    HW230102   3.368   2.584   9.456  0.6111 -0.9928 -0.0755
 6215SOL     OW30103   0.049   0.314   5.366 -0.0725 -0.4347  0.0014
 6215SOL    HW130104   0.109   0.332   5.438 -0.3451 -0.3738  0.2111
 6215SOL    HW230105   0.034   0.401   5.329  0.0251 -1.9613 -3.6052
 6216SOL     OW30106   4.306   3.559   8.307 -0.5406 -0.3738 -0.5231
 6216SOL    HW130107   4.250   3.488   8.274 -0.2394  0.3530 -2.6205
 6216SOL    HW230108   4.239   3.607   8.356  1.7259  2.7755 -0.5050
 6217SOL     OW30109   2.529   2.449  10.068 -0.0425 -0.1665  0.6739
 6217SOL    HW130110   2.607   2.484  10.110 -0.0085 -0.7731  1.1245
 6217SOL    HW230111   2.549   2.431   9.976 -0.0167  0.7727  0.5016
 6218SOL     OW30112   1.247   1.678  17.095 -0.4334  0.2941  0.0587
 6218SOL    HW130113   1.317   1.743  17.100 -0.1580 -0.2394  3.0335
 6218SOL    HW230114   1.306   1.623  17.043 -0.1515  0.1593  0.5193
 6219SOL     OW30115   2.762   1.283   7.200 -0.0184  0.2985  1.1710
 6219SOL    HW130116   2.834   1.312   7.256 -0.4406  0.3881  1.6702
 6219SOL    HW230117   2.806   1.219   7.144 -0.4621  1.2872 -0.3138
 6220SOL     OW30118   0.372   3.770   2.692  0.3351  0.0613 -0.1976
 6220SOL    HW130119   0.302   3.705   2.700  1.8274 -1.4184  1.0693
 6220SOL    HW230120   0.374   3.775   2.597 -0.3840  0.4671 -0.1900
 6221SOL     OW30121   2.760   1.996   7.336  0.6012  0.1574  0.3896
 6221SOL    HW130122   2.729   2.031   7.253 -1.4391 -1.5454  0.4147
 6221SOL    HW230123   2.816   2.069   7.362  1.4862 -0.8707  1.3615
 6222SOL     OW30124   4.479   1.790   8.346 -0.3081 -0.6583  0.2081
 6222SOL    HW130125   4.394   1.748   8.336  0.9474 -2.7321 -1.5632
 6222SOL    HW230126   4.484   1.786   8.441  1.6776  0.9597  0.1895
 6223SOL     OW30127   0.385   3.665  12.215  0.7847  0.2091 -0.2508
 6223SOL    HW130128   0.476   3.693  12.206  0.3333  2.0759  1.1566
 6223SOL    HW230129   0.365   3.681  12.307  2.9732 -1.1999  0.4540
 6224SOL     OW30130   0.129   0.385   8.858  0.6352  0.2946 -0.1101
 6224SOL    HW130131   0.140   0.331   8.780 -2.1727 -1.7258  0.8773
 6224SOL    HW230132   0.116   0.319   8.926 -1.2153 -0.3837 -1.0985
 6225SOL     OW30133   4.710   4.609  10.697  0.1042  0.4055  0.2222
 6225SOL    HW130134   4.706   4.517  10.674 -1.8659  0.3833  0.6213
 6225SOL    HW230135   4.668   4.610  10.783  0.7729  1.1716  0.5382
 6226SOL     OW30136   0.546   1.709  10.048  0.2514 -0.0179 -0.8963
 6226SOL    HW130137   0.591   1.775  10.100  2.3190 -3.1004  1.2807
 6226SOL    HW230138   0.454   1.709  10.073  0.0998  0.8209 -1.4498
 6227SOL     OW30139   2.403   0.356   6.827 -0.3120 -0.3505 -0.4876
 6227SOL    HW130140   2.325   0.392   6.868 -0.2793 -0.8594  0.0257
 6227SOL    HW230141   2.366   0.268   6.819  0.9640 -1.1693  2.9010
 6228SOL     OW30142   1.873   3.084   9.013  0.2873 -0.1423 -0.1260
 6228SOL    HW130143   1.950   3.138   9.000  1.5729 -1.9093  0.0856
 6228SOL    HW230144   1.870   3.072   9.108 -0.0204 -0.7030 -0.2049
 6229SOL     OW30145   0.751   0.035   9.435 -0.1583  0.0428  0.9468
 6229SOL    HW130146   0.721   4.679   9.392  0.4574  0.3894 -0.1235
 6229SOL    HW230147   0.747   0.090   9.357 -1.6338  2.2757  2.5754
 6230SOL     OW30148   0.811   0.822  13.238  0.1810 -0.1336  0.4079
 6230SOL    HW130149   0.851   0.880  13.173 -1.9286  2.3898  1.3684
 6230SOL    HW230150   0.731   0.787  13.197  1.0068 -0.8890 -0.5736
 6231SOL     OW30151   0.318   4.561  11.163 -0.4349 -0.1679 -0.2036
 6231SOL    HW130152   0.289   4.517  11.083  2.4133  1.7835 -2.3022
 6231SOL    HW230153   0.232   4.575  11.202  0.4125  2.6529  0.6149
 6232SOL     OW30154   3.136   2.423   2.367 -0.1854 -0.0256 -0.1036
 6232SOL    HW130155   3.114   2.345   2.317  0.7660  0.0798 -0.6957
 6232SOL    HW230156   3.197   2.464   2.305  1.0356 -1.4941  0.1151
 6233SOL     OW30157   3.765   2.001   4.727 -0.3203 -0.0649  0.1455
 6233SOL    HW130158   3.768   2.065   4.798 -1.9027 -0.3906  0.4920
 6233SOL    HW230159   3.853   2.018   4.692 -0.9803  2.3951 -0.3003
 6234SOL     OW30160   0.074   4.641  11.265 -0.0201 -0.3316 -0.1592
 6234SOL    HW130161   0.089   0.010  11.249  2.5720 -1.0172 -1.7207
 6234SOL    HW230162   4.704   4.631  11.280  0.2559 -0.3524  1.4673
 6235SOL     OW30163   3.307   2.037   3.633 -0.3006  0.8565 -0.3628
 6235SOL    HW130164   3.341   2.123   3.660 -0.5014  0.5529  0.8617
 6235SOL    HW230165   3.364   2.013   3.560  1.3268  2.6406  0.3117
 6236SOL     OW30166   0.957   0.289   1.084  0.1638 -0.2682  0.5564
 6236SOL    HW130167   1.022   0.350   1.051 -1.4945 -0.3518 -2.8796
 6236SOL    HW230168   0.987   0.211   1.036 -0.2588 -1.4054  2.1493
 6237SOL     OW30169   3.773   0.192  10.604  0.2246 -0.0373  0.2357
 6237SOL    HW130170   3.702   0.221  10.662 -1.9174 -0.9421 -1.9133
 6237SOL    HW230171   3.749   0.243  10.527 -0.1286  1.8562  1.6055
 6238SOL     OW30172   0.376   3.781   3.473  0.1759  0.2707  0.7746
 6238SOL    HW130173   0.404   3.709   3.529 -0.0633  0.8511  1.6256
 6238SOL    HW230174   0.298   3.813   3.518  0.3951  2.1060 -0.1393
 6239SOL     OW30175   3.915   4.045  15.513 -0.0955  0.2739 -0.2137
 6239SOL    HW130176   3.859   4.097  15.455 -0.5137  0.9829  0.8405
 6239SOL    HW230177   3.896   3.961  15.470  0.0479 -0.4540  1.1389
 6240SOL     OW30178   2.190   3.083   5.235 -0.5934 -0.1033 -0.6047
 6240SOL    HW130179   2.161   3.174   5.244  1.0716  0.0720  2.8894
 6240SOL    HW230180   2.110   3.043   5.202  0.1472 -1.8573 -0.2386
 6241SOL     OW30181   2.803   3.408   2.961 -0.1618 -0.0052 -0.0509
 6241SOL    HW130182   2.711   3.412   2.935 -0.6822  0.3286  1.8745
 6241SOL    HW230183   2.850   3.435   2.882  1.9558  0.5264  1.4145
 6242SOL     OW30184   3.943   2.059   8.217 -0.1685 -0.1306  0.4046
 6242SOL    HW130185   3.869   2.066   8.277 -1.0437 -1.3580 -0.5376
 6242SOL    HW230186   3.894   2.064   8.136  1.7412 -1.2958 -0.8253
 6243SOL     OW30187   0.449   4.163   8.192  0.1992 -0.1937  0.0495
 6243SOL    HW130188   0.382   4.100   8.218  0.9124  0.1435  2.7117
 6243SOL    HW230189   0.525   4.110   8.167  0.3055  2.0698 -4.3539
 6244SOL     OW30190   0.078   2.418  16.130 -0.1344 -0.3360 -0.0719
 6244SOL    HW130191   0.117   2.380  16.209 -0.6417  1.2169  0.9245
 6244SOL    HW230192   0.157   2.433  16.079 -0.5121 -0.3571 -0.6686
 6245SOL     OW30193   0.854   2.884   4.281 -0.0576  0.1152  0.3061
 6245SOL    HW130194   0.766   2.889   4.318 -0.0917  0.4726  0.1824
 6245SOL    HW230195   0.892   2.950   4.339 -1.4516  1.1338  0.0609
 6246SOL     OW30196   2.767   3.958   3.953  0.3944  0.1040 -0.0888
 6246SOL    HW130197   2.773   3.937   3.860  0.1901 -0.6420  0.0675
 6246SOL    HW230198   2.844   4.012   3.967 -0.8249  1.2862  2.1912
 6247SOL     OW30199   0.593   2.656   6.010  0.5230 -0.0193  0.8007
 6247SOL    HW130200   0.605   2.568   5.975 -1.2923 -0.4153  1.1619
 6247SOL    HW230201   0.632   2.719   5.950 -3.1581  1.5631  0.0629
 6248SOL     OW30202   4.653   0.466  14.751 -0.8519 -0.3856  0.5038
 6248SOL    HW130203   4.652   0.447  14.844  0.1685 -0.2561  0.5463
 6248SOL    HW230204   4.559   0.477  14.737 -0.8749  0.5794  1.4072
 6249SOL     OW30205   3.913   0.535  10.031 -0.9203  0.0730  0.1835
 6249SOL    HW130206   3.869   0.486  10.101 -0.3120 -0.6754  0.0391
 6249SOL    HW230207   3.886   0.484   9.955  2.2024 -1.4318  0.0869
 6250SOL     OW30208   1.321   1.907   7.566  0.1127  0.0966 -0.5778
 6250SOL    HW130209   1.360   1.819   7.569  2.2635  1.1336  1.6027
 6250SOL    HW230210   1.285   1.915   7.478  1.0735 -1.3744 -1.1181
 6251SOL     OW30211   3.106   1.200   4.245  0.5106  0.7458 -0.0328
 6251SOL    HW130212   3.082   1.139   4.174 -0.3697 -1.1163  1.8756
 6251SOL    HW230213   3.112   1.275   4.186  1.3597  0.5679 -0.1724
 6252SOL     OW30214   3.387   1.469   0.791 -0.8542 -0.2564 -1.0295
 6252SOL    HW130215   3.394   1.563   0.774 -0.6902 -0.4109 -1.8239
 6252SOL    HW230216   3.337   1.467   0.872  0.5559  2.2721 -0.0802
 6253SOL     OW30217   1.102   0.148   1.795 -0.5694 -0.3276  0.2320
 6253SOL    HW130218   1.066   0.127   1.882  0.7449 -1.1782  0.5742
 6253SOL    HW230219   1.195   0.129   1.805 -0.1786  1.4117 -0.1732
 6254SOL     OW30220   1.478   3.478   5.215 -0.7484  0.2812 -0.2151
 6254SOL    HW130221   1.519   3.512   5.136  1.3529 -1.4215  0.1533
 6254SOL    HW230222   1.388   3.509   5.201 -1.9377 -2.9298  0.1611
 6255SOL     OW30223   0.253   2.032   2.749  0.1984  0.2200  0.3032
 6255SOL    HW130224   0.251   1.958   2.689 -1.1813 -0.1079  0.7407
 6255SOL    HW230225   0.182   2.080   2.706 -0.2454  0.4253  1.2561
 6256SOL     OW30226   0.282   0.656   0.043  0.0595 -0.3414 -0.4305
 6256SOL    HW130227   0.360   0.710   0.054 -0.2353 -0.6876  3.2607
 6256SOL    HW230228   0.329   0.584   0.001  0.1399 -0.8350  0.5135
 6257SOL     OW30229   0.575   0.148   7.091  0.3409 -0.4160  0.0194
 6257SOL    HW130230   0.539   0.226   7.135  1.0377 -0.9756  1.5602
 6257SOL    HW230231   0.504   0.133   7.028 -1.3494  2.4082  1.2324
 6258SOL     OW30232   2.716   2.521   2.425  0.2790 -0.5099  0.2017
 6258SOL    HW130233   2.625   2.500   2.403  0.2771  0.3216 -0.5499
 6258SOL    HW230234   2.742   2.585   2.359  0.6458 -0.7930  0.0746
 6259SOL     OW30235   1.292   0.649   7.132  0.3924  0.0635  0.2784
 6259SOL    HW130236   1.370   0.673   7.183  0.2044  0.0264  0.5881
 6259SOL    HW230237   1.290   0.557   7.158  1.1677 -0.2324 -0.7223
 6260SOL     OW30238   0.884   4.646   1.962  0.1490 -0.1223  0.6158
 6260SOL    HW130239   0.971   4.654   2.001  2.4781 -2.6154 -4.1562
 6260SOL    HW230240   0.893   4.562   1.916 -0.2355  0.8746 -1.2954
 6261SOL     OW30241   3.407   1.222   3.924  0.0691  0.0081  0.5305
 6261SOL    HW130242   3.314   1.240   3.940  0.5444  1.4484  1.5996
 6261SOL    HW230243   3.429   1.297   3.868 -1.9503 -1.8414 -2.7743
 6262SOL     OW30244   0.733   2.473   5.102  0.1711  1.0599 -0.5543
 6262SOL    HW130245   0.759   2.386   5.073 -1.6813  0.0075  0.9496
 6262SOL    HW230246   0.794   2.490   5.174 -0.2032  1.8729 -0.4254
 6263SOL     OW30247   0.735   1.304  17.181 -0.2217  0.0220  0.1742
 6263SOL    HW130248   0.806   1.248  17.147 -1.6946 -1.5117 -0.3692
 6263SOL    HW230249   0.787   1.367  17.230 -1.0924  1.0883 -0.2929
 6264SOL     OW30250   3.636   4.213  11.112  0.2628 -0.3021  0.6187
 6264SOL    HW130251   3.564   4.275  11.118  0.8849  0.5084 -0.2983
 6264SOL    HW230252   3.690   4.235  11.187  1.2390 -1.3719  0.2479
 6265SOL     OW30253   3.416   2.721  17.122  0.7117 -0.1098 -0.2708
 6265SOL    HW130254   3.392   2.808  17.088  1.0036  0.2021  0.3351
 6265SOL    HW230255   3.415   2.743  17.215  1.1647 -0.7492 -0.1221
 6266SOL     OW30256   3.871   1.301   2.472  0.1165 -0.0275  0.3968
 6266SOL    HW130257   3.928   1.318   2.547 -1.0992 -0.2299  1.3669
 6266SOL    HW230258   3.853   1.393   2.451  0.0464 -0.5711 -1.9348
 6267SOL     OW30259   1.686   1.108   0.750  0.5044  0.3335 -0.5558
 6267SOL    HW130260   1.660   1.043   0.684  0.5392 -0.4479  0.1952
 6267SOL    HW230261   1.605   1.159   0.757  1.1396  1.2567 -0.1403
 6268SOL     OW30262   0.166   0.645   6.536  0.0092  0.5430 -0.3881
 6268SOL    HW130263   0.097   0.591   6.498  0.2768  0.5295 -0.8521
 6268SOL    HW230264   0.128   0.732   6.552  1.8391  1.6138 -1.9365
 6269SOL     OW30265   3.368   1.631   9.211  0.2586  0.0170  0.4817
 6269SOL    HW130266   3.446   1.581   9.189 -0.1254 -0.2603 -0.2444
 6269SOL    HW230267   3.379   1.697   9.143  1.1475 -0.5756  0.0523
 6270SOL     OW30268   3.079   1.583   7.584 -0.2019 -0.6077  0.1504
 6270SOL    HW130269   3.037   1.517   7.639  0.3917 -1.2282 -0.1477
 6270SOL    HW230270   3.172   1.569   7.601 -0.4154  0.4678  2.2038
 6271SOL     OW30271   0.219   1.788   6.581  0.0883  0.3070 -0.0512
 6271SOL    HW130272   0.224   1.717   6.645  0.5686  1.2819  0.9954
 6271SOL    HW230273   0.224   1.868   6.633  1.1269  1.2130 -1.5665
 6272SOL     OW30274   0.805   2.954   8.553  0.0903  0.0543 -0.9770
 6272SOL    HW130275   0.777   2.917   8.470  1.1827 -1.5102 -0.6374
 6272SOL    HW230276   0.727   3.006   8.574  1.2644  1.0511  0.9527
 6273SOL     OW30277   3.086   3.696  17.320  0.7556 -0.1716 -0.1258
 6273SOL    HW130278   3.048   3.719  17.236  2.1494  0.4740 -0.5826
 6273SOL    HW230279   3.176   3.728  17.313  0.5314  0.6276  0.6308
 6274SOL     OW30280   2.870   4.010  13.081  0.1914 -0.3597 -0.3185
 6274SOL    HW130281   2.829   4.063  13.150 -0.9507 -1.3467 -0.2290
 6274SOL    HW230282   2.797   3.994  13.021 -0.3283 -0.5429  0.3614
 6275SOL     OW30283   1.545   3.996   8.089 -0.7423 -0.9833  0.5927
 6275SOL    HW130284   1.513   4.028   8.174 -1.4760  1.8466 -0.7583
 6275SOL    HW230285   1.467   4.001   8.034  0.6924 -0.6976 -1.4151
 6276SOL     OW30286   4.718   3.985  10.468  0.4296 -0.3961  0.1342
 6276SOL    HW130287   4.665   4.009  10.544 -1.8796 -1.4112 -1.1597
 6276SOL    HW230288   4.657   3.933  10.416 -1.1110  1.8659 -0.3165
 6277SOL     OW30289   4.183   3.232   2.469  0.0339  0.0230  0.4479
 6277SOL    HW130290   4.207   3.173   2.541  0.1937 -0.9042 -0.3661
 6277SOL    HW230291   4.196   3.317   2.510  0.5657  0.7899 -1.3518
 6278SOL     OW30292   4.598   3.251   6.896 -0.1921 -0.0546  0.6527
 6278SOL    HW130293   4.689   3.235   6.871 -0.1572 -0.7217  1.2158
 6278SOL    HW230294   4.585   3.341   6.865 -1.3034 -0.6192 -0.5405
 6279SOL     OW30295   3.247   4.218  13.222 -0.0248 -0.1791 -0.0915
 6279SOL    HW130296   3.269   4.304  13.258 -2.1774  0.3596 -0.0969
 6279SOL    HW230297   3.228   4.237  13.130  2.1106  1.8348 -0.1148
 6280SOL     OW30298   4.020   2.419   7.669 -0.4183  0.1051  0.1552
 6280SOL    HW130299   4.063   2.455   7.591  1.6582  0.6162  1.5362
 6280SOL    HW230300   4.032   2.500   7.719 -2.6974  0.4173  0.1845
 6281SOL     OW30301   3.693   2.831   1.104 -0.3042  0.2454 -0.7307
 6281SOL    HW130302   3.692   2.784   1.021 -1.5659  0.2613 -0.7284
 6281SOL    HW230303   3.616   2.791   1.144  0.7091 -0.6821  0.3028
 6282SOL     OW30304   1.251   3.107   7.488  0.2068 -0.1739  0.3936
 6282SOL    HW130305   1.345   3.119   7.476  0.2568 -1.5381 -0.5366
 6282SOL    HW230306   1.245   3.016   7.519  1.9432 -0.9701 -1.5645
 6283SOL     OW30307   3.365   2.997   0.875  0.0978 -0.0409 -0.4327
 6283SOL    HW130308   3.415   3.073   0.905 -0.6449  0.5055 -0.5861
 6283SOL    HW230309   3.350   3.007   0.781 -1.0212 -1.6435 -0.4142
 6284SOL     OW30310   2.091   2.595  11.291 -0.0109  0.0396  0.0808
 6284SOL    HW130311   2.037   2.673  11.285  0.4771  0.1923 -2.3104
 6284SOL    HW230312   2.103   2.582  11.385 -1.1718  0.1128  0.2399
 6285SOL     OW30313   1.986   1.387   1.130 -0.2055 -0.0657 -0.2877
 6285SOL    HW130314   1.934   1.451   1.082  1.9357  1.8602 -0.0851
 6285SOL    HW230315   1.975   1.317   1.065 -0.3404 -0.8048  0.5326
 6286SOL     OW30316   3.212   1.882   7.994 -0.0796 -0.2963  0.2996
 6286SOL    HW130317   3.165   1.842   7.921  1.6182 -1.9734  0.1284
 6286SOL    HW230318   3.160   1.849   8.067 -1.6351  0.4148 -0.4894
 6287SOL     OW30319   3.843   2.373   5.847 -0.2819  0.1679 -0.5642
 6287SOL    HW130320   3.757   2.412   5.863 -0.9405 -1.1241 -0.9122
 6287SOL    HW230321   3.891   2.407   5.922  0.6912  1.6701 -1.8762
 6288SOL     OW30322   0.856   3.668   5.881 -0.3655  0.2685 -0.1154
 6288SOL    HW130323   0.868   3.580   5.846  1.3701  0.2396  0.5644
 6288SOL    HW230324   0.896   3.660   5.967 -0.3767  2.9946  0.1494
 6289SOL     OW30325   1.376   3.177  13.270 -0.3460  0.5810 -0.2402
 6289SOL    HW130326   1.429   3.169  13.191 -0.3701 -3.1677  0.1079
 6289SOL    HW230327   1.296   3.137  13.235  1.0408 -1.7277 -0.7782
 6290SOL     OW30328   2.638   3.436   4.526 -0.0064 -0.1459  0.6828
 6290SOL    HW130329   2.715   3.428   4.470 -0.4917  1.3631 -0.2018
 6290SOL    HW230330   2.662   3.508   4.584  0.1433  0.1896  0.1979
 6291SOL     OW30331   4.158   1.215   3.117 -0.0047  0.1192 -0.0228
 6291SOL    HW130332   4.138   1.283   3.182  0.1468 -0.0442  0.1944
 6291SOL    HW230333   4.122   1.136   3.159 -0.6396  1.5965  2.2052
 6292SOL     OW30334   0.586   4.075   2.593 -0.4923 -0.0484 -0.4469
 6292SOL    HW130335   0.497   4.051   2.619 -0.6957  1.3322  0.1371
 6292SOL    HW230336   0.602   4.015   2.521  1.1360  0.2857 -0.3554
 6293SOL     OW30337   2.608   0.167   4.870 -0.8394  0.2206  0.3885
 6293SOL    HW130338   2.550   0.092   4.880  1.6244 -1.7845 -0.3875
 6293SOL    HW230339   2.653   0.134   4.792  2.5877  0.1439  2.4138
 6294SOL     OW30340   1.007   3.040   5.223  0.6490  0.7102  0.0727
 6294SOL    HW130341   0.975   2.950   5.209 -1.2244  1.5622 -1.1888
 6294SOL    HW230342   1.053   3.058   5.141 -1.5594 -0.2729 -1.4133
 6295SOL     OW30343   3.532   2.799   5.860  0.5046 -0.6629  0.4261
 6295SOL    HW130344   3.626   2.791   5.871  0.9719  0.5760 -2.4619
 6295SOL    HW230345   3.533   2.861   5.786  0.8319  0.3448  1.2764
 6296SOL     OW30346   4.229   1.394  17.471  0.5402  0.0722  0.7073
 6296SOL    HW130347   4.303   1.433  17.517  1.8929 -0.7373 -0.7832
 6296SOL    HW230348   4.254   1.413  17.380 -1.9958  1.8848  0.4002
 6297SOL     OW30349   0.941   4.302   9.226  0.5164 -0.0337  0.4396
 6297SOL    HW130350   1.017   4.246   9.245  0.6743  0.7009  2.0009
 6297SOL    HW230351   0.967   4.367   9.160 -0.8325 -1.3191 -1.3600
 6298SOL     OW30352   4.115   1.334   3.380  0.0739  0.4476 -0.0614
 6298SOL    HW130353   4.123   1.425   3.407 -2.8077  0.3616  1.0258
 6298SOL    HW230354   4.026   1.329   3.345 -0.9437 -0.1434  2.6467
 6299SOL     OW30355   0.248   2.193  11.283 -0.0489  0.0425  0.0072
 6299SOL    HW130356   0.202   2.176  11.201 -2.7560 -0.8471  1.7145
 6299SOL    HW230357   0.285   2.105  11.283 -0.0604  0.0444 -0.9181
 6300SOL     OW30358   2.282   1.399   3.882 -0.2205 -0.1324 -0.3854
 6300SOL    HW130359   2.247   1.354   3.959  1.4823  0.5156  0.7683
 6300SOL    HW230360   2.197   1.413   3.840 -0.0930 -2.6228 -1.4379
 6301SOL     OW30361   2.081   3.096   5.545  0.3894 -0.2920  0.0258
 6301SOL    HW130362   2.036   3.115   5.463 -0.2203 -0.0604  0.4181
 6301SOL    HW230363   2.169   3.131   5.528 -0.2710  1.6975  0.6846
 6302SOL     OW30364   1.524   2.788   9.077  0.7808 -0.1351  0.7745
 6302SOL    HW130365   1.599   2.836   9.112  1.9572  0.6558 -2.8385
 6302SOL    HW230366   1.465   2.856   9.045  1.8109  0.9247  1.1283
 6303SOL     OW30367   3.895   1.665   8.060  0.2324  0.2622 -0.1507
 6303SOL    HW130368   3.804   1.638   8.073  0.8478 -1.9756 -0.5802
 6303SOL    HW230369   3.940   1.593   8.104 -1.5344 -2.3643 -2.6550
 6304SOL     OW30370   0.739   1.102   8.441  0.0130  0.0157  0.3566
 6304SOL    HW130371   0.727   1.197   8.452  2.0064  0.3019 -0.0203
 6304SOL    HW230372   0.828   1.097   8.474  0.5051  1.4438 -0.7309
 6305SOL     OW30373   0.355   0.237   0.296 -0.1452 -0.4510  0.5875
 6305SOL    HW130374   0.373   0.256   0.203  1.5749  1.2501  1.2536
 6305SOL    HW230375   0.437   0.191   0.315 -0.8851 -1.4159  1.4437
 6306SOL     OW30376   2.232   2.200   4.992 -0.1635 -0.0243 -0.7626
 6306SOL    HW130377   2.210   2.266   4.926 -1.1425 -0.1530 -0.5711
 6306SOL    HW230378   2.323   2.217   5.017 -0.0885 -0.5073 -0.7036
 6307SOL     OW30379   1.499   1.253   4.134 -0.3102 -0.0318  0.0691
 6307SOL    HW130380   1.466   1.242   4.044 -1.4417 -0.6893  0.5734
 6307SOL    HW230381   1.447   1.188   4.181 -1.8849  1.4314  0.3268
 6308SOL     OW30382   0.622   1.984   7.074 -0.2401 -0.4899 -0.4616
 6308SOL    HW130383   0.614   1.899   7.030  2.7651  0.3584 -2.6079
 6308SOL    HW230384   0.716   2.001   7.070 -0.2803 -0.1297  0.1643
 6309SOL     OW30385   1.195   3.333   6.276 -0.3271  0.0598 -0.1578
 6309SOL    HW130386   1.133   3.272   6.234 -0.7953  1.0160 -0.8680
 6309SOL    HW230387   1.140   3.411   6.279  0.8799  0.9121 -0.4766
 6310SOL     OW30388   1.686   4.127   6.219 -0.4164  0.2077 -0.1380
 6310SOL    HW130389   1.712   4.047   6.263 -0.0646  1.4466  1.8880
 6310SOL    HW230390   1.656   4.091   6.135  0.0075 -1.0577  0.2632
 6311SOL     OW30391   2.560   2.580   5.845  0.2143  0.1028 -0.1723
 6311SOL    HW130392   2.545   2.642   5.774 -2.3259 -2.1234 -1.6175
 6311SOL    HW230393   2.499   2.629   5.901 -2.5420 -2.4275 -0.9655
 6312SOL     OW30394   0.430   2.950   5.383  0.0828 -0.2649 -0.0087
 6312SOL    HW130395   0.446   2.955   5.477  0.1393 -1.8226  0.0596
 6312SOL    HW230396   0.513   2.910   5.357  1.3649  0.3192  3.1393
 6313SOL     OW30397   4.661   1.554   4.374  0.0863 -0.0954  0.0477
 6313SOL    HW130398   4.709   1.509   4.304 -1.2254 -0.1634 -0.7999
 6313SOL    HW230399   4.653   1.648   4.356 -0.1786 -0.2506 -0.6154
 6314SOL     OW30400   1.641   4.682  13.691  0.4814  0.1165 -0.0905
 6314SOL    HW130401   1.566   4.647  13.643 -0.1094 -0.2059  1.0743
 6314SOL    HW230402   1.668   4.615  13.753 -0.8542  0.2610  0.6469
 6315SOL     OW30403   1.544   2.454  16.570 -0.0896  0.1836  0.1997
 6315SOL    HW130404   1.609   2.510  16.612 -1.6027  1.7606  0.4139
 6315SOL    HW230405   1.465   2.487  16.611  0.4000 -0.7069  1.8457
 6316SOL     OW30406   3.688   1.012   5.213  0.1015 -0.1733 -0.0520
 6316SOL    HW130407   3.706   0.965   5.131 -1.6471 -1.7651  0.4629
 6316SOL    HW230408   3.648   1.088   5.170 -0.1468  0.0775  0.6166
 6317SOL     OW30409   2.800   2.216   4.505  0.0742  0.0624 -0.7267
 6317SOL    HW130410   2.869   2.169   4.457 -0.4659 -2.0526  0.5872
 6317SOL    HW230411   2.835   2.193   4.591  0.7644 -0.3932 -1.1279
 6318SOL     OW30412   3.059   3.591   8.705 -0.0900 -0.0045  0.1150
 6318SOL    HW130413   3.105   3.609   8.788 -0.2531  2.3115 -0.2912
 6318SOL    HW230414   2.969   3.607   8.734  0.0557  0.8190  0.1038
 6319SOL     OW30415   4.679   0.881   1.792  0.3213  0.1719  0.0252
 6319SOL    HW130416   4.627   0.956   1.762 -0.1186 -0.1161  0.0709
 6319SOL    HW230417   4.655   0.859   1.882  1.2661  0.8756  0.4551
 6320SOL     OW30418   2.433   3.317   5.146  0.0766 -0.0831  0.1834
 6320SOL    HW130419   2.383   3.328   5.227  2.0987  0.4545  1.3501
 6320SOL    HW230420   2.365   3.316   5.078  0.7056  0.9870 -0.4696
 6321SOL     OW30421   2.223   3.126   0.574 -0.5792 -0.2418  0.3540
 6321SOL    HW130422   2.266   3.187   0.633 -0.3773 -1.8688  1.9005
 6321SOL    HW230423   2.292   3.076   0.530  0.1295 -0.3796  1.6281
 6322SOL     OW30424   2.881   3.903   6.259  0.1579  0.4271  0.5293
 6322SOL    HW130425   2.949   3.876   6.321  2.0230 -0.3149 -1.8461
 6322SOL    HW230426   2.925   3.970   6.207 -2.4701  1.1309 -0.7918
 6323SOL     OW30427   3.947   3.215   4.395 -0.2605 -0.1259  0.9624
 6323SOL    HW130428   4.020   3.204   4.335 -1.3683 -2.0535 -0.0227
 6323SOL    HW230429   3.898   3.135   4.377  0.7697 -0.7013  0.7207
 6324SOL     OW30430   3.975   0.762   7.390  0.0039 -0.6698  0.3651
 6324SOL    HW130431   4.045   0.825   7.371  0.3269 -1.1746 -0.0994
 6324SOL    HW230432   3.902   0.824   7.393 -1.7390 -2.7960  1.2954
 6325SOL     OW30433   3.523   2.447   5.896 -0.0694 -0.4005 -0.0947
 6325SOL    HW130434   3.547   2.434   5.805 -1.0240 -2.6631 -0.0356
 6325SOL    HW230435   3.428   2.458   5.887 -0.2856 -0.9491  1.4097
 6326SOL     OW30436   2.301   0.254   4.834 -0.2949  0.5341 -0.3148
 6326SOL    HW130437   2.223   0.290   4.878 -1.1069 -1.7292  0.1054
 6326SOL    HW230438   2.272   0.167   4.807  1.0165 -0.4833  1.5671
 6327SOL     OW30439   2.475   2.003   8.806 -0.3830 -0.1342  0.5598
 6327SOL    HW130440   2.509   1.999   8.895 -1.9246  1.3495  1.2208
 6327SOL    HW230441   2.556   1.974   8.765 -1.0173 -0.9930 -0.0842
 6328SOL     OW30442   2.497   2.081   1.966 -0.3864 -0.6026 -0.0991
 6328SOL    HW130443   2.460   2.088   2.054 -0.9453  0.9973 -0.4582
 6328SOL    HW230444   2.437   2.129   1.910  0.5965  1.2538  0.4135
 6329SOL     OW30445   1.245   0.542   2.709  0.1199  0.5696  0.1412
 6329SOL    HW130446   1.330   0.499   2.715 -0.1576  0.0363  0.2379
 6329SOL    HW230447   1.252   0.604   2.635  0.2360 -2.6831 -2.5682
 6330SOL     OW30448   4.151   4.231   7.255 -0.0782 -0.5687 -0.2513
 6330SOL    HW130449   4.073   4.223   7.309  0.2679  1.6464  0.5612
 6330SOL    HW230450   4.163   4.326   7.246 -1.3002 -0.2838  1.0628
 6331SOL     OW30451   3.455   0.947   1.590  0.8538 -0.0388  0.4429
 6331SOL    HW130452   3.521   1.006   1.625  1.9523 -1.1128  0.1684
 6331SOL    HW230453   3.496   0.913   1.511  1.7106 -1.6200  1.5576
 6332SOL     OW30454   2.725   0.826   7.586 -0.2238  0.3084 -0.3125
 6332SOL    HW130455   2.691   0.738   7.573 -1.1999  0.6492 -0.0611
 6332SOL    HW230456   2.736   0.832   7.681 -1.1832  0.8816 -0.2329
 6333SOL     OW30457   2.154   1.327   5.098  0.1816  0.4679 -0.2045
 6333SOL    HW130458   2.098   1.376   5.159  0.5519  1.3115 -0.5291
 6333SOL    HW230459   2.211   1.275   5.155  1.0189  0.6509 -0.8827
 6334SOL     OW30460   3.550   4.055   9.104 -0.6181 -0.3656 -0.8384
 6334SOL    HW130461   3.500   4.009   9.037  1.9532 -1.0270 -2.3246
 6334SOL    HW230462   3.611   3.983   9.121  0.7515  1.1057  0.4649
 6335SOL     OW30463   2.851   0.406   1.252 -0.0880 -0.0392 -0.2804
 6335SOL    HW130464   2.856   0.499   1.274 -0.8422  0.1954 -1.1197
 6335SOL    HW230465   2.921   0.409   1.187  0.3429  0.8824  0.2182
 6336SOL     OW30466   3.516   1.424   3.482  0.2053  0.1167  0.0731
 6336SOL    HW130467   3.553   1.501   3.440  0.2342  1.3066  2.3084
 6336SOL    HW230468   3.541   1.358   3.416 -0.9517 -0.8852  0.6275
 6337SOL     OW30469   0.188   0.597   6.100  0.2432  0.2564 -0.4814
 6337SOL    HW130470   0.266   0.641   6.134  0.2426 -0.7378  0.8304
 6337SOL    HW230471   0.204   0.607   6.007  2.4484 -1.1638 -0.2765
 6338SOL     OW30472   4.202   1.539   4.551  0.0311  0.1248 -0.2022
 6338SOL    HW130473   4.278   1.481   4.555 -0.6470 -0.7696 -0.4523
 6338SOL    HW230474   4.190   1.543   4.646 -1.8330  0.3630 -0.4424
 6339SOL     OW30475   2.772   0.878   4.463 -0.3798 -0.3364  0.4419
 6339SOL    HW130476   2.729   0.928   4.533 -1.0972 -0.8214  0.3448
 6339SOL    HW230477   2.865   0.895   4.479 -1.2064  1.6520  3.2353
 6340SOL     OW30478   0.437   0.455  11.888 -0.6102 -0.3327  0.0022
 6340SOL    HW130479   0.483   0.478  11.807  1.5408 -0.7112  1.1080
 6340SOL    HW230480   0.442   0.537  11.937  2.3633 -0.1429 -0.6022
 6341SOL     OW30481   2.118   0.572   6.363  0.0277 -0.1249  0.0736
 6341SOL    HW130482   2.134   0.477   6.368  2.9461  0.2983 -1.0302
 6341SOL    HW230483   2.028   0.571   6.331 -0.6393  0.7076  1.8976
 6342SOL     OW30484   3.897   4.546   7.895  0.4152  0.1600 -0.0423
 6342SOL    HW130485   3.977   4.517   7.852 -1.3495 -1.5395 -2.1963
 6342SOL    HW230486   3.856   4.608   7.834 -1.1458 -2.0915 -1.2832
 6343SOL     OW30487   4.363   4.143   9.026 -0.2165 -0.1364 -0.2370
 6343SOL    HW130488   4.457   4.156   9.019 -0.3099  0.8624  0.4784
 6343SOL    HW230489   4.363   4.157   9.121 -1.8895  3.9664 -0.8582
 6344SOL     OW30490   0.096   2.219   2.414  0.4566  0.0871  0.2860
 6344SOL    HW130491   0.044   2.203   2.335  2.0532 -1.5931 -0.4177
 6344SOL    HW230492   0.161   2.279   2.377 -0.2840  0.8853  0.2814
 6345SOL     OW30493   1.842   2.070   3.786  0.1312 -0.6224  0.0868
 6345SOL    HW130494   1.802   1.984   3.803  1.2935 -1.1731  0.0713
 6345SOL    HW230495   1.933   2.043   3.778 -0.4698 -2.7875  0.4820
 6346SOL     OW30496   4.436   0.052   2.560 -0.1295 -0.2314  0.9318
 6346SOL    HW130497   4.475   0.101   2.632  0.3898 -1.8724  1.7687
 6346SOL    HW230498   4.494   0.082   2.491 -1.6905  1.0122  0.1544
 6347SOL     OW30499   2.933   3.595  11.496  0.1242 -0.0948 -0.2896
 6347SOL    HW130500   2.880   3.585  11.417  0.3265  0.7411 -0.5330
 6347SOL    HW230501   2.941   3.691  11.502 -0.6510 -0.1086  1.0857
 6348SOL     OW30502   0.685   4.335   1.470  0.1886 -0.4249 -0.0453
 6348SOL    HW130503   0.705   4.412   1.524 -1.6694 -1.5128  2.1561
 6348SOL    HW230504   0.772   4.298   1.486  0.3906  1.2206  2.7511
 6349SOL     OW30505   0.126   1.123   2.828  0.5291 -0.2083 -0.3052
 6349SOL    HW130506   0.188   1.081   2.888 -0.6466  0.7082  1.5402
 6349SOL    HW230507   0.188   1.189   2.795  0.2362  0.1711 -0.0956
 6350SOL     OW30508   0.248   1.242  10.229  0.1457 -0.7409 -0.7834
 6350SOL    HW130509   0.278   1.229  10.319  0.2421 -1.5780 -0.9366
 6350SOL    HW230510   0.327   1.269  10.183 -0.5904  1.9030 -0.5155
 6351SOL     OW30511   3.984   4.099  17.683 -0.1117 -0.0529  0.7397
 6351SOL    HW130512   3.973   4.141   0.069 -0.1800  0.3753  0.5180
 6351SOL    HW230513   4.001   4.172  17.623  0.6430  2.0653  3.5043
 6352SOL     OW30514   0.417   2.423   7.448  0.3483  0.1137  0.4929
 6352SOL    HW130515   0.322   2.427   7.434  0.1829  0.7224  1.8412
 6352SOL    HW230516   0.440   2.406   7.357  0.5861 -1.7603  0.9081
 6353SOL     OW30517   0.392   1.819   5.604  0.2008  0.6655  0.4203
 6353SOL    HW130518   0.420   1.733   5.636  1.0560  1.1810  1.0908
 6353SOL    HW230519   0.438   1.880   5.662  1.0276 -0.7125  1.2267
 6354SOL     OW30520   0.549   4.724   6.184 -0.3705 -0.0697 -0.2025
 6354SOL    HW130521   0.459   4.703   6.210 -0.6033  1.0874 -0.0723
 6354SOL    HW230522   0.606   4.660   6.228 -2.2655 -1.4615  0.2569
 6355SOL     OW30523   0.810   3.606   9.706  0.1426  0.4983 -0.3009
 6355SOL    HW130524   0.815   3.541   9.637 -0.9303  0.1920 -0.0868
 6355SOL    HW230525   0.717   3.611   9.727  0.2707  0.2587  0.3126
 6356SOL     OW30526   4.198   1.020   6.486  0.3097  0.1890  0.6703
 6356SOL    HW130527   4.229   0.975   6.408 -2.0347 -0.0022 -0.1489
 6356SOL    HW230528   4.188   1.111   6.456  4.7389  0.2288 -0.6361
 6357SOL     OW30529   2.385   0.932   4.925 -0.0985  0.2832  0.1434
 6357SOL    HW130530   2.335   0.998   4.877  0.7452  0.9285  0.1673
 6357SOL    HW230531   2.349   0.945   5.013 -0.5902  0.4385 -0.0811
 6358SOL     OW30532   0.419   2.395   9.586 -0.4199 -0.4097  0.1199
 6358SOL    HW130533   0.404   2.471   9.530  0.4225  0.1593  0.6690
 6358SOL    HW230534   0.463   2.345   9.516  2.5083  1.2800  0.7945
 6359SOL     OW30535   2.702   2.866  11.420 -0.0189  0.2565 -0.3588
 6359SOL    HW130536   2.745   2.859  11.505  0.7360  0.2918 -0.7388
 6359SOL    HW230537   2.690   2.777  11.387  2.5654 -0.4091  0.4826
 6360SOL     OW30538   4.150   3.176   3.241  0.2587  0.3079 -0.8467
 6360SOL    HW130539   4.172   3.267   3.221 -2.0423  1.1397  0.3721
 6360SOL    HW230540   4.194   3.144   3.163  1.0437  0.4137 -0.4438
 6361SOL     OW30541   2.418   1.004   0.768  0.0169  0.4228 -0.3977
 6361SOL    HW130542   2.497   1.013   0.715  0.9418  0.9132  1.0578
 6361SOL    HW230543   2.362   0.956   0.707 -1.9186 -0.5034  2.1217
 6362SOL     OW30544   4.035   3.481   7.418  0.0723 -0.0514 -0.1985
 6362SOL    HW130545   4.031   3.495   7.512  0.2494 -0.6068 -0.1131
 6362SOL    HW230546   3.975   3.551   7.392 -0.3833 -0.3442  0.0787
 6363SOL     OW30547   1.711   0.715  10.857 -0.4657  0.6917 -0.4400
 6363SOL    HW130548   1.708   0.811  10.860  1.0794  0.8088 -2.5817
 6363SOL    HW230549   1.617   0.697  10.857  0.1299 -2.4258  1.8003
 6364SOL     OW30550   1.554   0.573   9.293 -0.1254 -0.1492 -0.3926
 6364SOL    HW130551   1.625   0.547   9.351 -0.1725  2.5636  0.8866
 6364SOL    HW230552   1.491   0.501   9.296  0.1662 -0.4350 -0.9207
 6365SOL     OW30553   2.490   2.771   4.471  0.0212 -0.3361 -0.3593
 6365SOL    HW130554   2.569   2.765   4.525 -0.1387  1.8702  0.1080
 6365SOL    HW230555   2.431   2.706   4.510  0.8224 -0.9434 -0.1639
 6366SOL     OW30556   4.522   2.118  10.105  0.2147 -0.0854 -0.0330
 6366SOL    HW130557   4.463   2.078  10.041  0.2552 -0.6451  0.2873
 6366SOL    HW230558   4.459   2.164  10.160  0.1526 -0.6857  0.3919
 6367SOL     OW30559   1.823   0.548   3.822 -0.2613  0.2786 -0.5917
 6367SOL    HW130560   1.818   0.499   3.904  0.3214 -1.6325 -1.6932
 6367SOL    HW230561   1.816   0.483   3.752 -0.7922  0.4201 -0.6758
 6368SOL     OW30562   0.762   4.564   4.329 -0.0776  0.0719  0.4607
 6368SOL    HW130563   0.730   4.654   4.330 -1.2468 -0.3540  0.6780
 6368SOL    HW230564   0.835   4.574   4.389  0.6165 -0.0887 -0.3481
 6369SOL     OW30565   4.356   4.077   1.002  0.1103  0.4755  1.5158
 6369SOL    HW130566   4.371   4.149   0.941 -1.1966  0.3333  1.0487
 6369SOL    HW230567   4.261   4.077   1.012 -0.3009  0.3779 -2.4921
 6370SOL     OW30568   4.503   2.724   1.399 -0.3494 -0.1792  0.3436
 6370SOL    HW130569   4.565   2.707   1.329  0.4667  1.2812  0.7304
 6370SOL    HW230570   4.551   2.752   1.477  2.4333 -1.9406 -0.7565
 6371SOL     OW30571   1.278   3.867   0.359  0.1398 -0.0551  0.2485
 6371SOL    HW130572   1.317   3.807   0.296  0.3523  0.3301  0.0097
 6371SOL    HW230573   1.214   3.816   0.409 -0.2709  0.3807  0.1721
 6372SOL     OW30574   0.442   3.751   3.204 -0.1417 -0.0437 -0.4189
 6372SOL    HW130575   0.351   3.761   3.176  0.2099  2.7211 -0.5165
 6372SOL    HW230576   0.424   3.757   3.297  1.2623 -2.6147  0.0344
 6373SOL     OW30577   1.100   0.215   8.058 -0.2788  0.7142 -0.0927
 6373SOL    HW130578   1.119   0.279   8.126  1.3343  1.2116 -1.0203
 6373SOL    HW230579   1.084   0.271   7.982 -0.7477 -1.0428 -1.2739
 6374SOL     OW30580   1.465   0.337   8.295 -0.7505  0.5024  0.1874
 6374SOL    HW130581   1.558   0.320   8.310 -0.0183  2.6398 -1.9000
 6374SOL    HW230582   1.465   0.296   8.208  0.4038 -1.1240  0.9772
 6375SOL     OW30583   0.998   1.695   4.171 -0.3885 -0.0185 -0.0807
 6375SOL    HW130584   0.962   1.652   4.094 -1.8184 -1.0960  1.1875
 6375SOL    HW230585   0.922   1.725   4.221 -1.0211  0.0320 -1.0887
 6376SOL     OW30586   0.340   3.807   5.834 -0.5531 -0.0391 -0.5411
 6376SOL    HW130587   0.279   3.746   5.877  0.4404 -0.6094  0.0774
 6376SOL    HW230588   0.272   3.866   5.802  0.3578  0.3055 -1.8225
 6377SOL     OW30589   2.226   4.068   5.846  0.1205  0.6105  0.3876
 6377SOL    HW130590   2.280   4.008   5.795 -0.8235  0.0225  0.0868
 6377SOL    HW230591   2.287   4.078   5.919  1.0751  1.4507 -0.5319
 6378SOL     OW30592   1.099   1.406   3.999  0.0812 -0.0933  0.3003
 6378SOL    HW130593   1.126   1.468   3.931 -0.1568 -0.2323  0.0798
 6378SOL    HW230594   1.188   1.401   4.035  0.1660  0.4276  0.1631
 6379SOL     OW30595   1.111   4.634   5.895 -0.0545 -0.2058  0.4671
 6379SOL    HW130596   1.022   4.603   5.916  0.0427 -0.7339  0.0954
 6379SOL    HW230597   1.112   0.002   5.871 -1.6168 -0.0329  1.0537
 6380SOL     OW30598   0.662   0.058   5.415  0.4791  0.0104  0.1473
 6380SOL    HW130599   0.640   0.144   5.453 -0.1745 -0.6009  1.1398
 6380SOL    HW230600   0.757   0.059   5.425  0.6448  1.7813 -1.4833
 6381SOL     OW30601   4.189   4.529  17.265  0.7591 -0.1501  0.8360
 6381SOL    HW130602   4.188   4.590  17.339  2.9222  1.4013 -0.4368
 6381SOL    HW230603   4.214   4.447  17.309  0.5352  0.3800  1.9558
 6382SOL     OW30604   4.532   3.866   8.901 -0.4403  0.3466  0.8762
 6382SOL    HW130605   4.549   3.872   8.995  3.8420  1.1486  0.0628
 6382SOL    HW230606   4.620   3.885   8.868 -0.3569  0.4820  1.1750
 6383SOL     OW30607   0.588   1.193  17.532  0.6464 -0.3197 -0.1649
 6383SOL    HW130608   0.602   1.273  17.583  0.1265 -0.3383  0.0080
 6383SOL    HW230609   0.633   1.128  17.585  1.0732  0.1127  0.0006
 6384SOL     OW30610   3.397   4.070   6.574  0.0056  0.1527 -1.1283
 6384SOL    HW130611   3.402   4.001   6.640 -0.3534  1.9497  0.7692
 6384SOL    HW230612   3.492   4.080   6.565 -0.2296  2.7845 -0.8122
 6385SOL     OW30613   3.776   0.039   9.621  0.5308 -0.3163 -0.5591
 6385SOL    HW130614   3.863   0.010   9.652 -0.0539 -0.3576  1.0659
 6385SOL    HW230615   3.778   0.026   9.527  0.0111 -0.5903 -0.5329
 6386SOL     OW30616   0.680   3.881   7.299  0.2500 -0.6899 -0.2910
 6386SOL    HW130617   0.621   3.912   7.230 -0.2445  0.5690  0.7035
 6386SOL    HW230618   0.624   3.907   7.371  1.0700  0.5333 -0.0946
 6387SOL     OW30619   3.601   3.726   6.126 -0.1131  0.1747  0.0325
 6387SOL    HW130620   3.667   3.661   6.101  0.1854  1.0750 -1.5285
 6387SOL    HW230621   3.643   3.801   6.083 -0.3029  0.4703  0.3616
 6388SOL     OW30622   2.084   0.711   5.615 -0.2221 -0.5243  0.5253
 6388SOL    HW130623   2.007   0.760   5.646  1.0592  1.7103  0.1637
 6388SOL    HW230624   2.151   0.775   5.640  0.5813 -0.9220 -0.6309
 6389SOL     OW30625   1.383   3.981   1.291  0.6708 -0.3564 -0.6116
 6389SOL    HW130626   1.466   4.011   1.255 -0.2522  0.4736 -2.0525
 6389SOL    HW230627   1.384   4.026   1.375  0.1205 -1.8780  0.2268
 6390SOL     OW30628   1.143   2.484   5.658  0.2262 -0.0902  0.0690
 6390SOL    HW130629   1.234   2.509   5.644 -0.3674  1.1920 -1.6122
 6390SOL    HW230630   1.150   2.392   5.682 -2.5959 -0.5873 -1.0062
 6391SOL     OW30631   4.536   4.059   6.549 -0.0719  0.5029 -0.3086
 6391SOL    HW130632   4.564   4.148   6.573  1.9527 -0.3044  0.3441
 6391SOL    HW230633   4.443   4.065   6.527 -0.1957  0.9697  0.3301
 6392SOL     OW30634   1.431   4.024   2.756 -0.1891 -0.1891  0.0395
 6392SOL    HW130635   1.486   4.101   2.744  0.9800 -0.8343  1.3400
 6392SOL    HW230636   1.388   4.020   2.670  0.3764  0.2507 -0.2671
 6393SOL     OW30637   0.076   0.750  17.591  0.1805  0.2286 -0.6108
 6393SOL    HW130638   0.144   0.716  17.649 -0.9000  1.4269  1.3830
 6393SOL    HW230639   0.061   0.676  17.533 -0.1501  0.1695 -0.4512
 6394SOL     OW30640   2.836   1.543   8.418 -0.2127  0.4303 -0.2925
 6394SOL    HW130641   2.822   1.545   8.512 -1.8052 -0.2486 -0.5133
 6394SOL    HW230642   2.747   1.553   8.384 -0.4539  0.5930  0.4051
 6395SOL     OW30643   2.940   1.782   5.392 -0.2142  0.1011 -0.0365
 6395SOL    HW130644   2.990   1.702   5.375  0.5951  0.7421 -0.6734
 6395SOL    HW230645   2.854   1.740   5.394  0.1611 -0.7604 -2.0063
 6396SOL     OW30646   3.244   2.823   9.345  0.0652 -0.6569  0.0775
 6396SOL    HW130647   3.272   2.734   9.327  0.5575 -0.9495  2.2496
 6396SOL    HW230648   3.319   2.860   9.391 -1.4709  1.6987  0.7274
 6397SOL     OW30649   1.319   2.743   8.429  0.2819 -0.5230  0.2652
 6397SOL    HW130650   1.385   2.799   8.469  2.0825 -2.5471  0.1606
 6397SOL    HW230651   1.371   2.681   8.377 -1.7707 -1.9059 -0.1285
 6398SOL     OW30652   1.927   3.062   4.779  0.3422 -0.0641  0.4883
 6398SOL    HW130653   1.876   3.070   4.699  2.0342 -0.6297 -0.6633
 6398SOL    HW230654   1.962   3.150   4.795  1.1383 -0.0354 -1.4710
 6399SOL     OW30655   3.215   2.691  13.510 -0.3260  0.1221  0.8230
 6399SOL    HW130656   3.224   2.759  13.576 -0.0283  0.7762  0.1056
 6399SOL    HW230657   3.119   2.686  13.502 -0.1688  0.0266 -1.0042
 6400SOL     OW30658   3.759   4.219   2.811 -0.3884 -0.0588 -0.2880
 6400SOL    HW130659   3.776   4.242   2.720 -0.4847 -0.3873 -0.3878
 6400SOL    HW230660   3.743   4.304   2.852  2.2384 -0.7173  2.1176
 6401SOL     OW30661   2.355   0.740   4.714  0.3495 -0.4077  0.4062
 6401SOL    HW130662   2.403   0.776   4.639 -0.9554 -1.3233 -0.8640
 6401SOL    HW230663   2.370   0.811   4.776  1.6515 -1.1598  0.9559
 6402SOL     OW30664   3.781   0.979  17.367 -0.2542  0.2749  0.6285
 6402SOL    HW130665   3.727   0.900  17.372  0.6210 -0.2921  1.0531
 6402SOL    HW230666   3.842   0.966  17.294  1.2086  0.0860  1.8842
 6403SOL     OW30667   3.214   0.989   8.013  0.2930 -0.2258 -0.9059
 6403SOL    HW130668   3.265   1.022   7.938  0.8844  2.6098  0.7384
 6403SOL    HW230669   3.291   0.960   8.062 -0.2218 -2.0813 -1.1798
 6404SOL     OW30670   4.574   0.907   3.684 -1.1867  0.1316 -0.0405
 6404SOL    HW130671   4.492   0.953   3.703 -1.2278 -1.3027  3.1858
 6404SOL    HW230672   4.562   0.851   3.607 -1.4926  1.5630 -1.0329
 6405SOL     OW30673   4.072   0.413   8.265  0.2368 -0.2918 -0.4809
 6405SOL    HW130674   4.037   0.439   8.179 -0.2729  0.8539  0.0822
 6405SOL    HW230675   4.059   0.318   8.259  0.4951 -0.4883  2.3456
 6406SOL     OW30676   0.622   3.999   5.300 -0.1469  0.5510 -0.4187
 6406SOL    HW130677   0.599   4.055   5.225  2.2495  0.1449 -1.4507
 6406SOL    HW230678   0.650   4.063   5.366 -0.0730  1.6544 -1.5092
 6407SOL     OW30679   2.613   1.331   1.963  0.0544 -0.1657 -0.2855
 6407SOL    HW130680   2.536   1.275   1.950  0.2344 -0.2152 -1.1234
 6407SOL    HW230681   2.582   1.415   1.929 -1.8733 -0.5545  0.4867
 6408SOL     OW30682   4.532   2.000   5.530 -0.0723  0.2914  0.1756
 6408SOL    HW130683   4.570   2.057   5.597 -1.1272  0.6224  0.4924
 6408SOL    HW230684   4.579   1.919   5.551  1.0012  0.9112  0.1114
 6409SOL     OW30685   2.622   1.249  12.811 -0.5017 -0.1911 -0.2632
 6409SOL    HW130686   2.603   1.322  12.752  0.6366  0.1703 -0.1969
 6409SOL    HW230687   2.558   1.184  12.784  0.3032  0.1436 -3.0152
 6410SOL     OW30688   0.979   1.797   0.029 -0.1151 -0.0253  0.1919
 6410SOL    HW130689   0.913   1.798   0.098  0.3558  1.1294  0.6330
 6410SOL    HW230690   0.968   1.887  17.697  0.2098  0.1650  0.6306
 6411SOL     OW30691   2.876   0.135   3.877  0.7580  0.1488 -0.3458
 6411SOL    HW130692   2.870   0.133   3.972 -0.2340  1.3940 -0.3729
 6411SOL    HW230693   2.965   0.099   3.867 -0.0477 -1.4834 -1.6650
 6412SOL     OW30694   3.597   2.804   8.940 -0.2439 -0.3792 -0.0616
 6412SOL    HW130695   3.561   2.774   8.856 -0.8487  2.0011 -0.6622
 6412SOL    HW230696   3.531   2.770   9.002  0.0837  0.2295  0.6161
 6413SOL     OW30697   3.680   2.116  12.074  0.3815  0.2259 -0.2180
 6413SOL    HW130698   3.605   2.113  12.015  0.0013  4.6916  0.0313
 6413SOL    HW230699   3.665   2.181  12.143  1.2412 -0.2906  0.4503
 6414SOL     OW30700   4.183   1.901   8.201 -0.1358  0.4641  0.1953
 6414SOL    HW130701   4.112   1.964   8.189 -0.2384  0.2565 -0.2691
 6414SOL    HW230702   4.139   1.824   8.238 -1.2956  0.9077 -0.2560
 6415SOL     OW30703   4.580   1.473   6.382 -0.5549  0.1582  0.6811
 6415SOL    HW130704   4.633   1.544   6.418 -0.5074  0.7581 -0.5471
 6415SOL    HW230705   4.646   1.403   6.383 -0.3081  0.3840  0.3855
 6416SOL     OW30706   1.746   3.679   4.363 -0.0013  0.1097  0.3918
 6416SOL    HW130707   1.710   3.722   4.285 -0.7699  1.0115  1.2444
 6416SOL    HW230708   1.781   3.602   4.319  0.5604 -0.7381  2.3212
 6417SOL     OW30709   4.212   2.076   2.738 -0.5885 -0.2384  0.0945
 6417SOL    HW130710   4.248   1.989   2.720 -1.9716 -0.8794  0.4076
 6417SOL    HW230711   4.118   2.060   2.725 -0.5285 -1.5140  1.3180
 6418SOL     OW30712   1.074   1.215  13.662 -0.4818 -0.4986  0.1903
 6418SOL    HW130713   1.011   1.208  13.734  0.4436  0.6970  1.1270
 6418SOL    HW230714   1.097   1.308  13.662  0.3785 -0.7188  1.2074
 6419SOL     OW30715   3.328   0.808   9.076  0.3890  0.4687  0.0709
 6419SOL    HW130716   3.286   0.891   9.101 -2.7628 -0.6314 -1.6348
 6419SOL    HW230717   3.420   0.832   9.087  0.6205  1.0673 -3.1462
 6420SOL     OW30718   1.855   2.687   2.245  0.1728 -0.3113  0.5747
 6420SOL    HW130719   1.919   2.758   2.241  0.7563 -0.9689 -1.6729
 6420SOL    HW230720   1.785   2.727   2.297  0.9416  0.2819  1.1482
 6421SOL     OW30721   1.086   0.278   3.423  0.0672  0.0152 -0.4217
 6421SOL    HW130722   0.997   0.250   3.444 -0.5530  2.5400  0.2945
 6421SOL    HW230723   1.107   0.239   3.338 -2.6911  0.0950 -1.1473
 6422SOL     OW30724   3.097   2.947   9.143  0.1418  0.5738 -0.5775
 6422SOL    HW130725   3.143   2.913   9.220 -0.0632 -1.5253 -1.3590
 6422SOL    HW230726   3.153   3.011   9.100  1.4439 -0.4453 -0.4013
 6423SOL     OW30727   2.029   2.821   9.347 -0.1930 -0.2860 -0.4007
 6423SOL    HW130728   2.075   2.828   9.263  0.2558 -0.4496 -0.1715
 6423SOL    HW230729   2.100   2.804   9.410 -1.1602  4.2503  1.9176
 6424SOL     OW30730   3.722   4.009   4.683  0.6794  0.0468  0.0040
 6424SOL    HW130731   3.732   4.089   4.631  0.0240  0.0720 -0.0845
 6424SOL    HW230732   3.656   3.959   4.635 -1.7002  1.8343  1.4198
 6425SOL     OW30733   0.580   2.843  15.852 -0.3156  0.2096  0.1578
 6425SOL    HW130734   0.669   2.838  15.887 -0.3070 -0.6971  0.0028
 6425SOL    HW230735   0.572   2.937  15.863 -0.6801  0.2035 -0.0885
 6426SOL     OW30736   2.052   1.706   3.455  0.0230 -0.1385 -0.2562
 6426SOL    HW130737   2.030   1.739   3.542 -1.5677 -1.6155 -0.1029
 6426SOL    HW230738   1.999   1.764   3.399 -1.8887 -0.9001  0.7789
 6427SOL     OW30739   4.623   2.853   4.855 -0.1605 -0.2660  0.0957
 6427SOL    HW130740   4.715   2.828   4.840  0.9365  3.8507 -0.0234
 6427SOL    HW230741   4.628   2.944   4.885  0.0419 -0.8001  1.6863
 6428SOL     OW30742   2.572   2.577  13.503  0.4129  0.3369  0.4293
 6428SOL    HW130743   2.627   2.500  13.493 -1.9099 -1.0615 -1.4441
 6428SOL    HW230744   2.604   2.634  13.433 -0.2852 -1.3431 -1.2514
 6429SOL     OW30745   2.383   1.847   4.530 -0.1368 -0.3322  0.2030
 6429SOL    HW130746   2.358   1.910   4.598  0.6476  1.5303 -1.2551
 6429SOL    HW230747   2.341   1.767   4.564 -2.6135  1.6363  1.7758
 6430SOL     OW30748   3.513   1.189   5.012 -0.6276 -0.2976 -0.2685
 6430SOL    HW130749   3.466   1.266   5.044 -0.1949 -0.6989  1.3325
 6430SOL    HW230750   3.534   1.214   4.923 -0.4380  1.5548  0.3088
 6431SOL     OW30751   3.930   3.931   4.844  0.5619 -0.2398  0.0920
 6431SOL    HW130752   3.913   4.009   4.895  1.2294  0.0301 -0.1113
 6431SOL    HW230753   3.860   3.944   4.779  0.8572 -1.5482 -0.4999
 6432SOL     OW30754   3.853   1.453  10.625  0.5307 -0.4761  0.2516
 6432SOL    HW130755   3.792   1.435  10.553  1.4228 -2.2761 -0.0646
 6432SOL    HW230756   3.939   1.414  10.608  0.9674  1.0610 -1.0379
 6433SOL     OW30757   1.416   2.310   6.292 -0.1100  1.1468 -0.1581
 6433SOL    HW130758   1.327   2.298   6.324 -0.3107  0.2647 -1.0625
 6433SOL    HW230759   1.409   2.349   6.205 -0.2154 -0.9442 -1.0840
 6434SOL     OW30760   1.659   2.716  10.556 -0.0294  0.6932  0.2676
 6434SOL    HW130761   1.626   2.759  10.635  0.5321 -1.1548  1.4957
 6434SOL    HW230762   1.587   2.659  10.530  0.5364 -0.2341  0.7318
 6435SOL     OW30763   2.084   3.837   3.023  0.1320  0.2629  0.3093
 6435SOL    HW130764   2.069   3.775   3.093 -1.1563 -0.2983 -0.4608
 6435SOL    HW230765   2.013   3.808   2.967 -0.4002 -0.5440  1.4198
 6436SOL     OW30766   3.210   2.240  12.641 -0.0399  0.4626  0.3541
 6436SOL    HW130767   3.118   2.227  12.618  0.6055 -0.1933 -1.8925
 6436SOL    HW230768   3.201   2.330  12.672  0.3620  1.0879 -1.3563
 6437SOL     OW30769   4.683   3.563   4.576 -0.6346 -0.1872  0.1315
 6437SOL    HW130770   4.724   3.620   4.511  0.2489 -0.7145  0.2242
 6437SOL    HW230771   4.595   3.549   4.541 -0.3460  0.5669 -0.8830
 6438SOL     OW30772   4.713   4.567   2.674 -0.1794  0.2576 -0.8796
 6438SOL    HW130773   0.060   4.630   2.686 -1.1765  1.2913 -0.2712
 6438SOL    HW230774   0.038   4.493   2.641  0.1593  0.6544 -1.2586
 6439SOL     OW30775   4.378   1.652   3.979  0.1210 -0.7909  0.1667
 6439SOL    HW130776   4.302   1.644   3.921 -1.1749  0.7373  1.6563
 6439SOL    HW230777   4.459   1.637   3.930 -0.1639  0.6443 -0.7329
 6440SOL     OW30778   4.518   4.566  10.499 -0.1326 -0.3422  0.1148
 6440SOL    HW130779   4.432   4.594  10.530  0.1560 -0.1486  0.7595
 6440SOL    HW230780   4.570   4.646  10.511  0.4659 -0.5351 -1.2306
 6441SOL     OW30781   1.808   1.114   5.865  0.3677 -0.1876  0.1941
 6441SOL    HW130782   1.743   1.113   5.935 -0.5940  1.2861 -0.6839
 6441SOL    HW230783   1.870   1.183   5.891 -0.6821  1.1011 -0.7059
 6442SOL     OW30784   4.550   4.157   8.500 -0.0645  0.4631 -0.0631
 6442SOL    HW130785   4.574   4.074   8.459 -1.5979 -1.2577  2.5465
 6442SOL    HW230786   4.514   4.118   8.580  0.4648 -0.9122 -0.4861
 6443SOL     OW30787   3.984   0.200   5.302  0.2548  0.1152 -0.7436
 6443SOL    HW130788   3.948   0.135   5.363 -0.9072  0.4290 -1.1026
 6443SOL    HW230789   4.076   0.199   5.331  0.1076 -1.0773 -0.2924
 6444SOL     OW30790   2.203   0.687   5.935  0.0153 -0.4334 -0.0187
 6444SOL    HW130791   2.117   0.684   5.893 -0.5173 -1.3854  1.1516
 6444SOL    HW230792   2.233   0.759   5.881 -2.1360 -0.3179 -1.0851
 6445SOL     OW30793   3.090   4.051   9.409 -0.3530  0.1845  0.0652
 6445SOL    HW130794   2.996   4.072   9.406 -0.5273 -0.9900 -2.1211
 6445SOL    HW230795   3.130   4.129   9.370  0.4999  0.4199  1.4180
 6446SOL     OW30796   3.090   4.182   7.085  0.2706  0.9145  0.0220
 6446SOL    HW130797   3.179   4.166   7.117 -0.0914  0.1117  0.6135
 6446SOL    HW230798   3.091   4.125   7.008  2.1515 -1.7761  2.0579
 6447SOL     OW30799   4.338   3.209  16.367  0.0001 -0.0386  0.2897
 6447SOL    HW130800   4.393   3.164  16.432  0.1216  0.9908  0.9100
 6447SOL    HW230801   4.290   3.140  16.322  0.2767 -0.3117  0.4147
 6448SOL     OW30802   4.068   3.268  14.418 -0.3038  0.3628  0.1651
 6448SOL    HW130803   4.027   3.349  14.387  0.5367  0.2906 -1.1098
 6448SOL    HW230804   4.027   3.253  14.503  2.0039 -1.3114  0.9762
 6449SOL     OW30805   0.437   0.913   2.338  0.3156 -0.1719 -0.4587
 6449SOL    HW130806   0.428   1.002   2.305  4.5289  0.5533  0.3635
 6449SOL    HW230807   0.355   0.874   2.306 -0.8249  3.0658 -1.4941
 6450SOL     OW30808   3.364   4.363   1.819  0.4032  0.1089 -0.1116
 6450SOL    HW130809   3.372   4.415   1.739 -0.0392  0.0264 -0.2088
 6450SOL    HW230810   3.437   4.393   1.873  0.0691  1.7550 -0.5817
 6451SOL     OW30811   2.009   1.290   2.975  0.0923 -0.0979  0.3880
 6451SOL    HW130812   2.021   1.365   3.034  3.0227 -1.0013  0.9352
 6451SOL    HW230813   2.013   1.212   3.030  1.0774  0.2808  0.8616
 6452SOL     OW30814   1.266   2.877  16.962  0.5895 -0.2233 -0.1807
 6452SOL    HW130815   1.212   2.814  17.009 -0.4074  0.4039 -0.4824
 6452SOL    HW230816   1.269   2.847  16.871  1.0406 -2.2139  0.4976
 6453SOL     OW30817   2.143   3.158   2.655 -0.0174  0.0253 -0.3673
 6453SOL    HW130818   2.086   3.086   2.628  1.9054 -0.5692 -2.8197
 6453SOL    HW230819   2.181   3.180   2.571  1.9998 -0.7157  0.3515
 6454SOL     OW30820   0.392   1.510   3.273  0.3617 -0.0262  0.2285
 6454SOL    HW130821   0.417   1.584   3.218 -0.6700 -0.4198 -0.7871
 6454SOL    HW230822   0.482   1.480   3.286  1.5615  3.2931 -0.5203
 6455SOL     OW30823   4.414   0.529   9.466 -0.4532  0.3422  0.2266
 6455SOL    HW130824   4.351   0.502   9.398  0.9469 -0.1915 -0.8498
 6455SOL    HW230825   4.364   0.505   9.544  0.1461  0.2686  0.5858
 6456SOL     OW30826   4.466   1.286  10.900  0.0311  0.5970 -0.3282
 6456SOL    HW130827   4.557   1.261  10.917 -0.6106 -1.3469  0.2807
 6456SOL    HW230828   4.462   1.378  10.925  2.4573  0.4546  0.5967
 6457SOL     OW30829   1.348   0.422   4.023  0.1969  0.1779  0.1595
 6457SOL    HW130830   1.352   0.399   3.930 -1.8581  2.4014 -0.5041
 6457SOL    HW230831   1.430   0.470   4.034  0.1181 -0.2768  2.7038
 6458SOL     OW30832   3.084   1.981   3.156 -0.1668  0.9030 -0.1566
 6458SOL    HW130833   3.137   2.048   3.113 -0.6473  2.6909  2.0231
 6458SOL    HW230834   3.040   2.037   3.220 -0.9487 -1.8375  1.6954
 6459SOL     OW30835   1.584   4.321   8.537 -0.4552 -0.0192 -0.5016
 6459SOL    HW130836   1.560   4.277   8.619  0.1161 -0.0570 -0.3563
 6459SOL    HW230837   1.532   4.398   8.516  0.8119  0.5646 -1.4587
 6460SOL     OW30838   2.818   4.019   8.800  0.1952 -0.4049  0.2697
 6460SOL    HW130839   2.776   3.960   8.863  1.2828 -0.0017  1.3796
 6460SOL    HW230840   2.795   3.972   8.720 -2.6260 -0.0677  0.8947
 6461SOL     OW30841   2.332   0.607   2.720  0.0249  0.0659 -0.5635
 6461SOL    HW130842   2.281   0.581   2.642  1.2365 -3.8102 -0.0811
 6461SOL    HW230843   2.400   0.660   2.679 -1.6545  0.8447 -2.3568
 6462SOL     OW30844   1.743   4.073  13.510 -0.9411 -0.4333 -0.3171
 6462SOL    HW130845   1.725   4.064  13.603  1.9624 -0.5714  0.2283
 6462SOL    HW230846   1.706   4.161  13.502 -0.5743  0.0230  3.0538
 6463SOL     OW30847   3.726   1.171   8.411 -0.1914  0.0274  0.0291
 6463SOL    HW130848   3.809   1.124   8.399 -0.7743 -0.7689 -0.8783
 6463SOL    HW230849   3.745   1.217   8.493  0.1001  2.4570 -1.3985
 6464SOL     OW30850   1.758   2.262   0.496  0.0935 -0.1555  0.4056
 6464SOL    HW130851   1.667   2.292   0.493  0.3887  0.5321 -2.0254
 6464SOL    HW230852   1.760   2.196   0.426  0.0755  1.2900 -0.9520
 6465SOL     OW30853   1.631   1.174   2.515 -0.0021  0.4862 -0.2214
 6465SOL    HW130854   1.649   1.162   2.608 -0.7911  0.5038 -0.0620
 6465SOL    HW230855   1.571   1.249   2.520 -0.0040  0.4894 -0.2876
 6466SOL     OW30856   4.106   4.471  14.165  0.7259 -0.2398 -0.2937
 6466SOL    HW130857   4.057   4.509  14.091  0.2481  0.9209  0.6139
 6466SOL    HW230858   4.086   4.378  14.163 -0.5319 -0.0041  0.6524
 6467SOL     OW30859   1.699   2.566   6.286 -0.1034  0.2440  0.3796
 6467SOL    HW130860   1.645   2.536   6.358 -0.3905  0.3160  0.1954
 6467SOL    HW230861   1.784   2.542   6.323 -0.1030  0.2662  0.3924
 6468SOL     OW30862   1.290   1.402  15.950 -0.6701 -0.4964  0.5640
 6468SOL    HW130863   1.385   1.401  15.938 -0.3248  0.0341  3.1706
 6468SOL    HW230864   1.270   1.495  15.955  1.9615  0.1774 -1.0108
 6469SOL     OW30865   0.838   1.822   0.249 -0.8996  0.2761 -0.8706
 6469SOL    HW130866   0.918   1.810   0.300 -0.3245 -0.5143 -1.9629
 6469SOL    HW230867   0.767   1.803   0.310 -1.3622 -1.3403 -1.9100
 6470SOL     OW30868   1.294   2.916   7.238  0.2792 -0.2372 -0.2510
 6470SOL    HW130869   1.364   2.957   7.289  2.0701 -1.4390 -1.7541
 6470SOL    HW230870   1.296   2.969   7.159  0.1795 -2.9126 -2.0444
 6471SOL     OW30871   2.096   3.482   2.258 -0.4666 -0.1388 -0.0188
 6471SOL    HW130872   2.056   3.443   2.335 -0.2596 -2.0398 -0.8670
 6471SOL    HW230873   2.025   3.479   2.194  1.3359 -0.7411 -1.9945
 6472SOL     OW30874   0.431   0.167   9.238 -0.6804  0.5499  0.1266
 6472SOL    HW130875   0.449   0.075   9.255 -1.4072  0.2109 -0.9683
 6472SOL    HW230876   0.387   0.161   9.154  2.9126 -0.6032 -1.6823
 6473SOL     OW30877   4.176   1.363   9.283  0.1365 -0.6304 -0.1063
 6473SOL    HW130878   4.192   1.283   9.233  0.0435 -0.8787  0.2555
 6473SOL    HW230879   4.259   1.411   9.281  0.7439 -1.6575  0.5039
 6474SOL     OW30880   4.278   1.537   8.918 -1.2718  0.4091 -0.4350
 6474SOL    HW130881   4.333   1.490   8.981  1.0071  0.9129 -2.0516
 6474SOL    HW230882   4.196   1.489   8.918 -1.4098  0.6457 -1.0116
 6475SOL     OW30883   1.233   2.909   2.958  0.8442  0.2785 -0.1779
 6475SOL    HW130884   1.294   2.889   2.887 -0.4349  2.6368 -1.9357
 6475SOL    HW230885   1.291   2.957   3.018  0.0986  1.3211 -0.2926
 6476SOL     OW30886   1.031   0.037  16.401  0.6667 -0.4821  0.2066
 6476SOL    HW130887   1.069   0.110  16.352 -2.4141  0.3492 -0.9364
 6476SOL    HW230888   0.975   0.007  16.329  1.6466  2.5315 -1.8128
 6477SOL     OW30889   0.502   2.120   9.722  0.2427 -0.2291 -0.5101
 6477SOL    HW130890   0.440   2.074   9.665  0.4829  0.5983 -1.4320
 6477SOL    HW230891   0.505   2.206   9.681 -1.4895 -0.2975 -0.7733
 6478SOL     OW30892   4.316   4.009  14.915  0.4175  0.4676  0.1726
 6478SOL    HW130893   4.354   3.975  14.833  1.8083 -0.6338  1.2770
 6478SOL    HW230894   4.330   4.104  14.909  2.6273  0.0712 -0.9680
 6479SOL     OW30895   2.238   3.351   5.325  0.2836  0.4812  0.3091
 6479SOL    HW130896   2.172   3.419   5.307  0.5463  0.9501  1.1234
 6479SOL    HW230897   2.259   3.393   5.408  0.7481  0.1781  0.3449
 6480SOL     OW30898   2.390   1.543   3.132 -0.2466  0.1616  0.4070
 6480SOL    HW130899   2.402   1.635   3.154 -2.1814 -0.1368  2.7612
 6480SOL    HW230900   2.389   1.513   3.223 -0.1047 -0.7219  0.1173
 6481SOL     OW30901   1.624   0.100   5.508 -0.3856 -0.2400 -0.0404
 6481SOL    HW130902   1.704   0.138   5.543 -1.4256  2.0180 -0.1268
 6481SOL    HW230903   1.605   0.041   5.580 -0.9003  0.9232  0.7735
 6482SOL     OW30904   1.198   4.429   9.400 -0.3856 -0.5748  0.1495
 6482SOL    HW130905   1.110   4.466   9.395  0.3768  1.0808 -0.9147
 6482SOL    HW230906   1.193   4.336   9.425 -0.8208 -0.6406 -0.1841
 6483SOL     OW30907   2.279   1.648  15.654  0.1423 -0.1550  0.0276
 6483SOL    HW130908   2.330   1.567  15.654 -0.1997 -0.3827  1.2658
 6483SOL    HW230909   2.336   1.697  15.714 -0.7932 -0.1772  0.9455
 6484SOL     OW30910   4.222   2.520   2.748  1.0458  0.3812  0.0347
 6484SOL    HW130911   4.200   2.495   2.658  0.0588  1.6051 -0.0512
 6484SOL    HW230912   4.298   2.576   2.735  0.7762  1.0997  1.5527
 6485SOL     OW30913   2.549   2.269   4.011 -0.1102  0.1220  0.4697
 6485SOL    HW130914   2.625   2.302   3.964  0.3290 -3.0748 -1.0688
 6485SOL    HW230915   2.531   2.333   4.080  0.7643 -0.7979  1.5666
 6486SOL     OW30916   2.126   1.741   5.459 -0.6788 -0.2538 -0.0448
 6486SOL    HW130917   2.178   1.800   5.405 -0.2562 -0.0448  0.6013
 6486SOL    HW230918   2.047   1.733   5.404 -0.4131 -3.0944 -0.0492
 6487SOL     OW30919   3.404   3.199   6.442 -0.1932  0.0036 -0.2067
 6487SOL    HW130920   3.455   3.118   6.432  0.2171  0.0889  1.2266
 6487SOL    HW230921   3.479   3.257   6.431 -0.1395 -0.3602 -1.8986
 6488SOL     OW30922   1.332   1.013   1.973  0.0532  0.0956 -0.6864
 6488SOL    HW130923   1.347   1.067   1.896 -0.0384  0.4257 -0.4736
 6488SOL    HW230924   1.421   1.010   2.008 -0.5201 -1.6062  0.6180
 6489SOL     OW30925   2.980   4.715   2.841  0.3153 -0.1090  0.2964
 6489SOL    HW130926   2.974   4.661   2.920 -1.3186 -0.5277 -0.1333
 6489SOL    HW230927   2.933   4.672   2.770 -1.0882 -1.2521  1.9102
 6490SOL     OW30928   3.000   2.035   3.897  0.1188 -0.1501 -0.9866
 6490SOL    HW130929   3.058   2.103   3.863 -0.7500  1.6964  1.1634
 6490SOL    HW230930   2.952   2.082   3.965  0.5486 -0.0241 -0.7716
 6491SOL     OW30931   2.021   3.672  15.273  0.5318 -0.1591  0.6514
 6491SOL    HW130932   2.094   3.610  15.276 -1.2162 -2.1330  2.1161
 6491SOL    HW230933   2.022   3.699  15.181 -3.3646  0.0386  0.6950
 6492SOL     OW30934   0.818   3.653   5.102 -0.3386  0.5684  0.4145
 6492SOL    HW130935   0.744   3.694   5.056  0.5947 -0.0181 -1.6263
 6492SOL    HW230936   0.797   3.679   5.191  0.4489 -0.0722  0.7850
 6493SOL     OW30937   0.241   4.001   6.377  1.0530  0.9732 -0.3575
 6493SOL    HW130938   0.180   4.056   6.427  1.0207 -0.7568  1.5336
 6493SOL    HW230939   0.187   3.945   6.321  1.6569  0.6397 -0.6043
 6494SOL     OW30940   1.145   0.609   6.145 -0.6579 -0.1814 -0.0820
 6494SOL    HW130941   1.154   0.590   6.051  0.9600 -0.1944  0.0689
 6494SOL    HW230942   1.186   0.694   6.159  0.1168 -0.4364 -0.7743
 6495SOL     OW30943   4.209   3.355   8.014  0.1693 -0.1710 -0.0873
 6495SOL    HW130944   4.156   3.367   8.093 -1.5088  1.4850 -1.4744
 6495SOL    HW230945   4.297   3.390   8.026  0.1214 -0.3256  0.7714
 6496SOL     OW30946   1.304   2.471   0.020 -0.6658  0.2529  0.7055
 6496SOL    HW130947   1.365   2.544   0.007  1.8197 -2.2930 -1.8659
 6496SOL    HW230948   1.227   2.524   0.043 -0.8674  0.9453 -1.5224
 6497SOL     OW30949   1.621   1.997   6.731 -0.2529  0.5274 -0.5656
 6497SOL    HW130950   1.595   1.975   6.641  1.6638  1.1405 -1.2677
 6497SOL    HW230951   1.653   2.085   6.713 -0.4599  0.5529 -0.8103
 6498SOL     OW30952   2.866   2.730   0.101  0.3537 -0.0975  0.6169
 6498SOL    HW130953   2.797   2.737   0.167  1.0121 -0.2007  1.3168
 6498SOL    HW230954   2.858   2.641   0.069  0.0221 -0.4723  1.7329
 6499SOL     OW30955   4.117   0.548   4.405  0.6463 -0.7255  0.2521
 6499SOL    HW130956   4.116   0.456   4.431  2.9821 -1.0763 -0.9092
 6499SOL    HW230957   4.060   0.539   4.328 -0.3598 -1.7806  1.0986
 6500SOL     OW30958   4.641   3.671  16.078  0.3219  0.0467  0.5282
 6500SOL    HW130959   4.569   3.724  16.111  0.0684 -1.7397  2.8805
 6500SOL    HW230960   4.653   3.707  15.991 -1.0188  0.5475  0.5556
 6501SOL     OW30961   0.218   4.155   4.546 -0.0562 -0.4370 -0.2014
 6501SOL    HW130962   0.210   4.143   4.641 -1.2759  1.0802 -0.1086
 6501SOL    HW230963   0.225   4.249   4.529  2.7707 -0.5743  0.1419
 6502SOL     OW30964   2.316   2.680   5.065  0.1229 -0.5400 -0.9744
 6502SOL    HW130965   2.330   2.661   4.972  0.2132  4.2056 -1.9482
 6502SOL    HW230966   2.307   2.775   5.072 -1.0584 -0.8271  1.4182
 6503SOL     OW30967   1.894   2.392   8.242 -0.3056  0.5041 -0.1089
 6503SOL    HW130968   1.820   2.416   8.186 -0.9346  0.2174  0.5879
 6503SOL    HW230969   1.860   2.391   8.331 -0.8583 -0.2613 -0.3301
 6504SOL     OW30970   2.804   3.379   9.913 -0.4895 -0.2136 -0.0915
 6504SOL    HW130971   2.783   3.356  10.004 -1.3060 -1.1294 -0.5008
 6504SOL    HW230972   2.746   3.310   9.879  0.2519 -0.2600 -1.2464
 6505SOL     OW30973   1.663   0.584   5.513 -0.4847  0.6657 -0.0227
 6505SOL    HW130974   1.630   0.639   5.441  0.7448  0.4852 -0.7393
 6505SOL    HW230975   1.720   0.531   5.458  1.1747  0.1119  2.2583
 6506SOL     OW30976   0.233   1.813   1.625 -0.1951  0.3745  0.2876
 6506SOL    HW130977   0.325   1.809   1.649  0.3457  1.8298 -1.5659
 6506SOL    HW230978   0.206   1.721   1.630 -0.5626  0.4041 -1.3533
 6507SOL     OW30979   0.542   2.467  13.243 -0.0308 -0.1898  0.2972
 6507SOL    HW130980   0.618   2.409  13.231  0.3553  0.4812 -0.5382
 6507SOL    HW230981   0.505   2.458  13.155  1.5213  2.1357 -0.5981
 6508SOL     OW30982   3.627   1.513   3.719  0.0924  0.2225 -0.4849
 6508SOL    HW130983   3.654   1.479   3.634 -0.0100 -1.0905  0.0104
 6508SOL    HW230984   3.668   1.600   3.717 -0.1288  0.3048 -1.4903
 6509SOL     OW30985   3.743   0.131  16.374  0.0791 -0.3291  0.5469
 6509SOL    HW130986   3.740   0.035  16.364  0.0982 -0.4262  1.4279
 6509SOL    HW230987   3.770   0.122  16.466  2.6537 -1.0523 -0.2797
 6510SOL     OW30988   2.852   2.003   1.205  0.1806 -0.4835  0.1000
 6510SOL    HW130989   2.907   2.009   1.127 -0.5038  0.0937 -0.3372
 6510SOL    HW230990   2.901   2.042   1.278 -0.6825  1.6054 -0.4198
 6511SOL     OW30991   2.679   2.363  10.931  0.8911  0.3188 -0.2817
 6511SOL    HW130992   2.746   2.420  10.892  1.2917  0.1689  0.1854
 6511SOL    HW230993   2.705   2.277  10.896 -3.4317 -0.1186 -2.3868
 6512SOL     OW30994   1.836   0.681  12.474 -0.2649  0.1394  0.3776
 6512SOL    HW130995   1.835   0.773  12.448 -3.5250  0.0986  0.3999
 6512SOL    HW230996   1.777   0.682  12.549  0.9428 -2.1642  1.3705
 6513SOL     OW30997   0.702   3.334   8.571  0.1772  0.5370  0.2169
 6513SOL    HW130998   0.790   3.347   8.608  0.1774  1.2317 -0.0300
 6513SOL    HW230999   0.653   3.333   8.653  1.2660  0.7889  0.8763
 6514SOL     OW31000   3.233   4.636   6.945  0.4013  0.4386  0.0545
 6514SOL    HW131001   3.225   4.644   6.850  1.2801 -0.1550 -0.0708
 6514SOL    HW231002   3.220   0.001   6.977 -1.1919 -0.5897  2.1908
 6515SOL     OW31003   3.352   2.660   6.008  0.1972 -0.5974 -0.9772
 6515SOL    HW131004   3.435   2.689   5.972  0.1182  0.1805 -0.5405
 6515SOL    HW231005   3.380   2.625   6.093  0.2290  1.5741 -0.0760
 6516SOL     OW31006   0.541   0.043  11.523 -0.0438 -0.3644 -0.5835
 6516SOL    HW131007   0.587   0.077  11.447  2.2636  1.2796  1.5648
 6516SOL    HW231008   0.588   4.684  11.524  1.3963  0.4524 -0.2837
 6517SOL     OW31009   0.284   3.694  11.696 -0.3468 -0.0047  0.1394
 6517SOL    HW131010   0.236   3.612  11.689  0.8605 -0.6935 -0.2362
 6517SOL    HW231011   0.370   3.666  11.727  0.5858  0.6698 -1.7889
 6518SOL     OW31012   4.349   4.083   3.656 -0.3031 -0.2214 -0.4646
 6518SOL    HW131013   4.366   4.131   3.738 -0.6822 -0.4544 -0.2521
 6518SOL    HW231014   4.313   4.153   3.601 -2.2768 -0.7340  0.1864
 6519SOL     OW31015   3.161   0.286  16.482  0.0155  0.0320 -0.2035
 6519SOL    HW131016   3.144   0.277  16.388 -1.6367  2.1014 -0.1025
 6519SOL    HW231017   3.256   0.273  16.486  0.0768  0.3512 -0.6253
 6520SOL     OW31018   0.187   4.465   6.587 -0.3597 -0.0390 -0.4215
 6520SOL    HW131019   0.257   4.492   6.646  1.7444 -0.3657 -2.7756
 6520SOL    HW231020   0.130   4.543   6.589 -0.6162 -0.1940 -1.6665
 6521SOL     OW31021   0.432   1.964   6.125 -0.3479  0.1674 -0.2542
 6521SOL    HW131022   0.462   1.882   6.163 -0.9829 -0.4417 -1.0542
 6521SOL    HW231023   0.340   1.969   6.151 -0.1297 -1.5063  0.8695
 6522SOL     OW31024   1.349   0.808   8.000  0.0306  0.4029 -0.4491
 6522SOL    HW131025   1.298   0.888   7.986  2.2571  1.8795 -0.0687
 6522SOL    HW231026   1.301   0.743   7.947  0.2137 -0.3025  0.2487
 6523SOL     OW31027   2.984   3.525   9.652  0.6609 -1.1830 -0.4920
 6523SOL    HW131028   3.010   3.526   9.744  1.0761 -1.9160 -0.5965
 6523SOL    HW231029   2.991   3.431   9.633 -0.4634 -1.0627 -1.5050
 6524SOL     OW31030   1.811   2.017   5.176 -0.0969 -0.0922  0.3812
 6524SOL    HW131031   1.869   1.950   5.138  0.3535  0.9554 -0.7677
 6524SOL    HW231032   1.790   2.059   5.093 -1.2630 -0.2221  0.6147
 6525SOL     OW31033   3.832   0.638   5.270  0.5276  1.1314  0.0893
 6525SOL    HW131034   3.874   0.586   5.338 -0.5611 -0.7023 -0.6375
 6525SOL    HW231035   3.768   0.692   5.317 -0.3344 -0.5877  0.9025
 6526SOL     OW31036   3.839   2.419  11.556 -0.3765 -0.0798 -0.0044
 6526SOL    HW131037   3.912   2.402  11.614 -0.3695 -0.4542 -0.1240
 6526SOL    HW231038   3.886   2.458  11.482 -1.5736  2.1652  0.4173
 6527SOL     OW31039   3.770   3.390  10.586  0.5032 -0.8149  0.5604
 6527SOL    HW131040   3.706   3.418  10.652 -0.5392  3.7612 -2.3472
 6527SOL    HW231041   3.706   3.349  10.528  0.3861 -0.4932  0.4626
 6528SOL     OW31042   2.071   3.070   9.695  0.3088  0.3028 -0.1378
 6528SOL    HW131043   2.055   2.976   9.706 -0.2718  0.5149  0.8474
 6528SOL    HW231044   2.144   3.074   9.633  1.2850  0.1397  0.9961
 6529SOL     OW31045   1.915   1.409   7.460  0.0068  0.4686 -0.0506
 6529SOL    HW131046   1.932   1.502   7.475  0.0632  0.5529 -0.6133
 6529SOL    HW231047   1.911   1.419   7.364 -0.1926 -1.2095 -0.2059
 6530SOL     OW31048   2.625   3.051   4.131  0.2209 -1.0602 -0.7164
 6530SOL    HW131049   2.530   3.046   4.143  0.3841 -2.1313  0.1895
 6530SOL    HW231050   2.646   3.132   4.084  1.5015 -0.2130  1.2830
 6531SOL     OW31051   1.797   0.385   5.041 -0.2494 -0.0588  0.0312
 6531SOL    HW131052   1.732   0.317   5.020  1.3106 -0.9096 -2.1114
 6531SOL    HW231053   1.793   0.379   5.137 -0.3186 -0.9896 -0.0277
 6532SOL     OW31054   1.790   1.875  12.513 -0.0175 -0.6004 -0.3395
 6532SOL    HW131055   1.828   1.792  12.483 -0.7182 -0.5075 -1.4552
 6532SOL    HW231056   1.858   1.900  12.576  0.3657 -1.4260 -0.4225
 6533SOL     OW31057   2.506   4.704  10.077 -0.5312  0.2181  0.3337
 6533SOL    HW131058   2.476   0.011   9.992  1.3141  1.5014  0.1612
 6533SOL    HW231059   2.443   4.633  10.087 -1.5532  1.3097  1.7718
 6534SOL     OW31060   3.968   1.717   3.554 -0.4826  0.2201 -0.0511
 6534SOL    HW131061   4.008   1.646   3.505 -3.0867 -1.5861  0.4530
 6534SOL    HW231062   4.033   1.787   3.555  0.0798 -0.3745  4.5338
 6535SOL     OW31063   0.988   2.957   7.278  0.4803 -0.1188  0.2504
 6535SOL    HW131064   1.083   2.967   7.280  0.4645 -0.2824  2.3733
 6535SOL    HW231065   0.967   3.008   7.356 -0.6002  1.1654 -0.8845
 6536SOL     OW31066   2.173   0.864   3.475 -0.2150  0.0853  0.3956
 6536SOL    HW131067   2.125   0.785   3.452 -2.1154  1.3117  0.1288
 6536SOL    HW231068   2.171   0.904   3.388  0.8412 -1.9112 -0.5478
 6537SOL     OW31069   0.393   3.554  15.009 -0.1730  0.2939 -0.0390
 6537SOL    HW131070   0.321   3.541  15.071  1.0170 -1.1528  1.0318
 6537SOL    HW231071   0.363   3.505  14.933  1.0952 -1.1963  0.4337
 6538SOL     OW31072   0.686   0.513   1.493 -0.2124  0.2206 -0.0727
 6538SOL    HW131073   0.760   0.477   1.444 -0.2264 -0.1867  0.1951
 6538SOL    HW231074   0.678   0.447   1.563  0.5511 -0.4795 -0.6456
 6539SOL     OW31075   0.877   0.391  17.232 -0.0580 -0.0940  0.1836
 6539SOL    HW131076   0.808   0.327  17.215 -0.3995  0.0474  1.0143
 6539SOL    HW231077   0.865   0.435  17.148 -0.7541  1.0790  0.8984
 6540SOL     OW31078   2.798   2.937   2.260  0.3095  0.0954  0.7544
 6540SOL    HW131079   2.853   2.948   2.182  1.0301  1.8882  1.5007
 6540SOL    HW231080   2.799   2.842   2.255 -0.6474 -0.0207  2.6950
 6541SOL     OW31081   2.758   2.711   9.852  0.3946 -0.3750 -0.0126
 6541SOL    HW131082   2.797   2.629   9.823  2.2872  1.4704 -2.6902
 6541SOL    HW231083   2.839   2.757   9.873 -0.9066  0.7471  2.6604
 6542SOL     OW31084   0.791   1.899  10.422  0.1762 -0.6651  0.7628
 6542SOL    HW131085   0.777   1.958  10.496 -1.7005 -0.3727  0.1592
 6542SOL    HW231086   0.839   1.956  10.362  1.5519 -1.7074  0.8727
 6543SOL     OW31087   0.995   1.808   9.029 -0.5970 -0.0681 -0.3561
 6543SOL    HW131088   1.063   1.850   9.082 -0.0325  1.2143 -2.0745
 6543SOL    HW231089   0.913   1.840   9.068  0.2743  2.1461 -0.3354
 6544SOL     OW31090   0.437   1.615   2.516 -0.7859  0.1238  0.0882
 6544SOL    HW131091   0.456   1.539   2.570 -1.0851  1.0237  1.4669
 6544SOL    HW231092   0.461   1.580   2.431 -2.7745  3.8280 -2.0038
 6545SOL     OW31093   2.254   2.771  11.101  0.2642 -0.0815 -0.4168
 6545SOL    HW131094   2.242   2.700  11.163  0.1675 -0.2434 -0.6239
 6545SOL    HW231095   2.182   2.826  11.131 -2.0891 -2.6993 -1.3352
 6546SOL     OW31096   2.996   3.441   5.234 -0.3197 -0.0380 -0.6234
 6546SOL    HW131097   3.073   3.465   5.287 -0.2246  0.3412 -0.9387
 6546SOL    HW231098   3.043   3.432   5.151 -3.0502  0.6006 -2.2197
 6547SOL     OW31099   3.907   4.233   7.410 -0.1522 -0.3976 -0.2029
 6547SOL    HW131100   3.855   4.296   7.459  1.1535 -0.3820  1.1538
 6547SOL    HW231101   3.847   4.217   7.337 -0.7714 -1.2248  0.4831
 6548SOL     OW31102   2.007   2.629   8.073 -0.3759 -0.1333  0.3344
 6548SOL    HW131103   1.985   2.691   8.142  2.4849 -0.8407  1.8669
 6548SOL    HW231104   1.985   2.543   8.108 -3.5885  1.0655  1.2598
 6549SOL     OW31105   4.383   0.067   4.220 -0.0221 -0.7141 -0.3986
 6549SOL    HW131106   4.410   0.125   4.149  1.3261 -2.9825 -1.7406
 6549SOL    HW231107   4.324   0.132   4.258  1.0666 -0.1204  0.2960
 6550SOL     OW31108   1.447   3.531  12.910 -0.2888  0.5085  0.3692
 6550SOL    HW131109   1.396   3.537  12.991  0.8313 -0.1057  1.1102
 6550SOL    HW231110   1.532   3.537  12.953  0.2627  0.7466 -0.7778
 6551SOL     OW31111   2.334   1.086   7.361  0.0017  0.5879  0.5399
 6551SOL    HW131112   2.367   1.170   7.328 -1.8384  1.1910  0.2288
 6551SOL    HW231113   2.305   1.048   7.278  1.5520  2.4263 -0.8332
 6552SOL     OW31114   1.230   2.719   4.757  0.2690  0.0612 -0.3240
 6552SOL    HW131115   1.317   2.687   4.736 -0.3481 -0.0320 -2.7014
 6552SOL    HW231116   1.181   2.645   4.792  2.0926 -1.5141 -1.1180
 6553SOL     OW31117   0.232   4.466  13.670 -0.5859  0.1359 -0.0143
 6553SOL    HW131118   0.191   4.535  13.722 -0.5482 -0.6939  1.0993
 6553SOL    HW231119   0.318   4.505  13.656 -1.0117  0.7957 -0.7991
 6554SOL     OW31120   0.048   2.156   0.624  0.4178 -0.3336 -0.1979
 6554SOL    HW131121   4.709   2.100   0.579 -1.9628  1.7007  0.6518
 6554SOL    HW231122   4.709   2.203   0.677  0.4487  0.8799 -1.2173
 6555SOL     OW31123   3.605   3.267   5.604  0.2062  0.2553 -0.1378
 6555SOL    HW131124   3.528   3.211   5.605  0.1973  0.1931 -2.8570
 6555SOL    HW231125   3.579   3.359   5.595 -1.2368 -0.2987 -1.6680
 6556SOL     OW31126   2.548   1.389  13.670 -0.6571  0.0722  0.6668
 6556SOL    HW131127   2.579   1.352  13.587 -2.2509 -2.3970  1.1825
 6556SOL    HW231128   2.453   1.391  13.661 -0.5762  1.3119 -0.0210
 6557SOL     OW31129   3.029   2.133   7.888  0.5086  0.4418 -0.1385
 6557SOL    HW131130   3.103   2.083   7.855  1.6000  1.9545 -0.0211
 6557SOL    HW231131   2.965   2.065   7.907  1.0088  0.1040  0.3404
 6558SOL     OW31132   2.956   2.665   6.659 -0.2672 -0.6837 -0.1728
 6558SOL    HW131133   2.865   2.668   6.690 -0.2290 -0.6875 -0.0627
 6558SOL    HW231134   2.934   2.688   6.568  0.8423  2.7090  0.4212
 6559SOL     OW31135   3.428   0.877   8.787  0.3586 -0.1122 -0.1940
 6559SOL    HW131136   3.438   0.971   8.795  1.5394 -0.2332 -0.2875
 6559SOL    HW231137   3.452   0.856   8.877 -0.9762  1.8552  0.6024
 6560SOL     OW31138   1.090   0.242  12.550 -0.0173 -0.1193 -0.5813
 6560SOL    HW131139   1.159   0.308  12.558 -1.1900  0.9757  0.5033
 6560SOL    HW231140   1.103   0.201  12.636 -1.7560  0.0917 -0.2295
 6561SOL     OW31141   2.264   3.558   1.226  0.0508 -0.0459  0.4625
 6561SOL    HW131142   2.344   3.574   1.176 -0.0480  0.3452  0.4266
 6561SOL    HW231143   2.206   3.521   1.159 -0.0793  1.8324 -0.4757
 6562SOL     OW31144   0.985   4.266   3.124 -0.0090 -0.0523 -0.0416
 6562SOL    HW131145   1.001   4.295   3.035 -0.1609  0.3008  0.0471
 6562SOL    HW231146   1.030   4.181   3.115 -0.9492 -0.5812  0.2506
 6563SOL     OW31147   4.533   4.421   5.804 -0.0141 -0.1193  0.3154
 6563SOL    HW131148   4.517   4.475   5.881  0.5274  1.7473 -0.9048
 6563SOL    HW231149   4.589   4.478   5.752  0.8870 -0.5482  0.8134
 6564SOL     OW31150   0.941   1.813   3.769 -0.2163  0.5712 -0.3162
 6564SOL    HW131151   0.864   1.771   3.732  1.7018 -0.3994 -3.1800
 6564SOL    HW231152   0.906   1.878   3.831  1.0442 -0.6100  1.6570
 6565SOL     OW31153   1.818   4.652   4.281  0.3143  0.2057 -0.1121
 6565SOL    HW131154   1.765   4.573   4.283 -1.7606  1.6859  3.6698
 6565SOL    HW231155   1.877   4.628   4.210  0.9503 -2.6774  1.3831
 6566SOL     OW31156   1.493   0.704   5.956  0.6145 -0.1400  0.2033
 6566SOL    HW131157   1.437   0.748   6.021 -0.6782  2.1634 -2.4989
 6566SOL    HW231158   1.516   0.769   5.890  1.1547  0.5123  1.0270
 6567SOL     OW31159   4.359   2.782   2.269 -0.2702  0.1004  0.0035
 6567SOL    HW131160   4.271   2.749   2.287 -0.2755  0.3068  0.3393
 6567SOL    HW231161   4.349   2.846   2.199  2.0856  1.1077  0.5759
 6568SOL     OW31162   3.792   0.930   6.458 -0.6892 -0.5487  0.3874
 6568SOL    HW131163   3.728   0.994   6.490 -2.0208 -1.2645 -0.8406
 6568SOL    HW231164   3.870   0.962   6.503  0.5258 -0.5601 -1.7339
 6569SOL     OW31165   1.536   2.655   5.099 -0.9394 -1.1350 -0.2104
 6569SOL    HW131166   1.605   2.665   5.034  0.1132 -0.3401  1.0351
 6569SOL    HW231167   1.495   2.741   5.091  0.0100 -0.6031  0.7752
 6570SOL     OW31168   3.492   0.695   5.627 -0.1032 -0.3654 -0.3380
 6570SOL    HW131169   3.512   0.628   5.562 -1.1468  0.3265 -1.3619
 6570SOL    HW231170   3.397   0.681   5.635 -0.1443  0.7592  1.2978
 6571SOL     OW31171   4.114   3.786   1.006  0.1173 -0.1189  0.6521
 6571SOL    HW131172   4.025   3.750   0.998  0.6967 -1.8833  2.3633
 6571SOL    HW231173   4.100   3.872   1.047 -0.8300 -0.0856  0.2754
 6572SOL     OW31174   3.170   3.421  17.074  0.1619  0.0367 -0.0392
 6572SOL    HW131175   3.178   3.356  17.005  1.7957  0.9228 -0.6808
 6572SOL    HW231176   3.100   3.478  17.041 -1.4520 -0.9538  1.6573
 6573SOL     OW31177   4.691   1.325   7.048 -0.2144  0.0611  0.0602
 6573SOL    HW131178   4.685   1.281   6.963  0.4958  0.8169 -0.3810
 6573SOL    HW231179   0.033   1.270   7.090 -1.7670 -2.1428 -0.3815
 6574SOL     OW31180   0.285   0.387   2.004  0.1262  0.0549  0.3944
 6574SOL    HW131181   0.212   0.354   1.952 -0.2811  1.2715  0.1892
 6574SOL    HW231182   0.270   0.481   1.990  1.3336  0.1790 -0.0413
 6575SOL     OW31183   4.679   2.789  17.160  0.5841  0.0555 -0.2674
 6575SOL    HW131184   4.691   2.882  17.146  0.2925 -0.0541 -1.2395
 6575SOL    HW231185   4.604   2.768  17.104 -0.6150  1.8202  0.6825
 6576SOL     OW31186   1.792   0.067   9.871 -0.0053 -0.1950  0.0405
 6576SOL    HW131187   1.804   4.720   9.934  1.8308  0.1148  0.0311
 6576SOL    HW231188   1.883   0.092   9.855  0.3870 -0.1793  2.3164
 6577SOL     OW31189   0.047   0.539   9.432  0.4825 -0.4192 -0.2650
 6577SOL    HW131190   0.044   0.600   9.358 -0.0462 -1.8621 -1.4473
 6577SOL    HW231191   4.718   0.580   9.500 -0.1211 -0.1550 -0.8931
 6578SOL     OW31192   3.080   3.005   7.335 -0.1124  0.1421 -1.0931
 6578SOL    HW131193   3.079   2.996   7.239  2.9193  1.3062 -1.2383
 6578SOL    HW231194   3.040   2.920   7.351  1.5710 -0.4293  0.0650
 6579SOL     OW31195   3.087   2.992  10.692  0.0339  0.0865 -0.2532
 6579SOL    HW131196   3.070   3.073  10.645 -1.2909 -0.7749 -1.2872
 6579SOL    HW231197   3.178   3.004  10.717  0.4023  0.6667 -1.9028
 6580SOL     OW31198   1.337   3.382   7.702 -1.0010  0.4920  0.3867
 6580SOL    HW131199   1.390   3.398   7.781  0.4420  2.0404 -0.8888
 6580SOL    HW231200   1.298   3.300   7.732 -0.6147  0.7842  1.6887
 6581SOL     OW31201   4.443   3.483   4.429 -0.0190  0.0518  0.2866
 6581SOL    HW131202   4.462   3.437   4.347  0.4510 -1.8754  1.4894
 6581SOL    HW231203   4.352   3.455   4.438  0.4449 -0.8851  1.9401
 6582SOL     OW31204   2.251   2.422   3.393 -0.6454 -0.2908  0.2284
 6582SOL    HW131205   2.238   2.512   3.362  0.8309 -0.6544 -1.4426
 6582SOL    HW231206   2.255   2.381   3.307 -0.6919  0.6723 -0.2349
 6583SOL     OW31207   3.128   1.570   6.342  0.1905 -0.3013 -0.1933
 6583SOL    HW131208   3.065   1.499   6.330 -0.3856  0.2097 -0.1719
 6583SOL    HW231209   3.202   1.513   6.362  1.3699  1.5480  0.7128
 6584SOL     OW31210   3.494   2.870   2.311  0.0678 -0.3436  0.2802
 6584SOL    HW131211   3.503   2.834   2.223  2.0091 -1.8444  1.0943
 6584SOL    HW231212   3.574   2.834   2.348  0.5645 -1.4546 -1.9124
 6585SOL     OW31213   0.549   3.286   7.433  0.1622  0.1085  0.1845
 6585SOL    HW131214   0.627   3.265   7.382 -1.3262 -1.2195 -1.5655
 6585SOL    HW231215   0.565   3.380   7.436 -2.7889  0.6633 -0.9268
 6586SOL     OW31216   1.202   0.343   7.183 -0.0316 -0.0201 -0.1484
 6586SOL    HW131217   1.156   0.304   7.109  2.4733  0.7538 -2.1128
 6586SOL    HW231218   1.287   0.304   7.162 -1.2933 -2.4981 -0.5366
 6587SOL     OW31219   3.345   3.309  15.590  0.0192  0.6343 -0.3806
 6587SOL    HW131220   3.281   3.239  15.605  0.9057  0.4849  2.6849
 6587SOL    HW231221   3.293   3.389  15.582 -1.7806 -0.5072  0.0486
 6588SOL     OW31222   3.578   2.263  12.277 -0.2968 -0.1615  0.1011
 6588SOL    HW131223   3.518   2.248  12.351  0.9743 -1.8974  0.7576
 6588SOL    HW231224   3.618   2.348  12.296 -0.5531 -0.0644  0.2091
 6589SOL     OW31225   2.743   0.122  11.367  0.5576  0.0790 -0.3862
 6589SOL    HW131226   2.681   0.052  11.389  0.0640  0.5295 -0.3312
 6589SOL    HW231227   2.687   0.193  11.400  1.9036 -0.7560  3.7259
 6590SOL     OW31228   3.672   3.020   6.088  0.3196  0.2751 -0.1007
 6590SOL    HW131229   3.768   3.011   6.090  0.2724 -0.5891 -1.5177
 6590SOL    HW231230   3.666   3.026   5.993 -1.0600 -1.8546 -0.1443
 6591SOL     OW31231   1.870   3.667   8.512 -0.2462 -0.0504  0.7600
 6591SOL    HW131232   1.926   3.593   8.536 -0.1706 -0.7129 -1.4535
 6591SOL    HW231233   1.824   3.686   8.594 -2.6085 -1.3773 -0.2778
 6592SOL     OW31234   3.180   1.203   8.248 -0.2332  0.8348 -0.1688
 6592SOL    HW131235   3.212   1.264   8.314  0.3615 -0.2292  0.5362
 6592SOL    HW231236   3.245   1.201   8.178 -0.0009 -0.7189  0.0725
 6593SOL     OW31237   2.648   4.700   8.622 -0.1131 -0.2528  0.7551
 6593SOL    HW131238   2.605   0.060   8.637  0.5904  0.5161 -1.6875
 6593SOL    HW231239   2.656   4.677   8.715  1.7261  0.8616  0.8644
 6594SOL     OW31240   1.000   2.868   4.798  0.5622 -0.4292  0.0866
 6594SOL    HW131241   1.077   2.813   4.784  1.2007  0.5943 -0.3751
 6594SOL    HW231242   0.981   2.901   4.711 -2.2223 -1.9307  0.1000
 6595SOL     OW31243   0.501   3.157  14.560 -0.0488  0.4331 -0.3183
 6595SOL    HW131244   0.454   3.084  14.600  1.4939 -0.6432 -0.4763
 6595SOL    HW231245   0.572   3.165  14.623  0.5543 -0.9632 -0.8241
 6596SOL     OW31246   2.238   4.297  13.928  0.1297 -0.1745  0.4352
 6596SOL    HW131247   2.237   4.384  13.889  3.3692  0.0215  0.8226
 6596SOL    HW231248   2.280   4.234  13.870  0.8435  1.5072 -0.8554
 6597SOL     OW31249   1.668   3.972   6.915 -0.2526 -0.3544 -0.6136
 6597SOL    HW131250   1.644   4.045   6.972 -0.2322  0.8966 -2.2036
 6597SOL    HW231251   1.762   3.965   6.931 -0.0486  1.8463 -0.8640
 6598SOL     OW31252   1.150   0.779   4.353  0.4549 -0.8705 -0.1296
 6598SOL    HW131253   1.132   0.717   4.282 -1.0148 -0.9827  0.3308
 6598SOL    HW231254   1.193   0.721   4.416  2.5811 -0.8145 -1.5333
 6599SOL     OW31255   4.064   0.243  16.209 -0.2695 -0.2640 -0.1082
 6599SOL    HW131256   4.099   0.179  16.146 -0.4321  0.7168 -1.2049
 6599SOL    HW231257   3.979   0.271  16.176  0.6656  0.6578 -1.7554
 6600SOL     OW31258   4.597   0.124  16.460  0.3901  0.2733  0.1702
 6600SOL    HW131259   4.685   0.085  16.458  0.0460 -0.5856  1.6953
 6600SOL    HW231260   4.604   0.167  16.545 -1.8246  0.3467  0.3081
 6601SOL     OW31261   4.601   0.635   4.727  0.4271 -0.4921  0.0190
 6601SOL    HW131262   4.618   0.718   4.772  0.0940 -0.1706 -0.4421
 6601SOL    HW231263   4.506   0.635   4.730  0.3661  1.5399 -1.6383
 6602SOL     OW31264   1.593   0.537   4.011  0.1679  0.3355 -0.5490
 6602SOL    HW131265   1.643   0.489   4.077  0.2341 -2.2929 -2.5290
 6602SOL    HW231266   1.645   0.618   4.020 -1.0327  0.7861  2.4174
 6603SOL     OW31267   3.518   0.143   8.032  0.1420 -0.3669 -0.2624
 6603SOL    HW131268   3.463   0.114   8.105 -0.0360 -3.1851 -1.5105
 6603SOL    HW231269   3.467   0.120   7.955  1.0965  2.9154 -1.8601
 6604SOL     OW31270   1.637   1.719   4.322 -0.3467  0.0466 -0.2353
 6604SOL    HW131271   1.627   1.717   4.418 -1.7156  0.5185 -0.3714
 6604SOL    HW231272   1.619   1.626   4.308  1.4056 -0.2269 -0.5670
 6605SOL     OW31273   1.589   2.905  17.646 -0.0070  0.1864 -0.6950
 6605SOL    HW131274   1.640   2.969  17.596 -2.3198  1.2750 -1.6871
 6605SOL    HW231275   1.574   2.952   0.029 -0.9011  0.8250 -1.2211
 6606SOL     OW31276   4.222   1.830   9.114  0.4773 -0.3330 -0.0325
 6606SOL    HW131277   4.246   1.819   9.022  1.7547  0.3849  0.2213
 6606SOL    HW231278   4.296   1.786   9.156  1.0658  1.2676  0.6105
 6607SOL     OW31279   2.477   1.392   6.068  0.0143 -0.4204 -0.1454
 6607SOL    HW131280   2.453   1.361   6.155 -0.1463  3.0242  1.0195
 6607SOL    HW231281   2.402   1.446   6.043 -1.2791 -1.4249  1.5385
 6608SOL     OW31282   3.408   2.163  15.480 -0.4105 -0.0559  0.0123
 6608SOL    HW131283   3.336   2.197  15.533  0.3784  1.1810  0.2968
 6608SOL    HW231284   3.484   2.211  15.512 -0.4608  0.1278 -0.1457
 6609SOL     OW31285   4.183   1.134   7.725 -0.1716  0.4716 -0.1513
 6609SOL    HW131286   4.198   1.078   7.802  0.7103 -1.0724 -1.4510
 6609SOL    HW231287   4.273   1.147   7.697  0.1830  0.1057  0.8011
 6610SOL     OW31288   0.473   1.349   2.598  0.0861  0.0140  0.6980
 6610SOL    HW131289   0.455   1.265   2.556  0.4865  0.6099 -0.6770
 6610SOL    HW231290   0.446   1.339   2.690 -1.6519 -2.9162 -0.1127
 6611SOL     OW31291   2.266   1.328  17.136 -0.1687 -0.5322  0.7883
 6611SOL    HW131292   2.302   1.343  17.049  2.6441 -1.0266  1.8488
 6611SOL    HW231293   2.348   1.313  17.185  0.7930  0.3783 -0.5368
 6612SOL     OW31294   0.132   0.476   0.192  0.2323 -0.4334  0.3064
 6612SOL    HW131295   0.145   0.554   0.139 -1.2456 -0.4497 -0.0807
 6612SOL    HW231296   0.037   0.479   0.204  0.5312  1.7892  2.2528
 6613SOL     OW31297   2.465   0.689  13.953  0.3951  0.1778 -0.1138
 6613SOL    HW131298   2.408   0.723  14.023 -1.1899  0.9144 -1.7644
 6613SOL    HW231299   2.543   0.743  13.956  0.0723  0.4789  2.6020
 6614SOL     OW31300   1.703   4.268   6.463  0.1190 -0.0211 -0.3669
 6614SOL    HW131301   1.656   4.259   6.546  0.1491  1.5417 -0.1914
 6614SOL    HW231302   1.672   4.199   6.404 -1.7428  0.3905  0.1285
 6615SOL     OW31303   1.878   0.496   7.876  0.0460 -0.0117  0.0247
 6615SOL    HW131304   1.968   0.509   7.848 -0.4095  1.5875 -0.7144
 6615SOL    HW231305   1.850   0.588   7.881 -2.7936 -0.9644  2.0553
 6616SOL     OW31306   1.039   3.113   2.806  0.2299 -0.4342  0.3953
 6616SOL    HW131307   1.129   3.091   2.828  0.7089 -0.3575 -1.4962
 6616SOL    HW231308   0.993   3.101   2.889 -0.7841 -2.2825 -0.4357
 6617SOL     OW31309   3.263   2.221   6.135  0.1073 -0.1544 -0.3238
 6617SOL    HW131310   3.171   2.235   6.157  0.3521  0.0127  0.6128
 6617SOL    HW231311   3.308   2.248   6.216  0.7673 -2.5736  0.1048
 6618SOL     OW31312   0.192   2.761   2.658  0.0165 -0.4924 -0.2920
 6618SOL    HW131313   0.244   2.839   2.635  0.7559 -0.7911  0.3651
 6618SOL    HW231314   0.168   2.725   2.572 -0.3706 -0.6597 -0.1135
 6619SOL     OW31315   0.443   0.294   8.864 -0.1980  0.0222 -0.4079
 6619SOL    HW131316   0.527   0.321   8.900 -0.7300  1.6058 -0.3650
 6619SOL    HW231317   0.421   0.220   8.920  1.2775 -0.2123 -0.1405
 6620SOL     OW31318   4.095   3.339   9.138 -0.4409 -0.1008  0.7396
 6620SOL    HW131319   4.034   3.348   9.212  0.5780  0.8168  1.4676
 6620SOL    HW231320   4.096   3.430   9.109 -4.0216 -0.6511 -1.1458
 6621SOL     OW31321   2.814   3.634   5.348 -0.5313 -0.2101  0.7431
 6621SOL    HW131322   2.869   3.563   5.317  0.9846  1.0871  0.4748
 6621SOL    HW231323   2.738   3.581   5.372  0.3921 -1.2648  1.3278
 6622SOL     OW31324   2.830   0.154  10.504 -0.3480  0.1103  0.0554
 6622SOL    HW131325   2.788   0.239  10.489 -0.6192 -0.2904 -1.4626
 6622SOL    HW231326   2.767   0.095  10.463  0.7722 -1.0867  0.0411
 6623SOL     OW31327   0.026   3.927   4.566 -0.0009  0.1590  0.3473
 6623SOL    HW131328   0.073   4.008   4.543 -2.9898  1.2875 -1.7779
 6623SOL    HW231329   4.663   3.935   4.528  0.1055 -0.9538 -0.1318
 6624SOL     OW31330   2.019   1.814   3.725  0.0640  0.5633  0.2854
 6624SOL    HW131331   2.080   1.887   3.717  0.0303  0.2445 -2.5778
 6624SOL    HW231332   2.009   1.819   3.821  0.0160 -0.4765  0.3276
 6625SOL     OW31333   0.956   0.783   3.314 -0.2194 -0.2118 -0.2039
 6625SOL    HW131334   0.977   0.691   3.301 -1.3653 -0.3418 -1.1719
 6625SOL    HW231335   0.875   0.794   3.264  0.6814  1.9187 -1.2171
 6626SOL     OW31336   0.696   0.029   5.123  0.6346  0.5275 -0.1544
 6626SOL    HW131337   0.745   4.671   5.120 -2.8832 -1.5806  0.1387
 6626SOL    HW231338   0.656   0.018   5.210  1.5379  1.3797  0.3800
 6627SOL     OW31339   1.084   1.637   5.684 -0.6613 -0.0617  0.8189
 6627SOL    HW131340   1.145   1.687   5.630 -0.8454 -1.2930 -0.5184
 6627SOL    HW231341   1.057   1.714   5.735 -1.4394  1.6697 -2.2224
 6628SOL     OW31342   0.757   3.129   6.799  0.3757 -0.7521 -0.5071
 6628SOL    HW131343   0.670   3.096   6.775  0.1169  0.4082 -1.1983
 6628SOL    HW231344   0.801   3.156   6.718 -2.4895  0.1889 -1.7837
 6629SOL     OW31345   3.970   2.631   5.573  0.2917 -0.2414 -0.3519
 6629SOL    HW131346   4.019   2.657   5.651  0.3121 -0.4204 -0.3055
 6629SOL    HW231347   4.009   2.691   5.509  0.4887 -0.4926 -0.4684
 6630SOL     OW31348   3.789   0.952   4.657 -0.3186 -0.0839 -0.1027
 6630SOL    HW131349   3.844   0.900   4.599  2.4166  0.7695  1.7100
 6630SOL    HW231350   3.833   1.037   4.660  0.9964 -0.7569 -0.5024
 6631SOL     OW31351   3.076   0.987   9.018  0.5270 -0.5041  0.2752
 6631SOL    HW131352   3.136   1.035   9.074  1.7950 -0.6733 -0.9409
 6631SOL    HW231353   3.041   1.049   8.954 -0.5604 -0.8151  0.5584
 6632SOL     OW31354   2.204   3.938   7.327  0.4682  0.0598 -0.1515
 6632SOL    HW131355   2.223   3.949   7.421  0.0280 -2.6891  0.2552
 6632SOL    HW231356   2.126   3.993   7.318  0.4207 -0.1468 -0.9505
 6633SOL     OW31357   0.138   0.982  15.621 -0.7249 -0.2096  0.4991
 6633SOL    HW131358   0.154   0.927  15.698  2.3691 -0.0857 -0.0515
 6633SOL    HW231359   0.044   0.999  15.632 -1.0477 -0.3080 -2.0627
 6634SOL     OW31360   3.171   2.747   3.347  0.1699 -0.4450 -0.2965
 6634SOL    HW131361   3.232   2.680   3.316 -0.0252 -0.8825  0.2495
 6634SOL    HW231362   3.086   2.710   3.321 -0.4073  0.3159  0.4953
 6635SOL     OW31363   3.916   2.858  15.866  0.2497  0.2788  0.0859
 6635SOL    HW131364   3.930   2.952  15.853 -0.8294  0.1996 -1.6155
 6635SOL    HW231365   3.823   2.854  15.843 -0.0072  0.0669  1.1885
 6636SOL     OW31366   3.095   2.469  15.896 -0.4370  0.2953 -0.3761
 6636SOL    HW131367   3.138   2.402  15.951 -2.4492 -1.4838 -0.9764
 6636SOL    HW231368   3.037   2.505  15.963 -1.4801 -0.1684 -1.0324
 6637SOL     OW31369   2.658   2.941   4.755  0.0921  0.1090 -0.5225
 6637SOL    HW131370   2.707   2.883   4.697  0.9929  0.5251 -0.1776
 6637SOL    HW231371   2.612   3.006   4.701 -0.4873  0.2137  0.1018
 6638SOL     OW31372   4.117   2.019   5.366  0.2910  0.1224 -0.3450
 6638SOL    HW131373   4.202   1.978   5.346  0.9800  1.7016 -0.6650
 6638SOL    HW231374   4.084   1.968   5.440  1.3980 -0.3159 -0.1466
 6639SOL     OW31375   1.616   4.506   6.283  0.1036  0.1368 -0.9038
 6639SOL    HW131376   1.653   4.422   6.310 -0.0982 -0.5017 -2.5994
 6639SOL    HW231377   1.524   4.500   6.306 -0.1996  1.9031 -1.6551
 6640SOL     OW31378   1.023   2.034  16.870 -0.1499  0.6165  0.2437
 6640SOL    HW131379   1.022   2.039  16.775  3.3233 -3.6073 -0.0457
 6640SOL    HW231380   1.044   1.943  16.894  0.2719  0.4601 -0.7020
 6641SOL     OW31381   2.772   0.185   2.640 -0.3386 -0.0675 -0.3263
 6641SOL    HW131382   2.778   0.190   2.545 -1.7753 -2.0489 -0.5278
 6641SOL    HW231383   2.741   0.096   2.657  0.6732 -0.0717  1.4852
 6642SOL     OW31384   2.538   0.805   2.734 -0.3105 -0.5177  0.9064
 6642SOL    HW131385   2.547   0.884   2.680  0.6379 -0.6186  0.9325
 6642SOL    HW231386   2.530   0.850   2.818 -1.8868  0.1703  0.3965
 6643SOL     OW31387   1.029   1.469   1.656  0.0930 -0.3961  0.3324
 6643SOL    HW131388   1.057   1.408   1.724  0.9659  0.1454  0.4606
 6643SOL    HW231389   1.108   1.522   1.645  0.2000 -0.3686  1.2448
 6644SOL     OW31390   4.201   1.549   3.616 -0.2634  0.3006  0.4315
 6644SOL    HW131391   4.268   1.511   3.672 -0.4183  2.4816  2.1248
 6644SOL    HW231392   4.250   1.559   3.534 -0.4152 -0.5507  0.2395
 6645SOL     OW31393   4.045   2.660   3.328 -0.3365 -0.8102  0.0607
 6645SOL    HW131394   4.124   2.675   3.380  1.5501  0.3807 -3.1394
 6645SOL    HW231395   4.052   2.564   3.330  0.0408 -0.7802  0.1920
 6646SOL     OW31396   3.003   3.249  14.572  0.4150  0.6933 -0.0858
 6646SOL    HW131397   2.993   3.300  14.492  0.2553 -1.1299 -1.2240
 6646SOL    HW231398   2.982   3.308  14.645  1.3417  0.7008  0.1788
 6647SOL     OW31399   0.210   4.724  17.520  0.2107 -0.0028 -0.6256
 6647SOL    HW131400   0.215   0.001  17.425 -1.8083 -3.1855 -0.7763
 6647SOL    HW231401   0.126   4.697  17.557  1.3715  1.3156  3.0211
 6648SOL     OW31402   1.055   0.343   2.690 -0.1009  0.0231  0.4019
 6648SOL    HW131403   0.972   0.382   2.718 -1.5857 -2.9258  0.0932
 6648SOL    HW231404   1.115   0.412   2.719  1.5486 -1.3068  0.1389
 6649SOL     OW31405   1.678   4.035   8.516 -0.6052  0.4455 -0.0827
 6649SOL    HW131406   1.756   4.031   8.570 -1.0650 -0.7321  0.4899
 6649SOL    HW231407   1.700   4.110   8.460  0.5788  0.9051  1.0047
 6650SOL     OW31408   2.678   1.259   3.340  0.4379  0.4430  0.1494
 6650SOL    HW131409   2.590   1.260   3.302  0.3897 -1.5499  0.1645
 6650SOL    HW231410   2.729   1.206   3.279  0.5622  0.4156  0.2785
 6651SOL     OW31411   1.860   0.711  13.346 -0.7903  0.2894  0.1884
 6651SOL    HW131412   1.770   0.734  13.370 -0.4075  1.2015  0.7535
 6651SOL    HW231413   1.907   0.793  13.358  2.4067 -1.1639 -2.1302
 6652SOL     OW31414   0.364   3.350  10.282  0.4300  0.2748  0.0368
 6652SOL    HW131415   0.338   3.263  10.313  2.5282 -0.4012 -0.0812
 6652SOL    HW231416   0.353   3.399  10.363 -3.2525  0.0127 -0.2851
 6653SOL     OW31417   0.351   4.317   7.986 -0.4592  0.0788 -0.2171
 6653SOL    HW131418   0.314   4.276   7.908 -1.4536  1.1620 -0.3243
 6653SOL    HW231419   0.383   4.248   8.043 -1.7718  1.2100  1.8744
 6654SOL     OW31420   3.596   3.216   2.610 -0.2887 -0.3507  0.0079
 6654SOL    HW131421   3.545   3.286   2.650 -0.3989  0.0581 -0.8386
 6654SOL    HW231422   3.682   3.238   2.647 -0.3256  0.4505 -0.3775
 6655SOL     OW31423   4.634   3.549  11.759  0.3607  0.6429 -0.1658
 6655SOL    HW131424   4.628   3.473  11.817  1.0168  2.0203  1.6974
 6655SOL    HW231425   4.689   3.527  11.684  0.9014  0.1284  0.3842
 6656SOL     OW31426   3.997   3.735  13.263 -0.7427  0.2440 -0.5907
 6656SOL    HW131427   4.078   3.716  13.215 -0.8353 -0.4954 -0.4614
 6656SOL    HW231428   3.936   3.751  13.192 -0.4014  0.9449 -0.7280
 6657SOL     OW31429   3.636   1.915  13.322  0.0161  1.1430 -0.1397
 6657SOL    HW131430   3.709   1.854  13.317 -1.9310 -1.4171  2.4676
 6657SOL    HW231431   3.598   1.885  13.405  1.4563  3.5413  1.3901
 6658SOL     OW31432   3.588   1.069   6.835 -0.0144 -0.3783  0.5364
 6658SOL    HW131433   3.578   1.013   6.758 -2.5658  0.9864 -0.1373
 6658SOL    HW231434   3.588   1.156   6.795 -1.0058 -0.4445  0.4006
 6659SOL     OW31435   2.947   0.044  10.051  0.3878  0.3972  0.0995
 6659SOL    HW131436   3.011   0.111  10.027  0.9349 -0.6290 -1.2970
 6659SOL    HW231437   2.931   4.720   9.970 -0.5534 -0.5112  0.8175
 6660SOL     OW31438   1.060   3.255   7.065 -0.4466 -0.7814 -0.2434
 6660SOL    HW131439   1.100   3.168   7.062 -0.1506 -0.6657  0.4406
 6660SOL    HW231440   1.095   3.278   7.151 -1.6914  0.3804 -0.0502
 6661SOL     OW31441   0.349   1.626   9.472  0.3575 -0.1613  0.4019
 6661SOL    HW131442   0.336   1.558   9.539 -1.5057 -0.8343 -0.6440
 6661SOL    HW231443   0.388   1.579   9.398  0.6793 -0.1168  0.5426
 6662SOL     OW31444   2.138   2.980  13.441 -0.8729  0.0340  0.1939
 6662SOL    HW131445   2.215   2.977  13.499 -1.0975 -1.1701  0.4416
 6662SOL    HW231446   2.170   3.017  13.359  0.4943  0.8239  1.0873
 6663SOL     OW31447   4.484   3.283  10.157 -0.1287  0.1666  0.7828
 6663SOL    HW131448   4.574   3.313  10.156  0.0508 -0.3751  1.0400
 6663SOL    HW231449   4.487   3.190  10.178 -1.4612 -0.3130 -1.1695
 6664SOL     OW31450   0.493   2.250  17.595 -0.0101  0.3656  0.3468
 6664SOL    HW131451   0.467   2.166  17.632 -0.5886  0.1306 -0.5748
 6664SOL    HW231452   0.586   2.248  17.614 -0.2179  2.3330  1.5778
 6665SOL     OW31453   2.381   2.904   2.447 -0.3897  0.6938 -0.0560
 6665SOL    HW131454   2.326   2.891   2.525  0.0668  3.0653  0.6773
 6665SOL    HW231455   2.318   2.942   2.384 -0.4575 -3.7106 -2.6084
 6666SOL     OW31456   4.653   1.653  16.531 -0.4589  0.0784  0.4225
 6666SOL    HW131457   4.709   1.577  16.546 -0.4345  0.1144  0.5134
 6666SOL    HW231458   4.645   1.689  16.619 -3.3629 -0.3187  0.3298
 6667SOL     OW31459   4.427   2.473   3.315  0.2052 -0.0780 -0.2101
 6667SOL    HW131460   4.337   2.457   3.285 -0.1219  0.8172  0.2836
 6667SOL    HW231461   4.471   2.498   3.234 -0.2657  0.2540 -0.3699
 6668SOL     OW31462   3.892   3.104   7.661  0.2452 -0.0833  0.0750
 6668SOL    HW131463   3.897   3.121   7.567 -1.1393  0.0976  0.0308
 6668SOL    HW231464   3.965   3.160   7.687 -0.3533  1.1348 -0.8872
 6669SOL     OW31465   3.929   3.104  15.996  0.2214  0.3442  0.3948
 6669SOL    HW131466   3.862   3.171  16.000 -0.3638 -0.0862 -2.3346
 6669SOL    HW231467   3.981   3.147  15.928  0.3764  0.0528  0.3299
 6670SOL     OW31468   0.790   1.995   3.463  0.1241 -0.7903 -0.2653
 6670SOL    HW131469   0.883   1.981   3.480  0.6441  1.5875 -1.2733
 6670SOL    HW231470   0.791   2.007   3.368  0.1470  1.5298  0.0290
 6671SOL     OW31471   3.987   0.114   6.415  0.2647  0.0096 -0.2689
 6671SOL    HW131472   4.082   0.120   6.423  0.1294  0.1511  1.1746
 6671SOL    HW231473   3.974   0.100   6.509  2.7612  0.5147  0.1392
 6672SOL     OW31474   3.313   3.686   0.474 -0.3500  0.2788  0.4685
 6672SOL    HW131475   3.221   3.664   0.462 -0.3823 -0.3334  1.9001
 6672SOL    HW231476   3.315   3.740   0.553 -0.6336 -0.2187  0.8100
 6673SOL     OW31477   2.435   2.145   5.935 -0.0285  0.1632  0.6732
 6673SOL    HW131478   2.416   2.237   5.922 -0.5293  0.2170  1.7473
 6673SOL    HW231479   2.506   2.149   6.000  2.5471  1.8766 -2.2877
 6674SOL     OW31480   4.298   4.506   5.662  0.1812  0.5991  0.0732
 6674SOL    HW131481   4.357   4.510   5.736 -0.0741 -1.8011  0.3950
 6674SOL    HW231482   4.300   4.413   5.643 -1.2589  0.7506 -0.8748
 6675SOL     OW31483   0.856   2.993  10.769 -0.0709 -0.1298  0.1025
 6675SOL    HW131484   0.915   3.049  10.720 -0.1004 -0.8503 -0.7526
 6675SOL    HW231485   0.871   3.012  10.862 -0.2069 -0.5889  0.2214
 6676SOL     OW31486   2.928   0.682  12.386 -0.1871 -0.3133 -0.2671
 6676SOL    HW131487   2.953   0.691  12.478 -0.6286 -0.8310 -0.0952
 6676SOL    HW231488   2.976   0.748  12.337  0.1391 -0.3162  0.0504
 6677SOL     OW31489   0.854   2.173   4.712 -0.0307  0.2432 -0.4739
 6677SOL    HW131490   0.933   2.190   4.661  0.4220 -0.2422  0.0568
 6677SOL    HW231491   0.802   2.253   4.705  0.8575  0.8865  0.1981
 6678SOL     OW31492   0.597   2.499   3.350 -0.2646  0.1282 -0.1442
 6678SOL    HW131493   0.605   2.444   3.272  0.3433  0.5336 -0.3743
 6678SOL    HW231494   0.640   2.577   3.313 -1.3085  0.0178 -1.5997
 6679SOL     OW31495   1.043   0.027   2.735  0.4626  0.1832 -0.0660
 6679SOL    HW131496   1.084   0.101   2.691 -0.2084  0.0122 -0.9918
 6679SOL    HW231497   0.951   0.052   2.741  0.7516  1.1325  0.2828
 6680SOL     OW31498   3.436   0.331   5.678 -0.9259  0.1193  0.6162
 6680SOL    HW131499   3.437   0.389   5.602  0.4263 -1.2250 -0.3870
 6680SOL    HW231500   3.491   0.260   5.646 -0.2168 -0.3695  2.9710
 6681SOL     OW31501   4.567   3.285   2.109 -0.3723 -0.0978 -0.2155
 6681SOL    HW131502   4.660   3.265   2.099 -0.5093 -0.2015 -1.2921
 6681SOL    HW231503   4.543   3.279   2.016 -1.6719 -0.3965  0.1302
 6682SOL     OW31504   4.539   1.752   3.156  0.3264  0.6400  0.1898
 6682SOL    HW131505   4.500   1.780   3.073 -0.4703  0.8363  0.6391
 6682SOL    HW231506   4.628   1.725   3.132  1.1749  1.8758  1.9028
 6683SOL     OW31507   0.832   1.396  13.395 -0.1062  0.3451 -0.0446
 6683SOL    HW131508   0.904   1.379  13.334  1.6350  1.3621  1.7650
 6683SOL    HW231509   0.831   1.308  13.431 -1.8936 -0.6805 -2.5749
 6684SOL     OW31510   1.740   2.772   8.244  0.0155  0.3844 -0.3517
 6684SOL    HW131511   1.792   2.851   8.229  0.8626  0.2925  1.9505
 6684SOL    HW231512   1.664   2.795   8.191  0.3717 -1.1727 -1.5306
 6685SOL     OW31513   0.532   1.857  10.343 -0.1753  0.1223 -0.4453
 6685SOL    HW131514   0.626   1.878  10.344 -0.4994  1.6311 -1.1751
 6685SOL    HW231515   0.503   1.915  10.413 -0.2600  0.1958 -0.5411
 6686SOL     OW31516   2.632   4.101   3.258 -0.2794  0.0666  0.2798
 6686SOL    HW131517   2.589   4.180   3.291 -0.6961  0.7430 -1.9109
 6686SOL    HW231518   2.689   4.127   3.186 -0.6043 -0.3381 -0.1276
 6687SOL     OW31519   1.038   3.390  16.668 -0.0322  0.4728 -0.0884
 6687SOL    HW131520   0.980   3.466  16.657  0.0672  0.5523 -0.0591
 6687SOL    HW231521   1.040   3.393  16.764 -0.0015  0.6571 -0.0952
 6688SOL     OW31522   3.454   0.140  14.218 -0.6743 -0.0656  0.0128
 6688SOL    HW131523   3.463   0.138  14.123  0.1508 -0.7569  0.1033
 6688SOL    HW231524   3.542   0.172  14.236 -0.3581 -1.1745  0.4765
 6689SOL     OW31525   0.386   4.332   1.804  0.2068  0.0988  0.3551
 6689SOL    HW131526   0.453   4.310   1.868  0.2651 -0.0704  0.2337
 6689SOL    HW231527   0.398   4.427   1.806 -1.3467  0.3225 -0.4235
 6690SOL     OW31528   3.851   0.609   0.992  0.3024  0.0305  0.1881
 6690SOL    HW131529   3.803   0.682   0.952  1.6811  0.0881 -1.4166
 6690SOL    HW231530   3.905   0.576   0.920 -1.3388 -2.3706  0.0929
 6691SOL     OW31531   1.621   3.526   1.987  0.2186 -0.0618  0.7547
 6691SOL    HW131532   1.633   3.580   2.065 -0.0631 -1.0548  1.4969
 6691SOL    HW231533   1.556   3.573   1.935 -0.1694 -2.7408 -1.1668
 6692SOL     OW31534   3.413   4.568   7.207 -0.1025 -0.1784  0.3180
 6692SOL    HW131535   3.437   4.649   7.161  0.8790 -1.9506 -2.3388
 6692SOL    HW231536   3.481   4.535   7.265  1.0335  0.6847 -0.5126
 6693SOL     OW31537   1.616   1.259  14.552  0.5072 -0.5367  0.1651
 6693SOL    HW131538   1.545   1.238  14.492  2.0024  1.3211 -2.2783
 6693SOL    HW231539   1.609   1.188  14.615  0.4312 -0.9506 -0.3053
 6694SOL     OW31540   0.089   3.223   8.680 -0.8351 -0.4451 -0.0152
 6694SOL    HW131541   0.137   3.141   8.668 -0.5954 -0.3999  0.6774
 6694SOL    HW231542   0.141   3.270   8.745 -1.1780  0.7946 -0.6161
 6695SOL     OW31543   4.035   3.291   2.003 -0.4772  0.0249 -0.2206
 6695SOL    HW131544   3.990   3.366   2.042 -0.7926 -0.5285  0.4866
 6695SOL    HW231545   4.106   3.335   1.958 -0.2522  0.7436  0.8424
 6696SOL     OW31546   0.714   4.616   7.086  0.2364 -0.2352  0.2897
 6696SOL    HW131547   0.630   4.574   7.067 -0.0141  1.1045 -1.5431
 6696SOL    HW231548   0.684   4.707   7.092 -2.6779 -1.2751  1.6571
 6697SOL     OW31549   0.179   4.555   3.179 -0.2157 -0.2141 -0.6309
 6697SOL    HW131550   0.258   4.507   3.156 -1.0922 -2.3951  0.9100
 6697SOL    HW231551   0.142   4.563   3.092 -1.1588 -0.9572 -0.2979
 6698SOL     OW31552   1.994   2.410   6.784 -0.4606  0.0118 -0.0512
 6698SOL    HW131553   2.000   2.328   6.833 -2.2614 -0.2618 -0.2905
 6698SOL    HW231554   2.030   2.475   6.845 -0.2485 -3.2867  3.3858
 6699SOL     OW31555   1.212   3.855   2.847 -0.0696 -0.7649 -0.0953
 6699SOL    HW131556   1.272   3.929   2.845  0.1617 -1.0161 -2.4854
 6699SOL    HW231557   1.277   3.794   2.811 -1.7602 -2.5514 -0.1080
 6700SOL     OW31558   1.791   4.138  15.038 -0.0543 -0.0013  0.5041
 6700SOL    HW131559   1.883   4.140  15.062 -0.1209  0.2780  0.7322
 6700SOL    HW231560   1.803   4.111  14.947 -0.1680 -0.1062  0.5199
 6701SOL     OW31561   3.290   0.979   4.975 -0.4481 -0.4045 -0.3310
 6701SOL    HW131562   3.367   1.020   5.014  0.1212 -2.5637  0.8706
 6701SOL    HW231563   3.325   0.914   4.913  1.7667 -1.2276  1.7574
 6702SOL     OW31564   4.363   2.881   3.967 -0.3251 -0.0332 -0.1703
 6702SOL    HW131565   4.286   2.936   3.981 -0.6054 -1.2635  3.1841
 6702SOL    HW231566   4.376   2.889   3.873 -0.2052 -0.1113 -0.1607
 6703SOL     OW31567   1.054   4.286   4.255  0.4971  0.4151  0.3039
 6703SOL    HW131568   1.142   4.258   4.233  0.1200  0.1624 -0.8838
 6703SOL    HW231569   1.042   4.375   4.222 -0.6001  1.1556  2.7451
 6704SOL     OW31570   4.176   4.561   9.506 -0.0893 -0.2070  0.1398
 6704SOL    HW131571   4.143   4.651   9.502  0.7310  0.0605 -0.5963
 6704SOL    HW231572   4.233   4.565   9.583 -0.2996  3.2593  0.1376
 6705SOL     OW31573   2.577   0.627   6.116  0.3255 -0.8295 -0.1640
 6705SOL    HW131574   2.639   0.689   6.156 -1.1339  1.2325 -1.0720
 6705SOL    HW231575   2.492   0.661   6.144  1.1212  1.0901 -0.0504
 6706SOL     OW31576   1.127   3.394   9.111 -0.2565 -0.5179  0.7888
 6706SOL    HW131577   1.096   3.483   9.124  0.5158 -0.2488  0.7778
 6706SOL    HW231578   1.050   3.357   9.068 -0.2957  0.6061 -0.1056
 6707SOL     OW31579   1.458   0.121  16.671  0.6165 -0.1540 -0.7257
 6707SOL    HW131580   1.526   0.063  16.704  2.2340  0.8510 -2.3086
 6707SOL    HW231581   1.501   0.146  16.589 -2.4445 -0.3997 -2.3950
 6708SOL     OW31582   0.361   1.904  10.586 -0.0716  0.6689  0.4679
 6708SOL    HW131583   0.311   1.937  10.660 -2.1710 -1.3245 -0.0481
 6708SOL    HW231584   0.290   1.872  10.530  0.8359 -1.2841  0.4402
 6709SOL     OW31585   3.673   1.599  10.773 -0.8719 -0.4081 -0.1483
 6709SOL    HW131586   3.744   1.573  10.715 -1.4668 -2.5204  0.0780
 6709SOL    HW231587   3.593   1.553  10.748 -0.7280 -1.4418  1.2510
 6710SOL     OW31588   2.668   1.211   0.462 -0.4617  0.0738 -0.3824
 6710SOL    HW131589   2.701   1.223   0.551 -1.1991  1.8247 -0.3460
 6710SOL    HW231590   2.728   1.267   0.413 -0.5460  1.1536  0.7617
 6711SOL     OW31591   1.225   3.564   7.087  0.2558 -0.5405 -0.2723
 6711SOL    HW131592   1.162   3.611   7.032  3.5205  3.3753 -0.6815
 6711SOL    HW231593   1.255   3.500   7.023  1.6436  2.1851 -2.3832
 6712SOL     OW31594   4.647   0.508   5.652  0.1044  0.4020 -0.1021
 6712SOL    HW131595   4.600   0.519   5.569 -0.0926 -1.3744 -0.2264
 6712SOL    HW231596   4.694   0.592   5.652  0.2455  0.3188  3.0346
 6713SOL     OW31597   1.808   0.508   8.368 -0.7069  0.0412  0.5364
 6713SOL    HW131598   1.767   0.500   8.282  2.1788 -0.1355 -0.8132
 6713SOL    HW231599   1.747   0.571   8.406  1.8175  1.9830  1.2967
 6714SOL     OW31600   2.935   3.869  11.468  0.0250  0.3469 -0.1324
 6714SOL    HW131601   3.020   3.852  11.427 -0.2960 -1.8905  0.1118
 6714SOL    HW231602   2.937   3.962  11.491 -1.6049  0.8324 -2.0302
 6715SOL     OW31603   0.855   3.694   1.893  0.2352 -0.5207  0.1310
 6715SOL    HW131604   0.846   3.636   1.817 -2.4303 -0.3492  0.3252
 6715SOL    HW231605   0.827   3.779   1.858 -0.7269 -0.6186  0.6750
 6716SOL     OW31606   2.749   0.929   4.199  0.5443  0.5938 -0.0229
 6716SOL    HW131607   2.747   0.918   4.294  0.0330 -0.1269 -0.1166
 6716SOL    HW231608   2.753   0.841   4.161 -0.2752 -0.0460  1.3506
 6717SOL     OW31609   0.276   4.347  17.449  0.0266  0.3550  0.0823
 6717SOL    HW131610   0.230   4.279  17.500 -1.8075  1.7468  0.3076
 6717SOL    HW231611   0.330   4.389  17.515  0.0808 -1.2117  1.0409
 6718SOL     OW31612   2.393   0.177   1.703 -0.5437  0.5962  0.0979
 6718SOL    HW131613   2.432   0.145   1.784 -1.5477 -0.7231  0.0780
 6718SOL    HW231614   2.303   0.153   1.725 -0.8271  0.9014 -0.7147
 6719SOL     OW31615   3.289   0.796   8.309 -0.2696  0.0254  0.6808
 6719SOL    HW131616   3.359   0.844   8.266 -1.4886  1.0035 -0.2184
 6719SOL    HW231617   3.336   0.781   8.391 -0.0108  0.1083  0.5470
 6720SOL     OW31618   0.731   2.034   9.847  0.1680 -1.3678 -0.3278
 6720SOL    HW131619   0.650   2.046   9.798 -0.7663 -2.9874  0.8199
 6720SOL    HW231620   0.702   2.039   9.938  1.4422 -1.4624  0.0894
 6721SOL     OW31621   0.754   4.470   8.332  0.0125 -0.2566  0.2091
 6721SOL    HW131622   0.662   4.459   8.358  0.2381 -0.5366  0.8810
 6721SOL    HW231623   0.751   4.388   8.281  1.2840  1.1928 -2.1963
 6722SOL     OW31624   1.470   4.648  14.595  0.3901  0.3604 -0.0262
 6722SOL    HW131625   1.412   4.647  14.518  1.3440  2.4475 -0.7875
 6722SOL    HW231626   1.526   4.571  14.593  1.0506  0.8448 -0.2523
 6723SOL     OW31627   0.147   1.359   8.863  0.1601 -0.5941 -0.2558
 6723SOL    HW131628   0.062   1.330   8.897 -0.8369  0.8679 -1.5155
 6723SOL    HW231629   0.162   1.302   8.788  3.2659  0.2143 -0.2454
 6724SOL     OW31630   2.101   2.850  16.194  0.5670 -0.6276  0.0991
 6724SOL    HW131631   2.008   2.865  16.181  0.4362 -0.5387  1.1235
 6724SOL    HW231632   2.095   2.799  16.275 -2.2795 -0.4925 -0.0217
 6725SOL     OW31633   0.005   0.222   3.865  0.2997 -0.1363  0.2825
 6725SOL    HW131634   4.665   0.220   3.936  0.8309  2.8708  0.8691
 6725SOL    HW231635   0.083   0.238   3.918  1.0498 -0.6003 -0.6744
 6726SOL     OW31636   1.890   1.930  13.606 -0.2472  0.1453 -0.1765
 6726SOL    HW131637   1.958   1.902  13.545  0.2912 -1.1284  0.9885
 6726SOL    HW231638   1.920   1.887  13.686  2.6343 -0.1533 -1.4405
 6727SOL     OW31639   3.971   4.264  14.817  0.1902  0.0342 -0.0394
 6727SOL    HW131640   3.875   4.259  14.817  0.1705  0.3224 -0.6245
 6727SOL    HW231641   3.993   4.176  14.846  0.9375  0.1045 -0.3916
 6728SOL     OW31642   4.495   1.766   2.262 -0.1431  0.2548  0.0967
 6728SOL    HW131643   4.421   1.826   2.269 -0.7820 -0.7556  1.7102
 6728SOL    HW231644   4.551   1.833   2.221  0.7596 -0.9141 -0.6062
 6729SOL     OW31645   1.774   1.337   6.514  0.0954  0.2472 -0.0344
 6729SOL    HW131646   1.801   1.260   6.565  1.3005  0.8791  0.2863
 6729SOL    HW231647   1.737   1.393   6.581  0.8520  0.6770  0.0271
 6730SOL     OW31648   0.842   3.995  13.881 -0.3627 -0.2981 -0.5961
 6730SOL    HW131649   0.792   3.958  13.808 -2.1036  0.7556  0.0590
 6730SOL    HW231650   0.812   4.086  13.870  0.7921  0.3976  2.0705
 6731SOL     OW31651   0.717   0.345   8.970  0.3763 -0.1587  0.7214
 6731SOL    HW131652   0.776   0.296   8.913  0.5057  0.1450  0.5965
 6731SOL    HW231653   0.728   0.292   9.049  2.3646 -0.2550  0.3600
 6732SOL     OW31654   1.828   0.746   5.947 -0.2093  0.1391 -0.0977
 6732SOL    HW131655   1.781   0.680   5.999 -0.8830  1.1226  0.5397
 6732SOL    HW231656   1.846   0.799   6.025 -0.8524  0.0688  0.0987
 6733SOL     OW31657   4.218   3.667   9.807  0.1180 -0.2917 -0.6803
 6733SOL    HW131658   4.305   3.634   9.830 -0.3329 -1.5907 -0.8584
 6733SOL    HW231659   4.213   3.636   9.716  0.0011 -3.2731  0.3329
 6734SOL     OW31660   4.133   0.958   4.947  0.9139 -0.0211 -0.1509
 6734SOL    HW131661   4.110   0.896   5.016  1.2060 -0.7018 -0.6627
 6734SOL    HW231662   4.061   1.021   4.956  2.4794  1.6921  0.3873
 6735SOL     OW31663   0.323   2.354   2.069 -0.0460  0.2835 -0.0398
 6735SOL    HW131664   0.301   2.351   2.162 -0.5408 -1.9892 -0.2403
 6735SOL    HW231665   0.380   2.431   2.076  0.0222  0.3591 -1.4589
 6736SOL     OW31666   3.696   4.048  10.916 -0.0424 -0.1798  0.2257
 6736SOL    HW131667   3.657   4.109  10.979  2.5431 -0.2084  1.8572
 6736SOL    HW231668   3.710   4.113  10.847 -1.6393  0.5631  0.5903
 6737SOL     OW31669   3.530   1.887   3.534  0.5857  0.2905  0.5983
 6737SOL    HW131670   3.567   1.927   3.456 -0.9209  1.4907  0.5035
 6737SOL    HW231671   3.606   1.869   3.590  2.7778  3.1810 -1.4590
 6738SOL     OW31672   4.701   0.574   7.735 -0.3303 -0.2019 -0.1721
 6738SOL    HW131673   4.633   0.522   7.692  0.8945 -1.1424 -0.9924
 6738SOL    HW231674   4.640   0.642   7.762  1.3087  0.1891  2.4836
 6739SOL     OW31675   1.615   3.115   8.314  0.4868 -0.0324  0.2137
 6739SOL    HW131676   1.642   3.062   8.389 -1.1161  1.0681  1.5627
 6739SOL    HW231677   1.577   3.190   8.360 -0.3965 -1.0762  1.1972
 6740SOL     OW31678   2.260   2.827   7.082  0.3118  0.3462  0.3154
 6740SOL    HW131679   2.212   2.876   7.149  2.3458  3.0747 -0.2257
 6740SOL    HW231680   2.320   2.775   7.137  1.1389 -0.3425 -1.2488
 6741SOL     OW31681   2.983   0.763   2.496 -0.0746  0.1438 -0.3377
 6741SOL    HW131682   2.905   0.762   2.552 -1.1553  0.3934 -1.8327
 6741SOL    HW231683   3.023   0.677   2.512 -2.6326 -0.6168  1.9126
 6742SOL     OW31684   4.351   2.331   4.957  0.6966  0.0883  0.5740
 6742SOL    HW131685   4.312   2.332   5.045  0.0714 -2.6844  0.3013
 6742SOL    HW231686   4.342   2.238   4.936 -0.6403  0.8978 -2.4880
 6743SOL     OW31687   3.476   4.548   8.793  0.0069  0.1737  0.2861
 6743SOL    HW131688   3.544   4.614   8.778  1.5110 -0.5602  4.0881
 6743SOL    HW231689   3.481   4.529   8.886  1.5652  2.1438  0.6258
 6744SOL     OW31690   0.080   1.031   2.351 -0.0960 -0.1516  0.4850
 6744SOL    HW131691   0.043   0.943   2.345 -0.8694  0.1665  0.5850
 6744SOL    HW231692   0.076   1.063   2.261 -1.7520 -1.8466 -0.0392
 6745SOL     OW31693   2.367   4.595   7.362  0.2569  0.1046 -0.5662
 6745SOL    HW131694   2.360   4.636   7.276 -1.3313  0.0630 -0.4523
 6745SOL    HW231695   2.426   4.655   7.409  1.7286 -0.9620 -1.0505
 6746SOL     OW31696   1.488   1.979   2.684 -0.4516  0.1419 -0.4044
 6746SOL    HW131697   1.492   1.973   2.780  0.5592 -1.5737 -0.5659
 6746SOL    HW231698   1.574   2.018   2.669  0.4230 -1.3909  0.6439
 6747SOL     OW31699   4.311   2.294   2.876  0.3470  0.5295  0.4142
 6747SOL    HW131700   4.259   2.219   2.848  1.4761 -0.2993  0.5398
 6747SOL    HW231701   4.269   2.373   2.842 -0.1953 -0.2827 -0.8016
 6748SOL     OW31702   0.346   3.771  14.566 -0.0059 -0.0303 -0.5260
 6748SOL    HW131703   0.411   3.736  14.627  0.8542  0.9135 -0.9031
 6748SOL    HW231704   0.264   3.755  14.612 -0.6578  1.8537 -1.0450
 6749SOL     OW31705   3.202   1.491   2.490 -0.0438  0.1122 -0.1921
 6749SOL    HW131706   3.271   1.506   2.554 -2.3254  3.2450  1.5571
 6749SOL    HW231707   3.248   1.518   2.410  2.3250 -0.6200  0.9401
 6750SOL     OW31708   4.536   0.540   0.564 -0.1609 -0.3674 -0.2465
 6750SOL    HW131709   4.461   0.512   0.513 -0.7263  1.4268 -0.4267
 6750SOL    HW231710   4.513   0.630   0.587 -1.9888 -1.0997  0.7747
 6751SOL     OW31711   1.046   3.954   1.553 -0.2685  0.1960  0.1668
 6751SOL    HW131712   1.057   3.997   1.468  0.2173 -1.2449 -0.4955
 6751SOL    HW231713   0.999   4.020   1.604 -0.3505  0.8368 -0.7297
 6752SOL     OW31714   3.097   1.955   9.660  0.9249 -0.2129  0.4218
 6752SOL    HW131715   3.170   1.974   9.602  0.4855 -3.1087 -1.0488
 6752SOL    HW231716   3.118   2.008   9.738  1.0121  0.7431 -0.2524
 6753SOL     OW31717   3.084   3.684   3.028  0.0561  0.2765 -0.0749
 6753SOL    HW131718   3.110   3.648   2.943 -0.2793  0.3909 -0.2300
 6753SOL    HW231719   2.988   3.686   3.029  0.0747  0.6647  0.9014
 6754SOL     OW31720   4.614   0.813   1.048  0.3618 -0.4163 -0.0465
 6754SOL    HW131721   4.531   0.856   1.027 -0.3354 -1.8153 -0.1511
 6754SOL    HW231722   4.583   0.723   1.052  0.2386 -0.4649 -2.0463
 6755SOL     OW31723   2.630   3.032   7.045 -0.4826  0.5220 -0.5601
 6755SOL    HW131724   2.719   3.066   7.056  0.2984 -1.4573 -0.7746
 6755SOL    HW231725   2.638   2.987   6.961  0.9506 -1.9169  0.8937
 6756SOL     OW31726   3.136   3.785   4.730  0.0670  0.3290  0.8421
 6756SOL    HW131727   3.149   3.816   4.640 -0.7511  0.3112  0.7178
 6756SOL    HW231728   3.042   3.802   4.738  0.4869  2.9571 -0.0142
 6757SOL     OW31729   0.846   1.185   7.613  0.5467 -0.1597 -0.0021
 6757SOL    HW131730   0.891   1.246   7.671 -0.9317  0.2735  0.6758
 6757SOL    HW231731   0.878   1.098   7.635 -0.2457 -0.1709  1.0830
 6758SOL     OW31732   2.343   0.343   3.273 -0.0712  0.2319 -0.5047
 6758SOL    HW131733   2.420   0.339   3.216 -0.2925  0.6939 -0.8297
 6758SOL    HW231734   2.315   0.433   3.259 -1.1410 -0.7986 -4.9422
 6759SOL     OW31735   2.687   3.825   8.923  0.0888 -0.2483 -0.0332
 6759SOL    HW131736   2.594   3.830   8.901  0.2253  1.7687 -0.2046
 6759SOL    HW231737   2.707   3.763   8.992  0.7537  0.5470  0.4801
 6760SOL     OW31738   0.155   1.481   1.996  0.2445  0.2693  0.4588
 6760SOL    HW131739   0.149   1.450   2.086 -0.2455  0.3513  0.4541
 6760SOL    HW231740   0.248   1.504   1.986  0.0306  0.9266 -0.0067
 6761SOL     OW31741   1.565   1.114   8.655 -0.0953  0.3406 -0.4525
 6761SOL    HW131742   1.525   1.133   8.571  1.5895  1.9877 -0.8634
 6761SOL    HW231743   1.554   1.019   8.655  1.0674  0.1709  4.6282
 6762SOL     OW31744   2.924   3.259  12.593  0.1364  0.0525  0.7552
 6762SOL    HW131745   3.008   3.245  12.550 -1.0007  0.3185 -1.5578
 6762SOL    HW231746   2.882   3.305  12.519 -2.9208 -0.5032  2.1316
 6763SOL     OW31747   0.702   2.483   1.137 -0.1839  0.1662  0.9052
 6763SOL    HW131748   0.683   2.503   1.045 -1.0218 -1.6196  0.7004
 6763SOL    HW231749   0.614   2.476   1.174 -0.3064  0.3254  0.6488
 6764SOL     OW31750   2.127   4.371   5.115 -0.0465 -0.2322  0.3409
 6764SOL    HW131751   2.041   4.334   5.137  0.4596 -0.8155  1.3436
 6764SOL    HW231752   2.151   4.332   5.030  0.1136  1.7192 -0.4981
 6765SOL     OW31753   3.834   0.409   8.593  0.1102  1.0076 -0.1784
 6765SOL    HW131754   3.905   0.354   8.559 -1.3396 -1.1092  0.2246
 6765SOL    HW231755   3.884   0.491   8.595  1.9694 -0.1277  0.0895
 6766SOL     OW31756   0.179   1.428  15.195  0.2986  0.2069 -0.3325
 6766SOL    HW131757   0.109   1.363  15.197  0.7348 -0.2543  0.0506
 6766SOL    HW231758   0.164   1.472  15.278 -0.2342 -0.8403  0.1224
 6767SOL     OW31759   0.778   0.593   5.926 -0.5268 -0.3577 -0.2764
 6767SOL    HW131760   0.786   0.635   5.840 -1.2229 -1.7924 -1.0578
 6767SOL    HW231761   0.854   0.534   5.926 -0.1521  0.1233 -0.4275
 6768SOL     OW31762   3.731   2.287   8.898 -0.1006  0.0634 -0.7665
 6768SOL    HW131763   3.711   2.357   8.961 -1.8855  1.2293 -2.6244
 6768SOL    HW231764   3.797   2.328   8.842  0.7750  1.0970  1.0059
 6769SOL     OW31765   1.534   3.463   5.665 -0.0229  0.2567  0.9990
 6769SOL    HW131766   1.581   3.491   5.587  0.3197  1.6004  1.6815
 6769SOL    HW231767   1.477   3.540   5.673 -2.7810 -1.4098 -2.8021
 6770SOL     OW31768   2.061   3.536   5.226  0.1548  0.8952  0.0482
 6770SOL    HW131769   2.010   3.576   5.296  0.2220 -0.9687  1.1731
 6770SOL    HW231770   1.986   3.512   5.171  0.3366 -0.2181  0.2796
 6771SOL     OW31771   1.336   3.667   5.829 -0.4730 -0.9480  0.4383
 6771SOL    HW131772   1.336   3.759   5.803 -0.3490 -0.8134  0.9164
 6771SOL    HW231773   1.367   3.680   5.919  1.4259 -1.0275 -0.2030
 6772SOL     OW31774   0.048   4.038   1.272  0.0724  0.0391  0.2237
 6772SOL    HW131775   4.713   4.112   1.268 -0.4891 -0.6698 -4.3169
 6772SOL    HW231776   0.114   4.053   1.204 -1.7486  1.7539 -1.1635
 6773SOL     OW31777   2.779   2.588   8.444 -0.3936  0.3202  0.0941
 6773SOL    HW131778   2.725   2.534   8.386 -1.5548  2.2052 -0.5654
 6773SOL    HW231779   2.741   2.564   8.529 -1.8139  0.2164 -0.5763
 6774SOL     OW31780   3.313   0.610   7.199  0.0277  0.1627 -0.4537
 6774SOL    HW131781   3.335   0.571   7.115 -1.2782 -1.7354  0.0902
 6774SOL    HW231782   3.385   0.574   7.251 -1.3137 -1.3821  0.3450
 6775SOL     OW31783   2.655   1.400  16.254 -0.0125 -0.6509 -0.4640
 6775SOL    HW131784   2.749   1.415  16.263 -0.2458  0.9739 -0.7933
 6775SOL    HW231785   2.630   1.404  16.346  3.0294 -0.9081  0.3525
 6776SOL     OW31786   0.687   3.320   4.042  0.1257  0.4210 -0.6686
 6776SOL    HW131787   0.710   3.369   4.121 -0.9351 -1.2437  0.6940
 6776SOL    HW231788   0.712   3.233   4.074  0.0762  1.5373  2.4062
 6777SOL     OW31789   2.843   4.548  11.543  0.1878 -0.1771  0.4285
 6777SOL    HW131790   2.812   4.625  11.494  1.4821 -0.1873 -0.4235
 6777SOL    HW231791   2.908   4.525  11.476 -0.9689  0.9733 -1.1027
 6778SOL     OW31792   3.185   0.476   6.391 -0.5039  0.2751  0.1073
 6778SOL    HW131793   3.176   0.571   6.386 -0.7927  0.3608  2.1289
 6778SOL    HW231794   3.262   0.453   6.341 -1.3544  1.5992 -1.8107
 6779SOL     OW31795   2.997   3.176   9.317  0.0750 -0.0876  0.0210
 6779SOL    HW131796   3.022   3.248   9.259  2.0877 -0.1035  0.8610
 6779SOL    HW231797   3.081   3.130   9.328  0.2339  0.0304 -0.7128
 6780SOL     OW31798   4.520   2.239   9.049 -0.7528 -0.3693  0.4321
 6780SOL    HW131799   4.475   2.308   9.000  0.1773  0.1276  0.2631
 6780SOL    HW231800   4.506   2.169   8.985 -1.4611 -0.3399  0.5612
 6781SOL     OW31801   0.170   4.271   8.915  0.0755 -0.1453  0.2177
 6781SOL    HW131802   0.083   4.290   8.879  0.0553 -1.5165 -0.4706
 6781SOL    HW231803   0.152   4.215   8.990 -0.4099 -1.3279 -0.7771
 6782SOL     OW31804   1.785   1.741  15.924 -0.2638  0.3403  0.0074
 6782SOL    HW131805   1.777   1.835  15.912  1.2548  0.3244 -1.0313
 6782SOL    HW231806   1.873   1.736  15.962 -0.1341  1.0278 -0.2159
 6783SOL     OW31807   2.479   1.469  13.072  0.3806  0.0342  0.1432
 6783SOL    HW131808   2.558   1.483  13.125  0.3082  2.2313 -0.3350
 6783SOL    HW231809   2.421   1.427  13.136 -1.1454  0.7963 -0.7506
 6784SOL     OW31810   4.652   4.033  15.665 -0.1972  0.1567  0.6143
 6784SOL    HW131811   4.692   4.094  15.603  1.8016 -1.5300  0.2602
 6784SOL    HW231812   4.563   4.067  15.678  0.3058  0.6894  2.7020
 6785SOL     OW31813   0.971   3.945   7.007 -0.1544 -0.0474 -0.4159
 6785SOL    HW131814   1.015   4.006   6.946 -1.1487  1.7413  0.6539
 6785SOL    HW231815   0.979   3.984   7.094  1.7258  2.3648 -1.6582
 6786SOL     OW31816   1.037   0.385   9.980  0.9592 -0.4139 -0.0209
 6786SOL    HW131817   0.978   0.460   9.985  0.3082 -0.8951 -0.6503
 6786SOL    HW231818   1.023   0.347   9.893 -0.7558  0.8415 -0.3022
 6787SOL     OW31819   2.192   1.805   8.189 -0.3019 -0.4091 -0.6228
 6787SOL    HW131820   2.198   1.779   8.098 -1.3617  1.7521 -1.3078
 6787SOL    HW231821   2.232   1.891   8.179 -0.6902  0.0922  2.1319
 6788SOL     OW31822   3.402   2.339   3.812 -0.0652  0.4314 -0.1886
 6788SOL    HW131823   3.404   2.369   3.721  1.4039  0.9459  0.0059
 6788SOL    HW231824   3.494   2.344   3.837 -0.1847  2.5918 -0.1785
 6789SOL     OW31825   1.858   2.069   1.079 -0.2894 -0.4902 -0.1587
 6789SOL    HW131826   1.823   1.991   1.035 -1.7316 -0.2543  0.5863
 6789SOL    HW231827   1.838   2.043   1.169 -0.6346  1.9920  0.4671
 6790SOL     OW31828   4.445   2.261   2.581  0.1909 -0.0526  0.4618
 6790SOL    HW131829   4.421   2.239   2.672 -2.8204 -1.1101 -0.5685
 6790SOL    HW231830   4.418   2.185   2.530  1.1649  0.0573 -0.2119
 6791SOL     OW31831   0.829   2.950   1.369  0.2117  0.8025 -0.5030
 6791SOL    HW131832   0.802   2.992   1.287  0.1964  0.2674 -0.7664
 6791SOL    HW231833   0.923   2.963   1.361  0.3881  0.2782  0.7511
 6792SOL     OW31834   4.605   4.613   1.964  0.0810  0.0175 -1.0451
 6792SOL    HW131835   4.656   4.605   2.044 -0.6997 -0.4824 -0.5989
 6792SOL    HW231836   4.534   4.663   2.004  1.4024 -1.0784  2.6562
 6793SOL     OW31837   3.710   2.460  11.970 -0.5555  0.2016 -0.5683
 6793SOL    HW131838   3.636   2.404  11.948  0.1357 -1.3264  0.9508
 6793SOL    HW231839   3.670   2.545  11.953 -0.7531  0.4239  0.9694
 6794SOL     OW31840   0.429   2.350  13.012  0.3795  0.0686  0.0335
 6794SOL    HW131841   0.360   2.408  12.981 -0.9169 -1.0261  0.8524
 6794SOL    HW231842   0.381   2.274  13.044 -0.9634  0.5862 -0.7849
 6795SOL     OW31843   4.588   3.955  13.143 -0.2367 -0.1496  0.2534
 6795SOL    HW131844   4.499   3.923  13.127 -0.4953  2.0876 -2.7815
 6795SOL    HW231845   4.630   3.873  13.168  0.9930  1.0492  2.1165
 6796SOL     OW31846   4.124   3.762   8.392  0.0222  0.2649  0.7252
 6796SOL    HW131847   4.055   3.757   8.327  1.1375  2.0743 -0.5959
 6796SOL    HW231848   4.080   3.719   8.465 -0.9950  0.5566  0.2866
 6797SOL     OW31849   4.557   4.604   9.393 -0.0973 -0.4577 -0.2844
 6797SOL    HW131850   4.562   4.544   9.467 -0.2446 -0.3130 -0.1583
 6797SOL    HW231851   4.627   4.665   9.416  0.3127 -0.7637 -0.6950
 6798SOL     OW31852   2.682   2.709   5.353 -0.3007 -0.2054 -0.0907
 6798SOL    HW131853   2.703   2.619   5.328  1.6773  0.1147  0.4850
 6798SOL    HW231854   2.660   2.749   5.269 -0.6916  1.0964  0.6306
 6799SOL     OW31855   1.455   1.974   6.280  0.0069  0.3640  0.2681
 6799SOL    HW131856   1.364   2.005   6.272  0.0364  0.1503 -0.8883
 6799SOL    HW231857   1.467   1.921   6.202 -1.1804 -1.3892  1.2688
 6800SOL     OW31858   4.128   2.190  13.420  0.0228  0.7713 -0.2856
 6800SOL    HW131859   4.087   2.147  13.345 -1.2380 -0.7197  1.2515
 6800SOL    HW231860   4.205   2.137  13.439 -0.0658  0.3179 -1.2331
 6801SOL     OW31861   0.929   0.213   5.324  0.2569  0.1351 -0.1711
 6801SOL    HW131862   0.984   0.265   5.384  1.1104 -1.9794  0.8735
 6801SOL    HW231863   0.916   0.284   5.261  1.5617 -0.0145 -0.6034
 6802SOL     OW31864   2.655   4.382   6.432  0.0595  0.1562 -0.1657
 6802SOL    HW131865   2.712   4.312   6.400  0.2765  0.6761 -0.9242
 6802SOL    HW231866   2.725   4.448   6.435 -0.1039  0.4018 -1.5028
 6803SOL     OW31867   0.449   1.185  14.880  0.4124  0.1301 -0.4159
 6803SOL    HW131868   0.438   1.261  14.937  1.8678 -2.0508  2.7992
 6803SOL    HW231869   0.521   1.217  14.826  0.6988  0.6507  0.2760
 6804SOL     OW31870   4.237   2.608   3.853  0.2492 -0.0541 -0.0868
 6804SOL    HW131871   4.198   2.691   3.824  2.5667  0.8086 -0.7323
 6804SOL    HW231872   4.329   2.631   3.841  0.3297 -0.5704 -0.4576
 6805SOL     OW31873   3.455   3.802   7.240  0.2179  0.4021 -0.1481
 6805SOL    HW131874   3.451   3.718   7.286  2.0654  1.0837  1.2292
 6805SOL    HW231875   3.459   3.867   7.310  0.4411  0.1592  0.0636
 6806SOL     OW31876   0.103   3.845   5.660 -0.1916  0.2878 -0.3702
 6806SOL    HW131877   0.016   3.806   5.668 -0.5903  1.4773  1.1532
 6806SOL    HW231878   0.087   3.895   5.580  2.7150 -0.4000 -1.3804
 6807SOL     OW31879   0.300   0.641   4.991  0.0549 -0.0264  0.1596
 6807SOL    HW131880   0.250   0.708   5.038 -2.6446  0.5014 -3.4584
 6807SOL    HW231881   0.231   0.590   4.948  0.9944 -0.5223 -0.7443
 6808SOL     OW31882   3.242   2.415   2.673 -0.2123  0.4759 -0.0415
 6808SOL    HW131883   3.298   2.338   2.664  0.3727  1.0137 -0.9463
 6808SOL    HW231884   3.151   2.383   2.676 -0.3207  0.5685 -2.2331
 6809SOL     OW31885   0.060   2.915   1.034  0.3067 -0.7216 -0.2668
 6809SOL    HW131886   0.027   3.001   1.061 -0.0278 -0.6340 -0.9685
 6809SOL    HW231887   0.129   2.913   1.100 -0.3381  1.5314  0.5240
 6810SOL     OW31888   0.752   2.901   1.112  0.1815 -0.4097  1.0448
 6810SOL    HW131889   0.799   2.829   1.070  0.8387  0.4077  0.3843
 6810SOL    HW231890   0.782   2.979   1.064 -0.8778 -0.1177  0.8576
 6811SOL     OW31891   3.162   1.335  14.006 -0.5344  0.5646  0.2271
 6811SOL    HW131892   3.183   1.317  13.914  0.6304 -0.1654  0.6483
 6811SOL    HW231893   3.108   1.257  14.021 -1.1457  0.7773 -0.8734
 6812SOL     OW31894   3.965   3.595  16.233 -0.0004  0.4475  0.3302
 6812SOL    HW131895   4.037   3.576  16.172  1.1076 -1.1031  2.1035
 6812SOL    HW231896   3.918   3.667  16.191  1.8850  0.0225 -2.5549
 6813SOL     OW31897   3.432   1.741   0.769 -0.2223 -0.5722 -0.5485
 6813SOL    HW131898   3.365   1.789   0.721 -0.9836  0.0594  1.1294
 6813SOL    HW231899   3.487   1.817   0.787  0.7309 -1.7749  1.5713
 6814SOL     OW31900   2.880   1.225   5.173 -0.0627  0.2302  0.3611
 6814SOL    HW131901   2.946   1.155   5.177 -0.7801 -0.5384 -1.1829
 6814SOL    HW231902   2.802   1.176   5.147  0.9419 -0.6506 -0.9852
 6815SOL     OW31903   1.381   2.963   4.836  0.3073 -0.3767 -0.2838
 6815SOL    HW131904   1.456   2.949   4.780  1.5240 -0.7480  1.4303
 6815SOL    HW231905   1.326   2.887   4.817 -2.0288  1.9959 -2.9199
 6816SOL     OW31906   3.095   4.609   5.497  0.0703  0.0425  0.1331
 6816SOL    HW131907   3.067   4.621   5.407  0.6795  1.8369  0.1890
 6816SOL    HW231908   3.152   4.685   5.503 -0.0637 -0.0221  2.5455
 6817SOL     OW31909   2.098   1.297   1.370  0.0548 -0.0072 -0.1974
 6817SOL    HW131910   2.155   1.233   1.327  0.2749 -0.9119  1.4171
 6817SOL    HW231911   2.086   1.348   1.291 -0.3489 -1.8750 -1.3417
 6818SOL     OW31912   2.964   3.067   8.917 -0.2473 -0.0775 -0.0697
 6818SOL    HW131913   3.017   3.016   8.977  0.1284  1.7168  1.1196
 6818SOL    HW231914   3.026   3.069   8.844 -0.9009  0.9431 -0.6026
 6819SOL     OW31915   2.097   0.983   4.378  0.4997 -0.3689  0.1052
 6819SOL    HW131916   2.011   1.001   4.415 -0.8296 -2.4036 -1.9658
 6819SOL    HW231917   2.070   0.934   4.300  1.0846 -0.1457 -0.2414
 6820SOL     OW31918   3.874   3.690  16.500 -0.1677 -0.9890 -0.1392
 6820SOL    HW131919   3.780   3.702  16.498 -0.0049  0.0539 -1.5374
 6820SOL    HW231920   3.886   3.633  16.424 -2.2857 -0.5610 -0.7731
 6821SOL     OW31921   3.398   3.676   5.364 -0.6316  0.5490 -0.0154
 6821SOL    HW131922   3.428   3.759   5.328  0.1267 -0.4344 -1.6551
 6821SOL    HW231923   3.388   3.632   5.280 -3.0489 -0.2867  0.7176
 6822SOL     OW31924   4.053   1.203  13.094 -0.3321  0.1075  0.3387
 6822SOL    HW131925   4.089   1.248  13.170  0.6911 -0.8827  0.4349
 6822SOL    HW231926   4.035   1.119  13.135  2.0900 -2.6864 -4.2533
 6823SOL     OW31927   1.899   1.812   9.378  0.4885 -0.5439  0.0987
 6823SOL    HW131928   1.947   1.739   9.418 -0.5646 -2.4352 -2.0654
 6823SOL    HW231929   1.951   1.891   9.391  0.2899 -0.4898  0.5603
 6824SOL     OW31930   1.188   4.702  15.245  0.2087 -0.5780  0.3445
 6824SOL    HW131931   1.094   4.689  15.249  0.3471 -1.3915  1.0086
 6824SOL    HW231932   1.202   0.031  15.166  1.3260  0.8423  1.5162
 6825SOL     OW31933   1.608   1.168   1.295 -0.1959 -0.2978 -0.2588
 6825SOL    HW131934   1.559   1.250   1.289 -1.2065 -0.8407  0.5840
 6825SOL    HW231935   1.676   1.177   1.361  1.1016 -0.0949 -1.6259
 6826SOL     OW31936   1.565   3.071   4.394 -0.1893 -0.0542 -0.1812
 6826SOL    HW131937   1.544   3.163   4.412  1.0204  0.2185 -0.2048
 6826SOL    HW231938   1.591   3.071   4.302 -0.2254 -2.0312 -0.1936
 6827SOL     OW31939   2.731   2.751   6.511 -0.1312 -0.0296  0.3342
 6827SOL    HW131940   2.720   2.773   6.419 -0.1371 -2.0663 -0.1550
 6827SOL    HW231941   2.745   2.840   6.544  1.2625 -0.9760  2.3088
 6828SOL     OW31942   2.485   2.946  14.450 -0.2910  0.3744  0.0241
 6828SOL    HW131943   2.474   3.035  14.416  1.1890 -0.8444 -3.6951
 6828SOL    HW231944   2.576   2.948  14.478 -0.3849 -0.2617  0.3581
 6829SOL     OW31945   4.129   4.241   2.950  0.3921  0.7056 -0.0194
 6829SOL    HW131946   4.045   4.256   2.994  0.1872 -0.6888  0.0576
 6829SOL    HW231947   4.182   4.303   3.000  0.6112  1.6070 -1.3671
 6830SOL     OW31948   3.926   3.717  10.928 -0.2658  0.4244 -0.2509
 6830SOL    HW131949   3.872   3.646  10.893  0.2915  0.4399 -1.1289
 6830SOL    HW231950   3.906   3.787  10.866 -0.3598  0.0005 -0.7037
 6831SOL     OW31951   1.961   2.195  13.599  0.4173 -0.0443  0.4759
 6831SOL    HW131952   1.890   2.260  13.599  2.2377  1.9564  1.2019
 6831SOL    HW231953   1.911   2.114  13.593  0.3523  0.0817 -0.7676
 6832SOL     OW31954   2.960   3.553   5.704  0.4516 -0.3289  0.0007
 6832SOL    HW131955   2.935   3.637   5.665 -0.0705  0.6956  2.5816
 6832SOL    HW231956   3.055   3.546   5.700  0.4956  0.4167 -0.1790
 6833SOL     OW31957   0.071   0.268   4.969 -0.3951  0.4188  0.0478
 6833SOL    HW131958   4.714   0.226   4.944 -1.2373  2.0753  0.0090
 6833SOL    HW231959   0.055   0.354   5.009 -0.3930  0.0507  0.8491
 6834SOL     OW31960   0.031   0.571   5.025  0.3095 -0.6576  0.1420
 6834SOL    HW131961   4.665   0.558   5.052  0.7145 -0.0389  1.8093
 6834SOL    HW231962   0.026   0.563   4.930 -0.3342 -1.2205  0.2211
 6835SOL     OW31963   4.335   0.841   8.333  0.1000  0.5900 -0.7257
 6835SOL    HW131964   4.331   0.842   8.238  0.4847 -0.3900 -0.7460
 6835SOL    HW231965   4.269   0.774   8.354 -0.3442  0.5635 -2.2006
 6836SOL     OW31966   0.731   3.151   2.299 -0.1939  0.3276 -0.0117
 6836SOL    HW131967   0.688   3.102   2.229  0.1546 -1.4436  1.0226
 6836SOL    HW231968   0.665   3.130   2.365 -0.2002 -0.0831 -0.1470
 6837SOL     OW31969   0.096   4.287   5.817  0.5404 -0.7871 -0.0546
 6837SOL    HW131970   0.187   4.317   5.811  0.4196 -0.6934 -1.3882
 6837SOL    HW231971   0.078   4.280   5.723 -2.3957  0.7942  0.3991
 6838SOL     OW31972   2.367   0.688   5.209  0.2519 -0.0820 -0.0296
 6838SOL    HW131973   2.308   0.660   5.278  1.0698 -0.1138  0.6545
 6838SOL    HW231974   2.339   0.780   5.207  1.3707  0.2322 -2.7801
 6839SOL     OW31975   4.011   1.132   8.348 -0.4094  0.4289  0.0924
 6839SOL    HW131976   4.011   1.065   8.280 -1.4345  0.4230  0.0994
 6839SOL    HW231977   4.101   1.123   8.380 -0.7441  1.5938  1.3555
 6840SOL     OW31978   0.539   1.367   1.085 -0.0929  0.3300 -0.1454
 6840SOL    HW131979   0.502   1.379   1.173 -1.4181  1.2403 -0.8125
 6840SOL    HW231980   0.592   1.447   1.084 -1.2070  1.0702 -0.8299
 6841SOL     OW31981   2.481   3.416   8.908  0.4486 -0.1309 -0.2367
 6841SOL    HW131982   2.432   3.494   8.882  1.0503  0.1272 -0.6071
 6841SOL    HW231983   2.542   3.453   8.972 -1.1036  0.7953  0.7090
 6842SOL     OW31984   4.444   0.268  13.266 -0.3216 -0.0714  0.3326
 6842SOL    HW131985   4.378   0.329  13.234  0.7069  1.3173  0.8470
 6842SOL    HW231986   4.418   0.263  13.359 -2.5650 -0.4716 -0.3051
 6843SOL     OW31987   2.638   3.638   7.316 -0.3480 -0.2537 -0.5595
 6843SOL    HW131988   2.622   3.730   7.292  1.4722  0.3433  0.5166
 6843SOL    HW231989   2.594   3.632   7.401 -0.1675  1.7346 -0.3329
 6844SOL     OW31990   4.237   4.723  12.825  0.1743 -0.0107  0.1125
 6844SOL    HW131991   4.273   0.031  12.907  1.7735 -0.8142 -0.2790
 6844SOL    HW231992   4.199   0.077  12.785  0.1554 -0.5847 -0.9939
 6845SOL     OW31993   2.956   3.631  13.719  0.5453 -0.0426 -0.2512
 6845SOL    HW131994   2.956   3.629  13.815 -1.9171  2.2054 -0.2075
 6845SOL    HW231995   2.961   3.726  13.714  0.4626 -0.1294 -2.0132
 6846SOL     OW31996   2.892   4.411   8.515 -0.3629 -0.2304  0.9112
 6846SOL    HW131997   2.896   4.500   8.549 -3.4960 -0.1915  1.1867
 6846SOL    HW231998   2.836   4.382   8.587 -0.6667 -0.8612  0.4204
 6847SOL     OW31999   3.102   2.610   4.262  0.6069  0.0703 -0.3338
 6847SOL    HW132000   3.174   2.668   4.237 -0.3493  1.0795 -0.7689
 6847SOL    HW232001   3.110   2.541   4.197  2.0488 -0.2263  0.1460
 6848SOL     OW32002   1.302   0.500   5.135 -0.2953  0.2510  0.4007
 6848SOL    HW132003   1.346   0.472   5.055 -1.7953  2.3978 -1.2096
 6848SOL    HW232004   1.208   0.496   5.113 -0.1040  0.4130 -0.4709
 6849SOL     OW32005   0.815   1.247   5.023 -0.2032  0.1065  0.4608
 6849SOL    HW132006   0.886   1.218   4.967  1.1211  0.6768  1.8279
 6849SOL    HW232007   0.869   1.307   5.074  0.3593  0.1413 -0.1822
 6850SOL     OW32008   2.090   3.257   4.454  0.3603 -0.0183  0.1367
 6850SOL    HW132009   2.116   3.282   4.365  1.3610  1.9106  0.9662
 6850SOL    HW232010   1.999   3.287   4.457  0.3221 -0.1307  0.1002
 6851SOL     OW32011   2.304   3.231   9.171 -0.5715 -0.3340  0.5161
 6851SOL    HW132012   2.378   3.211   9.229  0.4786  2.1549  0.0327
 6851SOL    HW232013   2.238   3.259   9.235 -0.5591  0.3759  0.2163
 6852SOL     OW32014   4.214   3.906  10.188 -0.0485 -0.1638 -0.3844
 6852SOL    HW132015   4.150   3.965  10.227 -1.3413 -2.3124  0.7258
 6852SOL    HW232016   4.228   3.838  10.255 -0.6901 -0.2519 -0.3423
 6853SOL     OW32017   3.831   3.999   8.275  0.0985  0.4396  0.4187
 6853SOL    HW132018   3.888   4.065   8.236 -1.1451  0.1354 -1.9273
 6853SOL    HW232019   3.794   4.050   8.347 -1.8712 -0.8402  0.3131
 6854SOL     OW32020   0.024   3.302   3.774  0.3199  0.4031 -0.2835
 6854SOL    HW132021   0.113   3.307   3.741 -0.2815  1.0440 -1.7881
 6854SOL    HW232022   4.722   3.217   3.739 -2.4395  1.4189 -0.6536
 6855SOL     OW32023   4.166   0.414   6.008 -0.2781  0.5768  0.3324
 6855SOL    HW132024   4.129   0.371   6.085  3.6753  3.1284  3.7256
 6855SOL    HW232025   4.086   0.460   5.983 -0.0806  1.2584  0.9473
 6856SOL     OW32026   0.271   0.631  11.678  0.4358 -0.0155 -0.3070
 6856SOL    HW132027   0.363   0.607  11.690 -0.0593 -1.7633  0.0511
 6856SOL    HW232028   0.221   0.568  11.731  1.8659 -1.8647 -1.1959
 6857SOL     OW32029   0.712   0.964   1.336 -0.1774 -0.3346 -0.2601
 6857SOL    HW132030   0.761   1.046   1.334 -1.7900  0.6199  0.0360
 6857SOL    HW232031   0.626   0.999   1.356  0.5900 -0.2358  2.7823
 6858SOL     OW32032   3.636   2.952   7.735 -0.1099 -0.2672 -0.3081
 6858SOL    HW132033   3.587   2.951   7.653 -2.0081 -3.3729  0.8735
 6858SOL    HW232034   3.726   2.965   7.705 -0.8170  2.4529 -1.2904
 6859SOL     OW32035   0.191   3.763   3.104  0.0849  0.5045 -0.0723
 6859SOL    HW132036   0.182   3.852   3.070 -0.5050 -0.2397 -1.8713
 6859SOL    HW232037   0.116   3.759   3.163 -0.2050  0.2217 -0.4598
 6860SOL     OW32038   4.690   2.632   7.674  0.0790  0.4145  0.3941
 6860SOL    HW132039   4.675   2.556   7.618 -1.6760  0.5724  0.6401
 6860SOL    HW232040   0.016   2.596   7.747 -1.3932 -1.5418  0.4359
 6861SOL     OW32041   2.051   3.728  12.041  0.0061  0.4317 -0.1640
 6861SOL    HW132042   2.116   3.763  11.980 -1.0033  0.5088 -1.2130
 6861SOL    HW232043   2.024   3.644  12.003  1.3336  0.1145 -0.3990
 6862SOL     OW32044   1.481   4.586   8.484  0.1632  0.3241 -0.2731
 6862SOL    HW132045   1.546   4.656   8.477 -0.0552  0.4518 -0.9734
 6862SOL    HW232046   1.413   4.616   8.424  0.3241  1.1313 -0.0532
 6863SOL     OW32047   0.735   1.015   0.806 -0.2566 -0.4484  0.0676
 6863SOL    HW132048   0.639   1.017   0.799 -0.1831  0.3042 -0.7239
 6863SOL    HW232049   0.735   1.049   0.896 -0.4023 -1.2677  0.3803
 6864SOL     OW32050   0.489   1.503   6.294  0.2437 -0.2989 -0.0853
 6864SOL    HW132051   0.528   1.431   6.245  0.1413 -0.3186 -0.1396
 6864SOL    HW232052   0.411   1.507   6.238  0.9869 -0.1140 -1.1060
 6865SOL     OW32053   3.138   2.698   5.874 -0.1461  0.4187 -0.3569
 6865SOL    HW132054   3.079   2.754   5.924 -0.9561 -1.1704  0.4586
 6865SOL    HW232055   3.215   2.682   5.928 -1.3793 -0.6759  1.0517
 6866SOL     OW32056   0.289   0.668   1.465  0.2083  0.4286  0.4612
 6866SOL    HW132057   0.339   0.656   1.546 -2.1509  0.2896  1.9126
 6866SOL    HW232058   0.205   0.665   1.512 -0.3678 -2.1607 -0.7155
 6867SOL     OW32059   1.324   2.241  10.735  0.7774  0.6490 -0.4098
 6867SOL    HW132060   1.235   2.248  10.768  0.1630  1.6632 -2.2405
 6867SOL    HW232061   1.334   2.150  10.708 -0.7410  0.3436  0.0751
 6868SOL     OW32062   2.672   0.764  16.383 -0.2320  0.4506  0.5291
 6868SOL    HW132063   2.702   0.781  16.294 -0.4326 -0.7551  0.2371
 6868SOL    HW232064   2.752   0.775  16.435  1.9352  1.7816 -3.1398
 6869SOL     OW32065   0.773   0.480   7.169  0.3781  0.1454  0.1324
 6869SOL    HW132066   0.857   0.484   7.215  0.8916  1.4876 -0.9340
 6869SOL    HW232067   0.720   0.528   7.232 -1.9881 -1.6972 -0.4593
 6870SOL     OW32068   2.026   3.434  12.624 -0.9397 -0.0716  0.5614
 6870SOL    HW132069   1.946   3.388  12.648 -1.3236  0.7782  0.8928
 6870SOL    HW232070   2.050   3.473  12.708 -1.5324 -0.0836  0.7319
 6871SOL     OW32071   3.842   2.229  10.552 -0.1144 -0.4972  0.4390
 6871SOL    HW132072   3.759   2.277  10.558  0.8862  1.2258  0.4616
 6871SOL    HW232073   3.885   2.229  10.637  2.0444 -0.9994 -0.6695
 6872SOL     OW32074   2.451   2.994   7.257  0.1753 -0.8416 -0.0031
 6872SOL    HW132075   2.501   2.980   7.177 -0.1557  0.4566 -0.4312
 6872SOL    HW232076   2.503   3.068   7.289  0.5191 -0.7309 -0.8187
 6873SOL     OW32077   0.515   0.557  10.849 -0.1940 -0.2816 -0.2226
 6873SOL    HW132078   0.507   0.462  10.855 -1.4605 -0.1937 -0.4593
 6873SOL    HW232079   0.530   0.563  10.755  3.1631  0.2601  0.3605
 6874SOL     OW32080   3.245   0.826   4.077 -0.1767  0.5466 -0.3428
 6874SOL    HW132081   3.327   0.865   4.045  0.2814 -0.2026 -0.0814
 6874SOL    HW232082   3.199   0.910   4.080 -0.6945  0.3082 -1.8028
 6875SOL     OW32083   3.985   1.983   6.054  0.4422  0.3328 -0.2893
 6875SOL    HW132084   3.895   2.003   6.077  0.4802  0.5998 -0.3661
 6875SOL    HW232085   3.983   2.012   5.963 -1.5306 -0.8324 -0.5973
 6876SOL     OW32086   4.283   0.751   0.843 -0.4236  0.5957  0.5045
 6876SOL    HW132087   4.293   0.761   0.938 -0.1375  2.4267  0.2699
 6876SOL    HW232088   4.366   0.779   0.806  0.3541 -2.9290 -0.4262
 6877SOL     OW32089   0.032   0.488  17.478  0.3310  0.6336  0.1354
 6877SOL    HW132090   4.716   0.413  17.435 -0.1113  0.3838  0.9869
 6877SOL    HW232091   0.091   0.522  17.410 -0.6994 -1.2332 -1.6770
 6878SOL     OW32092   2.570   1.023   8.728 -0.3528  0.0178  0.0106
 6878SOL    HW132093   2.556   1.103   8.779  0.5674  0.3226 -0.2079
 6878SOL    HW232094   2.664   1.029   8.712 -0.4827 -0.3467 -0.9120
 6879SOL     OW32095   2.845   0.459  10.254 -0.2734 -0.5463 -0.6883
 6879SOL    HW132096   2.862   0.366  10.270  0.1458 -0.5098 -0.9175
 6879SOL    HW232097   2.750   0.466  10.260 -0.1785  0.0953  0.2961
 6880SOL     OW32098   2.265   4.593  10.325 -0.5842 -0.4764  0.1959
 6880SOL    HW132099   2.246   4.686  10.308  0.5970 -0.0815  1.0211
 6880SOL    HW232100   2.269   4.590  10.421 -2.6100  0.4501  0.3191
 6881SOL     OW32101   1.880   2.711   8.655 -0.4877  0.1320  0.2318
 6881SOL    HW132102   1.899   2.794   8.699 -0.2788  1.7952 -2.9439
 6881SOL    HW232103   1.836   2.657   8.720 -0.2067 -0.5295 -0.1206
 6882SOL     OW32104   2.848   1.289  12.668  0.0042  0.6762  0.1247
 6882SOL    HW132105   2.770   1.263  12.717  1.4939 -0.1378  2.0208
 6882SOL    HW232106   2.918   1.230  12.694 -0.9676  0.0432  1.2879
 6883SOL     OW32107   1.961   4.129   8.371 -0.2387 -0.0895 -0.1204
 6883SOL    HW132108   1.967   4.037   8.396  1.3578 -0.5185 -2.1018
 6883SOL    HW232109   2.049   4.165   8.379  0.4983 -1.7491 -0.7950
 6884SOL     OW32110   2.722   2.165   5.976 -0.0773 -0.3230 -0.3632
 6884SOL    HW132111   2.767   2.132   6.054 -0.6725  1.7457  0.8596
 6884SOL    HW232112   2.731   2.258   5.998 -2.0910 -0.4467  0.9482
 6885SOL     OW32113   1.223   3.180  14.565 -0.1341 -0.1780 -0.2143
 6885SOL    HW132114   1.249   3.259  14.518 -0.3566  0.2680  0.3987
 6885SOL    HW232115   1.138   3.208  14.601 -0.2694 -0.8545 -0.0076
 6886SOL     OW32116   3.258   3.875  11.699 -0.2693 -0.2073 -0.3652
 6886SOL    HW132117   3.333   3.867  11.759  0.2302  1.3642 -0.7946
 6886SOL    HW232118   3.225   3.785  11.703  1.1267 -0.7345 -0.8424
 6887SOL     OW32119   2.158   3.639   5.754 -0.0472  0.5209 -0.2853
 6887SOL    HW132120   2.200   3.644   5.840  0.3709 -1.3767 -0.3705
 6887SOL    HW232121   2.093   3.705   5.775  0.1541  1.2088 -1.7874
 6888SOL     OW32122   3.710   1.612  15.176 -0.0182 -0.1146 -0.1469
 6888SOL    HW132123   3.769   1.646  15.243 -0.4436  0.3558 -0.0176
 6888SOL    HW232124   3.693   1.520  15.199  0.5589 -0.4725 -1.1415
 6889SOL     OW32125   4.276   4.417  17.684  0.0302  0.3306 -0.2055
 6889SOL    HW132126   4.370   4.405  17.692 -0.3855 -2.0032  1.2131
 6889SOL    HW232127   4.254   4.441   0.075  1.5261 -1.1730  0.5577
 6890SOL     OW32128   4.586   0.365   0.237  0.4986  0.0548  0.3492
 6890SOL    HW132129   4.592   0.457   0.213  0.0095 -0.6876 -2.7064
 6890SOL    HW232130   4.491   0.354   0.227  0.5979 -0.8973  0.4044
 6891SOL     OW32131   3.650   0.060   2.088  0.0483  0.5165 -0.4731
 6891SOL    HW132132   3.722   0.119   2.109  1.7656 -1.9021  0.5297
 6891SOL    HW232133   3.616   0.024   2.171  1.9985  0.3861  0.2733
 6892SOL     OW32134   3.091   0.931   6.135 -0.2785  0.3007  0.4410
 6892SOL    HW132135   3.003   0.899   6.115  0.3961 -1.7188  0.7380
 6892SOL    HW232136   3.063   0.971   6.218  0.2488  1.5296  0.0288
 6893SOL     OW32137   0.132   1.430   4.180  0.0188  0.5757  0.1056
 6893SOL    HW132138   0.099   1.348   4.143 -0.9619  0.6084  0.9411
 6893SOL    HW232139   0.146   1.477   4.097  1.1070 -0.4477 -0.3017
 6894SOL     OW32140   1.091   1.592   6.612  0.3985 -0.0896 -0.1760
 6894SOL    HW132141   1.021   1.549   6.564  0.5225  1.1064 -1.4390
 6894SOL    HW232142   1.156   1.522   6.617  1.6333  1.2329  2.4239
 6895SOL     OW32143   1.681   3.041   9.860 -0.5272 -0.5136 -0.0484
 6895SOL    HW132144   1.723   2.955   9.861  0.0157 -0.2604 -0.7517
 6895SOL    HW232145   1.759   3.094   9.877  0.0928 -2.0615  1.8970
 6896SOL     OW32146   0.355   2.467   6.015 -0.0545 -0.2610  0.3084
 6896SOL    HW132147   0.341   2.559   5.992 -1.7349 -0.9920 -1.5696
 6896SOL    HW232148   0.450   2.473   6.024  0.1061 -0.3262 -1.5021
 6897SOL     OW32149   4.653   3.190  16.260  0.6790  0.2842 -0.1725
 6897SOL    HW132150   0.008   3.241  16.243  1.3386 -0.9570 -0.8810
 6897SOL    HW232151   4.651   3.147  16.174 -0.9850 -2.0782  1.0511
 6898SOL     OW32152   1.226   1.182   5.643 -0.2589 -0.0752 -0.0478
 6898SOL    HW132153   1.135   1.189   5.613 -0.8255 -1.3269  1.3653
 6898SOL    HW232154   1.256   1.270   5.622 -0.8233  0.0128 -0.4679
 6899SOL     OW32155   2.044   0.091  11.024 -0.1564  0.0645  0.3376
 6899SOL    HW132156   1.992   0.054  10.952  1.6468 -2.9674  0.6088
 6899SOL    HW232157   1.990   0.165  11.053 -0.0233 -0.2685  1.4229
 6900SOL     OW32158   0.548   3.351  15.616  0.6571  0.0675  0.3192
 6900SOL    HW132159   0.491   3.312  15.550  1.8193 -1.7035  0.3549
 6900SOL    HW232160   0.609   3.399  15.560  1.3551  0.1210  1.1190
 6901SOL     OW32161   2.963   3.454  14.740 -0.4685  0.1426  0.0245
 6901SOL    HW132162   2.940   3.443  14.832  0.2610 -1.3374  0.0221
 6901SOL    HW232163   3.028   3.523  14.755 -0.3780 -0.0529  0.5362
 6902SOL     OW32164   0.254   4.321   0.858  0.0844  0.0959 -0.4865
 6902SOL    HW132165   0.251   4.268   0.779  0.3113 -2.4662  1.2284
 6902SOL    HW232166   0.285   4.266   0.930 -2.5218 -1.2101 -0.3663
 6903SOL     OW32167   1.806   1.547   1.007  0.1772 -0.4202 -0.1602
 6903SOL    HW132168   1.722   1.552   1.052 -0.2408 -0.4384 -0.9363
 6903SOL    HW232169   1.774   1.505   0.927 -2.9636  1.2308  0.2352
 6904SOL     OW32170   2.634   0.520   4.990 -0.0309  0.2374  0.3160
 6904SOL    HW132171   2.694   0.563   4.929 -0.2078 -0.0032 -0.0294
 6904SOL    HW232172   2.660   0.558   5.073 -0.6006 -0.0793  0.6432
 6905SOL     OW32173   0.614   4.463   1.934 -0.5239 -0.8246  0.1403
 6905SOL    HW132174   0.617   4.557   1.916  0.4306 -0.4830  2.1270
 6905SOL    HW232175   0.690   4.439   1.880 -2.0399  0.1452 -2.4150
 6906SOL     OW32176   0.871   4.000   8.172  0.0256  0.0625  0.4211
 6906SOL    HW132177   0.785   4.006   8.131  0.4424  1.1774 -0.2781
 6906SOL    HW232178   0.869   3.912   8.211  1.3712 -0.0413  0.2846
 6907SOL     OW32179   0.479   1.784   9.786 -0.2510 -0.7239  0.1645
 6907SOL    HW132180   0.489   1.753   9.877 -0.6817 -0.7727  0.1928
 6907SOL    HW232181   0.526   1.715   9.739 -0.8066  1.4901 -3.5829
 6908SOL     OW32182   4.234   3.049   8.174  0.1763  0.5271  0.4756
 6908SOL    HW132183   4.149   3.020   8.208 -0.6877  2.3087 -0.1362
 6908SOL    HW232184   4.280   3.091   8.247  2.3497 -0.9634 -0.0350
 6909SOL     OW32185   0.437   0.978   2.617 -0.0164  0.2459  0.3933
 6909SOL    HW132186   0.360   1.030   2.593 -1.1943 -2.2398 -1.1101
 6909SOL    HW232187   0.428   0.911   2.550 -3.2476  0.4918  0.5914
 6910SOL     OW32188   4.576   0.777   8.386 -0.1378  0.1792 -0.2168
 6910SOL    HW132189   4.584   0.743   8.475 -1.7225  1.0460  0.2469
 6910SOL    HW232190   4.486   0.810   8.385 -0.5800 -0.9471  3.4330
 6911SOL     OW32191   0.118   1.076  17.674  0.2103  0.0490  0.1728
 6911SOL    HW132192   0.198   1.046  17.629  0.6483 -2.4839  2.6581
 6911SOL    HW232193   0.081   0.990  17.691  0.7050 -0.7164 -2.6290
 6912SOL     OW32194   1.977   2.571  13.282  0.8675 -0.2338  0.3272
 6912SOL    HW132195   1.997   2.598  13.192 -1.4392 -1.6102 -0.6034
 6912SOL    HW232196   1.885   2.595  13.293  1.3910  1.0953  1.7822
 6913SOL     OW32197   3.818   3.532   7.603  0.1680 -0.0147  0.3922
 6913SOL    HW132198   3.837   3.507   7.693 -0.6843 -1.1163  0.2662
 6913SOL    HW232199   3.733   3.492   7.586 -0.1730  0.7684  0.2380
 6914SOL     OW32200   2.930   2.309   6.905 -0.8105  0.5312  0.0928
 6914SOL    HW132201   2.865   2.285   6.971  0.5501 -0.8133  0.9335
 6914SOL    HW232202   2.946   2.225   6.862  1.4275  0.1298  1.7534
 6915SOL     OW32203   0.141   3.728  12.138 -0.0762  0.0310  0.1270
 6915SOL    HW132204   0.232   3.704  12.153 -0.2637 -0.3600  0.6189
 6915SOL    HW232205   0.155   3.820  12.115 -0.2559 -0.3500 -1.5003
 6916SOL     OW32206   4.243   0.668   3.580  0.5275 -0.0384 -0.1216
 6916SOL    HW132207   4.321   0.677   3.525  0.8888  1.0940  0.5838
 6916SOL    HW232208   4.175   0.717   3.535  1.6106 -0.3174 -2.0808
 6917SOL     OW32209   0.289   3.132  15.157  0.2177 -0.2145  0.0135
 6917SOL    HW132210   0.216   3.182  15.121  0.5867  1.2019  1.2266
 6917SOL    HW232211   0.354   3.158  15.092  1.8266 -2.6210  0.6403
 6918SOL     OW32212   0.065   4.344  12.006 -0.6562 -0.2183  0.0081
 6918SOL    HW132213   0.005   4.322  12.078 -1.2236 -2.5944 -1.2072
 6918SOL    HW232214   0.039   4.281  11.940  0.2892  1.0739 -1.5910
 6919SOL     OW32215   4.354   4.553   3.564  0.4641  0.2341  0.6336
 6919SOL    HW132216   4.279   4.611   3.548  0.8895  0.3827 -0.7636
 6919SOL    HW232217   4.420   4.552   3.495 -1.5385 -0.0883 -1.2710
 6920SOL     OW32218   3.067   3.464   6.156  0.1357  0.3709 -0.1659
 6920SOL    HW132219   3.044   3.495   6.243 -1.0043  1.7289 -0.9341
 6920SOL    HW232220   3.096   3.543   6.110  1.5960 -0.9660 -1.5284
 6921SOL     OW32221   2.631   2.861   8.142  0.5771 -0.1740 -0.0166
 6921SOL    HW132222   2.584   2.944   8.145 -0.6071 -0.8015 -1.4950
 6921SOL    HW232223   2.642   2.851   8.237  0.8207  0.1562 -0.0059
 6922SOL     OW32224   2.913   3.458   7.081 -0.0870 -0.2232 -0.2252
 6922SOL    HW132225   2.853   3.527   7.053 -0.2710 -0.5616 -0.6733
 6922SOL    HW232226   2.911   3.398   7.006 -1.4382  2.0894 -2.0367
 6923SOL     OW32227   2.709   0.680   3.624  0.0685 -0.1663  0.2328
 6923SOL    HW132228   2.668   0.602   3.662  0.6289 -0.6060 -0.0503
 6923SOL    HW232229   2.631   0.713   3.579 -0.0671 -0.2669  0.3951
 6924SOL     OW32230   2.098   0.277  15.085  0.0967  0.1098 -0.0031
 6924SOL    HW132231   2.113   0.237  15.171  2.6536  1.6906  0.2880
 6924SOL    HW232232   2.182   0.318  15.065  0.7455 -1.1924  0.0577
 6925SOL     OW32233   4.293   2.949   2.063  0.1515  0.1996  0.1354
 6925SOL    HW132234   4.293   3.031   2.112  2.5568  0.2047  0.0926
 6925SOL    HW232235   4.201   2.958   2.036  0.2695  0.4656 -0.1792
 6926SOL     OW32236   0.960   3.364   5.940 -0.6766 -0.4971 -0.1023
 6926SOL    HW132237   0.967   3.329   6.029 -0.9141 -1.9936 -0.6594
 6926SOL    HW232238   1.049   3.360   5.905 -0.2728  0.9965  0.7474
 6927SOL     OW32239   3.319   1.693   5.561  0.0067 -0.1664  0.0249
 6927SOL    HW132240   3.288   1.745   5.635 -0.7053  0.3273 -0.6245
 6927SOL    HW232241   3.373   1.760   5.519 -0.9642  1.9076  2.0928
 6928SOL     OW32242   4.105   2.003   1.660  0.1409  0.2800  0.2493
 6928SOL    HW132243   4.075   1.917   1.689  0.0661 -0.0561 -0.8202
 6928SOL    HW232244   4.035   2.036   1.604  0.1646 -0.1586 -0.0339
 6929SOL     OW32245   0.760   3.253  15.852 -0.0414 -0.0989  0.1790
 6929SOL    HW132246   0.769   3.162  15.823  1.5663  0.2257 -0.3293
 6929SOL    HW232247   0.792   3.299  15.775 -3.0383  1.4253 -0.1386
 6930SOL     OW32248   0.918   3.205   1.039  0.0686 -0.2219  0.2510
 6930SOL    HW132249   1.000   3.210   0.989  0.3333 -3.7589  0.3204
 6930SOL    HW232250   0.852   3.186   0.973 -0.3322 -1.5708  1.0334
 6931SOL     OW32251   4.690   0.471   4.280  0.3189 -0.0867 -0.1692
 6931SOL    HW132252   0.001   0.387   4.310 -0.9202  0.2470  2.1954
 6931SOL    HW232253   4.597   0.464   4.300  0.5362 -0.8234  0.5904
 6932SOL     OW32254   3.831   2.037   1.571 -0.2334  0.2851 -0.6807
 6932SOL    HW132255   3.817   2.009   1.662  0.8622 -0.7111 -0.8141
 6932SOL    HW232256   3.746   2.075   1.549 -0.9151 -1.0824 -0.4137
 6933SOL     OW32257   2.164   3.415   3.043 -0.1049 -0.0614 -0.3043
 6933SOL    HW132258   2.229   3.433   3.111  1.7783  4.3828 -3.3065
 6933SOL    HW232259   2.090   3.462   3.080 -2.4005 -3.3414 -0.7597
 6934SOL     OW32260   3.912   3.388   1.560  0.1804  0.2349  0.2056
 6934SOL    HW132261   4.002   3.357   1.550  0.4164  1.0738 -0.3033
 6934SOL    HW232262   3.895   3.338   1.640  1.3386 -2.1844 -1.0583
 6935SOL     OW32263   2.593   3.473   6.513 -0.3313  0.5006  0.0337
 6935SOL    HW132264   2.557   3.542   6.568 -0.7330 -0.7466  1.3142
 6935SOL    HW232265   2.638   3.524   6.445 -0.5435 -0.7772 -1.0523
 6936SOL     OW32266   1.903   4.241   5.204 -0.0710 -0.1301 -0.1565
 6936SOL    HW132267   1.868   4.207   5.121 -0.0694 -0.8923  0.1544
 6936SOL    HW232268   1.821   4.268   5.246  0.4650  0.1660  0.6866
 6937SOL     OW32269   3.930   4.198   5.678  0.1073  0.1629 -0.0167
 6937SOL    HW132270   3.974   4.186   5.763  2.8972  1.0847 -1.3118
 6937SOL    HW232271   3.994   4.170   5.613  0.2523 -2.3964  1.2625
 6938SOL     OW32272   0.673   2.998   2.940 -0.0495 -0.2359  0.2953
 6938SOL    HW132273   0.605   3.016   3.005 -0.1761  0.2463  0.0328
 6938SOL    HW232274   0.739   3.005   3.009  1.3147  2.2066 -1.2309
 6939SOL     OW32275   3.517   0.686   9.467 -0.4290  0.2008 -0.6294
 6939SOL    HW132276   3.459   0.762   9.466  0.7397  1.1152 -0.1253
 6939SOL    HW232277   3.599   0.721   9.432  0.0615  1.0101  1.2839
 6940SOL     OW32278   1.966   3.509   0.123  0.0854  0.2936  0.3236
 6940SOL    HW132279   1.922   3.499   0.038  0.2141  0.7585  0.2009
 6940SOL    HW232280   2.053   3.472   0.110 -0.5909 -1.4080  0.5962
 6941SOL     OW32281   4.220   2.557   4.862  0.3956 -0.3039 -0.8713
 6941SOL    HW132282   4.269   2.637   4.883  0.3452 -0.9469  1.6091
 6941SOL    HW232283   4.284   2.488   4.881 -0.4823 -0.3403  1.9564
 6942SOL     OW32284   3.551   3.513  12.895 -0.1531 -0.2414  0.0450
 6942SOL    HW132285   3.569   3.456  12.821  0.6454  1.9338 -1.4552
 6942SOL    HW232286   3.618   3.581  12.888 -0.0279 -0.6355 -2.5830
 6943SOL     OW32287   3.463   1.228  13.853 -0.1067  0.5138 -0.1808
 6943SOL    HW132288   3.499   1.171  13.786 -0.7201 -0.1685  0.0693
 6943SOL    HW232289   3.395   1.276  13.805  0.8349  1.7333 -0.2980
 6944SOL     OW32290   1.348   3.129   7.797  0.1644  0.0570  0.3171
 6944SOL    HW132291   1.269   3.076   7.804  0.6222 -0.7142 -0.3156
 6944SOL    HW232292   1.405   3.065   7.753  0.4420  0.6634 -0.2026
 6945SOL     OW32293   2.006   4.270  14.103  0.6361 -0.9127  0.1204
 6945SOL    HW132294   2.089   4.247  14.061 -0.2444 -2.2778 -0.8918
 6945SOL    HW232295   1.953   4.263  14.024 -0.5834 -1.1194  0.9571
 6946SOL     OW32296   2.006   1.819   7.001 -0.2527 -0.4302  0.2692
 6946SOL    HW132297   1.939   1.757   7.028 -0.6231  0.7818  2.1272
 6946SOL    HW232298   1.970   1.894   7.048 -0.6913 -0.9284  0.7297
 6947SOL     OW32299   0.052   3.758   5.993  0.5103  0.1508  0.2153
 6947SOL    HW132300   0.029   3.851   5.984 -0.3974 -0.2000 -1.1822
 6947SOL    HW232301   0.029   3.738   6.084 -0.2643 -0.7578 -0.1682
 6948SOL     OW32302   2.222   3.418   3.969  0.3674 -0.2127 -0.0734
 6948SOL    HW132303   2.185   3.379   3.890 -0.9935 -1.1406  1.0108
 6948SOL    HW232304   2.189   3.508   3.968 -2.3009 -1.1644  2.0594
 6949SOL     OW32305   0.522   1.748   1.288 -0.1298 -0.2287 -0.3977
 6949SOL    HW132306   0.446   1.707   1.329 -0.4069 -0.7742 -1.4604
 6949SOL    HW232307   0.593   1.700   1.331 -0.1960  1.5116  1.6231
 6950SOL     OW32308   3.016   1.973  14.622 -0.7012  0.2478 -0.1233
 6950SOL    HW132309   3.096   1.931  14.653 -0.2002  1.1580 -0.1688
 6950SOL    HW232310   3.043   2.061  14.595  2.1188  0.2127  2.6748
 6951SOL     OW32311   3.678   1.818  15.460 -0.3231  0.0000  0.4520
 6951SOL    HW132312   3.757   1.788  15.504 -0.6656  0.4391  1.3512
 6951SOL    HW232313   3.708   1.897  15.416 -0.3748 -1.3725 -2.0449
 6952SOL     OW32314   0.806   3.410  13.725 -0.4731  0.4012 -0.1926
 6952SOL    HW132315   0.779   3.433  13.636 -0.4028 -1.3523 -0.6771
 6952SOL    HW232316   0.849   3.491  13.751 -1.1166  0.8880 -0.6545
 6953SOL     OW32317   0.868   1.740   1.230 -0.6074  0.6169 -0.0122
 6953SOL    HW132318   0.822   1.709   1.308 -0.0753 -1.9146 -0.7280
 6953SOL    HW232319   0.832   1.829   1.223 -2.1673  0.1924  2.4514
 6954SOL     OW32320   2.915   2.825   8.705 -0.2694 -0.0882 -0.1694
 6954SOL    HW132321   2.888   2.742   8.745 -1.5677  0.4833  0.1361
 6954SOL    HW232322   2.841   2.881   8.727  0.4672 -0.0033  2.0976
 6955SOL     OW32323   3.402   3.410   0.375 -0.8299 -0.1353  0.2775
 6955SOL    HW132324   3.364   3.496   0.392 -0.3282  0.5810 -2.2654
 6955SOL    HW232325   3.478   3.401   0.433 -1.7337  0.1110  1.5052
 6956SOL     OW32326   1.600   1.976   7.260 -0.2703  0.0260  0.3931
 6956SOL    HW132327   1.562   1.889   7.249 -4.1670  1.8715 -0.7175
 6956SOL    HW232328   1.540   2.033   7.212 -0.1075  0.1959  0.3908
 6957SOL     OW32329   4.703   2.706   1.207  0.0091  0.3915  0.5342
 6957SOL    HW132330   0.060   2.746   1.237 -0.1910  1.0204  0.2404
 6957SOL    HW232331   4.715   2.738   1.117  0.1884  0.2938  0.5238
 6958SOL     OW32332   3.710   1.843   2.910 -0.3364  0.1771  0.0187
 6958SOL    HW132333   3.631   1.820   2.960  0.9636 -1.7457  1.1761
 6958SOL    HW232334   3.739   1.756   2.882 -0.0283  0.1976  0.2703
 6959SOL     OW32335   4.404   2.237  12.346  0.3051 -0.1155  0.3534
 6959SOL    HW132336   4.474   2.272  12.400  0.3707  2.1684 -1.1947
 6959SOL    HW232337   4.419   2.287  12.266  3.2596  1.4851  1.9403
 6960SOL     OW32338   0.148   2.602   4.998  0.5180  0.0431  0.1254
 6960SOL    HW132339   0.087   2.544   4.953 -0.9373  1.8316 -0.2320
 6960SOL    HW232340   0.170   2.653   4.920  0.1407  2.1114  1.3898
 6961SOL     OW32341   3.238   2.840   3.597 -0.2595 -0.1591 -0.4156
 6961SOL    HW132342   3.216   2.762   3.649 -1.0756  0.2468 -0.1492
 6961SOL    HW232343   3.217   2.822   3.505 -0.2773  1.1648 -0.6623
 6962SOL     OW32344   2.078   2.100   0.915  0.1680  0.2851  0.2683
 6962SOL    HW132345   2.002   2.090   0.973  1.0825  2.3174  1.8099
 6962SOL    HW232346   2.142   2.047   0.963 -1.8729 -0.6042  2.0564
 6963SOL     OW32347   1.327   1.115   2.304  0.4206  0.0648 -0.4787
 6963SOL    HW132348   1.247   1.066   2.288  0.4709 -0.3418  0.5161
 6963SOL    HW232349   1.369   1.039   2.343  2.2937  2.2377  1.7671
 6964SOL     OW32350   1.701   1.122   2.268 -0.3525  0.0038  0.3810
 6964SOL    HW132351   1.684   1.138   2.361 -0.3760  0.4784  0.2906
 6964SOL    HW232352   1.711   1.211   2.237 -0.8106 -0.4617 -1.0875
 6965SOL     OW32353   2.967   2.595   2.479  0.4113  0.3944  0.7069
 6965SOL    HW132354   3.026   2.520   2.472  0.1075  0.2647 -0.5142
 6965SOL    HW232355   2.888   2.549   2.452 -0.1092  2.1043 -0.6512
 6966SOL     OW32356   0.758   3.998   4.296 -0.3603  0.0471 -0.3417
 6966SOL    HW132357   0.730   3.908   4.279  0.1240 -0.2239  0.3006
 6966SOL    HW232358   0.853   3.985   4.287 -0.2864 -0.1822  0.7634
 6967SOL     OW32359   4.231   3.659  13.109 -0.4551 -0.0844 -0.1226
 6967SOL    HW132360   4.273   3.734  13.067 -0.5994 -1.7440 -3.1837
 6967SOL    HW232361   4.195   3.614  13.032 -0.0795 -0.0044 -0.3429
 6968SOL     OW32362   4.340   0.066  13.703  0.3409 -0.1407 -0.1226
 6968SOL    HW132363   4.374   0.130  13.766  0.3091 -0.2038 -0.0415
 6968SOL    HW232364   4.338   4.720  13.767  0.3774 -1.3782 -1.4870
 6969SOL     OW32365   4.347   0.467  14.759 -0.0939 -0.4418  0.4769
 6969SOL    HW132366   4.273   0.501  14.810 -0.7316  0.0539 -0.7598
 6969SOL    HW232367   4.306   0.429  14.682  1.3754 -2.5702  0.7501
 6970SOL     OW32368   0.326   1.672   1.066 -0.4534 -0.2596 -0.1515
 6970SOL    HW132369   0.351   1.690   0.975  0.3476  0.4320  0.2089
 6970SOL    HW232370   0.397   1.718   1.111 -0.1118 -1.4650  0.5464
 6971SOL     OW32371   4.025   4.035   3.382  0.1948 -0.3599  0.0030
 6971SOL    HW132372   4.015   3.978   3.306 -1.0420 -0.1968  0.0401
 6971SOL    HW232373   4.119   4.036   3.397  0.2552 -2.6247 -0.2678
 6972SOL     OW32374   3.497   1.115  10.281 -1.0079  0.0716  0.1918
 6972SOL    HW132375   3.467   1.032  10.319 -2.4873  0.4782 -0.0656
 6972SOL    HW232376   3.541   1.086  10.201  1.4806  1.4228  1.0946
 6973SOL     OW32377   0.053   0.465   8.228  0.6807  0.1210 -0.1352
 6973SOL    HW132378   0.111   0.389   8.223  2.2575  1.1803  1.8366
 6973SOL    HW232379   0.003   0.457   8.147 -0.0357 -0.8488  0.4034
 6974SOL     OW32380   2.593   1.451  16.525  0.5864  0.7175 -0.0499
 6974SOL    HW132381   2.645   1.500  16.588  1.4783 -0.7826  0.3667
 6974SOL    HW232382   2.622   1.361  16.536  0.8491  0.7059 -0.8610
 6975SOL     OW32383   2.476   2.578   6.547 -0.1172  0.1230 -1.1059
 6975SOL    HW132384   2.545   2.639   6.519  1.2336 -1.2419 -0.7595
 6975SOL    HW232385   2.469   2.578   6.642 -0.8580 -1.5734 -1.1659
 6976SOL     OW32386   4.396   0.785  16.736  0.3925  0.0659  0.2749
 6976SOL    HW132387   4.397   0.690  16.726  0.1013  0.0184  0.6731
 6976SOL    HW232388   4.458   0.793  16.809 -2.8026  0.6385  2.9455
 6977SOL     OW32389   4.697   2.049   0.345 -0.3306 -0.4024 -0.2268
 6977SOL    HW132390   4.661   1.963   0.323  2.5069 -2.5503  3.5293
 6977SOL    HW232391   4.624   2.108   0.325 -0.8907 -1.7849 -2.1703
 6978SOL     OW32392   3.525   2.526   0.031  0.0240 -0.0818 -0.5801
 6978SOL    HW132393   3.532   2.581   0.109 -0.4690 -1.5493  0.5009
 6978SOL    HW232394   3.572   2.445   0.049  1.8811  1.1208 -0.0793
 6979SOL     OW32395   1.724   1.395   0.800 -0.2217  0.6754 -0.2348
 6979SOL    HW132396   1.709   1.393   0.705 -0.9814  0.3955 -0.1136
 6979SOL    HW232397   1.741   1.303   0.822 -2.1929 -0.0889 -1.9032
 6980SOL     OW32398   0.902   1.956   6.699 -0.0753  0.1493  0.2577
 6980SOL    HW132399   0.965   1.944   6.771 -0.8546 -0.3447  0.8652
 6980SOL    HW232400   0.956   1.916   6.631 -1.1660 -0.4235 -0.2748
 6981SOL     OW32401   2.204   2.039  11.371 -0.0366  0.2214  0.4604
 6981SOL    HW132402   2.254   2.008  11.447  1.5996 -0.6658 -0.9974
 6981SOL    HW232403   2.136   1.974  11.386  2.5923 -2.5650  0.3913
 6982SOL     OW32404   4.069   0.765   3.405  0.0890  0.0288 -0.2932
 6982SOL    HW132405   4.068   0.681   3.359 -1.6585 -0.0557 -0.1229
 6982SOL    HW232406   4.097   0.827   3.337 -2.0658 -0.9999 -2.1345
 6983SOL     OW32407   1.039   0.733   3.785 -0.3649  0.5891  0.1941
 6983SOL    HW132408   1.008   0.702   3.700  0.1138  2.0210 -0.5096
 6983SOL    HW232409   1.130   0.726   3.754 -0.1437  0.8318  0.7891
 6984SOL     OW32410   2.426   4.663  12.264  0.6845 -0.9042 -0.3395
 6984SOL    HW132411   2.454   0.029  12.272 -0.9696 -0.4053 -0.2413
 6984SOL    HW232412   2.474   4.629  12.188 -1.3426 -3.8466 -0.3151
 6985SOL     OW32413   1.809   3.527   3.033  0.0037 -0.5394 -0.3615
 6985SOL    HW132414   1.843   3.453   2.983  1.9597 -0.1410  0.3802
 6985SOL    HW232415   1.831   3.599   2.974  0.3144  0.2600  0.7327
 6986SOL     OW32416   2.360   1.484   8.180  0.0417 -0.3075 -0.2421
 6986SOL    HW132417   2.311   1.419   8.130 -1.1597  0.0264  0.4982
 6986SOL    HW232418   2.338   1.466   8.271  0.4239  1.4600  0.2071
 6987SOL     OW32419   4.294   4.435   1.074 -0.3205  0.0675  0.3527
 6987SOL    HW132420   4.351   4.490   1.127 -0.5142 -0.3241  0.9822
 6987SOL    HW232421   4.352   4.372   1.031 -0.5830 -1.0293  1.5581
 6988SOL     OW32422   3.717   1.986   2.663 -0.2513 -0.2380 -0.3720
 6988SOL    HW132423   3.630   1.946   2.664  0.4373 -1.7252 -0.0002
 6988SOL    HW232424   3.760   1.952   2.741 -2.4650 -1.5398  0.2796
 6989SOL     OW32425   0.060   0.239   0.413 -0.0444 -0.3234 -0.0442
 6989SOL    HW132426   0.032   0.181   0.484  1.6737 -1.3841 -0.2395
 6989SOL    HW232427   4.703   0.251   0.364  0.0787 -0.7896 -0.3684
 6990SOL     OW32428   1.609   2.287   2.517 -0.0182 -0.1283  0.3059
 6990SOL    HW132429   1.665   2.234   2.574  0.6074  1.9841  1.6721
 6990SOL    HW232430   1.653   2.262   2.436 -1.6916 -3.4161  0.4581
 6991SOL     OW32431   1.344   3.323  11.052 -0.1042 -0.3369 -0.0616
 6991SOL    HW132432   1.433   3.287  11.042  0.0326  0.0165 -0.1047
 6991SOL    HW232433   1.353   3.344  11.145 -0.1944 -0.4018 -0.0383
 6992SOL     OW32434   0.972   4.513  14.123 -0.7365 -0.1091 -0.2261
 6992SOL    HW132435   1.031   4.502  14.197 -1.8215 -1.7533  0.3990
 6992SOL    HW232436   0.927   4.429  14.121  0.1589 -0.5795 -0.3660
 6993SOL     OW32437   3.328   0.785  14.965  0.4605  0.6900  0.0628
 6993SOL    HW132438   3.418   0.760  14.985 -0.0164  0.3122  1.7618
 6993SOL    HW232439   3.311   0.847  15.035  0.4454  0.0399  0.6411
 6994SOL     OW32440   3.688   4.474  12.216 -0.3445 -0.2168  0.3360
 6994SOL    HW132441   3.762   4.502  12.163 -0.2045 -0.1793  0.5536
 6994SOL    HW232442   3.690   4.382  12.190 -0.7278 -0.2862  0.5459
 6995SOL     OW32443   2.564   3.356   7.596  0.2815  0.3865 -0.1777
 6995SOL    HW132444   2.509   3.328   7.669  0.0151 -0.4851 -0.7052
 6995SOL    HW232445   2.562   3.452   7.601 -4.5215  0.1002  3.6295
 6996SOL     OW32446   2.291   2.908  14.230  0.2467 -0.0010  0.8322
 6996SOL    HW132447   2.250   2.827  14.199  1.6507 -0.3648 -0.0685
 6996SOL    HW232448   2.300   2.896  14.325  0.6712  2.3559  1.0916
 6997SOL     OW32449   2.223   1.858   1.780  0.0008 -0.7703  0.2925
 6997SOL    HW132450   2.191   1.917   1.849 -0.0812  0.7866 -1.0610
 6997SOL    HW232451   2.318   1.859   1.793 -0.2707  1.9331  2.0510
 6998SOL     OW32452   1.793   4.142  12.241  0.2109  0.1594 -0.4730
 6998SOL    HW132453   1.700   4.131  12.259 -0.0049 -0.1941 -1.8168
 6998SOL    HW232454   1.830   4.053  12.238 -0.1087 -0.0004  0.5231
 6999SOL     OW32455   3.656   2.509  12.419  0.2550  0.0997 -0.4503
 6999SOL    HW132456   3.587   2.509  12.486 -0.4769 -2.3364 -1.1895
 6999SOL    HW232457   3.733   2.510  12.476  0.0455  1.1742 -0.1807
 7000SOL     OW32458   4.281   2.388   5.985  0.4755  0.1590  0.2947
 7000SOL    HW132459   4.294   2.295   5.968  1.5975  0.6947 -1.8018
 7000SOL    HW232460   4.279   2.419   5.894  2.4345  1.0468  0.5579
 7001SOL     OW32461   1.944   2.333  15.320 -0.1955 -0.0459  0.0639
 7001SOL    HW132462   1.951   2.243  15.288 -0.1644 -0.4477  1.1731
 7001SOL    HW232463   1.994   2.382  15.255 -2.6396 -0.2294 -1.9524
 7002SOL     OW32464   4.184   4.354   4.574 -0.5722 -0.4681  0.8323
 7002SOL    HW132465   4.153   4.267   4.598  1.4072 -1.4651 -0.2279
 7002SOL    HW232466   4.104   4.379   4.528 -0.5762  0.3807  1.3000
 7003SOL     OW32467   2.500   4.334   3.244 -0.1431  0.0299 -0.1466
 7003SOL    HW132468   2.506   4.428   3.259  0.3629  0.1416 -1.0819
 7003SOL    HW232469   2.463   4.326   3.156 -1.0928 -0.2918  0.2761
 7004SOL     OW32470   2.874   3.947   4.680  0.1698  0.0870 -0.1246
 7004SOL    HW132471   2.830   3.878   4.630  2.0910  1.2399 -3.3725
 7004SOL    HW232472   2.793   3.997   4.690  1.5665  1.6857  3.1440
 7005SOL     OW32473   4.094   4.682   3.502 -0.0348  0.5625 -0.0420
 7005SOL    HW132474   4.053   4.696   3.417  1.7196  3.1399 -0.4705
 7005SOL    HW232475   4.086   0.041   3.548 -0.7882 -0.3084  1.4024
 7006SOL     OW32476   0.137   2.969  15.302 -0.3487 -0.1249  0.0530
 7006SOL    HW132477   0.200   3.026  15.258  1.0965 -0.7454  1.2838
 7006SOL    HW232478   0.203   2.905  15.329  0.2229  0.5268  0.1889
 7007SOL     OW32479   0.124   0.906  15.162 -0.4938  0.0222 -0.6229
 7007SOL    HW132480   0.099   0.892  15.254 -0.6134 -0.9238 -0.8043
 7007SOL    HW232481   0.181   0.984  15.164 -0.5092  0.0123  0.2072
 7008SOL     OW32482   0.912   0.876   8.336  0.1243 -0.0051  0.4630
 7008SOL    HW132483   0.836   0.915   8.379 -1.8183 -1.8013 -1.2975
 7008SOL    HW232484   0.968   0.903   8.408 -0.2066  1.3681  0.2107
 7009SOL     OW32485   4.708   0.225  17.694  0.4573 -0.2709 -0.4803
 7009SOL    HW132486   4.671   0.298  17.645 -0.4012 -0.6819 -0.4397
 7009SOL    HW232487   4.649   0.230   0.070 -1.5086 -0.8114 -1.9776
 7010SOL     OW32488   3.240   3.540   5.693  0.3390  0.6608  0.7405
 7010SOL    HW132489   3.298   3.592   5.749  1.0038 -0.2240  0.8791
 7010SOL    HW232490   3.269   3.457   5.732 -0.2820  0.1258  0.0604
 7011SOL     OW32491   1.678   3.506  12.547  0.2194 -0.3072  0.9525
 7011SOL    HW132492   1.615   3.435  12.559  1.0434 -1.3294 -0.6704
 7011SOL    HW232493   1.652   3.571  12.611  0.7545 -1.1048  1.9867
 7012SOL     OW32494   3.680   4.237   5.493  0.0385  0.6228 -0.3863
 7012SOL    HW132495   3.742   4.211   5.561  0.3151  1.8392 -0.1698
 7012SOL    HW232496   3.734   4.299   5.445  1.7143  0.5862  1.4849
 7013SOL     OW32497   0.317   4.604   4.799 -0.0143 -0.0073  0.1311
 7013SOL    HW132498   0.375   4.535   4.767 -2.6952 -2.9912  1.7188
 7013SOL    HW232499   0.364   4.687   4.795  2.2318 -1.2353  1.3011
 7014SOL     OW32500   3.438   1.929   7.859  0.2252 -0.0756  0.5579
 7014SOL    HW132501   3.364   1.905   7.915  0.9294  1.4858  2.1448
 7014SOL    HW232502   3.408   2.012   7.822 -0.1238 -2.1177 -3.7825
 7015SOL     OW32503   2.758   0.701   6.529  0.1905 -0.1136  0.0932
 7015SOL    HW132504   2.682   0.747   6.493  0.2727  0.9032  1.2166
 7015SOL    HW232505   2.811   0.712   6.450 -1.5723 -1.5754 -1.2798
 7016SOL     OW32506   0.823   1.028   1.998 -0.1173 -0.0039 -0.2152
 7016SOL    HW132507   0.834   1.067   2.085 -1.5169  0.4811 -0.2683
 7016SOL    HW232508   0.914   1.001   1.982 -0.1810  0.5712 -1.5272
 7017SOL     OW32509   3.810   0.430   7.442 -0.2933 -0.6993  0.3089
 7017SOL    HW132510   3.816   0.337   7.463 -1.2098 -0.7581  0.3310
 7017SOL    HW232511   3.733   0.454   7.493  1.1063  1.4398  1.4010
 7018SOL     OW32512   0.683   3.760   3.878  0.6532 -0.3821 -0.4145
 7018SOL    HW132513   0.710   3.770   3.969 -1.9828  1.8672  0.0971
 7018SOL    HW232514   0.678   3.664   3.876 -1.0038 -0.2851 -0.3007
 7019SOL     OW32515   2.011   3.896   0.436  0.0787 -0.0553 -0.4619
 7019SOL    HW132516   1.967   3.916   0.518  1.4651 -0.1336  0.2965
 7019SOL    HW232517   1.960   3.820   0.407  0.1832  0.0869 -1.0208
 7020SOL     OW32518   2.929   1.106   2.584  0.0536 -0.4066  0.1130
 7020SOL    HW132519   2.960   1.100   2.674 -1.0871  0.9210  0.5881
 7020SOL    HW232520   2.990   1.057   2.528  1.7951  0.9219  0.8571
 7021SOL     OW32521   4.525   4.434  17.463  0.0747  0.7936  0.3675
 7021SOL    HW132522   4.524   4.407  17.555 -0.7894  2.3374  0.8072
 7021SOL    HW232523   4.613   4.414  17.431 -0.0943  0.2387  0.2468
 7022SOL     OW32524   4.220   0.631   6.902  0.2541  0.3774 -0.4867
 7022SOL    HW132525   4.246   0.567   6.967 -1.1366  0.9621  0.6342
 7022SOL    HW232526   4.171   0.585   6.834  0.3296 -1.0499  0.4337
 7023SOL     OW32527   3.831   0.670  17.100  0.0384 -0.4550  0.0958
 7023SOL    HW132528   3.739   0.687  17.080  0.5511  2.2529  0.0719
 7023SOL    HW232529   3.866   0.697  17.015  3.2328  0.2056  1.6160
 7024SOL     OW32530   4.587   1.192  17.627 -0.3604  0.6552  0.7906
 7024SOL    HW132531   4.669   1.143  17.615 -0.5580 -0.1671  2.6982
 7024SOL    HW232532   4.531   1.134  17.576  0.1938  0.6759  0.1696
 7025SOL     OW32533   3.170   3.756   6.780  0.1516 -0.3978 -0.5561
 7025SOL    HW132534   3.203   3.666   6.785 -1.1710 -0.9223 -1.3124
 7025SOL    HW232535   3.076   3.740   6.780  0.0862 -0.0219 -2.7248
 7026SOL     OW32536   1.176   2.994   9.229 -0.3589  0.4544  0.5653
 7026SOL    HW132537   1.119   3.064   9.262  1.6816  1.5856  1.7327
 7026SOL    HW232538   1.245   2.986   9.295  0.8673  1.2314 -0.6148
 7027SOL     OW32539   0.970   1.373   8.610 -0.3424 -0.2110 -0.5575
 7027SOL    HW132540   1.041   1.376   8.547  1.2360  1.3763  1.3159
 7027SOL    HW232541   1.012   1.378   8.696  0.2470 -1.2221 -0.7927
 7028SOL     OW32542   3.972   1.016   3.169  0.1214 -0.0329 -0.0008
 7028SOL    HW132543   4.030   0.941   3.157 -0.8484 -0.8211  0.2662
 7028SOL    HW232544   3.886   0.975   3.175  0.0723 -0.3608 -3.0395
 7029SOL     OW32545   4.246   1.169   8.708  0.0823 -0.3294  0.0564
 7029SOL    HW132546   4.275   1.173   8.616  0.6484  0.3868  0.2596
 7029SOL    HW232547   4.321   1.200   8.759  0.0873 -2.0633  1.0852
 7030SOL     OW32548   1.167   4.049   8.214 -0.2964 -0.4383  0.4676
 7030SOL    HW132549   1.076   4.062   8.238 -0.3712 -3.4237  1.8140
 7030SOL    HW232550   1.223   4.064   8.291  1.1993 -0.3006 -0.6498
 7031SOL     OW32551   4.517   2.334  16.368 -0.1438 -0.0328  0.2677
 7031SOL    HW132552   4.578   2.267  16.337 -0.1818  0.9996 -1.9823
 7031SOL    HW232553   4.517   2.328  16.464  0.4292 -0.8088  0.2167
 7032SOL     OW32554   3.337   4.712   2.922 -0.4199 -0.3136  0.1860
 7032SOL    HW132555   3.300   4.683   2.839 -0.9760 -1.0203  0.6833
 7032SOL    HW232556   3.393   0.060   2.894  0.7274 -1.9908 -1.8590
 7033SOL     OW32557   3.259   3.794   6.105  0.3409  0.0064  0.1912
 7033SOL    HW132558   3.317   3.745   6.164 -1.2770 -1.9710  0.1310
 7033SOL    HW232559   3.286   3.882   6.130  2.8505 -1.5913  3.2209
 7034SOL     OW32560   0.985   4.122   4.444  0.0123  0.0830  0.0715
 7034SOL    HW132561   1.002   4.194   4.382  1.2874 -2.2337 -2.3024
 7034SOL    HW232562   0.931   4.178   4.499 -0.0880  0.5988 -0.5514
 7035SOL     OW32563   3.676   1.064   2.479  0.0082 -0.3462  0.6486
 7035SOL    HW132564   3.764   1.063   2.443 -0.6106  0.8484 -0.9023
 7035SOL    HW232565   3.644   0.976   2.463 -1.7691  0.2518  0.8414
 7036SOL     OW32566   3.050   3.305   2.418 -0.1371 -0.1681  0.1764
 7036SOL    HW132567   2.958   3.325   2.401  0.5984  1.2582 -2.2059
 7036SOL    HW232568   3.098   3.385   2.394 -0.4535  0.1636  0.6418
 7037SOL     OW32569   1.650   2.531   9.698 -0.3473  0.6926  0.6410
 7037SOL    HW132570   1.734   2.553   9.738  0.7596 -2.2912 -0.0729
 7037SOL    HW232571   1.688   2.544   9.612 -0.3746 -1.8065  0.2654
 7038SOL     OW32572   4.590   0.504  10.084  0.5580 -0.2263  0.0048
 7038SOL    HW132573   4.658   0.455  10.037  0.7092 -0.8592  0.8855
 7038SOL    HW232574   4.522   0.436  10.075  1.3798 -0.8426 -1.5886
 7039SOL     OW32575   3.424   3.909   7.510 -0.0796  0.3801  0.4908
 7039SOL    HW132576   3.331   3.931   7.512  0.4065  2.7895 -2.9649
 7039SOL    HW232577   3.432   3.832   7.566  0.3162 -0.0943 -0.2116
 7040SOL     OW32578   3.228   1.663  12.490  0.5965 -0.4356 -0.1465
 7040SOL    HW132579   3.225   1.568  12.477  2.8376 -0.6206  0.6862
 7040SOL    HW232580   3.216   1.685  12.583 -0.7438 -0.8010 -0.2284
 7041SOL     OW32581   4.194   3.497   7.041  0.6438 -0.2935 -0.3164
 7041SOL    HW132582   4.218   3.531   6.955  3.2174  2.3459  1.4285
 7041SOL    HW232583   4.154   3.576   7.077 -1.4385 -0.8111 -1.5122
 7042SOL     OW32584   4.534   2.752  16.001 -0.0892 -0.7415  0.1155
 7042SOL    HW132585   4.494   2.756  16.088  1.3981  1.5644  0.6734
 7042SOL    HW232586   4.575   2.668  16.023  1.7155  0.1865  0.2587
 7043SOL     OW32587   1.987   3.198   0.777 -0.1150  0.1121 -0.5977
 7043SOL    HW132588   2.026   3.206   0.690  1.4612  1.0326  0.2048
 7043SOL    HW232589   2.027   3.121   0.817 -1.4582  0.2787  1.0717
 7044SOL     OW32590   3.291   2.425   6.611 -0.7574  0.0688 -0.3892
 7044SOL    HW132591   3.285   2.376   6.692 -1.3887  1.4934  0.4288
 7044SOL    HW232592   3.380   2.459   6.618 -0.0852 -1.7257 -0.1730
 7045SOL     OW32593   0.558   2.176  10.962 -0.1073  0.0060  0.1783
 7045SOL    HW132594   0.584   2.145  10.876 -1.0350  0.8120 -0.3891
 7045SOL    HW232595   0.479   2.228  10.948 -0.4981 -0.5358  0.3764
 7046SOL     OW32596   0.093   4.378   7.662  0.3910 -0.1001 -0.4375
 7046SOL    HW132597   0.023   4.443   7.660  0.5716  0.1156  0.6239
 7046SOL    HW232598   0.156   4.418   7.602 -0.0676  1.5216  0.1697
 7047SOL     OW32599   1.988   3.349  13.407 -0.4236  0.0883  0.5593
 7047SOL    HW132600   2.076   3.319  13.386 -0.3513 -0.8548  2.2256
 7047SOL    HW232601   2.000   3.350  13.502  0.7846  0.0726  0.3994
 7048SOL     OW32602   2.495   0.785  17.053 -0.0539 -0.5463 -0.1382
 7048SOL    HW132603   2.466   0.704  17.094 -0.9387 -0.4597 -0.6058
 7048SOL    HW232604   2.526   0.756  16.967 -0.2878 -0.2161 -0.3341
 7049SOL     OW32605   0.996   0.332   3.834 -0.6248 -0.2942 -0.6192
 7049SOL    HW132606   0.964   0.414   3.872  0.7398 -0.7804  1.5975
 7049SOL    HW232607   1.038   0.290   3.909 -4.3297 -1.5349  0.7699
 7050SOL     OW32608   3.308   1.332   5.893  0.9288  0.1042  0.1522
 7050SOL    HW132609   3.253   1.266   5.935 -0.9343  1.9242  0.5680
 7050SOL    HW232610   3.240   1.397   5.873  1.3508  0.3381 -0.4979
 7051SOL     OW32611   2.154   3.379  13.147  0.3615  0.5395  0.2443
 7051SOL    HW132612   2.198   3.329  13.217 -2.0884 -3.2753 -0.9204
 7051SOL    HW232613   2.223   3.388  13.082  1.4903 -0.7990  1.2401
 7052SOL     OW32614   1.174   0.053   3.567 -0.2935  0.0068 -0.2392
 7052SOL    HW132615   1.230   0.041   3.490 -1.0395  2.8150 -1.2122
 7052SOL    HW232616   1.139   0.142   3.562 -0.5009 -0.1468 -1.5589
 7053SOL     OW32617   1.239   1.828   8.415  0.1069  0.4164 -0.0969
 7053SOL    HW132618   1.189   1.908   8.430 -0.6045 -0.0039 -0.1835
 7053SOL    HW232619   1.169   1.775   8.455 -1.3916  0.8469 -2.1694
 7054SOL     OW32620   3.967   4.405   6.458 -0.2710  0.7853 -0.0440
 7054SOL    HW132621   4.054   4.390   6.495 -0.0274  0.8134 -0.6096
 7054SOL    HW232622   3.974   4.338   6.390  1.9910  0.5715  0.4056
 7055SOL     OW32623   0.137   1.391   6.399 -0.1660  0.1877  0.5540
 7055SOL    HW132624   0.198   1.320   6.382 -0.4933  0.1225 -0.3067
 7055SOL    HW232625   0.171   1.432   6.479  0.0227 -1.6613  1.4307
 7056SOL     OW32626   0.294   4.122   6.107 -0.3132  0.1628  0.5506
 7056SOL    HW132627   0.224   4.156   6.163 -0.8500  0.9240 -0.5833
 7056SOL    HW232628   0.239   4.071   6.048  0.4629  0.2398 -0.2293
 7057SOL     OW32629   1.718   2.303   1.797  0.2999  0.1241 -0.1223
 7057SOL    HW132630   1.787   2.286   1.733 -2.1530  0.0863 -2.7093
 7057SOL    HW232631   1.739   2.396   1.807  0.0617  0.3874 -2.0678
 7058SOL     OW32632   0.332   0.746   4.708 -0.7387 -0.0826 -0.4607
 7058SOL    HW132633   0.401   0.723   4.646  1.1959 -1.4119  2.1548
 7058SOL    HW232634   0.378   0.718   4.788  1.8326  0.8710 -1.6053
 7059SOL     OW32635   0.855   3.914   3.052  0.0453  0.4262  0.8047
 7059SOL    HW132636   0.907   3.922   3.132  0.3852 -0.2864  0.6540
 7059SOL    HW232637   0.859   3.820   3.036  1.6648  0.5163  0.6953
 7060SOL     OW32638   2.793   2.380   1.763 -0.1473 -0.3458  0.0478
 7060SOL    HW132639   2.827   2.461   1.727 -1.9764  0.9982  1.3615
 7060SOL    HW232640   2.723   2.418   1.816  0.4362  1.1027 -0.2362
 7061SOL     OW32641   1.050   0.761   2.488  0.1868 -0.1218 -0.1232
 7061SOL    HW132642   1.082   0.789   2.402  1.9738  1.0768  0.9413
 7061SOL    HW232643   1.080   0.829   2.548 -1.9138  1.3409 -0.7202
 7062SOL     OW32644   1.789   3.885  15.466  0.1779 -0.4849  0.7376
 7062SOL    HW132645   1.716   3.824  15.459  1.1578 -1.7120  1.1673
 7062SOL    HW232646   1.761   3.949  15.401 -1.5387 -1.0263  0.9487
 7063SOL     OW32647   0.045   1.599   3.607 -0.0570 -0.2661  0.5287
 7063SOL    HW132648   0.100   1.525   3.632 -2.1601 -0.8053  3.6091
 7063SOL    HW232649   0.087   1.631   3.528 -2.5087  1.6143 -0.0161
 7064SOL     OW32650   0.971   1.562   9.680 -0.2778 -0.3107 -0.0607
 7064SOL    HW132651   1.032   1.635   9.669 -0.0642 -0.4194  0.3973
 7064SOL    HW232652   0.891   1.611   9.666 -1.3008 -2.7050 -2.6779
 7065SOL     OW32653   2.637   1.339   4.486  0.1215  0.0181  0.1496
 7065SOL    HW132654   2.661   1.422   4.444 -0.4274  0.2283  0.2595
 7065SOL    HW232655   2.707   1.286   4.446 -1.6483 -0.7065 -1.9922
 7066SOL     OW32656   0.813   0.721   6.932  0.0903  0.1532  0.3964
 7066SOL    HW132657   0.829   0.632   6.964  1.4488 -0.5100 -2.1718
 7066SOL    HW232658   0.821   0.703   6.839  3.9118  0.2312  0.7264
 7067SOL     OW32659   3.048   4.627  16.434  0.3863 -0.1521  0.5618
 7067SOL    HW132660   3.006   4.693  16.488 -3.1510 -0.2221 -2.1265
 7067SOL    HW232661   3.117   4.687  16.406 -0.2225  0.7335  0.9897
 7068SOL     OW32662   2.105   0.010   6.291  0.3429  0.2652  0.0236
 7068SOL    HW132663   2.142   0.047   6.211  1.3181  2.1250  1.3404
 7068SOL    HW232664   2.035   4.675   6.263  0.4886  0.7434 -1.3918
 7069SOL     OW32665   1.318   2.469   2.211  0.4739 -0.4539  0.7525
 7069SOL    HW132666   1.384   2.512   2.265 -0.7843  1.7197  0.5569
 7069SOL    HW232667   1.313   2.394   2.271  1.6307 -0.2425  1.1115
 7070SOL     OW32668   0.328   4.574  16.429 -0.0938  0.0330  0.3405
 7070SOL    HW132669   0.382   4.514  16.480 -0.8887 -0.8501  0.1682
 7070SOL    HW232670   0.291   4.508  16.370  1.5053 -0.2044 -0.3936
 7071SOL     OW32671   0.395   0.088  13.530 -0.4642  1.4011  0.4704
 7071SOL    HW132672   0.329   0.119  13.467  0.4077  1.4883 -0.4118
 7071SOL    HW232673   0.475   0.134  13.504  0.6876 -1.2017 -0.6006
 7072SOL     OW32674   0.174   3.573  12.545 -1.0694  0.1879  0.5823
 7072SOL    HW132675   0.244   3.626  12.507 -0.0365  0.3453  2.7158
 7072SOL    HW232676   0.237   3.538  12.608 -2.9230  1.3902  3.0791
 7073SOL     OW32677   1.717   3.715  15.243  0.0970  0.4089 -0.0075
 7073SOL    HW132678   1.680   3.628  15.258  1.1528  0.0336  0.4551
 7073SOL    HW232679   1.804   3.709  15.284  0.6781  3.3401 -0.8215
 7074SOL     OW32680   4.103   4.265   6.926  0.6989  0.5108  0.4800
 7074SOL    HW132681   4.145   4.329   6.869 -0.2925  1.6102  0.9835
 7074SOL    HW232682   4.010   4.287   6.931  0.6568  0.3970  0.1686
 7075SOL     OW32683   3.035   0.437   5.004 -0.0763  0.2572  0.3331
 7075SOL    HW132684   3.114   0.384   5.017  0.8462  1.3902 -0.6559
 7075SOL    HW232685   2.969   0.371   5.025  0.9027 -0.3868  1.4142
 7076SOL     OW32686   2.896   4.087   7.613  0.0538 -0.2662  0.2546
 7076SOL    HW132687   2.979   4.113   7.572  0.9609 -0.3880  2.0065
 7076SOL    HW232688   2.909   3.996   7.640 -0.4701  0.0775  1.7043
 7077SOL     OW32689   2.333   2.047   2.536  0.0914  0.3312 -0.2599
 7077SOL    HW132690   2.361   1.956   2.531 -0.8968  0.1646 -2.5716
 7077SOL    HW232691   2.383   2.071   2.614 -1.1574  2.2231 -0.0302
 7078SOL     OW32692   2.354   3.429   3.238 -0.3400  0.2262 -0.1402
 7078SOL    HW132693   2.418   3.499   3.251  0.0030 -0.2776  0.8629
 7078SOL    HW232694   2.398   3.351   3.205 -0.1565  0.4920 -0.5295
 7079SOL     OW32695   3.629   1.903   8.749  0.3085 -0.2366  0.6854
 7079SOL    HW132696   3.577   1.981   8.764  0.6021 -0.0576  0.7792
 7079SOL    HW232697   3.699   1.904   8.815  0.2398 -0.5816  0.7659
 7080SOL     OW32698   0.966   2.437   7.039  0.6532 -0.1753  0.3023
 7080SOL    HW132699   0.969   2.469   7.129  0.1182  0.4617  0.0930
 7080SOL    HW232700   0.999   2.347   7.036  1.0151 -0.0071 -1.0508
 7081SOL     OW32701   0.430   2.025   0.107  0.4147 -0.3726  0.4458
 7081SOL    HW132702   0.361   1.961   0.086  0.3205  0.3613 -1.4765
 7081SOL    HW232703   0.418   2.042   0.200  1.7755  0.7905  0.4012
 7082SOL     OW32704   1.524   0.070   6.634  0.7436  0.0345 -0.5074
 7082SOL    HW132705   1.442   0.108   6.665 -0.8282 -1.6834 -2.6094
 7082SOL    HW232706   1.548   0.026   6.716  0.4442 -1.5314 -1.2556
 7083SOL     OW32707   3.516   3.913   3.692  0.4446 -0.6587 -0.2361
 7083SOL    HW132708   3.596   3.891   3.740  0.5336  0.9741  0.3425
 7083SOL    HW232709   3.540   3.885   3.603  1.4882 -0.1503 -0.1200
 7084SOL     OW32710   0.147   2.471   4.755  0.2282  0.0057 -0.1073
 7084SOL    HW132711   0.219   2.418   4.789  0.2864 -0.7475 -1.4316
 7084SOL    HW232712   0.184   2.502   4.673 -0.0972 -0.1246 -0.3032
 7085SOL     OW32713   0.098   0.227   8.583 -0.8243  0.3796 -0.3444
 7085SOL    HW132714   0.009   0.202   8.558 -0.6136  0.6840 -1.4316
 7085SOL    HW232715   0.118   0.292   8.515  2.0212 -0.6174 -0.4587
 7086SOL     OW32716   1.618   4.322   4.424  0.5088  0.5492 -0.3750
 7086SOL    HW132717   1.703   4.365   4.426  0.6010  0.2535  1.8355
 7086SOL    HW232718   1.614   4.288   4.334 -0.1318 -0.0487 -0.1181
 7087SOL     OW32719   2.514   2.284   6.291  0.0619  0.0933  0.0004
 7087SOL    HW132720   2.558   2.206   6.257  1.1014  0.2537  0.9996
 7087SOL    HW232721   2.582   2.349   6.305  2.0694 -1.8115 -0.9157
 7088SOL     OW32722   4.247   0.646   6.577  0.6894  0.5552  0.5124
 7088SOL    HW132723   4.211   0.558   6.593 -0.7024  1.3555  1.7766
 7088SOL    HW232724   4.168   0.700   6.571 -0.7311 -1.4705  0.8830
 7089SOL     OW32725   1.997   1.486   5.254 -0.1315  0.4946  0.2376
 7089SOL    HW132726   2.087   1.502   5.282 -0.3915 -1.1411  1.9842
 7089SOL    HW232727   1.963   1.575   5.264 -1.8026  0.0674 -1.4848
 7090SOL     OW32728   0.856   4.585   5.971 -0.1667 -0.2898  0.2961
 7090SOL    HW132729   0.827   4.498   6.000  0.3435 -1.2240 -2.0368
 7090SOL    HW232730   0.775   4.613   5.929  1.2699  2.6737 -0.4448
 7091SOL     OW32731   4.358   2.590  15.381 -0.3688  0.1558 -0.0154
 7091SOL    HW132732   4.328   2.659  15.441  3.8750  0.8924  1.2870
 7091SOL    HW232733   4.318   2.517  15.427  0.8875 -0.1192  0.6258
 7092SOL     OW32734   3.628   2.099   0.453 -0.0438  0.2865  0.1076
 7092SOL    HW132735   3.555   2.038   0.462 -0.5307  1.0898  1.5830
 7092SOL    HW232736   3.589   2.186   0.451 -0.2519  0.2569  2.8722
 7093SOL     OW32737   1.886   0.236   5.527 -0.6409 -0.5984 -0.2002
 7093SOL    HW132738   1.950   0.301   5.555 -1.3376  0.3337 -0.7645
 7093SOL    HW232739   1.924   0.208   5.444 -0.3194  1.0526 -0.6222
 7094SOL     OW32740   0.350   0.817  11.465  0.6823  0.0425 -0.0536
 7094SOL    HW132741   0.401   0.890  11.500 -0.2399 -0.3976  2.2119
 7094SOL    HW232742   0.360   0.761  11.542 -0.0038  0.2570  0.1874
 7095SOL     OW32743   3.049   3.682   7.151  0.0872  0.4086 -0.1146
 7095SOL    HW132744   3.005   3.757   7.112 -1.0758 -1.0208 -1.5657
 7095SOL    HW232745   2.997   3.605   7.129  0.2473  0.6966 -1.4741
 7096SOL     OW32746   2.593   2.086   1.528  0.1394 -0.1018  0.0052
 7096SOL    HW132747   2.673   2.134   1.549 -0.2136  0.3631  0.2492
 7096SOL    HW232748   2.636   2.004   1.502 -1.1309 -0.4635 -0.9622
 7097SOL     OW32749   3.091   2.683  10.777 -0.2201 -0.1218 -0.0165
 7097SOL    HW132750   3.159   2.684  10.709 -0.7253  1.7595 -0.5243
 7097SOL    HW232751   3.038   2.750  10.734 -0.4757  0.3864  1.0993
 7098SOL     OW32752   0.788   2.473   1.385  0.0011 -0.2133 -0.5411
 7098SOL    HW132753   0.749   2.556   1.411 -0.8131 -0.9304  0.4931
 7098SOL    HW232754   0.778   2.472   1.289  3.0399 -1.5844 -0.8552
 7099SOL     OW32755   0.366   0.868  12.612  0.1054  0.2160  0.2567
 7099SOL    HW132756   0.449   0.833  12.646 -0.3921 -1.2530 -0.0246
 7099SOL    HW232757   0.388   0.865  12.519 -0.4618  2.8979  0.0486
 7100SOL     OW32758   2.502   3.706  10.616 -0.3266  0.7885  0.3866
 7100SOL    HW132759   2.443   3.632  10.636  1.7794 -1.0288 -0.1088
 7100SOL    HW232760   2.513   3.746  10.702  0.1833 -0.6522  0.9859
 7101SOL     OW32761   4.211   0.083  17.196 -0.4527 -0.0868  0.5972
 7101SOL    HW132762   4.147   0.049  17.259 -0.4475 -0.2691  0.5042
 7101SOL    HW232763   4.153   0.127  17.135  2.1052  0.7393 -1.2047
 7102SOL     OW32764   0.310   2.505   2.604 -0.0476  1.0364 -0.4238
 7102SOL    HW132765   0.270   2.458   2.676  0.0829  1.2830 -0.1900
 7102SOL    HW232766   0.332   2.593   2.634 -0.6620  1.3124 -0.7864
 7103SOL     OW32767   2.290   3.986   5.550  0.0699 -0.3918 -0.0721
 7103SOL    HW132768   2.252   4.051   5.492 -1.8089  0.9219  2.6560
 7103SOL    HW232769   2.381   4.015   5.541  0.4301 -0.8070  2.1817
 7104SOL     OW32770   4.255   2.006  10.080  0.0784  0.0149 -0.4517
 7104SOL    HW132771   4.181   1.947  10.094 -1.3614  2.1177  0.8203
 7104SOL    HW232772   4.242   2.067  10.152  0.7957 -0.0124 -0.3060
 7105SOL     OW32773   0.868   3.665  13.689  0.2538  0.7556 -0.6015
 7105SOL    HW132774   0.948   3.711  13.662  2.6459 -3.5646 -0.8948
 7105SOL    HW232775   0.799   3.726  13.664  0.3974  1.0482 -0.2705
 7106SOL     OW32776   4.158   1.338  14.037  0.2646  0.2082  0.2525
 7106SOL    HW132777   4.071   1.373  14.053  0.6214  1.3213 -0.3173
 7106SOL    HW232778   4.213   1.409  14.070 -0.1663  1.8760 -2.6531
 7107SOL     OW32779   0.043   2.899  10.813  0.5359  0.5641 -0.4454
 7107SOL    HW132780   0.017   2.877  10.902 -0.7210  3.0966 -0.1846
 7107SOL    HW232781   4.715   2.979  10.806 -2.2281 -1.3009 -0.9523
 7108SOL     OW32782   0.185   3.756   8.382 -0.0204 -0.5052  0.3477
 7108SOL    HW132783   0.243   3.680   8.379 -0.2659 -0.7150  1.1728
 7108SOL    HW232784   0.103   3.723   8.346  1.1504  1.0812 -3.7986
 7109SOL     OW32785   1.829   2.146   6.398 -0.2946  0.3688 -0.6125
 7109SOL    HW132786   1.924   2.140   6.407 -0.4948 -1.2453  0.3070
 7109SOL    HW232787   1.821   2.188   6.312  0.4257 -2.1818 -1.9146
 7110SOL     OW32788   4.212   2.481   4.101  0.4440 -0.7683 -0.2295
 7110SOL    HW132789   4.300   2.442   4.101  0.4744 -0.6581 -3.6944
 7110SOL    HW232790   4.218   2.533   4.021 -2.7131 -0.5395 -0.3098
 7111SOL     OW32791   2.579   4.475   8.467  0.5883  0.0668 -0.7028
 7111SOL    HW132792   2.584   4.504   8.376 -3.0262 -1.1636 -1.2901
 7111SOL    HW232793   2.617   4.548   8.515  1.0864 -1.8784  1.8228
 7112SOL     OW32794   4.127   3.182  14.156  0.3947  0.3114 -0.2341
 7112SOL    HW132795   4.038   3.181  14.122  0.1184  1.0015  0.4744
 7112SOL    HW232796   4.114   3.176  14.251 -0.9204  0.5602 -0.4036
 7113SOL     OW32797   2.740   2.260  14.727 -0.0708  0.1593 -0.1195
 7113SOL    HW132798   2.726   2.190  14.791 -0.4953  0.0484 -0.3351
 7113SOL    HW232799   2.774   2.208  14.654 -2.6514 -1.0934 -0.4300
 7114SOL     OW32800   1.105   1.233   4.917 -0.5583 -0.1812  0.4730
 7114SOL    HW132801   1.109   1.183   4.835  0.3208 -0.1737  0.5141
 7114SOL    HW232802   1.156   1.180   4.978  0.0372  0.0198  0.1544
 7115SOL     OW32803   2.553   3.806   4.683  0.0001 -0.1762 -0.2391
 7115SOL    HW132804   2.619   3.737   4.687 -0.7032 -0.8954 -1.2598
 7115SOL    HW232805   2.509   3.784   4.601  1.2029  1.8652 -1.4283
 7116SOL     OW32806   0.409   0.985  17.610  0.1603 -0.4138 -0.8230
 7116SOL    HW132807   0.491   1.029  17.634  1.1620 -1.8728 -1.6153
 7116SOL    HW232808   0.440   0.894  17.609 -1.8664 -1.1130  0.6218
 7117SOL     OW32809   1.116   1.963   1.525 -0.2142 -0.3933  0.1718
 7117SOL    HW132810   1.072   1.937   1.444  3.3870  0.4627 -2.0290
 7117SOL    HW232811   1.049   2.020   1.564 -2.9098 -3.1520 -0.3883
 7118SOL     OW32812   3.002   4.231  13.900 -0.0122 -0.0339  0.2987
 7118SOL    HW132813   3.073   4.272  13.948 -0.9247  0.2604  1.3953
 7118SOL    HW232814   3.022   4.253  13.809 -2.9790 -0.9572 -0.5847
 7119SOL     OW32815   4.252   2.540   9.277 -0.3445  0.3188 -0.1833
 7119SOL    HW132816   4.317   2.504   9.336 -0.3635 -0.4815 -0.6445
 7119SOL    HW232817   4.288   2.628   9.272  1.6112 -0.6133 -2.6586
 7120SOL     OW32818   3.045   1.331   7.358  0.5127 -0.1354  0.2012
 7120SOL    HW132819   3.138   1.351   7.364  0.4176  0.4155 -0.1502
 7120SOL    HW232820   3.048   1.243   7.395  1.6606 -0.0395  0.3185
 7121SOL     OW32821   1.790   3.788   5.314 -0.8692 -0.0375 -0.4696
 7121SOL    HW132822   1.830   3.729   5.378 -0.0830  1.0970  0.0751
 7121SOL    HW232823   1.864   3.849   5.308 -0.3876 -0.6070 -0.3137
 7122SOL     OW32824   1.799   2.071  12.336 -0.2217 -0.0090  0.3789
 7122SOL    HW132825   1.802   2.039  12.246 -3.0047  2.4092 -0.5626
 7122SOL    HW232826   1.771   1.993  12.383  1.5174 -1.1853 -0.5317
 7123SOL     OW32827   4.526   0.356   9.737 -0.0850 -0.1415  0.3527
 7123SOL    HW132828   4.489   0.269   9.749 -0.2799  0.4252  3.9245
 7123SOL    HW232829   4.617   0.340   9.711 -0.4943  0.4213 -1.4383
 7124SOL     OW32830   1.524   4.173   5.655 -0.3530  0.4701 -0.1071
 7124SOL    HW132831   1.595   4.233   5.680  0.2215 -1.2893  2.5124
 7124SOL    HW232832   1.524   4.177   5.559 -0.8320  2.1868 -0.0405
 7125SOL     OW32833   2.864   3.404  14.099 -0.5405 -0.0892  0.7923
 7125SOL    HW132834   2.796   3.459  14.061  2.0711  0.7409 -2.7515
 7125SOL    HW232835   2.933   3.415  14.034 -1.4404  0.2944 -0.0964
 7126SOL     OW32836   2.955   4.547  11.791  0.0955 -0.0915  0.3155
 7126SOL    HW132837   3.021   4.478  11.780  1.3720  1.1451  0.1865
 7126SOL    HW232838   2.919   4.567  11.705 -0.2600 -3.0936 -0.2557
 7127SOL     OW32839   1.122   3.535   2.052 -0.4745  0.0502 -0.1317
 7127SOL    HW132840   1.054   3.502   1.993  0.0199  1.6960 -1.6292
 7127SOL    HW232841   1.100   3.627   2.061 -0.0185  0.0196  1.2660
 7128SOL     OW32842   1.024   1.581  17.431  0.1556 -0.4723 -0.3328
 7128SOL    HW132843   0.962   1.648  17.403  1.2207  0.7072  0.1055
 7128SOL    HW232844   0.990   1.556  17.517  0.9488 -0.3067  0.0375
 7129SOL     OW32845   1.780   3.211  16.667  0.1476  0.2306 -0.2123
 7129SOL    HW132846   1.693   3.176  16.684  0.0153  0.4094 -0.5222
 7129SOL    HW232847   1.824   3.161  16.736 -1.1845 -0.0795  0.4029
 7130SOL     OW32848   1.811   3.809   7.803  0.2610  0.5743 -0.6277
 7130SOL    HW132849   1.872   3.760   7.748 -2.3819 -4.2565  0.7553
 7130SOL    HW232850   1.727   3.787   7.763 -0.3421  1.3320  0.2121
 7131SOL     OW32851   3.165   0.561  10.476  0.7799 -0.1651  0.5884
 7131SOL    HW132852   3.253   0.585  10.449  0.8187 -1.1446 -0.1316
 7131SOL    HW232853   3.183   0.559  10.570 -3.1724  0.3388  1.3496
 7132SOL     OW32854   2.250   2.262   0.753  0.3177  0.1708  0.2312
 7132SOL    HW132855   2.212   2.194   0.810 -0.9586 -0.7862 -1.7607
 7132SOL    HW232856   2.176   2.258   0.692  0.0573  1.4441  0.4741
 7133SOL     OW32857   4.503   0.645  10.918 -1.0712 -0.2211  0.0007
 7133SOL    HW132858   4.488   0.739  10.905 -1.2529 -0.2446  0.0464
 7133SOL    HW232859   4.423   0.605  10.884 -1.3835  0.5618 -0.1971
 7134SOL     OW32860   4.354   1.487   7.628  0.0456  0.5059 -1.2963
 7134SOL    HW132861   4.436   1.534   7.643 -0.4612  0.9707  0.0344
 7134SOL    HW232862   4.324   1.481   7.719 -0.0038  2.8306 -1.1421
 7135SOL     OW32863   0.145   1.473  10.828  0.1935  0.2794 -0.0301
 7135SOL    HW132864   0.068   1.529  10.815  0.3063  0.6285  0.8397
 7135SOL    HW232865   0.104   1.389  10.848 -0.4768 -0.0083 -2.5995
 7136SOL     OW32866   2.408   1.749   9.540  0.3486 -0.0403  0.1335
 7136SOL    HW132867   2.324   1.718   9.507 -0.1939 -0.1988  1.6652
 7136SOL    HW232868   2.403   1.719   9.630  1.0486 -0.7746 -0.0725
 7137SOL     OW32869   4.218   2.897   5.204  0.3070  0.3702  0.4158
 7137SOL    HW132870   4.171   2.955   5.144  1.8589  1.3934  0.2039
 7137SOL    HW232871   4.263   2.967   5.252  1.4115 -0.8724  1.1853
 7138SOL     OW32872   1.471   2.736   7.795 -0.4077 -0.6749 -0.1661
 7138SOL    HW132873   1.468   2.826   7.763 -0.1600 -0.5241  0.2429
 7138SOL    HW232874   1.459   2.677   7.720  2.0639 -1.7158  0.2535
 7139SOL     OW32875   2.653   1.312   4.752 -0.6012  0.0729 -0.5604
 7139SOL    HW132876   2.659   1.400   4.788 -0.6686 -0.5018  0.8472
 7139SOL    HW232877   2.627   1.336   4.663  0.0772  1.3928 -0.3947
 7140SOL     OW32878   1.333   3.319   5.478  0.1748 -0.1012 -0.6281
 7140SOL    HW132879   1.408   3.359   5.522  2.1542 -3.6653 -0.7332
 7140SOL    HW232880   1.270   3.381   5.513 -0.9696 -1.0644 -0.9702
 7141SOL     OW32881   3.082   0.310  10.384 -0.1304 -0.0233 -0.2965
 7141SOL    HW132882   3.119   0.332  10.298  2.1158  1.4957  1.0351
 7141SOL    HW232883   3.099   0.391  10.432  0.7750  0.0908 -0.7967
 7142SOL     OW32884   0.919   1.185  13.926  0.0872  0.6381 -0.5526
 7142SOL    HW132885   0.888   1.095  13.919  0.6614  0.5448 -2.0120
 7142SOL    HW232886   0.855   1.227  13.984 -0.7039 -0.4377 -0.6478
 7143SOL     OW32887   3.598   1.161   4.105 -0.2610  0.5754 -0.0942
 7143SOL    HW132888   3.513   1.153   4.148 -0.5464  1.0110 -0.5735
 7143SOL    HW232889   3.572   1.220   4.034  2.0160  0.2956 -1.1732
 7144SOL     OW32890   1.251   3.424  14.451 -1.5039  0.3633 -0.1128
 7144SOL    HW132891   1.292   3.501  14.491  1.0003 -0.5827 -0.8123
 7144SOL    HW232892   1.243   3.464  14.365 -1.5253  0.6687  0.0331
 7145SOL     OW32893   0.404   3.257  16.216 -0.2995  0.3520 -0.6102
 7145SOL    HW132894   0.430   3.262  16.308 -2.3210 -0.5506 -0.0103
 7145SOL    HW232895   0.489   3.264  16.172 -0.0340 -0.7456 -0.2705
 7146SOL     OW32896   1.250   1.765   4.219 -0.0159  0.2196  0.1409
 7146SOL    HW132897   1.157   1.744   4.208 -0.2091  0.8768  0.4530
 7146SOL    HW232898   1.287   1.678   4.211 -0.2674 -0.1497  2.9887
 7147SOL     OW32899   0.243   0.389   4.493  0.0373  0.1538 -0.0993
 7147SOL    HW132900   0.167   0.334   4.512 -1.2579  1.2532 -2.0376
 7147SOL    HW232901   0.220   0.465   4.547  2.6016  0.6649  0.2731
 7148SOL     OW32902   1.642   1.214   4.374  0.5442  0.3901  0.1835
 7148SOL    HW132903   1.674   1.296   4.337 -0.9947  1.6527  1.6620
 7148SOL    HW232904   1.564   1.199   4.321  0.5942  2.5895 -0.4874
 7149SOL     OW32905   0.638   3.496   3.814 -0.4775  0.0035  0.1948
 7149SOL    HW132906   0.687   3.448   3.748 -0.6832  2.4768 -1.7924
 7149SOL    HW232907   0.644   3.433   3.886  0.3867  0.4283  0.4962
 7150SOL     OW32908   4.488   0.828   0.297 -0.0137 -0.2029 -0.0857
 7150SOL    HW132909   4.404   0.786   0.279  0.0671 -0.2357 -0.3923
 7150SOL    HW232910   4.462   0.910   0.339  1.5242 -1.4554  3.2865
 7151SOL     OW32911   3.391   4.292  11.060  0.3793  0.2445 -0.3968
 7151SOL    HW132912   3.378   4.268  10.968 -0.3445 -1.3675  0.1317
 7151SOL    HW232913   3.299   4.306  11.081  1.4596  2.3788  2.8979
 7152SOL     OW32914   0.417   2.366  14.078 -0.3971  0.0165 -0.1023
 7152SOL    HW132915   0.322   2.362  14.085 -0.3619 -1.0799 -0.2723
 7152SOL    HW232916   0.439   2.309  14.152 -1.4712  0.7311  0.7653
 7153SOL     OW32917   4.048   3.075   9.099  0.1729  0.1991  0.3242
 7153SOL    HW132918   4.054   3.169   9.111 -1.5447  0.2159  1.0942
 7153SOL    HW232919   3.954   3.059   9.087  0.3540 -0.0313 -0.7828
 7154SOL     OW32920   0.471   4.645   9.289 -0.2878 -0.1669 -0.1791
 7154SOL    HW132921   0.406   4.582   9.259  0.8899 -1.5018  0.0582
 7154SOL    HW232922   0.550   4.590   9.292  1.1406  1.8168 -1.2256
 7155SOL     OW32923   1.238   0.919   3.313  0.0308  0.3178  0.5687
 7155SOL    HW132924   1.220   1.013   3.307 -0.4276  0.1612 -0.5389
 7155SOL    HW232925   1.147   0.896   3.291 -0.1737 -0.9523  2.6959
 7156SOL     OW32926   4.138   4.412   5.366 -0.2645 -0.4753  0.1318
 7156SOL    HW132927   4.199   4.400   5.293  0.4907  0.2552  0.6534
 7156SOL    HW232928   4.156   4.500   5.398 -0.7436 -0.5416  0.5857
 7157SOL     OW32929   1.609   3.182  10.893  0.3965 -0.0601 -0.4923
 7157SOL    HW132930   1.587   3.135  10.973 -0.8327 -1.2190 -1.5056
 7157SOL    HW232931   1.637   3.270  10.919  1.8071 -0.3222 -1.1186
 7158SOL     OW32932   1.600   1.215   1.630 -0.1906  0.2619 -0.0824
 7158SOL    HW132933   1.662   1.163   1.681 -0.3793  1.1297  1.0116
 7158SOL    HW232934   1.638   1.302   1.616  1.6605 -0.6880 -0.8728
 7159SOL     OW32935   3.954   0.857  16.498  0.7822  0.5810 -0.3099
 7159SOL    HW132936   4.048   0.842  16.514  0.8117  1.3619  0.2338
 7159SOL    HW232937   3.953   0.952  16.496  1.8963  0.6288  0.7201
 7160SOL     OW32938   1.028   3.961   4.202  0.5005 -0.5550  0.0465
 7160SOL    HW132939   1.040   4.009   4.284 -1.2024 -1.9727  1.1275
 7160SOL    HW232940   1.035   4.025   4.131 -0.2523 -1.0077 -0.4440
 7161SOL     OW32941   2.369   2.108   2.228 -0.0549 -0.1402 -0.0235
 7161SOL    HW132942   2.283   2.144   2.250 -0.5712 -0.8793 -0.8228
 7161SOL    HW232943   2.351   2.018   2.256  0.6580 -0.3615 -0.2853
 7162SOL     OW32944   3.723   0.654   9.662 -0.0224  0.4562 -0.1305
 7162SOL    HW132945   3.687   0.572   9.694  1.1465 -0.3500 -0.8515
 7162SOL    HW232946   3.643   0.701   9.639  0.8981  1.2267 -1.8221
 7163SOL     OW32947   1.076   2.207  10.820  0.4044 -0.0144  0.0237
 7163SOL    HW132948   1.068   2.302  10.832  1.0100  0.1069 -0.5143
 7163SOL    HW232949   1.015   2.174  10.886  0.4681 -2.0254 -0.9325
 7164SOL     OW32950   3.112   2.364   8.864  0.8965 -0.1439  0.0752
 7164SOL    HW132951   3.110   2.269   8.878 -0.9356 -0.0566  0.4074
 7164SOL    HW232952   3.074   2.387   8.949 -0.2211  0.8236 -0.6906
 7165SOL     OW32953   2.393   3.635   7.880  0.1879  0.1341 -0.0923
 7165SOL    HW132954   2.423   3.676   7.961 -1.3655 -1.1339  1.1215
 7165SOL    HW232955   2.305   3.673   7.882  1.2316  2.6006 -0.5920
 7166SOL     OW32956   4.623   4.260   0.763  0.0865  0.2088 -0.2016
 7166SOL    HW132957   4.657   4.237   0.849 -0.7497  2.1855  0.6370
 7166SOL    HW232958   4.692   4.220   0.708 -0.2156  1.9162 -1.8211
 7167SOL     OW32959   3.369   1.114   7.554 -0.8607  0.1536 -0.0804
 7167SOL    HW132960   3.427   1.158   7.492 -0.2609  1.2133  1.2033
 7167SOL    HW232961   3.325   1.189   7.595  1.2500 -0.0387  2.5779
 7168SOL     OW32962   1.515   4.352   8.823 -0.2432 -0.5637  0.2525
 7168SOL    HW132963   1.423   4.376   8.825  0.4886  2.1175  1.9958
 7168SOL    HW232964   1.513   4.330   8.916  0.0294  0.2938  0.4598
 7169SOL     OW32965   4.449   2.459   6.522  0.2958 -0.2941 -0.1447
 7169SOL    HW132966   4.498   2.438   6.442  1.3486  0.1194  0.3856
 7169SOL    HW232967   4.433   2.370   6.554  1.1713 -0.5797 -0.5019
 7170SOL     OW32968   2.679   2.864   6.839 -0.2020 -0.3535 -0.3269
 7170SOL    HW132969   2.698   2.906   6.755  0.6617 -1.4527 -0.6786
 7170SOL    HW232970   2.673   2.777   6.799  0.3393 -1.6462  2.3715
 7171SOL     OW32971   3.877   4.615   6.280  0.4840 -0.3951  0.2970
 7171SOL    HW132972   3.919   4.549   6.335 -2.2214 -0.2946  2.4527
 7171SOL    HW232973   3.871   4.697   6.329  0.5964 -0.2510  0.0732
 7172SOL     OW32974   4.043   4.663   0.420  0.7850 -0.4584  0.1100
 7172SOL    HW132975   4.009   4.721   0.487  3.7598 -1.5022  2.5365
 7172SOL    HW232976   4.112   4.633   0.480 -0.1146 -1.0990  0.8118
 7173SOL     OW32977   4.184   0.604  13.714  0.1065 -0.1750 -0.0122
 7173SOL    HW132978   4.118   0.536  13.721  0.8286 -1.1362 -2.4735
 7173SOL    HW232979   4.263   0.550  13.718 -0.0802 -0.4501 -0.0509
 7174SOL     OW32980   4.190   3.517  10.076 -0.3298 -0.5813 -0.3138
 7174SOL    HW132981   4.118   3.572  10.106 -1.1675 -1.5994 -0.4771
 7174SOL    HW232982   4.224   3.574  10.006  0.4447 -0.0275  0.5155
 7175SOL     OW32983   3.324   0.048  13.810  0.0096 -0.5624  0.2196
 7175SOL    HW132984   3.255   0.084  13.866 -0.1877  0.4071 -0.6426
 7175SOL    HW232985   3.410   0.068  13.848  0.7628 -0.5379 -1.5118
 7176SOL     OW32986   3.831   3.059   1.427  0.2909  0.0667 -0.3650
 7176SOL    HW132987   3.895   3.055   1.356  0.4974  0.8680 -0.2285
 7176SOL    HW232988   3.880   3.050   1.509  0.1760 -0.5257 -0.3575
 7177SOL     OW32989   4.326   2.196   7.734 -0.1413 -0.6129  0.2409
 7177SOL    HW132990   4.411   2.229   7.764  1.3399 -2.5036 -1.8784
 7177SOL    HW232991   4.338   2.212   7.641 -0.3757  0.6840  0.4397
 7178SOL     OW32992   1.408   2.452   5.533 -0.0900  0.2764  0.4281
 7178SOL    HW132993   1.468   2.491   5.469 -2.1754 -0.1375 -1.7552
 7178SOL    HW232994   1.412   2.360   5.507 -0.3738  0.3787  0.0387
 7179SOL     OW32995   0.534   4.681   4.498  0.3868  0.1715 -0.1868
 7179SOL    HW132996   0.515   0.036   4.547  3.0593  2.3109 -2.6537
 7179SOL    HW232997   0.612   4.648   4.544  0.7668 -0.5378 -1.3359
 7180SOL     OW32998   2.972   2.707  10.126  0.3088 -0.0556 -0.0281
 7180SOL    HW132999   2.996   2.685  10.216  1.5907 -2.3660 -0.9335
 7180SOL    HW233000   3.055   2.737  10.090  0.0857  0.0300 -0.4774
 7181SOL     OW33001   3.357   4.443  13.331 -0.4868  1.0444  0.0476
 7181SOL    HW133002   3.406   4.516  13.369 -0.9794  1.2262  0.3318
 7181SOL    HW233003   3.428   4.385  13.305  0.5821  2.3288  0.1164
 7182SOL     OW33004   4.309   3.910   2.359 -0.2389  0.1361 -0.3516
 7182SOL    HW133005   4.227   3.951   2.384  1.2093  0.7522  3.4927
 7182SOL    HW233006   4.315   3.951   2.273  3.1549 -1.5116 -0.8999
 7183SOL     OW33007   3.678   2.334   7.424 -0.2515  0.7651  0.3057
 7183SOL    HW133008   3.709   2.418   7.456 -0.4038  1.4020 -1.2029
 7183SOL    HW233009   3.608   2.359   7.364 -0.1544 -1.5906 -0.8155
 7184SOL     OW33010   3.058   0.144  10.987 -0.1414 -0.0333 -0.4994
 7184SOL    HW133011   3.017   0.083  10.926 -0.9750  0.3742 -0.3466
 7184SOL    HW233012   3.089   0.209  10.925 -0.7315 -0.8839 -1.6877
 7185SOL     OW33013   0.689   0.330   6.303 -0.2212  0.4192 -0.2411
 7185SOL    HW133014   0.685   0.275   6.224  1.4280  1.1016 -0.8132
 7185SOL    HW233015   0.768   0.380   6.282  0.1963 -0.3210 -0.4376
 7186SOL     OW33016   1.515   2.610  12.559 -0.5115 -0.6345 -0.2947
 7186SOL    HW133017   1.539   2.700  12.580 -3.3368  0.2205 -0.7039
 7186SOL    HW233018   1.460   2.636  12.485  0.8803  0.7760 -0.8467
 7187SOL     OW33019   2.232   0.072  16.779  0.0101  0.7450  0.3709
 7187SOL    HW133020   2.289   0.101  16.850  0.3710  0.8164  0.0498
 7187SOL    HW233021   2.146   0.094  16.815  0.4697  1.8343  0.7770
 7188SOL     OW33022   1.240   3.204   8.555 -0.2656  0.3146  0.1772
 7188SOL    HW133023   1.286   3.133   8.600  1.6163  1.5955  0.2751
 7188SOL    HW233024   1.151   3.190   8.587  0.5800  1.8035  3.1895
 7189SOL     OW33025   3.123   3.134   6.362 -0.3930 -0.5191 -0.4909
 7189SOL    HW133026   3.146   3.126   6.269 -0.8119 -1.4607 -0.5225
 7189SOL    HW233027   3.205   3.155   6.405  1.3237 -4.9174 -1.6563
 7190SOL     OW33028   0.754   4.477   4.900 -0.3716 -0.0281 -0.1511
 7190SOL    HW133029   0.835   4.501   4.857 -0.5394 -0.3000 -0.6130
 7190SOL    HW233030   0.780   4.462   4.991 -0.0148  1.4417 -0.0113
 7191SOL     OW33031   1.338   3.217   5.883  0.1689  0.4060  0.0262
 7191SOL    HW133032   1.368   3.261   5.803  0.2015  1.0333  0.3786
 7191SOL    HW233033   1.290   3.287   5.926  0.6469  0.3000  0.7223
 7192SOL     OW33034   2.533   1.865   3.606  0.2292  0.4775 -0.1011
 7192SOL    HW133035   2.606   1.905   3.653 -0.2094 -0.2898  1.2319
 7192SOL    HW233036   2.506   1.795   3.666 -1.3745 -0.2111 -1.6253
 7193SOL     OW33037   1.718   1.214   5.625 -0.0146  0.1430  0.4162
 7193SOL    HW133038   1.797   1.246   5.581  0.3442  0.4874  1.3083
 7193SOL    HW233039   1.760   1.186   5.706 -0.9276 -1.8341  0.2114
 7194SOL     OW33040   2.100   3.656   3.972 -0.5427  0.2771  0.4861
 7194SOL    HW133041   2.133   3.735   3.930 -1.7819  0.2528 -0.5255
 7194SOL    HW233042   2.106   3.691   4.061  1.0385 -2.3106  1.4178
 7195SOL     OW33043   3.139   0.787   5.909 -0.2491  0.4325 -0.4695
 7195SOL    HW133044   3.222   0.835   5.918 -0.2709  0.3887 -0.0390
 7195SOL    HW233045   3.102   0.813   5.993 -0.6529 -0.3811 -0.3939
 7196SOL     OW33046   4.127   1.500  16.913 -0.7720  0.0628 -0.6148
 7196SOL    HW133047   4.139   1.574  16.971  0.1721 -0.6490  0.0940
 7196SOL    HW233048   4.207   1.504  16.861  1.0972  1.1897  2.3464
 7197SOL     OW33049   0.767   3.445  14.722 -0.5037 -0.6440  0.3250
 7197SOL    HW133050   0.756   3.494  14.803  0.7056  0.7184 -0.3472
 7197SOL    HW233051   0.752   3.515  14.659  0.8891 -1.7917 -1.2579
 7198SOL     OW33052   0.458   0.301   3.048  0.2895  0.4624 -0.2054
 7198SOL    HW133053   0.375   0.284   3.093  0.2064  1.0138 -0.1587
 7198SOL    HW233054   0.432   0.365   2.982  2.3549  0.2533 -1.1892
 7199SOL     OW33055   3.425   3.338   3.206  0.3937  0.2103 -0.1483
 7199SOL    HW133056   3.500   3.391   3.181 -0.2659  0.0645 -2.4883
 7199SOL    HW233057   3.378   3.345   3.122  0.1679 -3.3081 -0.2930
 7200SOL     OW33058   2.241   1.212   4.467 -0.1811  0.5570 -0.4729
 7200SOL    HW133059   2.328   1.243   4.441 -0.6310  1.3964 -0.9806
 7200SOL    HW233060   2.233   1.131   4.416 -0.6294  1.3709 -1.6978
 7201SOL     OW33061   0.287   0.099   7.836  0.0773  0.2875  0.5630
 7201SOL    HW133062   0.275   0.005   7.850  1.5574 -0.0613 -0.4151
 7201SOL    HW233063   0.380   0.104   7.858  0.2933 -0.7023 -0.1357
 7202SOL     OW33064   0.037   3.211  15.896 -0.0408  0.8442 -0.0228
 7202SOL    HW133065   0.020   3.119  15.918 -0.8892  0.9939 -0.0554
 7202SOL    HW233066   0.125   3.206  15.859 -0.1538  1.0229 -0.3111
 7203SOL     OW33067   3.063   1.523   0.609 -0.0389 -0.2585  0.6993
 7203SOL    HW133068   3.093   1.581   0.679  0.9733  1.2725 -0.9836
 7203SOL    HW233069   2.971   1.544   0.620 -0.4407 -1.4589 -0.3028
 7204SOL     OW33070   1.635   1.389  15.058  0.5804 -0.5009 -0.4852
 7204SOL    HW133071   1.631   1.294  15.072 -2.4676 -0.3173 -0.1793
 7204SOL    HW233072   1.707   1.400  15.121  1.6486 -2.8273 -1.2794
 7205SOL     OW33073   3.931   3.678   9.812  0.3364 -0.1251  0.0892
 7205SOL    HW133074   3.887   3.736   9.874  0.3163  0.2527 -0.2766
 7205SOL    HW233075   4.023   3.702   9.823  0.4291 -0.8340  0.8885
 7206SOL     OW33076   2.770   4.111  13.851  0.3553 -0.0957  0.0283
 7206SOL    HW133077   2.735   4.129  13.938  0.5813  0.3048  0.0340
 7206SOL    HW233078   2.851   4.160  13.864 -0.1804  0.3894  1.5496
 7207SOL     OW33079   1.564   3.013   0.191  0.1235 -0.1914 -0.5221
 7207SOL    HW133080   1.552   3.106   0.206 -1.1037 -0.3182 -0.7374
 7207SOL    HW233081   1.513   2.970   0.260 -1.1033 -0.2581 -1.4841
 7208SOL     OW33082   1.213   4.101  15.074  0.5787 -0.2680  0.2042
 7208SOL    HW133083   1.290   4.051  15.046 -0.3602 -1.8438  0.4230
 7208SOL    HW233084   1.249   4.179  15.117  0.1300  0.0473 -0.0013
 7209SOL     OW33085   3.967   0.201   0.876  0.9924 -0.0661 -0.1786
 7209SOL    HW133086   3.959   0.288   0.836 -0.9826 -0.6228 -0.9843
 7209SOL    HW233087   4.061   0.202   0.891  0.8193 -0.2595  0.8744
 7210SOL     OW33088   3.110   0.835   8.553 -0.3668  0.1936  0.2186
 7210SOL    HW133089   3.127   0.929   8.553  2.6096 -0.3501 -0.1120
 7210SOL    HW233090   3.133   0.802   8.640 -1.4976  0.7786  0.7470
 7211SOL     OW33091   0.511   0.728  17.593 -0.7168 -0.3929  0.6182
 7211SOL    HW133092   0.560   0.653  17.628  2.1798  0.4254 -1.6910
 7211SOL    HW233093   0.567   0.745  17.517 -0.8000  0.0666  0.6560
 7212SOL     OW33094   4.133   4.014   9.289 -0.4029 -0.1192 -0.0439
 7212SOL    HW133095   4.229   4.009   9.290 -0.3787  0.3037 -0.1390
 7212SOL    HW233096   4.120   4.099   9.330  0.4000  1.0494 -2.2208
 7213SOL     OW33097   0.552   2.367   8.846 -0.7197  0.3678 -0.1550
 7213SOL    HW133098   0.587   2.419   8.773  0.6350 -0.4191 -0.0691
 7213SOL    HW233099   0.461   2.393   8.855 -1.1806 -0.8547 -1.3283
 7214SOL     OW33100   1.444   2.727   6.512 -0.3234 -0.2735  0.1915
 7214SOL    HW133101   1.519   2.774   6.477 -0.6862  1.4100  1.6895
 7214SOL    HW233102   1.479   2.639   6.498  1.8756  0.7909 -1.0064
 7215SOL     OW33103   0.686   2.784  11.432  0.4681  0.6160 -0.1917
 7215SOL    HW133104   0.608   2.738  11.464 -0.4640  1.0935 -1.8040
 7215SOL    HW233105   0.735   2.804  11.512 -1.3209 -1.4966  1.4442
 7216SOL     OW33106   3.611   2.427  16.209 -0.0077  0.2909 -0.1580
 7216SOL    HW133107   3.532   2.388  16.247  1.2751 -2.7652 -0.6482
 7216SOL    HW233108   3.567   2.470  16.135  1.9965  2.7025  0.0270
 7217SOL     OW33109   3.624   2.392   5.635 -0.6376 -0.0407 -0.0629
 7217SOL    HW133110   3.614   2.297   5.628 -0.5331 -0.0536 -0.0399
 7217SOL    HW233111   3.718   2.406   5.625 -0.8450  2.1376  1.1064
 7218SOL     OW33112   2.975   1.848   8.133  0.1891  0.1425 -0.3042
 7218SOL    HW133113   2.981   1.899   8.214  1.0527 -1.2397  0.5034
 7218SOL    HW233114   2.904   1.898   8.093 -0.0564 -0.2167 -0.3284
 7219SOL     OW33115   3.057   4.540   7.121  0.4863 -0.3327 -0.1049
 7219SOL    HW133116   3.132   4.547   7.063  0.8855  0.0519  0.4567
 7219SOL    HW233117   3.014   4.468   7.075 -2.2383  0.9018  0.4846
 7220SOL     OW33118   0.054   2.344   6.063 -0.2346 -0.3391 -0.5963
 7220SOL    HW133119   0.076   2.252   6.054 -2.8843 -1.0594  0.1217
 7220SOL    HW233120   0.089   2.386   5.984 -1.5043 -0.9558 -1.4861
 7221SOL     OW33121   0.962   0.782  13.477 -0.3909  0.2279  0.4356
 7221SOL    HW133122   0.899   0.775  13.405 -0.6501  1.2970  0.5648
 7221SOL    HW233123   0.934   0.707  13.530 -1.4253  1.7549  2.0728
 7222SOL     OW33124   4.009   2.515   3.644 -0.5575  0.9630 -0.5882
 7222SOL    HW133125   4.094   2.491   3.607 -0.3461  0.3362  0.3095
 7222SOL    HW233126   4.037   2.566   3.720  1.3347 -1.4927  0.3529
 7223SOL     OW33127   4.259   4.629   8.023 -0.3547  0.3943  0.2090
 7223SOL    HW133128   4.270   4.552   8.080  1.0227 -0.6745 -1.4986
 7223SOL    HW233129   4.350   4.648   7.998 -0.1344 -1.1654 -0.1688
 7224SOL     OW33130   3.899   4.172   4.945  0.1486 -0.5829 -0.1797
 7224SOL    HW133131   3.924   4.246   5.000 -0.1189 -1.5093  1.1975
 7224SOL    HW233132   3.856   4.227   4.880  0.8216 -0.1045 -0.2103
 7225SOL     OW33133   1.960   2.907   3.423 -0.1351  0.1392 -0.0488
 7225SOL    HW133134   1.916   2.831   3.385  0.4473  0.5000 -1.4562
 7225SOL    HW233135   1.883   2.963   3.435 -0.1873 -0.1180  0.8287
 7226SOL     OW33136   2.430   1.555   4.389 -0.2843  0.1178 -0.1116
 7226SOL    HW133137   2.418   1.578   4.482  2.4704 -0.2171  0.3262
 7226SOL    HW233138   2.521   1.582   4.375 -0.4059 -0.5377 -2.1242
 7227SOL     OW33139   1.436   2.898   4.035 -0.2593  0.2791  0.0488
 7227SOL    HW133140   1.482   2.981   4.054 -1.4551  0.4183  2.3838
 7227SOL    HW233141   1.412   2.902   3.943 -3.2517  1.3223  0.8852
 7228SOL     OW33142   1.323   4.013  16.955  0.0723  0.4596  0.1297
 7228SOL    HW133143   1.357   3.942  16.901  0.0301 -0.3601  1.1973
 7228SOL    HW233144   1.247   4.043  16.905  0.4276  0.2787 -0.5244
 7229SOL     OW33145   1.913   4.018  11.339  0.6098 -0.2239  0.7084
 7229SOL    HW133146   1.951   3.966  11.268 -0.9971 -1.8926  1.0663
 7229SOL    HW233147   1.899   3.955  11.410  2.0967 -2.2390 -0.7874
 7230SOL     OW33148   1.804   2.470  11.235  0.2646 -0.1965  0.0752
 7230SOL    HW133149   1.808   2.553  11.189  0.5807 -0.5714 -0.5836
 7230SOL    HW233150   1.711   2.457  11.217 -0.2095  2.4559  0.7132
 7231SOL     OW33151   4.184   2.881   3.173 -0.0307 -0.1726 -0.0829
 7231SOL    HW133152   4.160   2.905   3.263  0.3930 -1.0888  0.2682
 7231SOL    HW233153   4.125   2.807   3.159 -0.5739  0.3182 -0.3871
 7232SOL     OW33154   1.571   2.816   8.621  0.5029  0.0994  0.0123
 7232SOL    HW133155   1.651   2.852   8.583  0.7250  1.0585  1.3578
 7232SOL    HW233156   1.573   2.731   8.579 -2.0887 -1.0752  2.2319
 7233SOL     OW33157   3.872   2.430  13.340  0.0851  0.0314  0.2739
 7233SOL    HW133158   3.937   2.489  13.301 -0.5426  0.1182 -0.6437
 7233SOL    HW233159   3.910   2.414  13.426  0.3331  2.3021  0.5830
 7234SOL     OW33160   3.387   0.704   0.220 -0.4961  0.0534 -0.0153
 7234SOL    HW133161   3.448   0.630   0.222  0.0548  0.5132  0.3294
 7234SOL    HW233162   3.442   0.764   0.170 -0.3203 -1.4984 -1.6961
 7235SOL     OW33163   2.510   0.201   7.988  0.1161 -0.4669  0.3857
 7235SOL    HW133164   2.444   0.212   8.056  0.3143  0.2911  0.4549
 7235SOL    HW233165   2.547   0.120   8.022 -0.3405 -1.6480 -1.9067
 7236SOL     OW33166   4.349   3.516  10.299 -0.4583  0.2342 -0.6052
 7236SOL    HW133167   4.417   3.449  10.293 -1.3523 -0.7568  0.2874
 7236SOL    HW233168   4.322   3.520  10.207  1.0083 -0.4877 -1.0712
 7237SOL     OW33169   2.717   3.361   1.016 -0.0421 -0.1592  0.0288
 7237SOL    HW133170   2.726   3.454   0.997  1.4491 -0.5143 -0.9834
 7237SOL    HW233171   2.646   3.347   1.079 -1.7543 -0.6976 -2.0160
 7238SOL     OW33172   2.208   2.129   1.993 -0.2915  0.1128  0.3798
 7238SOL    HW133173   2.277   2.169   2.045  1.4096 -2.2574 -0.0436
 7238SOL    HW233174   2.143   2.199   1.987 -0.9975 -0.5255  0.4867
 7239SOL     OW33175   1.864   0.673   4.795 -0.4399  0.4923  0.2413
 7239SOL    HW133176   1.895   0.736   4.859  1.5354 -1.3822  1.1293
 7239SOL    HW233177   1.928   0.603   4.807  0.4523  1.2617 -0.0132
 7240SOL     OW33178   3.653   2.027   4.044  0.2530  0.6816 -0.0971
 7240SOL    HW133179   3.632   1.955   4.103 -0.3153 -0.3956 -1.6023
 7240SOL    HW233180   3.590   2.006   3.975  0.4864  1.7993 -0.6548
 7241SOL     OW33181   2.367   0.280   8.479 -0.4599  0.2863  0.1257
 7241SOL    HW133182   2.456   0.256   8.502  0.5380  0.9790 -2.9177
 7241SOL    HW233183   2.310   0.250   8.550 -0.7534  0.3824 -0.0676
 7242SOL     OW33184   3.877   4.547   9.433  0.1357  0.1763 -0.0594
 7242SOL    HW133185   3.864   4.594   9.350 -0.5672 -0.0111 -0.0575
 7242SOL    HW233186   3.784   4.539   9.455  0.1890  1.1503  0.5541
 7243SOL     OW33187   1.720   2.603   8.861 -0.0042 -0.3175  0.5727
 7243SOL    HW133188   1.694   2.512   8.874  0.4866 -0.3327  1.4514
 7243SOL    HW233189   1.704   2.642   8.947  2.2462  0.8053  0.4726
 7244SOL     OW33190   2.222   2.128  17.245 -0.2419 -0.0043 -0.5854
 7244SOL    HW133191   2.220   2.203  17.304 -0.7140  0.5557 -1.3159
 7244SOL    HW233192   2.174   2.061  17.295  0.4596 -1.5945 -2.0370
 7245SOL     OW33193   4.140   0.440  11.878  0.2864 -1.0989  0.1709
 7245SOL    HW133194   4.194   0.503  11.926 -0.3704 -2.1782  2.3422
 7245SOL    HW233195   4.140   0.465  11.786 -1.7438 -0.8784  0.2376
 7246SOL     OW33196   2.207   2.329  12.952 -0.3265 -0.5533 -0.2932
 7246SOL    HW133197   2.157   2.295  13.026 -1.6361 -0.0020 -0.9251
 7246SOL    HW233198   2.185   2.421  12.968  0.3537 -0.4342 -0.0455
 7247SOL     OW33199   0.818   1.379  10.188 -0.5456 -0.8876  0.3134
 7247SOL    HW133200   0.800   1.468  10.219  1.9741 -0.1198 -0.4264
 7247SOL    HW233201   0.759   1.330  10.245 -1.0929 -0.4212  0.1521
 7248SOL     OW33202   4.222   0.300   2.589 -0.5364  0.2290 -0.4161
 7248SOL    HW133203   4.194   0.374   2.536  0.5769  0.9726  0.0389
 7248SOL    HW233204   4.245   0.239   2.519 -1.6632  1.5514 -1.9132
 7249SOL     OW33205   4.498   3.144   4.676 -0.4993  0.2509 -0.3545
 7249SOL    HW133206   4.553   3.211   4.717  1.0294 -1.8452  0.9674
 7249SOL    HW233207   4.505   3.172   4.584  1.1799 -0.8040 -0.5596
 7250SOL     OW33208   2.226   0.689  12.223  1.0810 -0.3834 -0.1169
 7250SOL    HW133209   2.176   0.718  12.147  0.9942 -0.9242 -0.2653
 7250SOL    HW233210   2.258   0.771  12.260 -1.9514  0.4190  0.6480
 7251SOL     OW33211   3.133   1.560   3.833  0.5034  0.1241  0.5319
 7251SOL    HW133212   3.222   1.527   3.817  0.4246 -0.5024  1.3998
 7251SOL    HW233213   3.090   1.560   3.747  2.1820  1.2351 -0.3183
 7252SOL     OW33214   0.800   3.909  16.034 -0.4635  0.4295  0.4006
 7252SOL    HW133215   0.755   3.850  15.973 -1.1496  0.5317  0.8176
 7252SOL    HW233216   0.865   3.842  16.055  0.6074  1.0803 -0.8627
 7253SOL     OW33217   1.216   1.900   5.943 -0.3638 -0.3101 -0.3571
 7253SOL    HW133218   1.191   1.977   5.993 -1.0524 -0.4397 -0.5009
 7253SOL    HW233219   1.129   1.880   5.907 -0.9811 -1.4459  1.7804
 7254SOL     OW33220   1.846   1.622   4.770  0.0872  0.9022  0.0117
 7254SOL    HW133221   1.867   1.654   4.682  1.3431  0.8183  0.2884
 7254SOL    HW233222   1.784   1.555   4.740  0.8604  0.6277 -0.9501
 7255SOL     OW33223   1.989   4.260   6.536  0.6828  0.4229  0.4568
 7255SOL    HW133224   1.896   4.266   6.514  0.5604 -0.3217  0.7649
 7255SOL    HW233225   2.011   4.206   6.461 -0.8216  0.5461 -0.0706
 7256SOL     OW33226   3.266   1.210   6.268 -0.3404 -0.0334 -0.0656
 7256SOL    HW133227   3.186   1.252   6.238 -0.0982 -0.8461 -1.8901
 7256SOL    HW233228   3.275   1.230   6.361  0.6329  0.9768 -0.3850
 7257SOL     OW33229   0.867   3.667  14.466  0.1987 -0.0189 -0.5838
 7257SOL    HW133230   0.929   3.686  14.396 -0.8004  0.0995 -1.4391
 7257SOL    HW233231   0.802   3.617  14.416 -0.2954  0.7849 -0.7443
 7258SOL     OW33232   3.698   0.268   8.261 -0.2008 -0.1439 -0.3445
 7258SOL    HW133233   3.665   0.196   8.315  0.7032 -0.6630 -0.4814
 7258SOL    HW233234   3.784   0.233   8.239 -0.1871 -1.1675  1.3395
 7259SOL     OW33235   2.583   0.245   6.641  0.2831 -0.6859 -0.0702
 7259SOL    HW133236   2.638   0.301   6.585  0.1587 -2.8183 -2.3328
 7259SOL    HW233237   2.543   0.311   6.696  0.9897  0.4808 -0.9398
 7260SOL     OW33238   0.705   0.614  11.043  0.3226  0.7183 -0.7983
 7260SOL    HW133239   0.634   0.598  10.981  0.7329 -2.6557 -0.3764
 7260SOL    HW233240   0.787   0.598  10.997 -0.2476  1.2204 -1.9851
 7261SOL     OW33241   4.006   2.256  11.230 -0.1128 -0.1867 -0.2716
 7261SOL    HW133242   3.967   2.278  11.145  0.7021 -1.1100 -0.8746
 7261SOL    HW233243   4.047   2.176  11.199 -0.5195  0.4691 -2.4496
 7262SOL     OW33244   4.000   3.697   7.125  0.6333  0.2270  0.7650
 7262SOL    HW133245   3.930   3.694   7.190  2.1049 -1.6488  2.2864
 7262SOL    HW233246   4.027   3.788   7.132  0.2906  0.4276 -0.6216
 7263SOL     OW33247   3.693   1.540  14.203  0.1754  0.3179 -0.0787
 7263SOL    HW133248   3.622   1.552  14.140 -1.0151 -3.0456  0.6143
 7263SOL    HW233249   3.639   1.503  14.273 -2.4311  0.2454 -2.1152
 7264SOL     OW33250   1.875   0.888   5.729 -0.2180  0.1945 -0.2184
 7264SOL    HW133251   1.831   0.840   5.799  0.5957 -1.7106 -1.0085
 7264SOL    HW233252   1.868   0.969   5.779 -0.0865  0.0699 -0.0008
 7265SOL     OW33253   4.266   1.123   0.936 -0.4607  0.5567  0.5809
 7265SOL    HW133254   4.217   1.102   1.015  1.0647 -2.3090  0.7869
 7265SOL    HW233255   4.351   1.157   0.963 -0.2495 -1.1647  2.1481
 7266SOL     OW33256   4.358   4.079   7.460  0.0543  0.1064  0.4586
 7266SOL    HW133257   4.280   4.024   7.457  0.1188  0.0310  0.1541
 7266SOL    HW233258   4.330   4.165   7.428 -2.2855 -0.2725  1.5240
 7267SOL     OW33259   4.635   4.146   9.060 -0.1355  0.3452  0.4308
 7267SOL    HW133260   4.620   4.081   9.128 -2.0655  0.8047  0.4308
 7267SOL    HW233261   4.703   4.104   9.007  0.0569  0.3902  0.6400
 7268SOL     OW33262   0.177   1.576   3.953 -0.4521  0.0419 -0.0659
 7268SOL    HW133263   0.174   1.533   3.868  1.6659  0.6459 -0.4325
 7268SOL    HW233264   0.271   1.589   3.958 -0.6257  1.7618 -1.3976
 7269SOL     OW33265   3.894   4.000  14.490 -0.0553  0.6277 -0.2450
 7269SOL    HW133266   3.876   4.009  14.584 -1.4619  0.2050 -0.4743
 7269SOL    HW233267   3.859   3.913  14.473 -1.0013  0.3225  3.1856
 7270SOL     OW33268   3.885   2.395   5.477  0.5476 -0.0419 -0.1221
 7270SOL    HW133269   3.946   2.326   5.501  2.4291  1.7088  0.0872
 7270SOL    HW233270   3.932   2.473   5.506  0.6605 -0.0096 -0.3924
 7271SOL     OW33271   3.100   1.893   5.639 -0.4862 -0.5387  0.1815
 7271SOL    HW133272   3.031   1.839   5.601 -2.0720  0.7881  1.1824
 7271SOL    HW233273   3.054   1.976   5.651 -0.5982 -0.6466  0.5058
 7272SOL     OW33274   0.466   1.361  17.165 -0.1200  0.3048 -0.2331
 7272SOL    HW133275   0.437   1.275  17.134 -0.7358  1.0054 -1.6161
 7272SOL    HW233276   0.559   1.344  17.176  0.6479  3.2680 -2.2476
 7273SOL     OW33277   2.205   2.307   7.142 -0.2666  0.1369 -0.3016
 7273SOL    HW133278   2.271   2.339   7.080  1.5593 -0.7334  1.1715
 7273SOL    HW233279   2.155   2.387   7.156 -1.9366 -0.6502 -1.7528
 7274SOL     OW33280   4.314   0.058   7.217  0.1768 -0.2733 -1.1553
 7274SOL    HW133281   4.311   4.686   7.215  1.2960 -0.2987 -1.4914
 7274SOL    HW233282   4.322   0.082   7.125  1.0854 -1.0901 -1.2953
 7275SOL     OW33283   0.038   2.321   3.088 -0.0384 -0.0873 -0.0736
 7275SOL    HW133284   0.082   2.238   3.065 -0.0531 -0.3540  0.8627
 7275SOL    HW233285   4.669   2.302   3.097 -0.1540  1.5106  2.1690
 7276SOL     OW33286   2.726   4.626   2.040 -0.0059 -0.8729  0.1205
 7276SOL    HW133287   2.746   4.712   2.002  0.1116 -0.2631  1.5422
 7276SOL    HW233288   2.669   4.648   2.114 -0.5645  3.1472 -1.5027
 7277SOL     OW33289   2.494   3.987  11.592 -0.5803  0.2381  0.1672
 7277SOL    HW133290   2.536   3.949  11.515  2.3421  1.1749  1.2680
 7277SOL    HW233291   2.556   3.990  11.665 -0.2686 -0.0003 -0.0894
 7278SOL     OW33292   2.719   4.277   8.731 -0.1616  0.0543  0.8340
 7278SOL    HW133293   2.707   4.314   8.818  0.6253 -0.4950  1.1728
 7278SOL    HW233294   2.747   4.189   8.755 -2.2696 -0.4387  1.4551
 7279SOL     OW33295   3.360   1.122  14.745  0.1095 -0.0705 -0.1720
 7279SOL    HW133296   3.297   1.166  14.686 -0.4732 -1.6347 -0.7116
 7279SOL    HW233297   3.352   1.177  14.823  0.5908  1.7122 -1.3671
 7280SOL     OW33298   3.373   3.037   6.835 -0.0308  0.7490  0.1395
 7280SOL    HW133299   3.329   2.986   6.767 -1.9953  3.0280 -0.3007
 7280SOL    HW233300   3.381   3.120   6.789  0.6173 -0.2374 -1.5468
 7281SOL     OW33301   0.842   2.347   3.550 -0.0242 -0.4163 -0.1495
 7281SOL    HW133302   0.871   2.366   3.461 -0.2290 -0.5878 -0.2540
 7281SOL    HW233303   0.913   2.292   3.580  0.2360 -0.6799 -1.2589
 7282SOL     OW33304   4.093   0.660   0.626 -0.3550 -0.3251 -0.3052
 7282SOL    HW133305   4.144   0.698   0.698  1.3192 -4.3677  0.6465
 7282SOL    HW233306   4.035   0.735   0.611 -0.6738 -0.4515  0.2794
 7283SOL     OW33307   4.698   0.282   4.497  0.6389  0.2070 -0.5528
 7283SOL    HW133308   4.691   0.187   4.503 -2.8169  0.5144  0.3342
 7283SOL    HW233309   4.623   0.301   4.554  0.7553 -1.1213  0.0337
 7284SOL     OW33310   3.024   3.693  13.969 -0.7248  0.2767  0.6954
 7284SOL    HW133311   3.091   3.625  13.973  0.5103  1.2955 -2.4307
 7284SOL    HW233312   3.073   3.767  14.005  1.0873  0.0969 -1.3714
 7285SOL     OW33313   4.121   2.961   7.009 -0.1099 -0.5005  0.6049
 7285SOL    HW133314   4.156   3.049   7.019  1.8062 -1.0011 -1.7049
 7285SOL    HW233315   4.091   2.951   7.099 -1.3302  0.1601  0.2776
 7286SOL     OW33316   1.750   3.327  13.156 -0.5015  0.4088 -0.0619
 7286SOL    HW133317   1.687   3.276  13.105 -0.6297  2.0720 -1.5456
 7286SOL    HW233318   1.698   3.398  13.191 -1.5230 -1.1305  1.5537
 7287SOL     OW33319   3.958   0.600   5.980  0.0463  0.5491  0.2362
 7287SOL    HW133320   3.869   0.570   6.000  0.2445 -0.2843 -0.1597
 7287SOL    HW233321   3.956   0.631   5.889  2.5857 -0.1638 -0.0635
 7288SOL     OW33322   3.767   0.477   5.048 -0.7548  0.3959  0.5571
 7288SOL    HW133323   3.832   0.498   4.980 -0.0586 -1.2674  0.7198
 7288SOL    HW233324   3.786   0.533   5.123 -1.7520 -1.8656  2.4840
 7289SOL     OW33325   0.657   1.024   6.008 -0.1156  0.5715  0.1179
 7289SOL    HW133326   0.596   0.955   5.981 -1.7555  2.2972 -0.6205
 7289SOL    HW233327   0.648   1.085   5.934  1.0550  0.1333 -0.3884
 7290SOL     OW33328   3.054   3.514   8.242 -0.1690  0.0220 -0.2920
 7290SOL    HW133329   3.073   3.581   8.308 -0.5606  1.3518 -1.5457
 7290SOL    HW233330   3.046   3.439   8.302 -4.2512  0.5417 -0.1619
 7291SOL     OW33331   2.835   0.385   8.150  0.2108  0.5425 -0.3707
 7291SOL    HW133332   2.900   0.399   8.219 -1.4169  1.1730  1.0220
 7291SOL    HW233333   2.885   0.390   8.069  0.1594 -2.4441 -0.5835
 7292SOL     OW33334   4.651   1.030   8.098 -0.5455 -0.4235 -0.7281
 7292SOL    HW133335   4.696   1.011   8.015  1.1299  2.3629 -0.4281
 7292SOL    HW233336   4.701   0.975   8.158 -1.9838  0.6725  1.4737
 7293SOL     OW33337   1.848   2.392   7.860  0.0335  0.1721 -0.2990
 7293SOL    HW133338   1.800   2.440   7.927  2.4949 -0.6428  2.0315
 7293SOL    HW233339   1.776   2.360   7.805 -1.9096  0.8629  1.8192
 7294SOL     OW33340   0.769   1.005   4.899  0.5461  0.2995 -0.2851
 7294SOL    HW133341   0.722   1.084   4.926  1.2250 -0.0229  1.7721
 7294SOL    HW233342   0.841   1.037   4.846  1.2097 -1.9148 -0.7131
 7295SOL     OW33343   3.251   3.082   3.769  0.7695 -0.0565  0.5053
 7295SOL    HW133344   3.158   3.063   3.783  0.4241  1.2099 -0.0338
 7295SOL    HW233345   3.265   3.034   3.687  2.7689 -0.4527  1.0802
 7296SOL     OW33346   1.892   0.633   2.677  0.0100 -0.7056 -0.3658
 7296SOL    HW133347   1.872   0.720   2.641  0.4342  0.1014  1.3762
 7296SOL    HW233348   1.808   0.600   2.711 -0.3046 -0.0361 -0.4822
 7297SOL     OW33349   2.540   2.456   8.387 -0.2017 -0.7207  0.3400
 7297SOL    HW133350   2.468   2.416   8.435 -0.7960 -1.9129 -1.5653
 7297SOL    HW233351   2.500   2.522   8.331 -0.4143  0.3050  1.6974
 7298SOL     OW33352   3.240   1.441   5.473 -0.0306 -0.3580 -0.2576
 7298SOL    HW133353   3.195   1.418   5.554 -0.0452  0.0415 -0.1505
 7298SOL    HW233354   3.274   1.529   5.489 -1.4328  0.3704 -1.1948
 7299SOL     OW33355   2.397   2.110   7.218 -0.5948  0.2196 -0.4633
 7299SOL    HW133356   2.315   2.159   7.206 -0.9358  1.1154  5.2393
 7299SOL    HW233357   2.427   2.104   7.128 -1.0280 -1.2081 -0.5116
 7300SOL     OW33358   4.113   0.476   9.555  0.0087 -0.0562  0.4988
 7300SOL    HW133359   4.126   0.384   9.531 -0.4410 -0.4459  1.7244
 7300SOL    HW233360   4.187   0.492   9.613  0.7925  1.2019 -0.8760
 7301SOL     OW33361   0.928   3.152   6.506  0.0060  0.3273 -0.4580
 7301SOL    HW133362   0.922   3.084   6.439 -0.2011 -0.5636  0.4716
 7301SOL    HW233363   0.979   3.109   6.575 -2.1293 -0.5388  0.5507
 7302SOL     OW33364   2.044   1.635  15.512  0.4121 -0.1132 -0.4000
 7302SOL    HW133365   2.121   1.645  15.568  1.4872 -0.7495 -1.7827
 7302SOL    HW233366   1.985   1.699  15.552 -0.0122  0.1715 -1.5006
 7303SOL     OW33367   4.194   1.161  14.745  0.3044 -0.1965  0.3528
 7303SOL    HW133368   4.152   1.106  14.679  0.7031  1.4541 -1.2616
 7303SOL    HW233369   4.137   1.237  14.750  0.1804 -0.3281  1.0270
 7304SOL     OW33370   2.302   0.251  10.046 -0.1087  0.1652 -0.2178
 7304SOL    HW133371   2.268   0.323   9.993 -0.3977  0.7114  0.7238
 7304SOL    HW233372   2.380   0.287  10.088  0.1284 -0.1134 -0.4161
 7305SOL     OW33373   3.910   1.673  15.338 -0.4800 -0.2990  0.0619
 7305SOL    HW133374   3.879   1.637  15.422  2.0239  0.2603  1.2142
 7305SOL    HW233375   3.999   1.686  15.369 -0.6734 -1.5283  1.1877
 7306SOL     OW33376   0.505   0.321   7.410  0.5045  0.1146 -0.4407
 7306SOL    HW133377   0.523   0.332   7.503  1.0950  2.4498 -0.8290
 7306SOL    HW233378   0.596   0.298   7.392 -0.2041 -0.8650 -2.7661
 7307SOL     OW33379   4.192   4.093  11.418  0.3389 -0.0033  0.4802
 7307SOL    HW133380   4.174   4.183  11.390 -1.3423 -0.0612  1.4001
 7307SOL    HW233381   4.225   4.113  11.506  0.4526  1.2294  0.1584
 7308SOL     OW33382   3.523   3.070   8.857 -0.6317  0.0087 -0.3645
 7308SOL    HW133383   3.579   3.146   8.873 -0.2162 -0.1096 -1.2887
 7308SOL    HW233384   3.573   2.993   8.885 -0.0076 -0.0938 -1.7859
 7309SOL     OW33385   2.825   0.970  14.209 -0.5472 -0.4452  0.0290
 7309SOL    HW133386   2.842   0.876  14.217 -0.6011 -0.3798  0.9299
 7309SOL    HW233387   2.743   0.966  14.160  0.0685  1.8312 -1.1720
 7310SOL     OW33388   3.331   0.322  16.810 -0.5863  0.1773 -0.0004
 7310SOL    HW133389   3.303   0.234  16.783  1.6359 -0.5932  0.1820
 7310SOL    HW233390   3.246   0.365  16.804  0.0130  1.3087 -0.4637
 7311SOL     OW33391   2.719   1.542   0.849  0.0763  0.0231 -0.4577
 7311SOL    HW133392   2.776   1.491   0.907  0.5526  3.0702  1.7466
 7311SOL    HW233393   2.787   1.587   0.799 -2.6190  2.3362 -2.0079
 7312SOL     OW33394   1.305   2.372   8.483  0.9389  0.2134 -0.1366
 7312SOL    HW133395   1.279   2.438   8.548  0.3852  0.3957 -0.5485
 7312SOL    HW233396   1.233   2.311   8.495  1.8979 -0.7231  0.8653
 7313SOL     OW33397   0.068   1.657   6.157 -0.7211 -0.3343 -0.3244
 7313SOL    HW133398   0.036   1.713   6.228  0.4266  0.6614 -0.6025
 7313SOL    HW233399   0.030   1.570   6.174  1.4701 -1.5490 -1.7270
 7314SOL     OW33400   4.085   1.800   7.367 -0.2208 -0.7013 -0.4142
 7314SOL    HW133401   4.002   1.838   7.396 -0.3989 -0.0504 -1.7790
 7314SOL    HW233402   4.082   1.717   7.414  0.1045 -0.3365  0.2414
 7315SOL     OW33403   2.224   4.251   7.075  0.2802  0.5045 -0.8143
 7315SOL    HW133404   2.301   4.214   7.030 -0.3389  0.0577 -1.5114
 7315SOL    HW233405   2.165   4.280   7.006 -1.1358  0.7715  0.5309
 7316SOL     OW33406   2.555   3.010  14.151 -0.2146 -0.0103 -0.0091
 7316SOL    HW133407   2.493   2.937  14.152 -1.6740  1.2288 -0.0833
 7316SOL    HW233408   2.496   3.082  14.176  0.7801  1.3264 -1.5062
 7317SOL     OW33409   1.508   1.649   5.390  0.0363 -0.1825 -0.0203
 7317SOL    HW133410   1.532   1.619   5.302  1.3275 -0.1007  0.3048
 7317SOL    HW233411   1.586   1.622   5.439  1.7142  2.2049 -1.3944
 7318SOL     OW33412   0.750   0.150   4.889  0.3353 -0.2338  0.4582
 7318SOL    HW133413   0.821   0.097   4.853 -0.2635 -0.5188 -0.2882
 7318SOL    HW233414   0.740   0.124   4.981 -1.0412 -2.9117 -0.4516
 7319SOL     OW33415   4.145   2.515   4.362 -0.6752  0.0480  0.0858
 7319SOL    HW133416   4.218   2.514   4.425 -0.1546 -1.7788 -0.5623
 7319SOL    HW233417   4.182   2.479   4.282  1.0201  1.0654  0.4080
 7320SOL     OW33418   1.928   3.253   2.325  0.0970  0.7462  0.4171
 7320SOL    HW133419   1.865   3.187   2.355 -0.9839  0.4918 -2.4035
 7320SOL    HW233420   1.867   3.321   2.296  0.2849  0.8321  0.2270
 7321SOL     OW33421   1.114   1.172   3.378  0.1839  0.9066  0.1690
 7321SOL    HW133422   1.167   1.188   3.456 -2.5785  0.0222  2.2232
 7321SOL    HW233423   1.038   1.137   3.424 -0.4938  0.3883 -1.3453
 7322SOL     OW33424   0.005   3.745   3.942 -0.5951  0.8298  0.4807
 7322SOL    HW133425   0.027   3.690   3.866  1.1273  0.8677  0.9424
 7322SOL    HW233426   0.009   3.836   3.911  1.2412 -0.1141 -2.0455
 7323SOL     OW33427   2.044   2.090   4.224  0.0512 -0.0402  0.1695
 7323SOL    HW133428   1.997   2.172   4.207 -0.3368 -0.1677  0.6258
 7323SOL    HW233429   1.984   2.021   4.198 -0.2122  0.3596 -0.2780
 7324SOL     OW33430   1.496   0.455   0.729  0.2846 -0.1515 -0.1757
 7324SOL    HW133431   1.553   0.422   0.799 -0.7490  3.6534  2.4643
 7324SOL    HW233432   1.502   0.549   0.745  1.7019 -0.3943  0.6518
 7325SOL     OW33433   3.499   3.409   4.548  0.2164  0.0384 -0.2345
 7325SOL    HW133434   3.555   3.361   4.487 -0.0688 -0.7342  0.1085
 7325SOL    HW233435   3.415   3.399   4.504  0.2219 -0.3086 -0.1679
 7326SOL     OW33436   0.432   0.368   1.138  0.0534  0.0826  0.1342
 7326SOL    HW133437   0.388   0.387   1.221  0.5150  1.3390  0.0915
 7326SOL    HW233438   0.418   0.450   1.091 -1.9074 -0.2616  0.1570
 7327SOL     OW33439   1.814   1.579  16.698  0.4630  0.0221 -0.3743
 7327SOL    HW133440   1.748   1.516  16.728  1.2789 -0.0401  1.2789
 7327SOL    HW233441   1.772   1.621  16.623 -1.6375  1.0919  1.4030
 7328SOL     OW33442   3.271   0.027   3.606 -0.9533  0.6358  0.6255
 7328SOL    HW133443   3.288   0.120   3.597 -2.9300  0.6790 -2.4314
 7328SOL    HW233444   3.242   4.723   3.520 -0.2117  0.7712  0.3288
 7329SOL     OW33445   1.465   1.720   7.099 -0.3501  0.2872 -0.1912
 7329SOL    HW133446   1.508   1.730   7.014  4.5663 -1.5626  2.0979
 7329SOL    HW233447   1.538   1.687   7.151  0.1280  0.7219 -0.5933
 7330SOL     OW33448   4.103   1.527   5.576  0.2325  0.3916  0.0652
 7330SOL    HW133449   4.113   1.603   5.633 -1.0348  1.0065 -0.5440
 7330SOL    HW233450   4.144   1.551   5.493 -0.6812 -0.3020 -0.5811
 7331SOL     OW33451   2.882   3.070   7.096 -1.2247  0.5602 -0.3303
 7331SOL    HW133452   2.919   2.993   7.051 -0.9454  0.8880 -0.6628
 7331SOL    HW233453   2.902   3.145   7.040  1.1552 -0.1749 -0.4645
 7332SOL     OW33454   3.149   1.537  16.028 -0.1163  0.1550 -0.6130
 7332SOL    HW133455   3.088   1.601  16.066  0.1353  0.0510 -0.0380
 7332SOL    HW233456   3.151   1.468  16.094 -3.3645  1.0209  0.3910
 7333SOL     OW33457   3.206   3.482   5.416 -0.1626 -0.2709 -0.3149
 7333SOL    HW133458   3.254   3.565   5.411  1.8907 -1.3535  1.0819
 7333SOL    HW233459   3.228   3.475   5.509  2.7701 -2.6255 -1.1749
 7334SOL     OW33460   3.855   1.247   3.293  0.4448 -0.1145 -0.4862
 7334SOL    HW133461   3.798   1.297   3.235  2.4116  0.0209 -2.2988
 7334SOL    HW233462   3.891   1.178   3.236  2.2542 -0.1329  0.6604
 7335SOL     OW33463   1.137   1.538  13.381 -0.1872 -0.5585  0.1428
 7335SOL    HW133464   1.146   1.454  13.336 -1.1917 -1.3108  1.3193
 7335SOL    HW233465   1.185   1.520  13.462  2.3062  0.4448 -1.1295
 7336SOL     OW33466   3.820   0.561   8.933 -0.4964  0.2160  0.6025
 7336SOL    HW133467   3.868   0.479   8.942 -0.1633  0.3453 -0.0555
 7336SOL    HW233468   3.752   0.550   9.000  1.2211 -1.3524  2.0869
 7337SOL     OW33469   3.067   2.058   6.771  0.4802 -0.2062  0.1830
 7337SOL    HW133470   3.101   2.071   6.683 -1.8227  1.9382 -0.4140
 7337SOL    HW233471   3.040   1.966   6.768  1.4090 -0.4978  1.1689
 7338SOL     OW33472   2.491   3.435   2.428 -0.4667  0.3030  0.5687
 7338SOL    HW133473   2.457   3.399   2.347  1.6642  0.3560 -0.3567
 7338SOL    HW233474   2.487   3.524   2.391 -0.1907  0.0209 -0.1347
 7339SOL     OW33475   4.678   2.761   6.485  0.2458  0.0652 -0.1286
 7339SOL    HW133476   4.717   2.687   6.530 -0.5242 -1.9215 -2.7052
 7339SOL    HW233477   4.664   2.723   6.398 -0.7213 -1.1204  0.5322
 7340SOL     OW33478   1.344   0.112   2.734  0.1096  0.2796  0.1929
 7340SOL    HW133479   1.277   0.071   2.680 -0.0003  0.6391  0.0581
 7340SOL    HW233480   1.326   0.081   2.823 -0.1063  0.6027  0.2625
 7341SOL     OW33481   1.767   0.205   3.398  0.0453 -0.4125 -0.6732
 7341SOL    HW133482   1.683   0.209   3.352 -1.4097 -2.5721  1.7850
 7341SOL    HW233483   1.818   0.248   3.330  2.6230 -1.8225  0.3917
 7342SOL     OW33484   0.937   4.256   2.173 -0.3372 -0.0219 -0.5102
 7342SOL    HW133485   0.981   4.174   2.198  1.4334  0.7963 -0.9250
 7342SOL    HW233486   0.947   4.246   2.079  0.5124  1.3111 -0.5562
 7343SOL     OW33487   4.616   1.813   4.902 -0.2789 -0.3377  0.2094
 7343SOL    HW133488   4.586   1.740   4.848  0.9990 -0.6053 -0.1326
 7343SOL    HW233489   4.705   1.834   4.873  0.2801 -2.0223  0.7456
 7344SOL     OW33490   2.806   3.117   2.736 -0.9930  0.1514 -0.4209
 7344SOL    HW133491   2.852   3.101   2.653  3.5610 -1.8896  2.4667
 7344SOL    HW233492   2.738   3.180   2.714 -0.2160  0.8283 -0.8757
 7345SOL     OW33493   2.833   3.465   3.413  0.5706 -0.0654 -0.2204
 7345SOL    HW133494   2.918   3.431   3.385  1.1486  3.4029 -2.6451
 7345SOL    HW233495   2.779   3.444   3.337 -0.6447  0.1587  0.5777
 7346SOL     OW33496   3.637   3.340   6.410  0.1058 -1.1795 -0.5499
 7346SOL    HW133497   3.623   3.432   6.387  2.3052 -0.6935  0.0530
 7346SOL    HW233498   3.711   3.317   6.353  0.7125  0.5110 -0.4363
 7347SOL     OW33499   1.564   2.235   4.296 -0.1207 -0.8731 -0.5712
 7347SOL    HW133500   1.496   2.169   4.312 -1.2543  0.0228 -1.5950
 7347SOL    HW233501   1.552   2.247   4.202  2.6230 -0.1822 -0.8073
 7348SOL     OW33502   3.914   2.528   2.254 -0.2947  0.4735  0.2183
 7348SOL    HW133503   3.990   2.516   2.197 -1.9746 -1.5605 -1.5852
 7348SOL    HW233504   3.899   2.621   2.235 -0.5119  0.0823 -1.4889
 7349SOL     OW33505   4.535   2.937   7.001  0.2540  0.5475 -0.2298
 7349SOL    HW133506   4.487   2.949   6.918 -1.4344  0.2592  0.7062
 7349SOL    HW233507   4.488   2.859   7.030 -1.2742  1.5308 -0.0718
 7350SOL     OW33508   2.006   2.819   9.720  0.3304  0.0584  0.0587
 7350SOL    HW133509   1.991   2.764   9.797 -2.2967 -1.8165 -1.7896
 7350SOL    HW233510   2.047   2.761   9.655 -1.9980 -0.9051 -0.5530
 7351SOL     OW33511   3.530   3.517   8.783  0.4205 -0.4095 -0.3501
 7351SOL    HW133512   3.445   3.481   8.760  0.0637 -0.7772  1.4998
 7351SOL    HW233513   3.543   3.466   8.864 -0.7901  0.3554  0.3196
 7352SOL     OW33514   4.020   4.722   0.693  0.0544 -0.1884  0.0753
 7352SOL    HW133515   4.045   4.641   0.737 -0.2097 -0.3458 -0.0654
 7352SOL    HW233516   3.967   0.046   0.756  0.3821  0.6315 -0.2824
 7353SOL     OW33517   4.610   1.288  10.645 -0.1020 -1.0567  0.1771
 7353SOL    HW133518   4.631   1.195  10.634  0.6346 -1.0306  1.3629
 7353SOL    HW233519   4.567   1.284  10.730 -0.9237  2.3624 -0.0874
 7354SOL     OW33520   3.845   4.329   1.638 -0.7816 -0.1061  1.1984
 7354SOL    HW133521   3.883   4.288   1.716 -0.7109  0.3783  1.4240
 7354SOL    HW233522   3.844   4.418   1.675  1.3088  0.1810  0.5439
 7355SOL     OW33523   3.493   1.892  14.009 -0.1122  0.4451 -0.4037
 7355SOL    HW133524   3.438   1.841  13.949 -0.5776 -1.3775  1.5682
 7355SOL    HW233525   3.579   1.878  13.969  0.2761 -0.2690  0.6875
 7356SOL     OW33526   0.390   2.740   7.588  0.1800 -0.4896 -0.5215
 7356SOL    HW133527   0.318   2.739   7.651  0.4471 -0.9033 -0.2132
 7356SOL    HW233528   0.456   2.691   7.638  0.5854 -0.0924 -0.6784
 7357SOL     OW33529   2.118   3.324   3.321 -0.2682 -0.8569 -0.0644
 7357SOL    HW133530   2.188   3.378   3.283 -1.7382  2.0287  1.3170
 7357SOL    HW233531   2.131   3.353   3.412  0.2931  0.7140 -0.6445
 7358SOL     OW33532   3.002   2.129  16.352  0.1449  0.1150  0.2630
 7358SOL    HW133533   3.060   2.084  16.290  0.8239  1.1465  0.1459
 7358SOL    HW233534   2.917   2.115  16.311  0.7481  0.5627 -1.1429
 7359SOL     OW33535   2.125   0.070   2.967 -0.1721  0.0840  0.5623
 7359SOL    HW133536   2.133   0.100   2.876 -2.1290  0.4406  0.4916
 7359SOL    HW233537   2.030   0.062   2.976 -0.4273  2.0984 -0.1959
 7360SOL     OW33538   3.685   2.332   9.244 -0.0332  0.0655  0.8587
 7360SOL    HW133539   3.754   2.391   9.273  0.6059 -0.3364  0.1574
 7360SOL    HW233540   3.721   2.244   9.248 -0.0839 -0.0396 -1.1354
 7361SOL     OW33541   1.302   0.804  11.555  0.6758  0.2816 -0.0773
 7361SOL    HW133542   1.257   0.748  11.618 -0.2954  0.8733 -0.2423
 7361SOL    HW233543   1.239   0.805  11.483  1.1547 -2.3289 -0.5149
 7362SOL     OW33544   3.247   1.318   7.669  0.4495  0.6988 -0.1291
 7362SOL    HW133545   3.154   1.303   7.654  0.7471 -2.0764  0.8411
 7362SOL    HW233546   3.253   1.383   7.739 -0.8954  3.1196 -2.2266
 7363SOL     OW33547   3.792   2.008  11.311 -0.6203  0.4040 -0.4578
 7363SOL    HW133548   3.746   2.046  11.385  0.0045 -1.6428  0.9779
 7363SOL    HW233549   3.794   2.078  11.245  2.6690  2.1476  1.4829
 7364SOL     OW33550   0.298   1.019   4.022  0.3373 -0.2371  0.2044
 7364SOL    HW133551   0.350   0.952   3.978 -1.3631  0.4860 -2.8609
 7364SOL    HW233552   0.215   0.981   4.052  0.4292  0.4866  1.3998
 7365SOL     OW33553   1.319   3.220  14.013 -0.1080 -0.1697  0.1838
 7365SOL    HW133554   1.261   3.287  13.978  0.6496  0.7994  0.7869
 7365SOL    HW233555   1.357   3.183  13.933 -0.0503  0.6134 -0.1540
 7366SOL     OW33556   0.445   4.039  17.599  0.5858  0.1501 -0.0040
 7366SOL    HW133557   0.396   4.013  17.521  0.3947 -1.3423  0.6162
 7366SOL    HW233558   0.450   3.955  17.646 -2.1490 -0.0593 -0.1326
 7367SOL     OW33559   3.239   1.702   3.083 -0.7898  0.2511  0.2585
 7367SOL    HW133560   3.161   1.745   3.117  0.2219  0.9397  1.6946
 7367SOL    HW233561   3.279   1.663   3.160  1.0828 -1.0218 -1.3563
 7368SOL     OW33562   0.049   3.326   8.043  0.0207 -0.1177  0.2357
 7368SOL    HW133563   0.048   3.231   8.045  0.9125 -0.1303  0.2360
 7368SOL    HW233564   0.028   3.355   7.955 -0.1832 -2.1852 -0.3857
 7369SOL     OW33565   1.667   3.371   1.682 -0.0588  0.0594  0.1066
 7369SOL    HW133566   1.692   3.284   1.714  0.5400 -0.0594 -0.6908
 7369SOL    HW233567   1.658   3.408   1.770  0.5421 -0.3531  0.3416
 7370SOL     OW33568   1.533   3.744   3.697  0.0362  0.4961  0.3908
 7370SOL    HW133569   1.486   3.781   3.622  1.0441  2.8124  0.9112
 7370SOL    HW233570   1.471   3.759   3.768  1.8637 -0.3364  2.1524
 7371SOL     OW33571   0.656   4.404   6.113 -0.3328  0.2622 -0.2621
 7371SOL    HW133572   0.571   4.412   6.158 -0.8574 -3.3974 -0.5935
 7371SOL    HW233573   0.644   4.346   6.037 -0.9989  0.3715 -0.2431
 7372SOL     OW33574   3.386   1.765   8.642  0.2133 -0.2746 -0.4851
 7372SOL    HW133575   3.464   1.792   8.690  0.3054 -1.9328  0.2746
 7372SOL    HW233576   3.350   1.853   8.628 -2.4458 -1.0347  1.4727
 7373SOL     OW33577   2.598   1.193  11.025 -0.6608 -0.3725 -0.2393
 7373SOL    HW133578   2.688   1.163  11.035 -0.7661 -0.5379  0.2152
 7373SOL    HW233579   2.576   1.232  11.109 -2.6869 -4.3688  1.0560
 7374SOL     OW33580   2.817   0.973   8.639  0.3514 -0.0619 -0.2104
 7374SOL    HW133581   2.819   1.059   8.597  0.7752  0.0299  0.0010
 7374SOL    HW233582   2.904   0.941   8.615  1.1884  1.9180  0.1419
 7375SOL     OW33583   4.442   1.019   4.319  0.1502  0.0469  0.1346
 7375SOL    HW133584   4.510   1.068   4.273  1.6319  1.4630  3.8086
 7375SOL    HW233585   4.381   1.091   4.334 -1.3839 -1.1380 -0.3544
 7376SOL     OW33586   3.408   3.901   6.765  0.1191  0.4880 -0.6893
 7376SOL    HW133587   3.386   3.939   6.850 -1.5272  0.3500 -1.0550
 7376SOL    HW233588   3.331   3.844   6.765  0.0126  0.6149  1.0429
 7377SOL     OW33589   0.921   3.187   8.233 -0.0498 -0.4980 -0.3271
 7377SOL    HW133590   0.860   3.220   8.167 -0.3510 -0.9718 -0.2828
 7377SOL    HW233591   0.854   3.191   8.302 -0.3852  0.4769 -0.7126
 7378SOL     OW33592   1.913   0.916   8.566  0.3806  0.3842  0.0023
 7378SOL    HW133593   1.872   0.832   8.587  0.7838 -0.2104 -1.5960
 7378SOL    HW233594   1.987   0.915   8.626  1.4393  1.1999 -1.2836
 7379SOL     OW33595   0.626   0.745  13.709  0.0713  0.2809 -0.3870
 7379SOL    HW133596   0.697   0.687  13.682 -0.3078 -0.2309 -0.2772
 7379SOL    HW233597   0.626   0.806  13.635  0.2635  2.4315  1.4179
 7380SOL     OW33598   4.682   1.758   2.876  0.3829  0.1019  0.0843
 7380SOL    HW133599   4.720   1.717   2.798 -0.7363  0.2823 -0.5704
 7380SOL    HW233600   4.674   1.847   2.839  3.6377  0.4785  0.3109
 7381SOL     OW33601   1.495   3.845  13.073  0.7102  0.5296  0.6080
 7381SOL    HW133602   1.544   3.873  13.150  0.6739  1.5995  0.2310
 7381SOL    HW233603   1.558   3.782  13.036  0.6384  1.0366 -0.3610
 7382SOL     OW33604   0.765   3.357   6.510 -0.1426  0.4575  0.4363
 7382SOL    HW133605   0.814   3.289   6.463 -2.2768  0.2218 -1.4584
 7382SOL    HW233606   0.828   3.386   6.576 -0.4920 -1.3883  1.5993
 7383SOL     OW33607   4.009   2.263  13.640  0.0635 -0.2177  0.1290
 7383SOL    HW133608   4.057   2.269  13.557  0.8921  0.9828  0.6937
 7383SOL    HW233609   4.071   2.213  13.692  1.7529  2.7955  1.0322
 7384SOL     OW33610   2.052   0.314  17.536 -0.4446  0.1644  0.5916
 7384SOL    HW133611   2.123   0.325  17.599  1.4909 -2.2106 -1.1456
 7384SOL    HW233612   1.983   0.278  17.591  1.5237 -1.0064  2.2897
 7385SOL     OW33613   4.435   2.740   7.917 -0.3789 -0.4580  0.3086
 7385SOL    HW133614   4.474   2.801   7.981 -1.2423  0.6096 -0.1899
 7385SOL    HW233615   4.349   2.730   7.956 -0.9927  0.1382 -0.8898
 7386SOL     OW33616   3.623   0.330   3.320  0.1407  0.1202 -0.2959
 7386SOL    HW133617   3.685   0.308   3.250 -0.9934 -3.2687 -0.1990
 7386SOL    HW233618   3.609   0.424   3.307  1.4178 -0.1088 -3.4036
 7387SOL     OW33619   2.563   0.555   7.425  0.1742 -0.2023  0.0759
 7387SOL    HW133620   2.549   0.635   7.374  2.8325 -0.2558 -0.7171
 7387SOL    HW233621   2.656   0.534   7.415 -0.1715 -0.9850 -1.5030
 7388SOL     OW33622   3.230   2.410   5.885 -0.5784 -0.3147 -0.2348
 7388SOL    HW133623   3.195   2.399   5.973 -0.6663 -0.6954 -0.3176
 7388SOL    HW233624   3.178   2.482   5.848 -0.9091  0.9992  2.7377
 7389SOL     OW33625   1.198   4.168   9.411 -0.2419 -0.2812  0.1230
 7389SOL    HW133626   1.289   4.150   9.391 -0.1219 -1.7980  2.0821
 7389SOL    HW233627   1.163   4.082   9.387 -0.3667 -0.3821  0.6561
 7390SOL     OW33628   4.247   3.419   6.153 -0.0119 -0.0408  0.5282
 7390SOL    HW133629   4.264   3.496   6.207  0.6602  1.2153 -1.4694
 7390SOL    HW233630   4.325   3.364   6.164 -0.3538 -0.2720  1.8245
 7391SOL     OW33631   3.602   0.214  15.362 -0.6039  0.1616 -0.3215
 7391SOL    HW133632   3.671   0.162  15.322  0.4648  1.0119  0.4229
 7391SOL    HW233633   3.639   0.240  15.447  2.4156  1.7947 -2.1457
 7392SOL     OW33634   3.022   3.764   4.454 -0.1080 -0.4261  0.3211
 7392SOL    HW133635   2.967   3.827   4.408 -0.2882  0.5231  1.8319
 7392SOL    HW233636   3.018   3.699   4.384  1.1210 -1.8714  1.5903
 7393SOL     OW33637   1.854   3.880   6.653 -0.3167  0.4231  0.8069
 7393SOL    HW133638   1.761   3.897   6.638 -0.5254 -1.0783  0.3752
 7393SOL    HW233639   1.872   3.918   6.739 -1.8110 -0.7576  1.6431
 7394SOL     OW33640   2.694   1.718   5.297  0.4380 -0.4674 -0.4438
 7394SOL    HW133641   2.713   1.805   5.264 -1.0215 -0.2776 -0.7827
 7394SOL    HW233642   2.613   1.738   5.344  1.0917 -0.8788  0.8591
 7395SOL     OW33643   1.838   0.378  10.936  0.4857  0.5198 -0.7105
 7395SOL    HW133644   1.888   0.350  10.860 -0.8379 -1.6360 -0.7919
 7395SOL    HW233645   1.873   0.467  10.935  0.6164  0.4878  1.7001
 7396SOL     OW33646   3.276   0.962   2.569  0.1200 -0.3715 -0.1527
 7396SOL    HW133647   3.279   0.866   2.567  1.0149 -0.2804 -2.7023
 7396SOL    HW233648   3.222   0.981   2.493  0.1303 -1.7737 -0.5142
 7397SOL     OW33649   0.220   2.883   3.699  0.3905 -0.3627  0.3231
 7397SOL    HW133650   0.139   2.931   3.717  0.0032 -0.5423 -0.9657
 7397SOL    HW233651   0.265   2.909   3.780  0.1422 -1.0707  0.6872
 7398SOL     OW33652   0.867   0.609   8.298 -0.0112  0.3081  0.4146
 7398SOL    HW133653   0.885   0.697   8.332  0.6642  0.1068  0.5690
 7398SOL    HW233654   0.870   0.555   8.377  0.5379 -1.1482 -0.6174
 7399SOL     OW33655   0.476   0.339  11.485 -0.2127  0.5909 -0.2265
 7399SOL    HW133656   0.500   0.258  11.531  2.3340  0.1958 -2.2724
 7399SOL    HW233657   0.381   0.335  11.498 -0.0014  3.4425  2.4265
 7400SOL     OW33658   4.325   0.489   0.409  0.2550  0.1745  0.3356
 7400SOL    HW133659   4.240   0.447   0.398  0.7988 -0.3543 -1.8337
 7400SOL    HW233660   4.311   0.564   0.351  0.5034  0.0547  0.1155
 7401SOL     OW33661   1.487   2.665  10.950  0.0228 -0.2476  0.7252
 7401SOL    HW133662   1.509   2.724  10.879  2.8917 -1.2352  0.7946
 7401SOL    HW233663   1.433   2.724  11.003  0.3511  1.9464 -1.4240
 7402SOL     OW33664   3.372   1.203   8.729 -0.4147  0.2044 -1.3808
 7402SOL    HW133665   3.284   1.215   8.694 -1.0753 -0.3022  0.1113
 7402SOL    HW233666   3.408   1.290   8.712  1.3761 -0.0429  1.1857
 7403SOL     OW33667   3.737   1.577   3.421  0.2998 -0.3806  0.5283
 7403SOL    HW133668   3.780   1.643   3.474  1.2745 -0.1449 -0.5615
 7403SOL    HW233669   3.794   1.575   3.344 -1.2894  1.6103 -0.7202
 7404SOL     OW33670   2.890   3.222   7.871 -0.1915 -0.0189 -0.3144
 7404SOL    HW133671   2.919   3.250   7.784  0.2178  1.6766  0.3621
 7404SOL    HW233672   2.960   3.162   7.898 -1.8938 -1.8819 -0.0316
 7405SOL     OW33673   4.634   1.762   8.735 -0.7977 -0.1780 -0.5013
 7405SOL    HW133674   4.642   1.676   8.776 -0.4774  1.1489  2.2125
 7405SOL    HW233675   4.697   1.824   8.771 -1.2658 -0.3317  0.5768
 7406SOL     OW33676   0.221   3.736   4.612 -0.5226 -0.2759 -0.3347
 7406SOL    HW133677   0.139   3.783   4.624  1.2167  2.7076 -0.3269
 7406SOL    HW233678   0.280   3.803   4.578  0.2127 -0.2992  0.8850
 7407SOL     OW33679   4.714   2.220   1.725  0.4450 -0.2239 -0.0469
 7407SOL    HW133680   4.715   2.129   1.756  1.2400 -0.6009 -1.1795
 7407SOL    HW233681   4.672   2.204   1.640  0.7611  2.3692 -0.6984
 7408SOL     OW33682   0.578   2.525   4.895  0.0448  0.2349 -0.2494
 7408SOL    HW133683   0.606   2.504   4.984 -0.4018  1.1073  0.0897
 7408SOL    HW233684   0.557   2.618   4.902  0.1432  0.1436  1.2370
 7409SOL     OW33685   0.523   1.645  17.660 -0.1307 -0.4079 -0.4532
 7409SOL    HW133686   0.522   1.554  17.690 -0.3722 -0.0062  0.7605
 7409SOL    HW233687   0.557   1.630  17.572  0.3707 -0.1346 -0.3060
 7410SOL     OW33688   1.734   2.285   3.967 -0.2078 -0.2785 -0.9194
 7410SOL    HW133689   1.655   2.230   3.964 -0.8297  0.5603  0.2268
 7410SOL    HW233690   1.791   2.224   3.920  2.1986  0.9183  0.5035
 7411SOL     OW33691   3.160   0.988   7.127  0.3394 -0.2924 -0.3206
 7411SOL    HW133692   3.186   0.942   7.207 -1.0744 -2.7636 -1.2514
 7411SOL    HW233693   3.130   0.914   7.073  3.4548 -2.0548  0.3232
 7412SOL     OW33694   3.442   0.771   7.667  0.1290  0.5469  0.8711
 7412SOL    HW133695   3.368   0.737   7.717 -1.0376  1.0052 -0.5559
 7412SOL    HW233696   3.392   0.820   7.602  0.1157  0.4300  0.7923
 7413SOL     OW33697   4.488   2.241   7.990 -0.7384  0.0549  0.2363
 7413SOL    HW133698   4.427   2.172   8.016 -1.4453  1.3144  1.9162
 7413SOL    HW233699   4.439   2.321   8.009  1.4144  1.0605  1.5121
 7414SOL     OW33700   2.282   3.606   8.794 -0.4233  0.0044 -0.3822
 7414SOL    HW133701   2.290   3.524   8.744 -1.3363 -1.2466  1.5276
 7414SOL    HW233702   2.207   3.587   8.850  0.2666 -0.9192  0.2371
 7415SOL     OW33703   4.702   3.417   7.802 -0.4951  0.2485  0.0011
 7415SOL    HW133704   4.658   3.339   7.770 -0.5745 -0.1346  1.0409
 7415SOL    HW233705   0.064   3.402   7.764  0.6950 -0.5301  3.0450
 7416SOL     OW33706   3.206   0.914  15.962 -0.3421  0.4704  0.2457
 7416SOL    HW133707   3.226   0.845  15.898  1.9576  0.9398  0.4555
 7416SOL    HW233708   3.141   0.968  15.917 -0.8730 -0.5206 -0.1738
 7417SOL     OW33709   3.374   3.097   5.603  0.2271 -0.0544  0.3480
 7417SOL    HW133710   3.293   3.132   5.566  1.5487  2.0683 -0.5181
 7417SOL    HW233711   3.339   3.033   5.664  0.6375 -2.0542 -1.5120
 7418SOL     OW33712   2.316   3.037  10.596  0.4488  0.5317 -0.3889
 7418SOL    HW133713   2.301   3.006  10.685 -1.3424 -1.6296 -1.4747
 7418SOL    HW233714   2.248   3.104  10.593  0.4793  0.5954  0.2800
 7419SOL     OW33715   0.753   2.531  16.909 -0.5989  0.6130  0.0366
 7419SOL    HW133716   0.822   2.486  16.860 -1.5087  3.3709 -3.7733
 7419SOL    HW233717   0.693   2.458  16.925  1.1695 -0.5780  1.2930
 7420SOL     OW33718   1.538   2.883  16.033  0.5185  0.0786  0.1975
 7420SOL    HW133719   1.519   2.792  16.012  1.6241  0.4018 -2.1511
 7420SOL    HW233720   1.584   2.908  15.953  1.9833 -0.5515  0.8352
 7421SOL     OW33721   0.292   0.587  12.846  0.2269 -0.0554 -0.9938
 7421SOL    HW133722   0.200   0.574  12.872  0.5471 -0.7451 -0.1958
 7421SOL    HW233723   0.343   0.587  12.927  0.3175  0.5365 -1.0515
 7422SOL     OW33724   0.644   0.362   0.254  0.3174 -0.0761 -0.5183
 7422SOL    HW133725   0.645   0.268   0.272 -1.2511 -0.1291 -0.7233
 7422SOL    HW233726   0.558   0.385   0.290  0.6206  0.3475 -0.0686
 7423SOL     OW33727   4.397   2.640   7.676 -0.4641  0.7937  0.2048
 7423SOL    HW133728   4.487   2.611   7.692 -0.5066 -0.4197 -1.7732
 7423SOL    HW233729   4.393   2.699   7.751  2.2535  0.5182  0.5464
 7424SOL     OW33730   4.235   1.110  10.893  0.2433  0.2526  0.3349
 7424SOL    HW133731   4.313   1.164  10.880  0.6461 -0.9973 -2.2503
 7424SOL    HW233732   4.172   1.171  10.933  0.7013 -0.9576  2.8886
 7425SOL     OW33733   1.160   2.825   0.189  0.0158  0.3428  0.3291
 7425SOL    HW133734   1.174   2.870   0.106 -2.5849  1.0620  0.2683
 7425SOL    HW233735   1.104   2.891   0.229 -2.7203 -1.5498 -0.3821
 7426SOL     OW33736   3.495   3.106  11.814 -0.0828  0.0851  0.2500
 7426SOL    HW133737   3.535   3.138  11.733  1.6961  0.0557  1.1301
 7426SOL    HW233738   3.570   3.061  11.853  1.4849  2.1589 -0.3965
 7427SOL     OW33739   3.551   3.688   6.850  0.7216 -0.4066  0.0035
 7427SOL    HW133740   3.620   3.717   6.909 -1.1852  1.2040  1.4132
 7427SOL    HW233741   3.527   3.768   6.805  1.6291  1.0909  2.1994
 7428SOL     OW33742   4.246   2.988  11.006  0.1549  0.1367  0.1084
 7428SOL    HW133743   4.262   2.948  10.921 -1.5589  2.2321 -1.2042
 7428SOL    HW233744   4.326   2.966  11.052 -0.3138 -1.6062  0.0852
 7429SOL     OW33745   4.490   3.722  10.090 -0.1581 -0.2534  0.5006
 7429SOL    HW133746   4.481   3.790  10.023  2.1086  0.3758  0.8392
 7429SOL    HW233747   4.462   3.647  10.036 -0.4310 -0.6293  1.1647
 7430SOL     OW33748   4.118   1.901   2.502 -0.3930 -0.1748 -0.7521
 7430SOL    HW133749   4.058   1.967   2.467 -0.4582  1.0435  1.6850
 7430SOL    HW233750   4.189   1.898   2.437 -1.0884  1.6838 -1.6154
 7431SOL     OW33751   4.383   4.602   8.478 -0.2309 -0.0818  0.6058
 7431SOL    HW133752   4.466   4.585   8.433  0.6571 -0.2706  2.3251
 7431SOL    HW233753   4.397   4.686   8.521  0.7419  0.3708 -0.5728
 7432SOL     OW33754   2.716   2.956  10.101  0.1380  0.3165  0.2450
 7432SOL    HW133755   2.682   2.878  10.057  1.4377 -0.1264  0.0282
 7432SOL    HW233756   2.705   2.908  10.183 -0.2074  2.4554  1.4542
 7433SOL     OW33757   4.080   0.959   0.810 -0.1583  0.7725  0.2469
 7433SOL    HW133758   4.146   0.890   0.820  0.0566  1.3996  3.0338
 7433SOL    HW233759   4.119   1.025   0.867  2.8174  1.0953 -2.1554
 7434SOL     OW33760   1.899   3.644   0.353  0.1511  0.0713  0.3315
 7434SOL    HW133761   1.918   3.597   0.272  5.1565  3.9609 -0.7010
 7434SOL    HW233762   1.808   3.615   0.362 -0.0661  0.0415 -2.0906
 7435SOL     OW33763   4.280   3.133   0.780 -0.1575 -0.5230  0.1888
 7435SOL    HW133764   4.238   3.145   0.695 -0.5089 -1.5006  0.2263
 7435SOL    HW233765   4.374   3.136   0.763  0.0609  1.9991  1.7348
 7436SOL     OW33766   0.399   2.686   8.382  0.1877  0.1622  0.1199
 7436SOL    HW133767   0.327   2.637   8.341 -0.2971 -0.9958  2.3330
 7436SOL    HW233768   0.472   2.633   8.351  0.2883  0.2969  0.1257
 7437SOL     OW33769   3.995   2.994   3.356 -0.7159  0.3228  0.6079
 7437SOL    HW133770   3.912   3.042   3.365 -0.2673  0.8923  1.6713
 7437SOL    HW233771   4.049   3.050   3.300 -0.2302 -1.6421 -0.8679
 7438SOL     OW33772   3.383   1.172   4.344  0.2546  0.1470 -0.5956
 7438SOL    HW133773   3.296   1.171   4.306  0.5631  0.1766 -1.2998
 7438SOL    HW233774   3.407   1.264   4.331 -0.4732  0.4374  0.1002
 7439SOL     OW33775   1.094   0.346  16.310 -0.1860 -0.0948 -0.1575
 7439SOL    HW133776   1.105   0.441  16.300 -0.0470 -0.1441 -0.4618
 7439SOL    HW233777   1.126   0.305  16.230 -0.7674 -2.4799  0.8399
 7440SOL     OW33778   0.855   2.842   3.659 -0.5301  0.3561 -0.8847
 7440SOL    HW133779   0.842   2.753   3.625  1.3186 -0.2869  0.0629
 7440SOL    HW233780   0.947   2.856   3.640 -1.0697  1.8852 -2.3594
 7441SOL     OW33781   0.614   4.274   5.262  0.2107  0.2207 -0.2465
 7441SOL    HW133782   0.679   4.342   5.279 -0.1143  0.3843  0.3083
 7441SOL    HW233783   0.549   4.338   5.235  0.2625 -0.3305 -1.7155
 7442SOL     OW33784   4.244   2.414  13.601 -0.0830  0.8403  0.4892
 7442SOL    HW133785   4.308   2.414  13.530 -0.8764  2.1396 -0.2287
 7442SOL    HW233786   4.295   2.355  13.657  1.7002  1.3672 -0.5718
 7443SOL     OW33787   3.220   0.279   6.583 -0.5706 -0.6779  0.0590
 7443SOL    HW133788   3.215   0.192   6.543 -2.2653 -1.0203  1.0008
 7443SOL    HW233789   3.194   0.331   6.507  1.8865 -2.2990 -1.8722
 7444SOL     OW33790   1.648   0.275   3.739  0.1058  0.0792  0.0893
 7444SOL    HW133791   1.578   0.268   3.673  2.1089 -1.4252 -1.8685
 7444SOL    HW233792   1.622   0.353   3.788 -0.5054 -0.4807  0.6593
 7445SOL     OW33793   3.691   3.904   9.551 -0.3003  0.2507 -0.1168
 7445SOL    HW133794   3.772   3.937   9.589 -0.3278  1.4695 -1.1209
 7445SOL    HW233795   3.658   3.969   9.489 -0.1448  0.8888  0.4613
 7446SOL     OW33796   0.192   4.148   5.161 -0.3891 -0.0297 -0.4424
 7446SOL    HW133797   0.161   4.068   5.119 -1.0310  0.1853 -0.3839
 7446SOL    HW233798   0.135   4.217   5.127 -1.8496 -0.5868  0.8828
 7447SOL     OW33799   3.479   3.318   7.022  0.4531 -0.4403  0.0045
 7447SOL    HW133800   3.533   3.255   6.975  1.1102 -2.1583  3.0823
 7447SOL    HW233801   3.439   3.264   7.091  1.0952 -1.7715 -0.6785
 7448SOL     OW33802   0.221   1.934   9.100  0.2361 -0.0375 -0.1303
 7448SOL    HW133803   0.256   1.921   9.188 -2.6420  2.7842  1.4528
 7448SOL    HW233804   0.218   2.030   9.093  2.3867  0.1231  1.0857
 7449SOL     OW33805   1.784   3.716   3.917  0.2015 -0.7865 -0.0305
 7449SOL    HW133806   1.709   3.658   3.905  0.2555 -0.4479 -2.1054
 7449SOL    HW233807   1.854   3.652   3.928  0.7303 -0.3168 -0.6655
 7450SOL     OW33808   2.617   3.415   7.180  0.0894 -0.2515  0.3952
 7450SOL    HW133809   2.620   3.500   7.223  0.3262  0.7855 -1.6612
 7450SOL    HW233810   2.710   3.396   7.169  0.6008  0.7590  2.8871
 7451SOL     OW33811   1.126   1.629  11.508  0.1444 -0.9902  0.5955
 7451SOL    HW133812   1.193   1.594  11.450  1.3098 -0.6451  1.7477
 7451SOL    HW233813   1.145   1.723  11.506 -1.7753 -0.5792  1.1041
 7452SOL     OW33814   0.123   1.100   3.737 -0.0615 -0.3709 -0.3194
 7452SOL    HW133815   0.084   1.026   3.783 -1.7471  0.4955 -0.3510
 7452SOL    HW233816   0.161   1.053   3.663  0.7387 -0.7526  0.3243
 7453SOL     OW33817   3.677   1.756   6.121 -0.0187 -0.0791 -0.3159
 7453SOL    HW133818   3.652   1.738   6.030 -3.2465  0.7547  0.4215
 7453SOL    HW233819   3.623   1.830   6.148 -0.4570 -0.0751 -1.2062
 7454SOL     OW33820   1.548   1.419   7.596 -0.2145  0.3174  0.0074
 7454SOL    HW133821   1.477   1.354   7.595 -0.8636  1.0291 -0.4340
 7454SOL    HW233822   1.605   1.388   7.527 -0.1554  0.1847  0.1154
 7455SOL     OW33823   3.674   0.411   1.016 -0.1900 -0.3568 -0.5598
 7455SOL    HW133824   3.747   0.471   1.034  1.0608 -2.4889  1.5730
 7455SOL    HW233825   3.645   0.442   0.931  0.0541  2.6768  0.4612
 7456SOL     OW33826   2.839   0.792   5.757 -0.0318  0.2314  0.0189
 7456SOL    HW133827   2.901   0.730   5.795 -0.3937  0.7935  1.5381
 7456SOL    HW233828   2.853   0.783   5.663  2.0196 -0.2077  0.3693
 7457SOL     OW33829   3.786   4.214  10.743  0.5686  0.3547  0.1918
 7457SOL    HW133830   3.756   4.262  10.666 -1.0564 -1.4808 -0.3299
 7457SOL    HW233831   3.858   4.265  10.780  0.7288  0.8940 -0.8466
 7458SOL     OW33832   0.420   3.752   4.813 -0.4102 -0.1988  0.5018
 7458SOL    HW133833   0.386   3.716   4.731  0.3297  2.9616 -1.1910
 7458SOL    HW233834   0.416   3.846   4.797  1.2338 -0.6846 -2.5698
 7459SOL     OW33835   0.645   0.994   4.459  0.5046  0.2920 -0.1463
 7459SOL    HW133836   0.703   0.952   4.523  1.4534  1.4495 -0.2451
 7459SOL    HW233837   0.613   1.076   4.494  1.2672  0.6179 -0.2082
 7460SOL     OW33838   3.462   0.661  14.643  0.0638 -0.2691  0.2839
 7460SOL    HW133839   3.522   0.735  14.651  1.8671 -1.7098 -0.0928
 7460SOL    HW233840   3.377   0.704  14.654 -0.1477 -0.5714 -0.1627
 7461SOL     OW33841   4.325   0.476  14.357 -0.0354 -0.8490 -0.1835
 7461SOL    HW133842   4.419   0.473  14.374 -0.2566  0.2405  1.1640
 7461SOL    HW233843   4.286   0.419  14.424 -0.9537 -0.2770 -0.2347
 7462SOL     OW33844   1.154   0.033   5.637 -0.0078  0.1942  0.3616
 7462SOL    HW133845   1.177   0.111   5.688  0.3172  0.4552 -0.1914
 7462SOL    HW233846   1.227   0.007   5.581 -1.8792  1.4618 -2.6440
 7463SOL     OW33847   2.097   0.238   5.112  0.2592  0.5500  0.6044
 7463SOL    HW133848   2.136   0.153   5.095  0.5048  0.7340  0.2601
 7463SOL    HW233849   2.037   0.241   5.037  1.5239 -1.4917 -0.4751
 7464SOL     OW33850   3.803   3.295   6.199  0.5644  0.5349 -0.2955
 7464SOL    HW133851   3.726   3.317   6.147  0.9970  0.3904 -0.9936
 7464SOL    HW233852   3.870   3.298   6.131  0.5704  0.7255 -0.2800
 7465SOL     OW33853   0.524   1.736   2.038 -0.9374 -0.1614 -0.3641
 7465SOL    HW133854   0.518   1.747   2.133 -2.4256 -2.3998 -0.1914
 7465SOL    HW233855   0.616   1.757   2.024 -1.3094  0.8535 -1.3041
 7466SOL     OW33856   1.333   0.759   3.974  0.3328  0.1653  0.2521
 7466SOL    HW133857   1.345   0.746   3.880  2.0007  0.7074  0.3896
 7466SOL    HW233858   1.359   0.852   3.972 -0.0719  0.2808  0.3932
 7467SOL     OW33859   4.090   2.290   2.358 -0.2387  0.6445  0.4724
 7467SOL    HW133860   4.051   2.209   2.391 -0.0154  1.5352  2.9176
 7467SOL    HW233861   4.151   2.257   2.293 -3.1581 -2.2578 -0.8046
 7468SOL     OW33862   4.559   3.643   3.586 -0.2212  0.1374  0.3752
 7468SOL    HW133863   4.488   3.604   3.535 -0.5526 -1.3763  1.9894
 7468SOL    HW233864   4.545   3.735   3.564 -0.9396  0.0417  0.4426
 7469SOL     OW33865   4.190   0.316   1.281 -0.7556  0.2427  0.3864
 7469SOL    HW133866   4.101   0.285   1.295 -0.1733 -0.3488  2.8780
 7469SOL    HW233867   4.235   0.231   1.282  3.6317  2.5532 -1.0977
 7470SOL     OW33868   1.110   1.275   5.370 -0.1974 -0.0427  0.1677
 7470SOL    HW133869   1.203   1.276   5.347  0.0975 -0.2484  1.3498
 7470SOL    HW233870   1.109   1.353   5.426  0.1090 -2.3831  3.4453
 7471SOL     OW33871   2.323   1.526  16.474 -0.0680 -0.1718  0.1199
 7471SOL    HW133872   2.332   1.480  16.557  1.0685  0.8217  0.5610
 7471SOL    HW233873   2.409   1.506  16.437  1.5411  2.8270  2.1982
 7472SOL     OW33874   0.534   3.552   7.020  0.0637 -0.0165 -0.1839
 7472SOL    HW133875   0.578   3.584   6.942  0.5805  1.1650  0.5994
 7472SOL    HW233876   0.605   3.555   7.084  0.4171 -0.5906 -0.5427
 7473SOL     OW33877   3.098   1.059   3.368 -0.0433 -0.0719  0.1297
 7473SOL    HW133878   3.148   1.022   3.440  1.6384  1.2477 -0.3576
 7473SOL    HW233879   3.161   1.051   3.296  1.7804 -2.8384  2.0414
 7474SOL     OW33880   4.450   0.502   3.997 -0.1877 -0.6616 -0.7035
 7474SOL    HW133881   4.452   0.534   4.087  0.0986  0.5257 -1.1257
 7474SOL    HW233882   4.398   0.565   3.947  1.5471  1.0109 -0.4390
 7475SOL     OW33883   1.100   0.689  11.700  0.3247 -0.0304  0.1762
 7475SOL    HW133884   1.094   0.731  11.785 -1.9764  0.6953 -0.3597
 7475SOL    HW233885   1.105   0.596  11.724  0.5333 -0.1337 -0.2571
 7476SOL     OW33886   3.282   1.555  13.439  0.4686  0.0592 -0.1326
 7476SOL    HW133887   3.350   1.490  13.420 -0.3893 -0.8283 -0.1790
 7476SOL    HW233888   3.301   1.623  13.374 -0.7764 -0.2178 -0.7804
 7477SOL     OW33889   0.035   4.518  14.199  0.1201  0.1718 -0.0374
 7477SOL    HW133890   0.106   4.456  14.216  1.0572  0.5941 -2.3507
 7477SOL    HW233891   0.057   4.594  14.253  2.2320  0.1587 -0.8589
 7478SOL     OW33892   2.401   2.790   5.972 -0.1598  0.3862 -0.5935
 7478SOL    HW133893   2.355   2.756   6.048 -0.4756  1.3584 -0.3567
 7478SOL    HW233894   2.346   2.867   5.960  3.5131  3.4176  2.1798
 7479SOL     OW33895   4.448   4.371   4.508  0.5322 -0.1320 -0.1471
 7479SOL    HW133896   4.368   4.359   4.558 -1.4939  0.5706 -3.1760
 7479SOL    HW233897   4.440   4.305   4.439 -0.0297  0.8224 -0.9979
 7480SOL     OW33898   3.419   4.514   3.677 -0.0058  0.5500 -0.0851
 7480SOL    HW133899   3.379   4.600   3.674 -1.0968  0.1665  3.2814
 7480SOL    HW233900   3.349   4.452   3.696 -0.5519  0.9632 -0.7612
 7481SOL     OW33901   1.604   4.243   2.746  0.3709 -0.3446 -0.2875
 7481SOL    HW133902   1.607   4.332   2.710  1.4684 -0.9094 -1.6212
 7481SOL    HW233903   1.667   4.192   2.695 -2.4072 -0.6986 -3.3593
 7482SOL     OW33904   0.586   4.169   3.017  0.2701  0.4682  0.0657
 7482SOL    HW133905   0.503   4.212   2.998  1.8370  3.3598 -0.2867
 7482SOL    HW233906   0.644   4.234   3.056 -0.3855 -0.5328  2.6971
 7483SOL     OW33907   1.905   0.202  10.127 -0.5221  0.2306 -0.2918
 7483SOL    HW133908   1.949   0.177  10.045 -0.7881  0.3429 -0.4649
 7483SOL    HW233909   1.814   0.200  10.098 -0.4296 -0.1408 -0.5628
 7484SOL     OW33910   0.124   4.626   9.113 -0.1327 -0.7368  0.2059
 7484SOL    HW133911   0.157   4.554   9.167  1.6005 -0.0032  0.1111
 7484SOL    HW233912   0.045   4.584   9.078 -1.0637  0.2289  1.1486
 7485SOL     OW33913   4.478   4.351   2.318  0.2532  0.2969  0.1935
 7485SOL    HW133914   4.565   4.342   2.277  0.9900 -0.0592  1.8180
 7485SOL    HW233915   4.491   4.414   2.389 -1.7248  0.3605  0.4872
 7486SOL     OW33916   1.909   1.897   6.676 -0.4423 -0.1394  0.4105
 7486SOL    HW133917   1.814   1.911   6.682 -0.2969  1.2043 -0.3892
 7486SOL    HW233918   1.935   1.930   6.590 -1.1171  1.7351  0.9247
 7487SOL     OW33919   2.741   2.303   7.100  0.3485  0.1112 -0.5417
 7487SOL    HW133920   2.806   2.353   7.149 -0.1037 -0.2570  0.4508
 7487SOL    HW233921   2.667   2.310   7.161  0.5434  1.1378 -0.4233
 7488SOL     OW33922   0.676   1.230   7.397 -0.1023  0.3484  0.1459
 7488SOL    HW133923   0.757   1.231   7.447 -0.1858 -0.8413  0.3148
 7488SOL    HW233924   0.613   1.216   7.469 -1.7147  1.9191 -0.9545
 7489SOL     OW33925   0.096   1.795  11.925  0.2422 -0.0548 -0.4078
 7489SOL    HW133926   0.165   1.751  11.875 -0.3920 -0.1518 -1.1999
 7489SOL    HW233927   0.040   1.829  11.854  0.8625  1.4880 -0.1463
 7490SOL     OW33928   3.800   2.768   5.900  0.1736 -0.0029  0.5333
 7490SOL    HW133929   3.804   2.717   5.981 -0.8594 -1.2646 -0.2213
 7490SOL    HW233930   3.892   2.782   5.876 -0.3922  0.3096 -1.4596
 7491SOL     OW33931   0.819   0.548  12.626 -0.3942 -0.1423 -0.4248
 7491SOL    HW133932   0.893   0.505  12.669 -0.9351 -1.1656 -0.5284
 7491SOL    HW233933   0.803   0.489  12.552 -2.3237 -0.4795  0.2613
 7492SOL     OW33934   1.169   0.477   2.301 -0.2884  0.1207  0.6647
 7492SOL    HW133935   1.081   0.508   2.321 -1.6852 -1.3979 -3.1445
 7492SOL    HW233936   1.175   0.401   2.359 -0.9910 -1.0188 -0.7576
 7493SOL     OW33937   2.510   3.863   3.035  0.3031  0.8047 -0.2999
 7493SOL    HW133938   2.426   3.908   3.035 -0.9538 -1.5281  0.0885
 7493SOL    HW233939   2.570   3.924   3.079  2.0290 -0.9208 -0.2492
 7494SOL     OW33940   4.563   0.384   6.120 -0.0070  0.2975  0.3768
 7494SOL    HW133941   4.569   0.410   6.028  0.4881 -0.8794  0.0780
 7494SOL    HW233942   4.538   0.467   6.162  0.9373 -0.6259  2.7598
 7495SOL     OW33943   0.755   3.550   6.269  0.5396 -0.1763  0.0386
 7495SOL    HW133944   0.685   3.579   6.211  1.2318  0.6664 -0.3688
 7495SOL    HW233945   0.716   3.480   6.321  1.2308 -0.0045  0.7756
 7496SOL     OW33946   3.888   0.119   9.366 -0.3892  0.6815 -0.2196
 7496SOL    HW133947   3.980   0.118   9.395  0.0440  1.6951 -1.5514
 7496SOL    HW233948   3.870   0.213   9.364 -0.2703  0.7051 -0.2155
 7497SOL     OW33949   3.196   1.871  10.518 -0.0681  0.0951  0.1895
 7497SOL    HW133950   3.222   1.897  10.429 -4.0309  0.2855 -0.9039
 7497SOL    HW233951   3.101   1.873  10.512 -0.1893  0.2800  2.3881
 7498SOL     OW33952   2.617   0.624   1.536 -0.0514  0.4317 -0.2001
 7498SOL    HW133953   2.712   0.614   1.527  0.0046  0.4403  0.3833
 7498SOL    HW233954   2.599   0.550   1.593  0.6765 -0.2171 -0.8120
 7499SOL     OW33955   0.140   1.096   0.263 -0.3583  1.0679  0.6075
 7499SOL    HW133956   0.119   1.161   0.196  2.7854 -0.4893 -1.8686
 7499SOL    HW233957   0.229   1.082   0.232 -0.6588 -0.8797  0.5820
 7500SOL     OW33958   3.907   3.947  10.752 -0.2942 -0.1302  0.2933
 7500SOL    HW133959   3.917   3.962  10.658  0.3235 -0.3204  0.3258
 7500SOL    HW233960   3.819   3.982  10.762  0.8718  2.8963 -0.0073
 7501SOL     OW33961   2.982   1.152  14.363  0.0107 -0.2034  0.3790
 7501SOL    HW133962   2.951   1.068  14.330 -0.2704  0.8874 -2.1431
 7501SOL    HW233963   2.932   1.173  14.441  1.1756 -0.6744  1.2480
 7502SOL     OW33964   3.612   3.135  12.796 -0.8500  0.3348  0.5303
 7502SOL    HW133965   3.617   3.203  12.728 -0.7898 -0.8218 -0.6191
 7502SOL    HW233966   3.602   3.185  12.877  1.2204  1.6883 -0.0548
 7503SOL     OW33967   1.212   0.592   3.001  0.0104  0.1156  0.0220
 7503SOL    HW133968   1.182   0.594   2.910 -0.0430 -0.1079  0.0344
 7503SOL    HW233969   1.189   0.502   3.024  1.5479 -0.6618 -1.4342
 7504SOL     OW33970   0.297   2.133   9.310  0.2963  0.0910 -0.2876
 7504SOL    HW133971   0.357   2.197   9.347 -1.3740 -0.5573  3.6175
 7504SOL    HW233972   0.321   2.054   9.359  0.9528 -0.2368 -1.1511
 7505SOL     OW33973   1.036   3.561   4.648  0.0754 -0.6871 -0.2553
 7505SOL    HW133974   1.058   3.541   4.557  2.8912 -2.8109  0.8725
 7505SOL    HW233975   0.941   3.566   4.650  0.1756  1.0407  0.0875
 7506SOL     OW33976   0.981   3.608   9.194 -0.9409 -0.0690  0.0944
 7506SOL    HW133977   0.894   3.569   9.195 -1.3456  0.8285 -0.2430
 7506SOL    HW233978   0.963   3.702   9.199  1.5174  0.3843  0.3268
 7507SOL     OW33979   4.450   1.674   5.855 -0.1248 -0.2005  0.1423
 7507SOL    HW133980   4.532   1.722   5.872  0.0527 -0.7447  0.8519
 7507SOL    HW233981   4.394   1.703   5.927 -0.3626 -0.3056 -0.0025
 7508SOL     OW33982   4.007   1.693   2.921  0.9600 -0.3522 -0.0346
 7508SOL    HW133983   4.028   1.650   2.838  3.4373 -1.5529  1.2279
 7508SOL    HW233984   3.987   1.618   2.977 -2.5734  1.1497  0.7470
 7509SOL     OW33985   2.475   3.065  16.991  0.3948 -0.4546 -0.4618
 7509SOL    HW133986   2.520   3.042  17.073  1.2060 -2.6634 -1.5059
 7509SOL    HW233987   2.409   2.996  16.985 -1.2439  1.1827 -1.1097
 7510SOL     OW33988   4.509   0.530   6.767 -0.1161 -0.2750 -0.1343
 7510SOL    HW133989   4.569   0.545   6.694 -0.6838  0.9638 -0.3445
 7510SOL    HW233990   4.467   0.616   6.766  0.1195 -0.1641 -0.8108
 7511SOL     OW33991   4.471   0.238   6.614  0.4212 -0.7542 -0.4813
 7511SOL    HW133992   4.549   0.243   6.670 -0.0601  1.0890  0.0074
 7511SOL    HW233993   4.422   0.315   6.640  1.3012 -0.6954  0.9787
 7512SOL     OW33994   3.387   1.414   4.609  0.9685 -0.2147  0.3837
 7512SOL    HW133995   3.298   1.444   4.627  0.8448 -1.0668  1.2061
 7512SOL    HW233996   3.421   1.486   4.556 -0.1205 -0.8795 -1.2072
 7513SOL     OW33997   2.167   2.784   2.590 -0.3518 -0.4300 -0.0585
 7513SOL    HW133998   2.090   2.766   2.643 -1.0753 -1.9257 -1.6308
 7513SOL    HW233999   2.109   2.828   2.527 -0.0843  0.8986  0.6111
 7514SOL     OW34000   0.828   2.760   2.794  0.2321 -0.7999 -0.1313
 7514SOL    HW134001   0.900   2.750   2.857  1.3500  0.4446 -1.2117
 7514SOL    HW234002   0.786   2.833   2.839 -0.3541  0.3391 -2.4918
 7515SOL     OW34003   0.584   2.322   3.150 -0.3833 -0.1256 -0.1336
 7515SOL    HW134004   0.630   2.280   3.077  0.2101 -2.0805  1.3638
 7515SOL    HW234005   0.568   2.408   3.111  1.3835  2.0286  3.9259
 7516SOL     OW34006   4.605   3.160   7.796 -0.4417  0.4482  0.4502
 7516SOL    HW134007   4.663   3.113   7.856  0.0043  2.1511  1.3672
 7516SOL    HW234008   4.576   3.086   7.742 -1.6509 -0.4912  2.3797
 7517SOL     OW34009   3.353   2.623   0.851 -0.0075 -0.2797 -0.7722
 7517SOL    HW134010   3.342   2.670   0.769 -3.8591 -0.3017 -0.2920
 7517SOL    HW234011   3.269   2.579   0.869  1.3132 -1.7618  1.7873
 7518SOL     OW34012   4.587   0.147   6.054 -0.2562  0.1011  0.1159
 7518SOL    HW134013   4.596   0.170   5.961  2.4114  1.4148  0.7155
 7518SOL    HW234014   4.590   0.237   6.087  0.4477  0.1480 -0.0744
 7519SOL     OW34015   3.396   2.804   4.961  0.2466 -0.3865 -0.3993
 7519SOL    HW134016   3.413   2.844   5.047  1.1491 -1.3694 -0.1154
 7519SOL    HW234017   3.379   2.889   4.921  0.4393 -0.3812 -0.4730
 7520SOL     OW34018   4.457   2.019   4.953 -0.3697  0.0935 -0.3864
 7520SOL    HW134019   4.517   1.945   4.956 -0.3296  0.1551  0.4620
 7520SOL    HW234020   4.369   1.981   4.943 -0.4323  0.5744 -1.7024
 7521SOL     OW34021   4.377   0.555   4.260  0.9249 -0.1098  0.3771
 7521SOL    HW134022   4.417   0.626   4.311  1.9050  0.1498 -0.7617
 7521SOL    HW234023   4.288   0.566   4.295 -0.0578  0.7761 -2.4013
 7522SOL     OW34024   3.045   0.700   9.071  0.3651  0.3870 -0.2973
 7522SOL    HW134025   3.026   0.793   9.057  0.7970  1.0508  3.5170
 7522SOL    HW234026   3.117   0.695   9.135 -0.4002 -0.0675  0.5241
 7523SOL     OW34027   2.396   4.637  15.810 -0.2192 -0.2223 -0.8242
 7523SOL    HW134028   2.491   4.628  15.820 -0.3395 -0.6596 -0.0737
 7523SOL    HW234029   2.360   4.649  15.898 -0.8770  2.7800 -1.5029
 7524SOL     OW34030   4.324   0.514   8.613  0.1018 -0.4249 -0.6487
 7524SOL    HW134031   4.409   0.525   8.570  1.3008 -0.9953  1.5066
 7524SOL    HW234032   4.354   0.497   8.703  2.2989 -0.4522 -1.3818
 7525SOL     OW34033   2.552   1.846   6.105  0.4141  0.3931  0.0279
 7525SOL    HW134034   2.524   1.843   6.014  0.5531  1.2788 -0.0412
 7525SOL    HW234035   2.641   1.811   6.103  0.7046  1.0929  0.4135
 7526SOL     OW34036   4.243   0.213   0.929 -0.6830 -0.3533  0.2510
 7526SOL    HW134037   4.273   0.208   0.838 -1.5170 -1.1202  0.0238
 7526SOL    HW234038   4.323   0.172   0.964 -0.7747 -0.9503 -0.2481
 7527SOL     OW34039   2.178   3.875  15.912  0.2513 -0.7208 -0.0796
 7527SOL    HW134040   2.184   3.841  15.823  0.3972  1.1982 -0.8156
 7527SOL    HW234041   2.209   3.799  15.961  1.9384  0.2628  0.3656
 7528SOL     OW34042   3.316   3.077   1.264 -0.0787  0.4056 -0.2423
 7528SOL    HW134043   3.269   3.109   1.340 -0.9601  1.2684 -1.1584
 7528SOL    HW234044   3.403   3.074   1.305  0.8328 -3.3149 -2.4512
 7529SOL     OW34045   4.191   0.087   2.423 -0.0750 -0.2024  0.2875
 7529SOL    HW134046   4.168   4.718   2.420  0.0004 -0.1945 -0.5217
 7529SOL    HW234047   4.275   0.075   2.468  1.0455 -2.4267 -2.4373
 7530SOL     OW34048   4.607   2.148   1.489 -0.0572  0.0746  0.1878
 7530SOL    HW134049   4.524   2.197   1.487  0.7957  1.6575  3.3436
 7530SOL    HW234050   4.630   2.141   1.397 -0.6919  0.8416 -0.0380
 7531SOL     OW34051   3.742   2.828   3.588 -0.0548  0.3963  0.0588
 7531SOL    HW134052   3.769   2.796   3.502 -0.1047  2.7242 -0.8285
 7531SOL    HW234053   3.663   2.875   3.561  0.7845  0.2386 -2.6476
 7532SOL     OW34054   3.759   4.546   6.053  0.4889  0.4978  0.0119
 7532SOL    HW134055   3.693   4.614   6.038  1.0940  0.9825 -0.4110
 7532SOL    HW234056   3.802   4.574   6.133 -0.7172  1.4560  0.3264
 7533SOL     OW34057   4.307   3.281  11.161  0.0281  0.0698 -0.1258
 7533SOL    HW134058   4.247   3.313  11.093 -1.1663  0.1979  0.9657
 7533SOL    HW234059   4.246   3.220  11.203  0.9699 -1.7170 -1.3875
 7534SOL     OW34060   2.507   4.276  13.725 -0.3652  0.0939  0.1785
 7534SOL    HW134061   2.473   4.187  13.737 -0.4407 -0.0262 -0.9468
 7534SOL    HW234062   2.596   4.267  13.761 -0.0554 -0.0039 -0.6186
 7535SOL     OW34063   3.353   2.689  11.330 -0.2917  0.9212  0.2515
 7535SOL    HW134064   3.387   2.600  11.334  0.5876  1.2051 -0.8811
 7535SOL    HW234065   3.262   2.675  11.355 -0.7417  0.8477 -1.4572
 7536SOL     OW34066   2.318   1.016   0.301  0.1922  0.4600 -0.2738
 7536SOL    HW134067   2.337   1.075   0.375 -0.2745 -0.0018  0.2125
 7536SOL    HW234068   2.402   1.024   0.257  0.4291 -0.1349  0.0667
 7537SOL     OW34069   3.099   4.008   5.887 -0.2638  0.3732  0.2418
 7537SOL    HW134070   3.085   4.102   5.898 -0.0606  0.4145  0.1471
 7537SOL    HW234071   3.072   3.998   5.795 -0.6415 -1.2879  0.5327
 7538SOL     OW34072   2.809   4.444   3.531 -0.2952  0.3147  0.1638
 7538SOL    HW134073   2.854   4.524   3.556 -0.1436  0.4487 -0.5558
 7538SOL    HW234074   2.861   4.373   3.570  0.2333  0.4093 -0.3818
 7539SOL     OW34075   1.318   0.290   2.138 -0.0240  0.8135  0.3453
 7539SOL    HW134076   1.349   0.300   2.048  0.3661  3.7741  0.7932
 7539SOL    HW234077   1.264   0.367   2.154 -1.0093  0.0686  0.5696
 7540SOL     OW34078   4.234   0.621   1.927 -1.1217 -0.4760  0.0038
 7540SOL    HW134079   4.245   0.569   1.847 -2.0727  1.9487 -1.6995
 7540SOL    HW234080   4.140   0.612   1.942 -1.8545  1.6521 -3.4291
 7541SOL     OW34081   0.545   4.662   1.317  0.7821  0.0521  0.2247
 7541SOL    HW134082   0.551   4.694   1.407  0.8664  0.9207 -0.0935
 7541SOL    HW234083   0.529   0.010   1.256 -0.3222 -0.2751  0.1341
 7542SOL     OW34084   3.622   2.179   6.794  0.4287 -0.1942 -0.3455
 7542SOL    HW134085   3.647   2.249   6.733 -0.1778  0.7974  0.5554
 7542SOL    HW234086   3.580   2.118   6.734 -1.0206  0.9959 -0.5475
 7543SOL     OW34087   2.045   0.933   0.969 -0.2658 -0.1564 -0.3640
 7543SOL    HW134088   2.094   0.872   0.914 -0.4294  0.2966 -1.0022
 7543SOL    HW234089   2.122   0.979   1.002 -2.0185 -1.1059  5.0879
 7544SOL     OW34090   4.679   1.251   0.645 -0.7372 -0.4654  0.2141
 7544SOL    HW134091   4.667   1.313   0.573 -0.3157  0.8875  1.3033
 7544SOL    HW234092   4.590   1.259   0.681 -0.0560  2.1352  1.2963
 7545SOL     OW34093   0.356   2.336   4.901  0.3439 -0.4349  0.0111
 7545SOL    HW134094   0.425   2.400   4.883 -1.0866  0.7740 -1.0732
 7545SOL    HW234095   0.384   2.311   4.989  2.7478 -0.5279 -0.7896
 7546SOL     OW34096   3.802   2.584   5.119  0.1713 -0.1252 -0.0359
 7546SOL    HW134097   3.891   2.574   5.086  0.4454  1.2390  0.2808
 7546SOL    HW234098   3.809   2.662   5.175  1.5513 -0.6807  0.5629
 7547SOL     OW34099   4.190   0.397  16.930  1.0216  0.2027  0.0015
 7547SOL    HW134100   4.174   0.309  16.897 -0.5807 -0.7998  3.4688
 7547SOL    HW234101   4.104   0.414  16.967  0.5063 -0.6021 -0.8258
 7548SOL     OW34102   1.620   0.908   6.312 -0.2013 -0.6377  0.0400
 7548SOL    HW134103   1.595   0.866   6.394 -0.4988  0.8615  0.7179
 7548SOL    HW234104   1.599   0.999   6.335  2.6170  0.4089 -1.5146
 7549SOL     OW34105   4.670   4.710   0.853 -0.8981 -0.0315  0.2164
 7549SOL    HW134106   0.027   4.659   0.846 -0.9345  0.0629 -0.9488
 7549SOL    HW234107   4.664   0.008   0.760  0.6717 -0.6229 -0.0403
 7550SOL     OW34108   2.259   2.835  12.720 -0.3238 -0.4906 -0.0026
 7550SOL    HW134109   2.324   2.853  12.787 -1.3435 -2.0642  1.4379
 7550SOL    HW234110   2.185   2.817  12.778 -0.9520 -0.5193 -0.8136
 7551SOL     OW34111   3.034   1.011   5.155  0.3405  0.1474 -0.0362
 7551SOL    HW134112   3.118   0.970   5.137 -0.4330 -1.9442  1.0517
 7551SOL    HW234113   2.969   0.942   5.142  0.7942 -0.5325  1.3256
 7552SOL     OW34114   2.977   2.077   1.450  0.1593 -0.4349 -0.1766
 7552SOL    HW134115   2.932   2.084   1.534  1.6977  0.8792  0.5312
 7552SOL    HW234116   3.051   2.021   1.473  0.1637 -0.0758  0.6700
 7553SOL     OW34117   4.417   0.091   9.792 -0.1160 -0.0093 -0.4344
 7553SOL    HW134118   4.391   0.001   9.772 -0.8529  0.1541 -0.2278
 7553SOL    HW234119   4.377   0.100   9.879  1.1618  0.4390  0.1065
 7554SOL     OW34120   1.287   0.840   6.772 -0.5494 -0.3312 -0.4648
 7554SOL    HW134121   1.250   0.886   6.847 -1.0343 -1.3574 -0.0924
 7554SOL    HW234122   1.236   0.760   6.781 -0.7640 -0.4400 -2.5312
 7555SOL     OW34123   2.892   4.250   7.290  0.2672 -0.0622  0.2247
 7555SOL    HW134124   2.978   4.211   7.301  1.6193  2.8295 -0.1715
 7555SOL    HW234125   2.872   4.218   7.202 -1.1740 -0.1188  0.5620
 7556SOL     OW34126   3.128   2.435   0.828 -0.5541  0.0368 -0.0217
 7556SOL    HW134127   3.106   2.370   0.762 -1.5656  1.5926 -1.1946
 7556SOL    HW234128   3.183   2.378   0.883 -1.1683  0.8832  1.4542
 7557SOL     OW34129   0.310   0.049   5.506 -0.2888  0.5131 -0.0858
 7557SOL    HW134130   0.309   0.032   5.600 -2.4547  0.9802 -0.0102
 7557SOL    HW234131   0.304   0.145   5.503  0.8005  0.6300  1.6913
 7558SOL     OW34132   3.626   0.050   8.419  0.3777 -0.2070  0.0097
 7558SOL    HW134133   3.568   4.701   8.442 -0.9030  0.4315 -1.1637
 7558SOL    HW234134   3.691   0.048   8.489  0.5539  1.1817 -0.1109
 7559SOL     OW34135   4.643   3.999   7.880  0.4205 -0.0362  0.1773
 7559SOL    HW134136   4.683   3.913   7.894 -0.3043 -0.9960 -3.5366
 7559SOL    HW234137   4.631   4.003   7.785 -1.2713  0.7555  0.4219
 7560SOL     OW34138   2.056   3.224  14.970  0.0169  0.3031 -0.2238
 7560SOL    HW134139   2.139   3.234  14.924 -0.2712  1.6154 -0.4723
 7560SOL    HW234140   2.042   3.316  14.995 -0.2053  0.1947  0.0493
 7561SOL     OW34141   2.829   0.756   8.362  0.4534  0.0379  0.0498
 7561SOL    HW134142   2.784   0.728   8.282  1.2368 -1.8708  0.2781
 7561SOL    HW234143   2.778   0.834   8.383 -0.3553 -0.1472 -1.2384
 7562SOL     OW34144   4.047   0.902   2.268 -0.0353 -0.8950 -0.1061
 7562SOL    HW134145   3.954   0.918   2.251 -0.1131  0.8295  1.9138
 7562SOL    HW234146   4.070   0.995   2.274 -0.9545 -0.7632  1.4462
 7563SOL     OW34147   0.380   3.934   4.521 -0.0394  0.8280  0.4921
 7563SOL    HW134148   0.463   3.979   4.537 -0.6899  2.0544  0.4309
 7563SOL    HW234149   0.327   4.012   4.542 -1.2227  0.5188 -1.3615
 7564SOL     OW34150   3.912   3.339  12.211 -0.2361 -0.0877 -0.6659
 7564SOL    HW134151   3.852   3.397  12.164  0.7414  0.8188 -0.8257
 7564SOL    HW234152   3.960   3.291  12.143 -0.7291  0.7982 -1.6419
 7565SOL     OW34153   2.369   3.839   0.285  0.5213  0.0616 -0.1765
 7565SOL    HW134154   2.434   3.785   0.329 -1.6346 -3.1523 -0.8741
 7565SOL    HW234155   2.299   3.775   0.269 -0.8156  1.8613 -1.5574
 7566SOL     OW34156   3.298   3.888  13.995 -0.5973  0.2586  0.0081
 7566SOL    HW134157   3.313   3.917  14.085  1.0834  1.2026 -0.5700
 7566SOL    HW234158   3.213   3.926  13.973 -0.1198  2.0934  1.2817
 7567SOL     OW34159   0.208   1.205  15.823 -0.6112 -0.5627  0.0095
 7567SOL    HW134160   0.142   1.168  15.764  0.3879 -1.1614 -0.7442
 7567SOL    HW234161   0.269   1.131  15.826  0.9843  0.8581  2.5730
 7568SOL     OW34162   3.192   3.470   7.578  0.3047 -0.2320 -0.3943
 7568SOL    HW134163   3.175   3.390   7.528 -1.8550  0.2266 -0.3761
 7568SOL    HW234164   3.274   3.449   7.623 -0.8893 -0.7346  1.5574
 7569SOL     OW34165   3.567   4.480   8.505 -0.1708 -0.3553 -0.1504
 7569SOL    HW134166   3.650   4.445   8.536  0.9165  3.4098  1.1240
 7569SOL    HW234167   3.518   4.502   8.584  2.4564 -0.1144  1.4030
 7570SOL     OW34168   2.195   4.153  12.303 -0.4466 -0.6088  0.0808
 7570SOL    HW134169   2.214   4.224  12.364  2.2190 -0.6290 -0.7486
 7570SOL    HW234170   2.232   4.077  12.349  0.5498 -0.8740 -1.1727
 7571SOL     OW34171   3.103   1.883   1.800 -0.2972 -0.7488  0.3338
 7571SOL    HW134172   3.179   1.825   1.803 -0.2944 -0.7784 -0.4544
 7571SOL    HW234173   3.134   1.926   1.721  0.7388 -2.8949 -0.4103
 7572SOL     OW34174   3.733   2.557   6.050  0.3591  0.2830 -0.3199
 7572SOL    HW134175   3.638   2.548   6.053  0.4802 -0.8891  0.1871
 7572SOL    HW234176   3.739   2.574   6.144  0.7321  2.3002 -0.6969
 7573SOL     OW34177   2.384   4.250  11.788 -0.3445  0.4917 -0.1804
 7573SOL    HW134178   2.308   4.308  11.789  0.7724  1.9683 -1.4076
 7573SOL    HW234179   2.349   4.194  11.857  0.9967 -0.6642 -0.4426
 7574SOL     OW34180   2.463   0.748   4.002  0.0745  0.5894  0.7057
 7574SOL    HW134181   2.379   0.703   4.013  0.0547  0.6457  0.7842
 7574SOL    HW234182   2.447   0.799   3.922 -1.8963  0.2792  0.9182
 7575SOL     OW34183   1.784   2.808  13.125  0.5338 -0.5166 -0.1685
 7575SOL    HW134184   1.823   2.895  13.127 -1.4481  0.3173  2.2166
 7575SOL    HW234185   1.819   2.771  13.044  1.3025  0.4450 -0.2708
 7576SOL     OW34186   4.466   2.779   9.374  0.2840  0.4806  0.3326
 7576SOL    HW134187   4.500   2.732   9.451  0.7723 -1.4777 -1.0894
 7576SOL    HW234188   4.449   2.865   9.414  3.0419  0.5209  1.4673
 7577SOL     OW34189   2.237   2.059   6.112 -0.3060 -0.0081  0.1095
 7577SOL    HW134190   2.206   2.103   6.032  0.3503 -0.4241 -0.3697
 7577SOL    HW234191   2.331   2.044   6.098 -0.3144  1.3553 -1.4467
 7578SOL     OW34192   2.874   1.788  17.393  0.0296 -0.2510  0.5943
 7578SOL    HW134193   2.811   1.718  17.375  0.6395 -0.2664 -1.4633
 7578SOL    HW234194   2.854   1.855  17.328 -0.6696  0.3980  1.4945
 7579SOL     OW34195   0.773   4.706   7.362 -0.3968 -0.4378 -0.1218
 7579SOL    HW134196   0.806   4.623   7.395 -1.8075 -0.2898  1.6497
 7579SOL    HW234197   0.786   4.717   7.267 -2.3212 -1.5781 -0.5197
 7580SOL     OW34198   3.944   4.482   5.640  0.0115  0.1003  0.3534
 7580SOL    HW134199   3.973   4.392   5.623 -2.2559 -1.1588  3.1667
 7580SOL    HW234200   3.955   4.486   5.735 -0.2155  1.6134  0.3129
 7581SOL     OW34201   3.748   3.740  14.240  0.3726  0.1465  0.3447
 7581SOL    HW134202   3.717   3.831  14.239  3.7006  1.2606 -0.8320
 7581SOL    HW234203   3.666   3.699  14.269  2.4337 -2.9282  1.7958
 7582SOL     OW34204   4.423   0.058   4.848 -1.1366 -0.2400  0.2034
 7582SOL    HW134205   4.465   4.698   4.831 -1.0571  0.1999 -1.7666
 7582SOL    HW234206   4.345   0.035   4.799 -0.9324 -0.1763 -0.1531
 7583SOL     OW34207   3.691   3.805   7.082 -0.6303  0.4989  0.0095
 7583SOL    HW134208   3.608   3.800   7.129  0.2241 -0.0322  1.4633
 7583SOL    HW234209   3.728   3.725   7.118 -1.3137  0.3724  0.4393
 7584SOL     OW34210   1.490   0.809   2.403  0.9858 -0.2548 -0.1960
 7584SOL    HW134211   1.478   0.717   2.379 -1.0420  0.0944 -0.5309
 7584SOL    HW234212   1.559   0.840   2.345  1.5616 -2.0774 -0.4917
 7585SOL     OW34213   2.979   3.458  15.380 -0.4235 -0.3357  0.4576
 7585SOL    HW134214   3.022   3.440  15.296 -0.2901  0.2215  0.4129
 7585SOL    HW234215   3.047   3.462  15.446 -2.4413  0.6473  2.4841
 7586SOL     OW34216   0.283   0.235   6.581 -0.3384 -0.2190 -0.2776
 7586SOL    HW134217   0.300   0.243   6.487  1.4291 -1.0829 -0.0361
 7586SOL    HW234218   0.330   0.314   6.611 -1.5461  0.5766 -0.4706
 7587SOL     OW34219   0.909   1.630  10.751 -0.9003 -0.4893  0.0922
 7587SOL    HW134220   0.875   1.544  10.775  0.0813 -0.2682  2.2803
 7587SOL    HW234221   0.911   1.620  10.656 -3.4109  3.2873 -0.3524
 7588SOL     OW34222   3.243   0.132   5.517  0.4366  0.3487 -0.2271
 7588SOL    HW134223   3.322   0.137   5.570 -1.1781  1.3128  2.0874
 7588SOL    HW234224   3.262   0.166   5.430 -1.6906 -0.3335 -0.9745
 7589SOL     OW34225   3.627   3.476   3.103  0.1520 -0.4167  0.3090
 7589SOL    HW134226   3.690   3.514   3.042  0.2077  1.7833  1.7060
 7589SOL    HW234227   3.596   3.552   3.152 -2.1585 -1.4879  0.4924
 7590SOL     OW34228   2.391   0.835   3.759 -0.1260 -0.4749 -0.4043
 7590SOL    HW134229   2.296   0.834   3.767  0.1560 -0.4718  3.0854
 7590SOL    HW234230   2.412   0.925   3.784 -0.4893 -0.7151  0.7554
 7591SOL     OW34231   4.008   4.036   8.616  0.0319  0.3411 -0.0363
 7591SOL    HW134232   4.069   4.016   8.546  2.2036  0.2354  1.8636
 7591SOL    HW234233   4.054   4.011   8.696  1.4140  2.3663 -0.1864
 7592SOL     OW34234   1.022   0.898   5.643 -0.0229  0.4595  0.1001
 7592SOL    HW134235   0.977   0.956   5.581  0.8795  2.3443  1.2274
 7592SOL    HW234236   1.090   0.859   5.587  2.5979  0.9894  2.9452
 7593SOL     OW34237   4.415   0.517  16.734  0.1193 -0.3860  0.1032
 7593SOL    HW134238   4.393   0.492  16.824  2.8652  3.3955  1.8555
 7593SOL    HW234239   4.397   0.439  16.682 -1.9457  0.2660 -0.1352
 7594SOL     OW34240   4.079   3.371   5.785 -0.6747  0.0037  0.2209
 7594SOL    HW134241   4.065   3.292   5.731  0.0831 -0.6479  0.9925
 7594SOL    HW234242   4.052   3.436   5.719 -2.2553  0.8073  1.6611
 7595SOL     OW34243   0.850   2.156  11.025 -0.2606 -0.2705 -0.3869
 7595SOL    HW134244   0.757   2.149  11.000 -0.2772 -0.3549 -0.2963
 7595SOL    HW234245   0.875   2.065  11.037  1.8214 -0.0375 -2.8869
 7596SOL     OW34246   4.579   1.642   4.686  0.3533 -0.0552 -0.1373
 7596SOL    HW134247   4.562   1.724   4.640 -1.5344 -0.8572 -0.9052
 7596SOL    HW234248   4.551   1.573   4.625  1.1501 -2.0344  1.7247
 7597SOL     OW34249   4.436   0.434   1.382 -0.4811 -0.5399  0.3378
 7597SOL    HW134250   4.479   0.351   1.362 -1.0222 -0.6499 -0.3760
 7597SOL    HW234251   4.348   0.398   1.385 -1.3568  1.7130  1.9522
 7598SOL     OW34252   1.510   1.494   1.815  0.4524 -0.2716  0.6534
 7598SOL    HW134253   1.427   1.514   1.858  0.6520  0.5857  0.6299
 7598SOL    HW234254   1.477   1.463   1.731 -0.9287  1.1451  0.6794
 7599SOL     OW34255   1.865   3.146   5.875 -0.3361 -0.6223 -0.4225
 7599SOL    HW134256   1.806   3.131   5.801  1.0169 -0.5773 -1.5088
 7599SOL    HW234257   1.794   3.129   5.936  0.2264  0.0719  0.4105
 7600SOL     OW34258   4.008   3.990   7.120  0.0109 -0.3894  0.1061
 7600SOL    HW134259   4.024   4.082   7.143  2.0990 -0.5149 -0.8684
 7600SOL    HW234260   4.070   3.974   7.049 -0.0323  0.1943 -0.0646
 7601SOL     OW34261   1.782   1.345   8.510 -0.0613 -0.3216  0.0094
 7601SOL    HW134262   1.740   1.272   8.464  0.5608  1.4499 -3.3617
 7601SOL    HW234263   1.824   1.391   8.437  1.2505 -1.6101 -0.0435
 7602SOL     OW34264   3.375   0.927   6.561  0.0564  0.0650 -0.6237
 7602SOL    HW134265   3.284   0.949   6.582  0.3811  0.6708  0.1240
 7602SOL    HW234266   3.368   0.903   6.469  0.8106  2.3140 -1.2573
 7603SOL     OW34267   0.907   4.578  11.942 -0.1714  0.0881  0.1168
 7603SOL    HW134268   0.942   4.556  11.856  0.9143 -0.5580  0.7167
 7603SOL    HW234269   0.875   4.491  11.966  1.0870 -0.2353  0.6600
 7604SOL     OW34270   1.452   0.404   7.827  0.2407  0.1347  0.5740
 7604SOL    HW134271   1.388   0.474   7.841  1.2124  0.9380  1.0199
 7604SOL    HW234272   1.389   0.335   7.805 -1.1488  1.9568 -1.1538
 7605SOL     OW34273   1.082   3.200   4.695 -0.5816  0.3553 -0.2306
 7605SOL    HW134274   1.014   3.211   4.628  0.3056 -0.3677 -1.2545
 7605SOL    HW234275   1.157   3.236   4.647  2.4782 -0.6944  3.8329
 7606SOL     OW34276   3.249   2.700   8.275  0.3553  0.0943  0.7868
 7606SOL    HW134277   3.202   2.645   8.338  0.1854 -0.1576  0.4370
 7606SOL    HW234278   3.272   2.625   8.220  1.6536 -0.0844  1.5683
 7607SOL     OW34279   3.608   0.371   6.683  0.5079  0.0073  0.2391
 7607SOL    HW134280   3.589   0.457   6.647  1.7210 -0.9972 -2.7571
 7607SOL    HW234281   3.658   0.378   6.765 -0.4979  0.7925  0.7831
 7608SOL     OW34282   2.170   1.361   0.700 -0.2458 -0.4700  0.2958
 7608SOL    HW134283   2.266   1.358   0.705 -0.2207  0.5346  0.4345
 7608SOL    HW234284   2.150   1.303   0.626  1.9346  1.5743 -1.8957
 7609SOL     OW34285   1.471   3.003  14.871 -0.3810 -0.5224 -0.3276
 7609SOL    HW134286   1.542   2.953  14.910  0.5219  0.1808 -1.0805
 7609SOL    HW234287   1.424   2.923  14.847 -0.4692 -0.5111 -0.1945
 7610SOL     OW34288   3.451   2.923  13.872  0.1409 -0.3431  0.1833
 7610SOL    HW134289   3.455   2.833  13.839  0.2959 -0.5145  0.6653
 7610SOL    HW234290   3.532   2.932  13.922 -0.0535  1.3087  0.1962
 7611SOL     OW34291   4.449   2.102   6.973 -0.3577 -0.4243 -0.6588
 7611SOL    HW134292   4.389   2.034   7.007 -1.3144  0.2145 -1.0789
 7611SOL    HW234293   4.524   2.095   7.033 -0.9932  0.0516  0.1949
 7612SOL     OW34294   2.513   4.483   9.077 -0.2906 -0.6169 -0.1325
 7612SOL    HW134295   2.434   4.538   9.077 -0.5974 -1.0577  0.7703
 7612SOL    HW234296   2.550   4.505   9.162  0.0594 -1.4910 -0.0625
 7613SOL     OW34297   0.082   2.221   9.085 -0.0612 -0.2718 -0.3813
 7613SOL    HW134298   0.091   2.308   9.047 -0.1731 -0.6477 -1.2593
 7613SOL    HW234299   0.021   2.168   9.034 -0.0417 -0.4644 -0.2058
 7614SOL     OW34300   0.899   1.593  10.465 -0.2499 -0.0653  0.4639
 7614SOL    HW134301   0.991   1.584  10.441  0.0620 -0.3146  1.7913
 7614SOL    HW234302   0.875   1.681  10.435  1.1194  0.5076  1.0586
 7615SOL     OW34303   4.277   2.089   9.189 -0.3233  0.0043 -0.1304
 7615SOL    HW134304   4.362   2.067   9.227 -1.1948 -3.7292 -0.3509
 7615SOL    HW234305   4.250   2.001   9.164 -0.0129 -0.3734  0.8347
 7616SOL     OW34306   1.784   1.829  16.854 -0.0534 -0.0695  0.1284
 7616SOL    HW134307   1.796   1.852  16.762  1.4503 -0.4832  0.2238
 7616SOL    HW234308   1.688   1.826  16.863  0.0158  2.3378  1.7672
 7617SOL     OW34309   0.436   1.664   0.235 -0.2070  0.4120 -0.3160
 7617SOL    HW134310   0.488   1.656   0.155  1.1592  0.6328  0.5402
 7617SOL    HW234311   0.508   1.666   0.298 -0.2109 -0.3651 -0.2905
 7618SOL     OW34312   2.740   0.579  14.416  0.2111 -0.0772  0.5093
 7618SOL    HW134313   2.674   0.648  14.418  1.1895  0.8689  0.7802
 7618SOL    HW234314   2.786   0.585  14.500  0.4334 -1.9516  0.5245
 7619SOL     OW34315   3.947   4.163   1.850 -0.1615 -0.1431 -0.3710
 7619SOL    HW134316   4.043   4.168   1.845 -0.0617 -0.7889  0.9721
 7619SOL    HW234317   3.903   4.098   1.796  0.7163 -2.3333  1.5618
 7620SOL     OW34318   1.325   0.229   6.753  0.1306  0.1367  0.7840
 7620SOL    HW134319   1.278   0.189   6.825 -1.2015  0.8573  0.3098
 7620SOL    HW234320   1.399   0.263   6.804  0.5128  0.8156 -0.2137
 7621SOL     OW34321   3.627   2.560   8.086  0.5273  0.3994  0.3615
 7621SOL    HW134322   3.701   2.617   8.065  1.7880 -1.6346 -0.6754
 7621SOL    HW234323   3.633   2.567   8.181 -0.0353  1.0718  0.3417
 7622SOL     OW34324   3.932   2.934   1.165 -0.1056  0.2881 -0.0951
 7622SOL    HW134325   3.841   2.904   1.161 -0.5430  1.6579 -0.2536
 7622SOL    HW234326   3.967   2.848   1.189  0.2813  0.6795  0.7335
 7623SOL     OW34327   2.501   0.274  11.549 -0.2979  0.0553  0.1248
 7623SOL    HW134328   2.417   0.239  11.519 -1.1414  0.9665  1.4308
 7623SOL    HW234329   2.495   0.365  11.523  0.5009  0.3187  0.8613
 7624SOL     OW34330   1.933   2.937  10.795 -0.0607 -0.1935  0.3921
 7624SOL    HW134331   1.896   3.016  10.756  0.3625 -0.4500 -0.5340
 7624SOL    HW234332   1.865   2.871  10.812  0.4146 -1.0464 -1.0301
 7625SOL     OW34333   4.549   3.178   0.771 -0.2974  0.0952 -0.3256
 7625SOL    HW134334   4.559   3.251   0.834 -0.6104  1.5781 -1.9983
 7625SOL    HW234335   4.643   3.160   0.762 -0.0773  1.3772 -0.7083
 7626SOL     OW34336   0.087   0.717  14.938 -0.2128  0.2323  0.1212
 7626SOL    HW134337   0.137   0.768  14.874 -0.6370 -0.0149 -0.4049
 7626SOL    HW234338   0.096   0.772  15.016  1.7610  1.6622 -1.0906
 7627SOL     OW34339   0.842   1.698   2.365 -0.3314 -0.7364  0.1804
 7627SOL    HW134340   0.798   1.692   2.450 -0.3796  0.6303  0.2620
 7627SOL    HW234341   0.889   1.616   2.350  1.3117  0.5079 -1.5738
 7628SOL     OW34342   3.186   3.491  11.381  0.0118  0.3392 -0.2794
 7628SOL    HW134343   3.156   3.567  11.431  2.2829  1.8185 -1.1493
 7628SOL    HW234344   3.139   3.427  11.434 -1.1851  1.0957 -0.4225
 7629SOL     OW34345   2.805   3.657   1.455 -0.0358  0.0665  0.0349
 7629SOL    HW134346   2.780   3.590   1.392  1.7074  0.7683 -1.4091
 7629SOL    HW234347   2.760   3.631   1.536 -0.3766 -2.0709 -0.8467
 7630SOL     OW34348   0.491   1.115   8.316 -0.1062  0.3943 -0.3811
 7630SOL    HW134349   0.582   1.129   8.342 -0.4430  1.2407  0.3346
 7630SOL    HW234350   0.470   1.037   8.368  1.1052  1.0883  1.1502
 7631SOL     OW34351   2.911   2.720   7.709 -0.0590 -0.3687  0.1030
 7631SOL    HW134352   2.846   2.748   7.645  1.4574  2.9396  0.0185
 7631SOL    HW234353   2.918   2.796   7.767  0.6196 -1.4335  1.4135
 7632SOL     OW34354   0.197   1.886  14.328 -0.3823 -0.1098 -0.1603
 7632SOL    HW134355   0.130   1.950  14.304  0.3284  2.1511  3.8264
 7632SOL    HW234356   0.191   1.838  14.245 -2.0097  0.0011 -0.1037
 7633SOL     OW34357   4.434   4.016   0.297 -0.6301 -0.0594 -0.3035
 7633SOL    HW134358   4.354   3.998   0.347 -0.1318 -0.8088  0.2249
 7633SOL    HW234359   4.467   3.926   0.290  1.9281  0.7573  1.4021
 7634SOL     OW34360   2.559   4.330  15.805  0.2477 -0.4046  0.4118
 7634SOL    HW134361   2.604   4.414  15.798 -3.7944  1.7576  0.3833
 7634SOL    HW234362   2.502   4.349  15.880 -1.0071 -1.1438 -0.3492
 7635SOL     OW34363   1.531   2.227   3.690 -0.0241 -0.3891 -0.3635
 7635SOL    HW134364   1.609   2.218   3.744 -2.2821 -0.3157  2.8954
 7635SOL    HW234365   1.498   2.312   3.719  1.1920 -0.2430  0.5688
 7636SOL     OW34366   3.658   0.969   3.765  0.1865 -0.1683 -0.0925
 7636SOL    HW134367   3.727   0.958   3.700 -1.2222 -2.4014 -1.2000
 7636SOL    HW234368   3.679   1.057   3.796  3.2267 -1.0345  0.3643
 7637SOL     OW34369   0.123   1.165  15.413 -0.3252 -0.0999  0.2022
 7637SOL    HW134370   0.053   1.194  15.471  0.0378  1.1156  0.0388
 7637SOL    HW234371   0.147   1.083  15.456  0.5624  0.6602  1.1725
 7638SOL     OW34372   3.915   1.938   7.571 -0.1484  0.0710  0.3820
 7638SOL    HW134373   3.967   2.013   7.601 -1.0639  1.2444 -0.9509
 7638SOL    HW234374   3.839   1.993   7.553  0.6969  0.6644 -1.4627
 7639SOL     OW34375   4.207   1.075   9.723 -0.5206  0.0643  0.0352
 7639SOL    HW134376   4.249   1.018   9.657 -0.8373  0.3452 -0.4110
 7639SOL    HW234377   4.280   1.135   9.734  0.6407 -1.5726  1.1642
 7640SOL     OW34378   0.517   2.203   6.327  0.5437 -0.3643 -0.3156
 7640SOL    HW134379   0.486   2.120   6.292 -0.3562  0.5745 -1.7590
 7640SOL    HW234380   0.564   2.165   6.401  0.0502 -0.8314 -0.2413
 7641SOL     OW34381   1.735   4.561   8.218 -0.3351  0.2802 -0.1270
 7641SOL    HW134382   1.801   4.630   8.228  1.2213 -1.2268 -0.1179
 7641SOL    HW234383   1.660   4.620   8.223 -0.6748 -0.4265  3.0116
 7642SOL     OW34384   3.467   3.457   3.894 -0.2430  0.0430 -0.4492
 7642SOL    HW134385   3.415   3.416   3.963  0.4415 -0.3570 -0.1727
 7642SOL    HW234386   3.503   3.531   3.944 -1.2050  0.6823 -0.7026
 7643SOL     OW34387   0.104   1.379   6.094 -0.1324  0.3767  0.7800
 7643SOL    HW134388   0.024   1.425   6.069  0.0388 -0.3966 -1.1247
 7643SOL    HW234389   0.085   1.327   6.172 -1.5532 -0.8588 -0.4230
 7644SOL     OW34390   1.881   3.829   9.851 -0.6076  0.2745 -0.1166
 7644SOL    HW134391   1.807   3.812   9.908  1.3190 -2.7149  1.5225
 7644SOL    HW234392   1.846   3.821   9.762 -1.6214  2.8796  0.0617
 7645SOL     OW34393   3.034   0.701   5.055 -0.4993 -0.3370  0.6107
 7645SOL    HW134394   3.065   0.735   4.971 -2.0782 -1.7124 -0.5373
 7645SOL    HW234395   3.021   0.611   5.026 -0.3312 -0.6524  1.5282
 7646SOL     OW34396   2.828   4.281  15.375 -0.2550 -0.5768  0.5498
 7646SOL    HW134397   2.781   4.231  15.308  0.6156  0.0526 -0.5418
 7646SOL    HW234398   2.765   4.267  15.446 -1.2753 -1.0791 -0.4540
 7647SOL     OW34399   2.944   4.013  16.643  0.2528  0.1506 -0.3973
 7647SOL    HW134400   2.916   4.079  16.707  1.6999  0.3141  0.0666
 7647SOL    HW234401   2.916   4.046  16.558 -1.3482 -0.7511 -0.2241
 7648SOL     OW34402   3.734   0.290   4.859 -0.1624  0.9252  0.2227
 7648SOL    HW134403   3.657   0.320   4.812  1.9931  4.1909 -1.2225
 7648SOL    HW234404   3.738   0.346   4.936  3.2699  3.8739 -2.0718
 7649SOL     OW34405   3.835   4.376   4.800 -0.0490 -0.0110 -0.3399
 7649SOL    HW134406   3.875   4.457   4.769  0.3743 -0.3823 -0.7647
 7649SOL    HW234407   3.754   4.365   4.749  0.5255 -0.1079 -1.2268
 7650SOL     OW34408   0.782   1.228   2.227  0.5705  0.1416 -0.0445
 7650SOL    HW134409   0.804   1.188   2.311 -1.1078 -0.1279  0.2638
 7650SOL    HW234410   0.753   1.316   2.251 -2.6116 -1.5585  2.3409
 7651SOL     OW34411   1.212   1.872   7.323  0.0212 -0.1127 -0.1881
 7651SOL    HW134412   1.194   1.861   7.229  0.9432 -0.7938 -0.2930
 7651SOL    HW234413   1.265   1.794   7.340 -1.0399 -0.5169  1.2134
 7652SOL     OW34414   0.803   4.447   5.192  0.4399  0.2932 -0.0001
 7652SOL    HW134415   0.843   4.360   5.187  1.3549  0.6945  0.3531
 7652SOL    HW234416   0.851   4.492   5.261  3.7471 -3.3504  0.0741
 7653SOL     OW34417   4.061   3.453  16.435  0.2888  0.3245  0.2413
 7653SOL    HW134418   4.142   3.452  16.385 -0.2337  1.3720 -0.6162
 7653SOL    HW234419   4.013   3.524  16.392  0.2302  0.0909 -0.0798
 7654SOL     OW34420   1.022   1.398   5.150  0.5169  0.0167 -0.2862
 7654SOL    HW134421   1.115   1.408   5.130  0.8587 -1.3097  0.5854
 7654SOL    HW234422   1.038   1.352   5.233  0.6462  0.3152 -0.1463
 7655SOL     OW34423   2.703   3.859  10.506  0.3852 -0.7085  0.3452
 7655SOL    HW134424   2.646   3.936  10.497  0.7467 -0.6410 -1.3162
 7655SOL    HW234425   2.636   3.797  10.534 -0.7885  0.5978  0.4371
 7656SOL     OW34426   2.711   1.825  16.154  0.2196 -0.2813 -0.0204
 7656SOL    HW134427   2.662   1.828  16.071 -1.6502 -1.6598  1.0467
 7656SOL    HW234428   2.715   1.916  16.183  0.7232 -0.2696 -0.1229
 7657SOL     OW34429   0.642   0.293   8.196  0.5839 -0.3052 -0.0536
 7657SOL    HW134430   0.659   0.303   8.290 -2.8072  0.0013  0.5544
 7657SOL    HW234431   0.618   0.200   8.195  3.0453 -0.9703  1.6057
 7658SOL     OW34432   2.174   3.913   3.838  0.2319  0.0655  0.1140
 7658SOL    HW134433   2.141   4.002   3.836  1.7968  0.6635  0.6652
 7658SOL    HW234434   2.182   3.921   3.743  1.6430  0.6188  0.2736
 7659SOL     OW34435   4.555   0.682   1.401  0.1005 -0.3256  0.1565
 7659SOL    HW134436   4.602   0.639   1.330 -0.2127 -0.9979  0.3563
 7659SOL    HW234437   4.490   0.615   1.423  0.7515 -0.7405  0.8312
 7660SOL     OW34438   3.719   0.041  16.796 -0.0207 -0.2479 -0.4609
 7660SOL    HW134439   3.810   0.025  16.821 -0.2903  0.6396  1.0654
 7660SOL    HW234440   3.721   0.042  16.700 -0.3655 -0.0851 -0.4648
 7661SOL     OW34441   3.520   3.790   9.735 -0.4868 -0.1078  0.1340
 7661SOL    HW134442   3.451   3.848   9.702  0.8053  0.7102 -1.1057
 7661SOL    HW234443   3.599   3.819   9.690 -0.9783  1.7439  0.4726
 7662SOL     OW34444   3.984   3.208  16.408 -0.3944 -0.2950  0.1173
 7662SOL    HW134445   4.035   3.178  16.333 -2.7631 -2.1459 -0.7555
 7662SOL    HW234446   4.017   3.296  16.426 -0.1131 -0.7813  1.9537
 7663SOL     OW34447   0.616   4.711   5.901  0.7741 -0.5832 -0.2445
 7663SOL    HW134448   0.583   0.068   5.864  1.9142  0.0029  0.0399
 7663SOL    HW234449   0.567   4.713   5.983  1.3260  0.1745  0.0631
 7664SOL     OW34450   1.515   2.119   3.978 -0.4559 -0.6063 -0.4931
 7664SOL    HW134451   1.500   2.028   4.002  1.5145 -0.7113  0.3162
 7664SOL    HW234452   1.432   2.157   4.008  0.4561  0.3681  0.8055
 7665SOL     OW34453   1.620   1.971   4.537  0.0086 -0.2839 -0.7624
 7665SOL    HW134454   1.567   1.982   4.616 -1.0132 -0.3840 -1.4329
 7665SOL    HW234455   1.557   1.962   4.465 -1.6023 -0.7399  0.7024
 7666SOL     OW34456   4.339   0.116   3.282  0.4456 -0.0122  0.5566
 7666SOL    HW134457   4.391   0.137   3.204 -0.7534  2.1487  0.3412
 7666SOL    HW234458   4.304   0.030   3.257 -0.7081  1.0065 -1.3016
 7667SOL     OW34459   3.783   1.302   8.667  0.1466 -0.1827  0.0138
 7667SOL    HW134460   3.872   1.275   8.692 -0.6003 -1.4542  1.2429
 7667SOL    HW234461   3.734   1.263   8.739  1.7467 -1.5553  0.3757
 7668SOL     OW34462   0.344   3.850   5.108 -0.4406  0.6154 -0.3382
 7668SOL    HW134463   0.373   3.821   5.194  0.0744  1.8701 -0.0906
 7668SOL    HW234464   0.427   3.876   5.067 -0.3375  0.9988  0.1207
 7669SOL     OW34465   4.266   4.621  16.374 -0.4931  0.3452  0.0147
 7669SOL    HW134466   4.244   4.708  16.406  1.5175  1.2290 -0.9951
 7669SOL    HW234467   4.348   4.634  16.326  0.0450 -2.1933  0.2527
 7670SOL     OW34468   0.541   0.362   7.685 -0.8087 -0.1547 -0.0089
 7670SOL    HW134469   0.580   0.446   7.709 -0.8339 -0.5906  1.5891
 7670SOL    HW234470   0.607   0.301   7.719 -0.9366 -0.0497  0.4295
 7671SOL     OW34471   4.551   2.746   4.126 -0.2175  0.4418 -0.1511
 7671SOL    HW134472   4.483   2.789   4.076 -2.7089 -2.1580  0.9577
 7671SOL    HW234473   4.529   2.655   4.103  0.4160  0.3769 -0.4910
 7672SOL     OW34474   0.181   4.477   2.911  0.1944  0.0828 -0.7853
 7672SOL    HW134475   0.247   4.536   2.874  0.5046  0.9531  1.1780
 7672SOL    HW234476   0.233   4.397   2.919 -0.7871 -0.7490 -2.7868
 7673SOL     OW34477   2.985   2.413   9.355 -0.5333  0.0582 -0.0254
 7673SOL    HW134478   3.017   2.484   9.410  0.9115  0.6695 -1.6237
 7673SOL    HW234479   2.894   2.421   9.381 -0.7564  1.2849 -1.1941
 7674SOL     OW34480   2.994   0.624   1.122 -0.0938 -0.4189 -0.0141
 7674SOL    HW134481   3.014   0.675   1.044  0.8076 -0.3513  0.2599
 7674SOL    HW234482   2.975   0.697   1.182  0.4585  0.6158 -1.0873
 7675SOL     OW34483   3.671   1.559   4.785  0.2745  0.2397 -0.0121
 7675SOL    HW134484   3.691   1.633   4.843  1.5059  0.9427 -1.3248
 7675SOL    HW234485   3.753   1.511   4.775  1.1889  1.8551 -0.3497
 7676SOL     OW34486   1.490   0.854   4.475 -0.3898  0.1512  0.0246
 7676SOL    HW134487   1.465   0.826   4.387 -0.0108 -0.3361  0.0671
 7676SOL    HW234488   1.581   0.826   4.481 -0.8643 -1.4094  0.0877
 7677SOL     OW34489   4.393   3.365   4.066  0.0960  0.1551  0.0220
 7677SOL    HW134490   4.422   3.317   3.988 -0.5452  0.2715 -0.2879
 7677SOL    HW234491   4.455   3.438   4.060 -0.0977  0.2910 -0.3486
 7678SOL     OW34492   3.809   1.171   7.325  0.3785 -0.0924  0.5609
 7678SOL    HW134493   3.893   1.177   7.280 -1.2391 -1.7758 -2.6356
 7678SOL    HW234494   3.790   1.257   7.364  2.5380  0.1835  1.0386
 7679SOL     OW34495   3.875   4.214   9.519 -0.0669  0.0296  0.4739
 7679SOL    HW134496   3.789   4.188   9.485 -0.5001  2.0666  0.0342
 7679SOL    HW234497   3.893   4.141   9.579  1.1205 -1.0244 -1.1679
 7680SOL     OW34498   0.159   3.373  16.246  0.2606 -0.2169  0.2380
 7680SOL    HW134499   0.150   3.460  16.285 -0.6183  0.9594 -2.5723
 7680SOL    HW234500   0.251   3.361  16.221  0.6042  0.3124  1.2589
 7681SOL     OW34501   1.668   3.943   6.017  0.4963  0.0201 -0.1362
 7681SOL    HW134502   1.611   3.981   5.950 -0.1226 -0.9851 -0.1908
 7681SOL    HW234503   1.715   3.879   5.963  0.2169 -0.4616  0.1855
 7682SOL     OW34504   2.809   2.361   3.847 -0.1253  0.0626 -0.0097
 7682SOL    HW134505   2.900   2.374   3.822  0.5775 -1.6460  1.6402
 7682SOL    HW234506   2.810   2.294   3.915 -1.1610 -1.2199 -1.2547
 7683SOL     OW34507   3.681   0.040  13.106 -0.4386  0.1574 -0.9287
 7683SOL    HW134508   3.772   0.053  13.134 -1.3101  1.2875  1.3906
 7683SOL    HW234509   3.699   0.028  13.013 -0.2794 -0.9555 -0.7493
 7684SOL     OW34510   3.596   3.747   8.426 -0.4804 -0.0728 -0.3578
 7684SOL    HW134511   3.578   3.771   8.335 -0.5809 -1.1443 -0.6302
 7684SOL    HW234512   3.505   3.723   8.443 -0.6448  2.4728  2.3807
 7685SOL     OW34513   2.045   4.089   3.351 -0.0234 -0.2268  0.0897
 7685SOL    HW134514   2.016   4.085   3.260  0.6172 -1.8898 -0.0559
 7685SOL    HW234515   2.135   4.110   3.327  0.2736 -0.3963  1.0368
 7686SOL     OW34516   2.701   1.337   7.766 -0.6506 -0.0107 -0.1504
 7686SOL    HW134517   2.645   1.413   7.786 -1.8425 -1.2057  1.0431
 7686SOL    HW234518   2.771   1.338   7.831  0.7005 -0.0383 -1.5838
 7687SOL     OW34519   1.427   3.087  12.625 -0.1876 -0.0679 -0.2385
 7687SOL    HW134520   1.427   3.108  12.718  3.7243  2.0057 -0.6702
 7687SOL    HW234521   1.470   3.168  12.596 -3.3054  1.0032 -1.8337
 7688SOL     OW34522   4.352   0.105   7.694 -0.2525 -0.3685  0.1853
 7688SOL    HW134523   4.359   0.010   7.687 -1.8961 -0.6700  2.4746
 7688SOL    HW234524   4.359   0.127   7.602  0.2802  0.7408  0.4921
 7689SOL     OW34525   0.245   4.166   7.781  0.8014  0.4107 -0.0844
 7689SOL    HW134526   0.173   4.227   7.764  0.1988 -0.6840 -1.4176
 7689SOL    HW234527   0.232   4.097   7.716  2.0400  0.3572 -0.2681
 7690SOL     OW34528   3.066   1.422  10.801 -0.0517  0.5144  0.1923
 7690SOL    HW134529   3.099   1.332  10.799 -1.6248 -0.0393 -1.0256
 7690SOL    HW234530   3.139   1.459  10.850 -0.8673  0.6483  1.2991
 7691SOL     OW34531   2.424   2.921   9.945  0.3588 -0.2691 -0.1927
 7691SOL    HW134532   2.352   2.953  10.000  2.0533  0.7550  1.4551
 7691SOL    HW234533   2.474   3.000   9.927  1.4484 -0.8809  0.1471
 7692SOL     OW34534   0.203   1.242   8.631  0.2760  0.5229  0.1315
 7692SOL    HW134535   0.295   1.228   8.609  0.1735 -1.6215  1.0917
 7692SOL    HW234536   0.170   1.166   8.583  0.8315  1.8842 -2.4418
 7693SOL     OW34537   3.349   2.969   1.637 -0.4207  0.4111  0.8574
 7693SOL    HW134538   3.404   2.981   1.559 -1.0376  1.0908  0.5239
 7693SOL    HW234539   3.404   3.008   1.705 -0.9378 -0.0295  1.5323
 7694SOL     OW34540   0.769   4.153   4.052  0.0257 -0.2967  0.5308
 7694SOL    HW134541   0.799   4.144   4.142 -1.8538  0.0334  1.1898
 7694SOL    HW234542   0.773   4.248   4.037  0.2205 -0.7862 -2.6350
 7695SOL     OW34543   4.172   2.896   4.644  0.0231 -0.0183 -0.1583
 7695SOL    HW134544   4.135   2.840   4.576  1.1187 -0.4132 -0.4200
 7695SOL    HW234545   4.253   2.851   4.669 -0.7788 -1.4042 -0.0527
 7696SOL     OW34546   3.469   1.819   9.599  0.7091  0.4478 -0.7375
 7696SOL    HW134547   3.451   1.859   9.684  0.9546 -1.6260  0.2868
 7696SOL    HW234548   3.503   1.732   9.622  1.1073  1.5579  2.8461
 7697SOL     OW34549   1.717   0.662   1.579 -0.1158  0.3494 -0.4111
 7697SOL    HW134550   1.681   0.674   1.491  2.1488  1.8997 -1.1007
 7697SOL    HW234551   1.766   0.743   1.587  0.2819 -0.0688  1.4668
 7698SOL     OW34552   4.056   1.201   2.292 -0.1600 -0.2838 -0.0966
 7698SOL    HW134553   3.982   1.227   2.346 -0.1762 -3.7123  1.5086
 7698SOL    HW234554   4.125   1.266   2.308 -1.5715  1.6575 -1.8087
 7699SOL     OW34555   4.650   2.213   4.949 -0.0814  0.4807  0.2758
 7699SOL    HW134556   4.693   2.182   5.029  1.6075 -0.4227 -0.9633
 7699SOL    HW234557   4.593   2.136   4.945  0.5044  0.0995 -0.7556
 7700SOL     OW34558   0.614   1.844  10.732  0.2931 -0.6994 -0.0857
 7700SOL    HW134559   0.635   1.755  10.704  0.3064 -1.3457  1.9957
 7700SOL    HW234560   0.519   1.848  10.720  0.3686 -0.0872 -0.4860
 7701SOL     OW34561   1.191   3.978  17.276  0.2133 -0.0707  0.3440
 7701SOL    HW134562   1.210   3.921  17.351 -1.0805 -0.3562  0.4529
 7701SOL    HW234563   1.132   3.917  17.231  0.9638 -1.2282  0.9211
 7702SOL     OW34564   3.016   2.122   5.803 -0.3691 -0.0520  0.1636
 7702SOL    HW134565   2.947   2.188   5.809 -0.3138  0.0212 -0.0263
 7702SOL    HW234566   3.068   2.165   5.736  2.0401  1.3062  2.9292
 7703SOL     OW34567   3.836   3.449   4.641  0.7199 -0.3517  0.6316
 7703SOL    HW134568   3.880   3.523   4.684  1.6168 -0.8817  0.6203
 7703SOL    HW234569   3.758   3.435   4.694  1.4899 -1.7562  1.4091
 7704SOL     OW34570   3.193   4.610   4.713  0.0130  0.0269 -0.2204
 7704SOL    HW134571   3.196   4.659   4.630 -1.8467  1.1767  0.3899
 7704SOL    HW234572   3.123   4.549   4.689  0.8770 -0.9841 -0.1760
 7705SOL     OW34573   0.955   1.836  17.274 -0.3275 -0.0907 -0.3418
 7705SOL    HW134574   0.882   1.865  17.329 -0.6050 -1.1394 -0.1665
 7705SOL    HW234575   1.026   1.828  17.338  0.8316 -0.6771 -1.7058
 7706SOL     OW34576   3.008   2.543  13.812  0.7484 -0.0128 -0.7824
 7706SOL    HW134577   2.973   2.628  13.784 -0.9515 -0.3805  0.2502
 7706SOL    HW234578   3.101   2.564  13.819  0.8286 -0.5949 -0.0943
 7707SOL     OW34579   0.678   2.945   4.638 -0.0585 -0.5659 -0.3926
 7707SOL    HW134580   0.726   2.937   4.721  0.0995 -0.9935 -0.5238
 7707SOL    HW234581   0.633   3.028   4.653 -1.1404 -1.5983  1.9702
 7708SOL     OW34582   1.981   0.421   1.974 -0.0333  0.8827 -0.2304
 7708SOL    HW134583   2.013   0.331   1.981  0.0134  0.8280 -1.1436
 7708SOL    HW234584   1.982   0.443   1.881 -2.6764  1.4824 -0.1188
 7709SOL     OW34585   3.315   2.627   2.791  0.3416  0.1497 -0.7615
 7709SOL    HW134586   3.237   2.675   2.820 -0.3245 -1.3389 -0.1196
 7709SOL    HW234587   3.283   2.551   2.743 -1.5828  0.9794 -0.7683
 7710SOL     OW34588   3.471   1.460   4.322  0.4116  0.5615  0.4618
 7710SOL    HW134589   3.466   1.483   4.229  2.3028 -1.0899 -0.0450
 7710SOL    HW234590   3.465   1.540   4.374  1.2187  2.6134 -2.6014
 7711SOL     OW34591   0.154   4.158   4.813 -0.1254  0.5065 -0.2453
 7711SOL    HW134592   0.081   4.219   4.825 -1.2946 -0.4486 -2.6697
 7711SOL    HW234593   0.141   4.081   4.868  1.9318  0.5110  0.2506
 7712SOL     OW34594   3.348   2.119  17.292 -0.0218  0.0415 -0.0435
 7712SOL    HW134595   3.428   2.093  17.338 -0.5549 -0.1620  0.7661
 7712SOL    HW234596   3.347   2.215  17.300 -0.6474 -0.0685  1.1659
 7713SOL     OW34597   2.010   3.649   7.665  0.9502  0.0681  0.2224
 7713SOL    HW134598   2.075   3.669   7.598  0.6437  1.0232  0.2121
 7713SOL    HW234599   1.946   3.598   7.615 -0.8898  1.0398  1.5528
 7714SOL     OW34600   3.060   0.252   8.324  0.1080  0.3545  0.1425
 7714SOL    HW134601   3.026   0.171   8.286  0.7461  0.3869 -0.4937
 7714SOL    HW234602   3.144   0.218   8.355  0.1177  0.8888  0.7080
 7715SOL     OW34603   1.545   2.081   8.034 -0.0845 -0.0304 -0.2149
 7715SOL    HW134604   1.636   2.097   8.010  0.8287  0.6734  3.7432
 7715SOL    HW234605   1.523   1.999   7.990 -0.2671 -0.5677  0.8762
 7716SOL     OW34606   3.376   3.961   9.976 -0.3439 -0.3985  0.7625
 7716SOL    HW134607   3.454   3.912   9.951 -0.8408 -0.2858 -0.9911
 7716SOL    HW234608   3.382   4.034   9.915 -1.5537 -1.5560 -0.7512
 7717SOL     OW34609   3.202   4.458   7.345  0.7196 -0.3449  0.1478
 7717SOL    HW134610   3.129   4.493   7.296  1.9205  0.0501 -1.3584
 7717SOL    HW234611   3.272   4.500   7.295 -0.7786  0.0310 -1.5808
 7718SOL     OW34612   4.090   3.276   8.885 -0.0463  0.1236  0.4563
 7718SOL    HW134613   4.035   3.351   8.865 -0.2704  0.3130  1.7740
 7718SOL    HW234614   4.098   3.291   8.979 -0.6414 -0.5618  0.6151
 7719SOL     OW34615   0.716   0.816   8.598  0.0131 -0.1359 -0.4388
 7719SOL    HW134616   0.720   0.737   8.652 -0.1100 -0.8016 -1.4133
 7719SOL    HW234617   0.750   0.890   8.648 -0.5381  0.5082 -1.0258
 7720SOL     OW34618   4.255   0.696   0.247  0.5539 -0.0204  0.2101
 7720SOL    HW134619   4.237   0.689   0.153  0.7598 -1.5600  0.2798
 7720SOL    HW234620   4.184   0.747   0.287 -0.3773 -1.2564  0.1385
 7721SOL     OW34621   2.817   3.709   7.925  0.4548  0.5183  0.1322
 7721SOL    HW134622   2.795   3.618   7.907  1.5083  0.1817  0.5470
 7721SOL    HW234623   2.911   3.703   7.907  0.5885 -0.6924  1.3223
 7722SOL     OW34624   3.385   2.325   7.453  0.1210 -0.6013  0.2208
 7722SOL    HW134625   3.380   2.392   7.385 -0.6749 -0.4514  0.4200
 7722SOL    HW234626   3.446   2.369   7.513  0.0532 -1.0942  0.6509
 7723SOL     OW34627   3.110   0.843  10.616 -0.3942 -0.1650  0.1660
 7723SOL    HW134628   3.067   0.864  10.533  1.1714 -0.4396 -0.7157
 7723SOL    HW234629   3.039   0.819  10.677 -0.2204 -0.9408  0.0564
 7724SOL     OW34630   3.099   2.456   5.455 -0.3287 -0.0794 -0.1850
 7724SOL    HW134631   3.143   2.501   5.383  0.5428 -0.1999  0.2753
 7724SOL    HW234632   3.066   2.525   5.513 -0.3577 -1.8005  1.8501
 7725SOL     OW34633   0.082   0.419   9.925  0.1444 -0.3216  0.2301
 7725SOL    HW134634   0.142   0.372   9.983 -1.1772  1.8044  3.3698
 7725SOL    HW234635   0.110   0.385   9.841 -1.1525  1.3532 -0.8876
 7726SOL     OW34636   3.984   3.856   2.291  0.4609  0.0930  0.8876
 7726SOL    HW134637   4.064   3.834   2.243  0.6706  2.2900  0.2665
 7726SOL    HW234638   3.912   3.816   2.241 -0.0501  2.9930 -0.7012
 7727SOL     OW34639   0.437   1.432   7.660 -0.5329 -0.3369  0.2702
 7727SOL    HW134640   0.391   1.484   7.595 -0.7465 -0.4095  0.3626
 7727SOL    HW234641   0.385   1.463   7.734  1.0849  1.4507  0.6841
 7728SOL     OW34642   2.941   4.451  11.115  0.1959  0.2467  0.0263
 7728SOL    HW134643   2.909   4.497  11.037  0.0415 -0.2391 -0.1967
 7728SOL    HW234644   3.003   4.509  11.157  1.0300 -1.2954  0.9214
 7729SOL     OW34645   4.170   1.485   7.257  0.1569  0.2653 -0.3236
 7729SOL    HW134646   4.260   1.453   7.261 -0.0441 -0.6398 -2.9734
 7729SOL    HW234647   4.158   1.513   7.348 -0.7526 -1.1510 -0.0096
 7730SOL     OW34648   1.615   3.417   2.309 -0.3549 -0.4887 -0.0322
 7730SOL    HW134649   1.638   3.369   2.229  1.6853  1.9271 -0.8928
 7730SOL    HW234650   1.521   3.431   2.299 -0.7254 -2.6020  0.4665
 7731SOL     OW34651   2.895   0.838   3.335  0.2438  0.6733  0.0046
 7731SOL    HW134652   2.928   0.780   3.266  0.9255  1.5469 -0.4104
 7731SOL    HW234653   2.973   0.824   3.388 -0.6457  1.2182  1.4500
 7732SOL     OW34654   1.580   2.598   8.454 -0.1524  0.4954 -0.3716
 7732SOL    HW134655   1.610   2.587   8.364  1.9291  1.4123  0.2087
 7732SOL    HW234656   1.556   2.507   8.473 -0.5263  0.3066 -1.7977
 7733SOL     OW34657   3.685   4.103   4.278 -0.3071 -0.3182  0.2048
 7733SOL    HW134658   3.608   4.071   4.232 -0.9540  0.8535  0.4627
 7733SOL    HW234659   3.743   4.035   4.244 -0.2510 -0.4883  0.6349
 7734SOL     OW34660   0.492   3.303   6.581  0.1841  0.1420  0.0350
 7734SOL    HW134661   0.490   3.223   6.528  0.0950  0.5247 -0.5403
 7734SOL    HW234662   0.587   3.313   6.570 -0.2228  1.9301 -1.6835
 7735SOL     OW34663   3.546   4.549   3.237  0.7492 -0.3611  0.0947
 7735SOL    HW134664   3.526   4.473   3.291  0.6938 -0.3986  0.0229
 7735SOL    HW234665   3.617   4.591   3.285  0.0150  0.1244  0.7703
 7736SOL     OW34666   2.281   0.134   3.769 -0.0106  0.0245  0.0357
 7736SOL    HW134667   2.255   0.066   3.706  0.1736  0.4843 -0.5392
 7736SOL    HW234668   2.312   0.200   3.707  0.0803  1.2254  1.3693
 7737SOL     OW34669   4.055   4.032  14.917 -0.5852 -0.3909 -0.3817
 7737SOL    HW134670   4.020   3.943  14.910 -1.5324 -0.0779  0.3911
 7737SOL    HW234671   4.150   4.020  14.925 -0.1311  1.8638 -2.4247
 7738SOL     OW34672   4.246   0.148   6.441 -0.0171  0.7195  0.2270
 7738SOL    HW134673   4.327   0.176   6.483 -0.5476  1.6473  0.6400
 7738SOL    HW234674   4.270   0.147   6.348 -0.3488 -0.0751  0.1539
 7739SOL     OW34675   0.229   0.256   8.224 -0.2678 -0.4281 -0.5396
 7739SOL    HW134676   0.278   0.315   8.167  1.3743  0.4292  1.7731
 7739SOL    HW234677   0.283   0.259   8.302  0.8787  2.8799 -1.4932
 7740SOL     OW34678   4.453   3.080   6.695  0.1734 -0.6997  0.1291
 7740SOL    HW134679   4.514   3.138   6.741 -0.5200  0.3916 -0.3137
 7740SOL    HW234680   4.495   2.995   6.709  0.4609 -0.5468  0.2028
 7741SOL     OW34681   2.302   1.025   6.473 -0.0494  0.1310 -0.1327
 7741SOL    HW134682   2.325   1.080   6.398 -1.2636  0.0053 -0.6006
 7741SOL    HW234683   2.216   0.988   6.451 -1.0512  0.7656  2.6746
 7742SOL     OW34684   1.169   0.623   5.857  0.0420 -0.4469  0.2067
 7742SOL    HW134685   1.201   0.649   5.771 -1.6318  1.6672  0.2052
 7742SOL    HW234686   1.101   0.559   5.837 -0.4718  0.2269 -0.1863
 7743SOL     OW34687   4.231   1.861   9.797  0.0665  0.1434 -0.4394
 7743SOL    HW134688   4.251   1.777   9.756 -1.7207 -0.7438  0.4826
 7743SOL    HW234689   4.170   1.900   9.733  1.1625  1.6939 -0.5387
 7744SOL     OW34690   2.194   1.775   8.824 -0.9982 -0.0657  0.6206
 7744SOL    HW134691   2.180   1.684   8.797  1.5666 -0.2395 -0.0717
 7744SOL    HW234692   2.222   1.757   8.914  1.2653  1.0941  0.1361
 7745SOL     OW34693   3.023   4.448   7.638  0.5343  0.2006 -0.2783
 7745SOL    HW134694   3.044   4.538   7.610  2.1323 -0.4692 -1.2542
 7745SOL    HW234695   3.061   4.397   7.566 -1.2836  1.9021 -2.4524
 7746SOL     OW34696   4.596   2.162   7.725 -0.4238 -0.1965  0.1750
 7746SOL    HW134697   4.626   2.155   7.816 -0.4891 -1.7755  0.0838
 7746SOL    HW234698   4.549   2.080   7.712  1.5139 -1.2141 -0.5114
 7747SOL     OW34699   3.046   1.738   9.038  0.3358  0.1537  0.2263
 7747SOL    HW134700   2.957   1.773   9.040  1.5374  3.2347 -1.1155
 7747SOL    HW234701   3.075   1.771   8.953 -0.8496 -0.1990 -0.3243
 7748SOL     OW34702   3.919   2.491  14.602 -0.3017  0.0015 -0.9013
 7748SOL    HW134703   3.954   2.500  14.513 -1.5392  0.6054 -1.3390
 7748SOL    HW234704   3.919   2.398  14.623  0.0689  0.0101 -0.8618
 7749SOL     OW34705   3.300   3.072   5.114 -0.4577  0.6717 -0.0285
 7749SOL    HW134706   3.345   3.068   5.198  0.2091 -0.1178 -0.4254
 7749SOL    HW234707   3.206   3.058   5.129 -0.3529  1.6129  1.4422
 7750SOL     OW34708   2.322   2.028   6.821 -0.8051  0.2099  0.7874
 7750SOL    HW134709   2.384   2.088   6.863 -0.0126  1.0208 -1.5071
 7750SOL    HW234710   2.302   1.975   6.898 -0.9462 -1.1030 -0.1548
 7751SOL     OW34711   0.107   3.033   7.964 -0.6125  0.1785  0.4043
 7751SOL    HW134712   0.180   3.093   7.949  0.4352 -1.6718 -2.0361
 7751SOL    HW234713   0.152   2.953   7.936  0.3739  0.4593  1.2053
 7752SOL     OW34714   3.888   0.017   5.588 -0.3118  0.3079 -0.0123
 7752SOL    HW134715   3.980   0.019   5.611 -0.2739 -0.0336 -0.1206
 7752SOL    HW234716   3.872   4.647   5.599 -1.1549  0.3661 -0.6890
 7753SOL     OW34717   1.415   1.832   8.930 -0.4205  0.5278  0.1024
 7753SOL    HW134718   1.481   1.762   8.933 -0.9919  0.1160  2.4990
 7753SOL    HW234719   1.399   1.836   9.024  1.4731  1.5823  0.3806
 7754SOL     OW34720   0.863   0.036  13.457 -0.3508  0.6020  0.3448
 7754SOL    HW134721   0.780   0.067  13.422 -1.6773 -1.5136  1.5917
 7754SOL    HW234722   0.857   0.062  13.549  0.0422 -0.4299  0.6589
 7755SOL     OW34723   3.216   1.814   9.938  0.4754  0.1883  0.1711
 7755SOL    HW134724   3.299   1.857   9.916  1.1460 -1.0599  0.2550
 7755SOL    HW234725   3.178   1.768   9.863 -1.8388  0.3050  1.2849
 7756SOL     OW34726   2.734   4.625   8.877  0.4459 -0.3786  0.1802
 7756SOL    HW134727   2.717   4.538   8.914 -1.0846  0.0598  0.5095
 7756SOL    HW234728   2.692   4.683   8.941  0.5683 -3.1246  2.7563
 7757SOL     OW34729   4.505   0.788   9.681 -0.5679 -0.0549 -0.5810
 7757SOL    HW134730   4.580   0.833   9.643 -0.9974 -0.0972 -1.4633
 7757SOL    HW234731   4.554   0.712   9.712 -1.5299  0.0228  1.1486
 7758SOL     OW34732   1.389   0.964   5.568 -0.2138 -0.4675  0.2532
 7758SOL    HW134733   1.305   1.008   5.575 -0.5364 -0.9927 -0.3627
 7758SOL    HW234734   1.438   1.032   5.521 -2.2971  1.2675  0.5918
 7759SOL     OW34735   4.518   4.121   3.960  0.0197  0.3547  0.1827
 7759SOL    HW134736   4.579   4.190   3.985 -0.3272  1.0913 -0.9944
 7759SOL    HW234737   4.556   4.054   4.017  2.5653  0.2510 -1.6318
 7760SOL     OW34738   4.216   2.365   7.192 -0.3469 -0.5888  0.0000
 7760SOL    HW134739   4.310   2.380   7.185 -0.4435 -0.3136 -0.6598
 7760SOL    HW234740   4.188   2.454   7.170  1.9735  0.0720 -0.3418
 7761SOL     OW34741   3.897   0.661   6.751 -0.2848  0.6442  0.0606
 7761SOL    HW134742   3.922   0.569   6.758  0.5126  0.8276 -0.4081
 7761SOL    HW234743   3.940   0.684   6.669 -1.0598 -2.8351 -1.3224
 7762SOL     OW34744   2.396   3.564   1.524  0.0511 -0.5755  0.2107
 7762SOL    HW134745   2.467   3.501   1.512 -0.6874 -1.2995 -0.3037
 7762SOL    HW234746   2.320   3.511   1.551 -0.7517  0.9562  0.9499
 7763SOL     OW34747   4.123   3.899  17.388  0.4598 -0.1233 -0.1831
 7763SOL    HW134748   4.037   3.935  17.369 -0.0865 -1.8196 -0.9720
 7763SOL    HW234749   4.145   3.860  17.304 -0.5089 -0.4190 -0.3045
 7764SOL     OW34750   1.545   0.705   0.794 -0.1942  0.2615  0.0247
 7764SOL    HW134751   1.477   0.772   0.785  0.2492  0.5404 -1.2018
 7764SOL    HW234752   1.628   0.754   0.803  1.1370 -1.8658 -0.7774
 7765SOL     OW34753   4.401   2.096  17.054  0.4887 -0.0861 -0.0022
 7765SOL    HW134754   4.424   2.153  16.981  0.9482 -1.0347 -0.5969
 7765SOL    HW234755   4.308   2.081  17.041  0.4541 -1.1415  1.4320
 7766SOL     OW34756   2.694   0.391  17.607 -0.4177 -0.2611  0.2986
 7766SOL    HW134757   2.767   0.451  17.625  0.1284 -0.6916 -0.5030
 7766SOL    HW234758   2.653   0.377  17.692 -0.3229  0.3968  0.4590
 7767SOL     OW34759   3.469   1.825   6.482 -0.1402  0.4059  0.2667
 7767SOL    HW134760   3.533   1.782   6.539 -2.2289 -1.5088  1.1715
 7767SOL    HW234761   3.423   1.750   6.444 -2.0903  2.5207 -1.5749
 7768SOL     OW34762   0.889   3.128   2.569  0.8007  0.1760  0.0623
 7768SOL    HW134763   0.930   3.118   2.655  0.0979 -2.2784  0.1079
 7768SOL    HW234764   0.874   3.035   2.554 -1.5596  0.6315 -0.3560
 7769SOL     OW34765   3.717   0.387   5.818 -0.2233  0.2396  0.3152
 7769SOL    HW134766   3.709   0.420   5.907  0.8570 -0.4336  0.6636
 7769SOL    HW234767   3.625   0.399   5.793  0.6532  2.7331 -1.6729
 7770SOL     OW34768   1.950   1.109   2.468 -0.5791 -0.2557  0.1596
 7770SOL    HW134769   2.025   1.090   2.524  0.2083  1.1197 -0.4429
 7770SOL    HW234770   1.876   1.098   2.529  0.7399 -3.5487  1.1667
 7771SOL     OW34771   0.922   1.471   7.269 -0.7840 -0.2693  0.2296
 7771SOL    HW134772   0.964   1.463   7.354  2.2674 -1.7870 -1.3898
 7771SOL    HW234773   0.962   1.551   7.237  1.4926 -1.8199 -0.8134
 7772SOL     OW34774   0.736   4.583   1.649 -0.4083  0.0427  0.2724
 7772SOL    HW134775   0.651   4.624   1.635 -0.4860 -0.2969 -0.2373
 7772SOL    HW234776   0.795   4.658   1.654  0.5611 -0.6923 -0.1366
 7773SOL     OW34777   0.887   0.663   1.088 -0.4705  0.1899  0.0385
 7773SOL    HW134778   0.925   0.584   1.126  0.6342 -0.1362 -1.7199
 7773SOL    HW234779   0.954   0.732   1.087  0.2679 -0.5853 -2.9797
 7774SOL     OW34780   0.810   3.413   3.164 -0.2647  0.2480  0.6793
 7774SOL    HW134781   0.825   3.496   3.119  0.0025 -1.4228 -2.3132
 7774SOL    HW234782   0.722   3.425   3.200 -0.4323  1.7462 -0.2065
 7775SOL     OW34783   3.416   1.571   2.644 -0.2495  0.5347  0.0526
 7775SOL    HW134784   3.390   1.563   2.736  0.8018  0.2075  0.3205
 7775SOL    HW234785   3.506   1.537   2.646 -1.0383 -1.5546 -0.7114
 7776SOL     OW34786   3.701   2.394   4.418  0.0684  0.1661 -0.3678
 7776SOL    HW134787   3.726   2.347   4.338  0.0196  1.8042 -1.3427
 7776SOL    HW234788   3.785   2.399   4.463  1.0464  0.5454 -2.2412
 7777SOL     OW34789   1.974   1.938   8.342  0.1577  0.5196  0.3827
 7777SOL    HW134790   2.015   1.861   8.302 -2.1569 -0.2541 -0.5245
 7777SOL    HW234791   1.886   1.918   8.308 -0.3473  1.2374  1.2648
 7778SOL     OW34792   0.551   3.043   8.619 -0.2493  0.3930  0.6236
 7778SOL    HW134793   0.532   2.996   8.700  0.8365 -2.6913 -0.9127
 7778SOL    HW234794   0.544   2.972   8.555  0.6105 -2.4316  3.6172
 7779SOL     OW34795   2.638   4.420  11.678 -0.6037  0.2139  0.0515
 7779SOL    HW134796   2.598   4.469  11.750  1.2277 -1.6178  2.3305
 7779SOL    HW234797   2.685   4.487  11.629  0.5733 -0.1948  0.6203
 7780SOL     OW34798   2.004   2.171  15.793  0.1124  0.2408 -0.3268
 7780SOL    HW134799   2.042   2.227  15.726 -0.4372  0.4527 -0.4674
 7780SOL    HW234800   2.013   2.223  15.873 -0.2650  0.2086 -0.2609
 7781SOL     OW34801   3.862   2.921   5.660 -0.2000 -0.4948  0.2088
 7781SOL    HW134802   3.789   2.889   5.608 -0.5041  1.8133 -0.7866
 7781SOL    HW234803   3.875   2.842   5.713 -0.1209 -1.1270 -0.7492
 7782SOL     OW34804   4.106   3.337  10.969 -0.1884 -0.3152 -0.4240
 7782SOL    HW134805   4.078   3.335  10.877  0.6959 -1.1905 -0.6810
 7782SOL    HW234806   4.097   3.429  10.992 -2.7039 -0.8174  0.6779
 7783SOL     OW34807   1.653   3.651   3.252 -0.2229  0.3198  0.2048
 7783SOL    HW134808   1.719   3.638   3.185 -1.4460  0.7748 -1.1007
 7783SOL    HW234809   1.580   3.670   3.194 -0.1031  0.0858 -0.0205
 7784SOL     OW34810   2.633   2.026   2.356  0.4932 -0.2057 -0.3561
 7784SOL    HW134811   2.555   2.002   2.406  0.5292  0.0862 -0.1660
 7784SOL    HW234812   2.662   1.940   2.324 -0.9478 -0.8154 -0.0480
 7785SOL     OW34813   1.604   4.091  17.061  0.2667 -0.4204  0.6558
 7785SOL    HW134814   1.648   4.156  17.008  0.3410  0.7656  2.1793
 7785SOL    HW234815   1.646   4.010  17.033  1.9399  0.9256 -0.6678
 7786SOL     OW34816   1.984   0.822   3.219 -0.2719  0.1182 -0.0323
 7786SOL    HW134817   2.014   0.739   3.183  1.5698  0.9482 -0.4019
 7786SOL    HW234818   1.900   0.805   3.261 -0.5565  0.2386 -0.5675
 7787SOL     OW34819   0.519   0.244  10.967 -0.0704 -0.7981 -0.1883
 7787SOL    HW134820   0.598   0.204  10.930 -0.6868 -0.9513 -1.3381
 7787SOL    HW234821   0.480   0.281  10.888  0.1221  1.2630  0.7010
 7788SOL     OW34822   2.983   2.585   1.740  0.6368  0.1976  0.4812
 7788SOL    HW134823   3.015   2.674   1.726  0.0922  0.3668  0.3115
 7788SOL    HW234824   3.020   2.537   1.666  1.1668  2.5883 -0.7932
 7789SOL     OW34825   3.038   3.210   4.505 -0.0475  0.0382  0.8243
 7789SOL    HW134826   2.962   3.162   4.470 -0.5236  1.4073 -0.0333
 7789SOL    HW234827   3.110   3.153   4.478  0.4080  0.0615  2.0145
 7790SOL     OW34828   2.811   4.478   5.703  0.0876  0.0191  0.7234
 7790SOL    HW134829   2.805   4.551   5.642 -0.6641 -0.7088 -0.0671
 7790SOL    HW234830   2.777   4.516   5.784  1.6229  4.3343 -0.6573
 7791SOL     OW34831   0.477   3.539  11.802  0.3074  0.2705  0.0648
 7791SOL    HW134832   0.541   3.511  11.866  0.6362 -0.3264 -0.5267
 7791SOL    HW234833   0.398   3.497  11.836  0.7638 -1.4884 -1.0116
 7792SOL     OW34834   0.027   0.021   1.471  0.3510 -0.0987 -0.3052
 7792SOL    HW134835   0.011   4.718   1.561 -0.9446 -0.2717 -0.5961
 7792SOL    HW234836   0.026   4.659   1.429 -1.8383 -1.0081  1.6276
 7793SOL     OW34837   4.484   1.306   8.759  0.2383 -0.6748 -0.4320
 7793SOL    HW134838   4.537   1.309   8.679  0.7759  1.1400 -0.0070
 7793SOL    HW234839   4.558   1.308   8.819 -0.2721  0.0779  0.1710
 7794SOL     OW34840   1.533   2.658   0.012 -0.1798 -0.3366 -0.2597
 7794SOL    HW134841   1.528   2.743  17.669 -2.9468 -0.0224  0.6788
 7794SOL    HW234842   1.620   2.637  17.678  0.1953 -0.4115  0.7587
 7795SOL     OW34843   3.851   1.786   9.759 -0.0829 -0.1262 -0.3271
 7795SOL    HW134844   3.900   1.852   9.710  1.3812 -0.1433  1.1138
 7795SOL    HW234845   3.827   1.723   9.690  0.0049 -0.9139  0.3578
 7796SOL     OW34846   1.199   3.030   5.462 -0.1271  0.4084 -0.0041
 7796SOL    HW134847   1.250   3.106   5.488 -0.3660  0.0886  1.3892
 7796SOL    HW234848   1.147   3.071   5.392 -2.4684 -1.1955  0.7778
 7797SOL     OW34849   0.536   0.037   1.605 -0.8133 -0.3093  0.0550
 7797SOL    HW134850   0.457   0.076   1.567  0.0269  0.6296 -0.7215
 7797SOL    HW234851   0.521   0.040   1.699 -2.0816 -3.0293 -0.0572
 7798SOL     OW34852   1.096   2.622   8.285  0.7490  0.5005 -0.6686
 7798SOL    HW134853   1.083   2.692   8.221 -2.4002 -1.0023 -1.6801
 7798SOL    HW234854   1.167   2.660   8.337  1.6141 -0.2507 -1.2977
 7799SOL     OW34855   2.361   0.588   6.508 -0.1763  0.5457  0.3164
 7799SOL    HW134856   2.369   0.493   6.497 -0.2541  0.6276 -0.4740
 7799SOL    HW234857   2.286   0.608   6.453 -1.1372 -1.2480  0.9828
 7800SOL     OW34858   3.895   1.735   4.807 -0.2709 -0.2495  0.0043
 7800SOL    HW134859   3.926   1.729   4.716 -0.8022 -0.0625 -0.1909
 7800SOL    HW234860   3.845   1.817   4.800 -0.7251 -0.4733  0.6642
 7801SOL     OW34861   3.615   0.724   6.940  0.3667 -0.7625  0.6588
 7801SOL    HW134862   3.668   0.644   6.942  2.2236  0.4342 -0.3525
 7801SOL    HW234863   3.541   0.703   6.884  0.0194 -1.0918  1.2451
 7802SOL     OW34864   0.112   0.359   1.662  0.1298  0.3464  0.1721
 7802SOL    HW134865   0.079   0.443   1.631 -1.2173  1.0617  3.5536
 7802SOL    HW234866   0.205   0.375   1.645  0.0474  1.3858  0.7585
 7803SOL     OW34867   3.326   4.611   0.150  0.4679 -0.1463  0.3922
 7803SOL    HW134868   3.334   4.602   0.245  2.3804 -1.2518  0.1176
 7803SOL    HW234869   3.246   4.565   0.122 -1.4220  3.3206  0.1232
 7804SOL     OW34870   1.451   1.300   6.828 -0.1918 -0.2152 -0.0349
 7804SOL    HW134871   1.431   1.252   6.908  0.1942 -0.5114 -0.1173
 7804SOL    HW234872   1.505   1.226   6.801  0.1842 -0.3327  1.0249
 7805SOL     OW34873   0.891   0.885   2.851  0.9559  0.1665 -0.1203
 7805SOL    HW134874   0.812   0.902   2.800  1.2406 -0.3053 -0.7284
 7805SOL    HW234875   0.940   0.834   2.786  0.5188 -2.7022  1.7811
 7806SOL     OW34876   1.678   1.684  15.678  0.3674  0.1567  0.0971
 7806SOL    HW134877   1.720   1.693  15.764  1.3311 -0.5519 -0.3085
 7806SOL    HW234878   1.612   1.754  15.683  1.9957  1.6897 -0.1203
 7807SOL     OW34879   2.463   3.844   5.265  0.0768  0.3148  0.2747
 7807SOL    HW134880   2.533   3.900   5.301  0.9847 -1.1326  0.7597
 7807SOL    HW234881   2.493   3.764   5.308 -0.6806  0.7653  1.6196
 7808SOL     OW34882   3.247   3.502   2.421 -0.2379 -0.3868  0.0114
 7808SOL    HW134883   3.287   3.523   2.336 -0.3417  0.2525  0.1208
 7808SOL    HW234884   3.294   3.560   2.481 -0.6746 -1.0792  1.0158
 7809SOL     OW34885   2.003   4.480   3.568  0.5447 -0.5696 -0.1780
 7809SOL    HW134886   2.098   4.489   3.562  0.5074 -0.1240 -0.1010
 7809SOL    HW234887   1.962   4.543   3.508  0.4363  0.5335  1.0538
 7810SOL     OW34888   2.084   0.146   7.992 -0.4190 -0.3635 -0.5872
 7810SOL    HW134889   2.160   0.184   7.948 -0.7040  0.8384 -0.0521
 7810SOL    HW234890   2.097   0.053   7.973  0.9079 -0.2695 -0.1528
 7811SOL     OW34891   2.592   3.863   5.977  0.7312  0.0876  0.6898
 7811SOL    HW134892   2.680   3.886   6.007  1.7789  0.1783 -2.4711
 7811SOL    HW234893   2.545   3.940   6.010 -1.5512 -1.4025  0.8704
 7812SOL     OW34894   0.790   1.056   9.651  0.4498 -0.1327 -0.2557
 7812SOL    HW134895   0.851   1.120   9.686 -0.1450  0.1976  0.1587
 7812SOL    HW234896   0.815   1.052   9.558 -1.3073 -0.1031 -0.7325
 7813SOL     OW34897   1.145   0.401  15.080  0.0983  0.2890  0.0093
 7813SOL    HW134898   1.106   0.371  14.998 -1.9828 -0.8943  1.4518
 7813SOL    HW234899   1.072   0.406  15.140  0.7345 -0.6436  0.8711
 7814SOL     OW34900   0.761   2.081   4.405 -0.0613  0.0693 -0.2173
 7814SOL    HW134901   0.693   2.148   4.400 -1.2883 -1.1732 -0.3206
 7814SOL    HW234902   0.834   2.140   4.389  2.2187 -2.7841 -0.2691
 7815SOL     OW34903   4.079   4.023   7.457  0.5125  0.4705  0.6903
 7815SOL    HW134904   4.006   3.966   7.481 -0.7482  2.5672  1.8443
 7815SOL    HW234905   4.034   4.107   7.458 -0.9684 -0.2789 -2.6506
 7816SOL     OW34906   0.130   1.151   7.159 -0.3063 -0.5380 -0.2303
 7816SOL    HW134907   0.094   1.074   7.204  1.4647 -1.0674  0.2763
 7816SOL    HW234908   0.221   1.135   7.135 -1.3797 -0.7387 -4.1026
 7817SOL     OW34909   3.240   0.271  12.809 -0.5394 -0.7599 -0.0780
 7817SOL    HW134910   3.334   0.269  12.826 -0.7437 -0.0408  1.1591
 7817SOL    HW234911   3.221   0.364  12.820  1.2692 -0.4950  0.7198
 7818SOL     OW34912   4.091   1.900  12.530 -0.0077  0.6962  0.0873
 7818SOL    HW134913   4.178   1.911  12.568 -0.4894  2.4620  0.6855
 7818SOL    HW234914   4.115   1.845  12.456  1.4604 -0.4440  1.4237
 7819SOL     OW34915   3.385   3.434   7.735  0.5776 -0.3750 -0.0738
 7819SOL    HW134916   3.471   3.395   7.749  1.8558  2.4794  0.1327
 7819SOL    HW234917   3.345   3.421   7.821  2.0091 -0.0845  0.6285
 7820SOL     OW34918   0.533   1.252   6.967 -0.7476 -0.6448  0.4328
 7820SOL    HW134919   0.563   1.279   7.054 -3.1555 -0.6043  1.2463
 7820SOL    HW234920   0.583   1.317   6.917  0.5928 -1.6155  0.4939
 7821SOL     OW34921   0.197   0.272   3.145 -0.5987  0.6814 -0.5018
 7821SOL    HW134922   0.158   0.347   3.191 -3.9259 -1.6385  0.4859
 7821SOL    HW234923   0.186   0.210   3.217 -0.2002 -0.5646 -1.5141
 7822SOL     OW34924   0.652   0.272  17.148  0.4628  0.0674  0.3741
 7822SOL    HW134925   0.604   0.248  17.069 -0.3012  0.3229  0.7540
 7822SOL    HW234926   0.591   0.262  17.222  0.2507  0.7364  0.2873
 7823SOL     OW34927   0.567   1.783   8.555 -0.5648  0.2645  0.5603
 7823SOL    HW134928   0.513   1.718   8.599 -0.3582 -1.8501 -2.3174
 7823SOL    HW234929   0.568   1.764   8.461  0.4712 -1.0315  0.8335
 7824SOL     OW34930   3.521   2.651   8.360 -0.2148 -0.1828  1.1211
 7824SOL    HW134931   3.543   2.719   8.423  0.2030 -1.3373  2.2326
 7824SOL    HW234932   3.447   2.698   8.321  0.2934 -1.1747 -1.0471
 7825SOL     OW34933   2.070   2.171   8.201  0.1784  0.3184  0.0791
 7825SOL    HW134934   2.032   2.089   8.231  1.8233 -0.9193 -1.1968
 7825SOL    HW234935   1.996   2.232   8.205 -0.1743 -0.1309  0.4113
 7826SOL     OW34936   3.724   3.249   5.063  0.2800 -0.0637  0.1595
 7826SOL    HW134937   3.800   3.285   5.109 -0.6291 -2.0445  3.1951
 7826SOL    HW234938   3.725   3.299   4.981 -1.1841 -0.8270 -0.3124
 7827SOL     OW34939   4.331   0.409   7.788 -0.0912 -0.2020  0.0746
 7827SOL    HW134940   4.291   0.390   7.873 -0.0993  0.1509  0.1514
 7827SOL    HW234941   4.255   0.453   7.750  0.5962  0.6956 -0.2679
 7828SOL     OW34942   3.110   1.554   9.222  0.2164  0.4573 -0.0074
 7828SOL    HW134943   3.202   1.582   9.215  0.6965 -0.6083  2.1207
 7828SOL    HW234944   3.078   1.612   9.153 -0.7717 -3.2910 -2.7207
 7829SOL     OW34945   3.192   0.796   5.615  0.0681 -0.2122  0.1175
 7829SOL    HW134946   3.235   0.879   5.632 -1.2028  0.5386 -0.2770
 7829SOL    HW234947   3.164   0.776   5.705 -1.0237 -0.8045 -0.3442
 7830SOL     OW34948   0.742   2.849  13.654  0.1859 -0.3496  0.1225
 7830SOL    HW134949   0.676   2.849  13.723 -0.7570  2.5252 -0.7961
 7830SOL    HW234950   0.727   2.923  13.595 -2.0430 -0.7518  0.2141
 7831SOL     OW34951   1.810   1.892   8.823  0.0933 -0.1205 -0.0256
 7831SOL    HW134952   1.747   1.823   8.802  1.5793 -0.9782 -1.6711
 7831SOL    HW234953   1.869   1.886   8.749 -0.7523 -2.6374 -0.5185
 7832SOL     OW34954   3.624   3.372   7.344  0.2923 -0.0629 -0.0881
 7832SOL    HW134955   3.558   3.337   7.285  0.5597 -2.0523  0.8217
 7832SOL    HW234956   3.694   3.307   7.350  0.5911  0.1540 -1.2667
 7833SOL     OW34957   2.230   3.528   6.844 -0.5714  0.3136  0.0679
 7833SOL    HW134958   2.275   3.456   6.889 -1.2205 -1.9104 -2.7685
 7833SOL    HW234959   2.154   3.479   6.813 -0.3621 -0.3639  0.6272
 7834SOL     OW34960   1.977   1.493   2.030 -0.2157 -0.0970 -0.4946
 7834SOL    HW134961   2.063   1.500   2.072 -0.7751  0.9181  0.4768
 7834SOL    HW234962   1.970   1.401   2.003 -0.7996 -0.1409 -0.2075
 7835SOL     OW34963   0.135   1.416   2.290  0.0161 -0.2187 -0.2670
 7835SOL    HW134964   0.135   1.436   2.384 -0.3055 -0.1022 -0.2903
 7835SOL    HW234965   0.057   1.361   2.278 -0.6150  0.5233  0.4215
 7836SOL     OW34966   4.278   0.278  12.159 -0.1341  0.5913 -0.4049
 7836SOL    HW134967   4.280   0.374  12.156  0.9224  0.6038  0.7125
 7836SOL    HW234968   4.300   0.268  12.067  0.2234 -0.4127 -0.2147
 7837SOL     OW34969   1.729   3.390  10.987 -0.0886  0.3041  0.0330
 7837SOL    HW134970   1.786   3.435  11.049 -1.9665  2.2412  0.3353
 7837SOL    HW234971   1.655   3.451  10.987  0.3772  0.8619 -1.2777
 7838SOL     OW34972   2.910   4.230  17.113  0.4042  0.3624  0.1565
 7838SOL    HW134973   2.849   4.298  17.141 -0.9869 -0.8566  0.0813
 7838SOL    HW234974   2.867   4.149  17.141 -0.1081  0.4413 -0.4110
 7839SOL     OW34975   2.332   3.138  12.946 -0.5589  0.1246  0.3764
 7839SOL    HW134976   2.384   3.213  12.917  1.8091 -0.7827  2.2740
 7839SOL    HW234977   2.385   3.074  12.899  0.3541 -0.3861  2.1166
 7840SOL     OW34978   3.261   0.865  10.836  0.4144  0.0556 -0.7457
 7840SOL    HW134979   3.209   0.857  10.756 -0.5681  1.2597 -0.2256
 7840SOL    HW234980   3.298   0.953  10.832 -1.7970  1.0463  0.3129
 7841SOL     OW34981   0.035   0.322   9.638 -0.1049 -0.5235 -0.3437
 7841SOL    HW134982   0.036   0.396   9.578  1.7652  1.5447  2.2020
 7841SOL    HW234983   0.086   0.255   9.593  0.0946 -0.1232 -0.7066
 7842SOL     OW34984   1.771   0.490   6.613  0.2045  0.0165 -0.2630
 7842SOL    HW134985   1.774   0.397   6.593 -0.1138 -0.6768  2.9137
 7842SOL    HW234986   1.827   0.490   6.691  3.0331 -0.4070 -2.3131
 7843SOL     OW34987   4.368   2.426   8.772  0.2618 -0.2304  0.2372
 7843SOL    HW134988   4.415   2.444   8.691 -0.2953  0.7174  0.1248
 7843SOL    HW234989   4.428   2.455   8.841 -0.1820  0.1427  0.4717
 7844SOL     OW34990   4.669   3.691  13.119  0.4856 -0.6986  0.0911
 7844SOL    HW134991   4.647   3.598  13.114  0.3190 -0.7113  1.0294
 7844SOL    HW234992   0.017   3.691  13.056 -0.8893  0.1241 -1.5030
 7845SOL     OW34993   3.962   2.896  16.154  0.2103 -0.1226 -0.4102
 7845SOL    HW134994   3.876   2.860  16.176 -0.1331  0.1332 -1.3619
 7845SOL    HW234995   3.950   2.966  16.091  0.8756  0.5605  0.2209
 7846SOL     OW34996   1.305   4.524  14.362 -0.1185  0.5113  0.0450
 7846SOL    HW134997   1.310   4.568  14.276  1.1056 -3.5135 -1.9129
 7846SOL    HW234998   1.236   4.461  14.341  2.1235 -1.2296 -2.1165
 7847SOL     OW34999   3.102   3.865   2.554  0.0346  0.0775 -0.0103
 7847SOL    HW135000   3.136   3.776   2.567  0.4694  0.2093 -0.2709
 7847SOL    HW235001   3.010   3.861   2.529 -0.3133  0.1323  1.2459
 7848SOL     OW35002   3.446   0.943   3.930  0.2507 -0.8782 -0.2068
 7848SOL    HW135003   3.421   1.035   3.930  0.4904 -0.8142 -0.4630
 7848SOL    HW235004   3.512   0.941   3.861  2.1014  2.2927  1.4477
 7849SOL     OW35005   1.002   2.022   7.390 -0.1146 -0.5590 -0.1966
 7849SOL    HW135006   1.083   1.999   7.345  0.6324  0.1646  0.7980
 7849SOL    HW235007   1.022   2.114   7.407  1.7784 -0.6402 -1.9938
 7850SOL     OW35008   0.067   1.466  10.272 -0.1592 -0.4704 -0.1386
 7850SOL    HW135009   0.135   1.404  10.247  1.2142  1.0938 -0.2988
 7850SOL    HW235010   0.087   1.483  10.364 -1.2686 -1.2515  0.2519
 7851SOL     OW35011   4.161   2.350  16.643 -0.3020 -0.4822 -0.3795
 7851SOL    HW135012   4.204   2.289  16.584  0.0517  0.6191 -1.2556
 7851SOL    HW235013   4.185   2.436  16.609 -0.2679 -0.7575 -1.0480
 7852SOL     OW35014   0.018   0.176   1.043 -0.2163  0.4013 -0.1829
 7852SOL    HW135015   4.657   0.144   1.013 -1.2502  3.6050 -0.6409
 7852SOL    HW235016   4.720   0.224   1.123  1.3713 -2.7984  2.1525
 7853SOL     OW35017   4.094   4.107   5.469  0.2003 -0.2116  0.1575
 7853SOL    HW135018   4.110   4.176   5.404  0.3955  0.2174  0.6614
 7853SOL    HW235019   4.180   4.092   5.508  0.5682 -0.2468 -0.6631
 7854SOL     OW35020   0.653   1.484  11.490  0.0698 -0.2036 -0.7607
 7854SOL    HW135021   0.690   1.464  11.404  0.7602  1.2353 -0.7972
 7854SOL    HW235022   0.580   1.542  11.469 -0.7154 -0.5728  0.9405
 7855SOL     OW35023   3.806   1.541   9.633 -0.2708 -0.2742 -0.2228
 7855SOL    HW135024   3.766   1.525   9.719 -2.1087  1.0577 -0.8312
 7855SOL    HW235025   3.856   1.461   9.621  0.9156  0.5465 -0.7598
 7856SOL     OW35026   0.966   2.951   4.538  0.0894  0.5777  0.0270
 7856SOL    HW135027   1.048   2.981   4.499 -0.5890  3.7537  1.1054
 7856SOL    HW235028   0.930   3.029   4.578  1.2306  0.7063  0.8011
 7857SOL     OW35029   2.082   0.691   4.610  0.5731  0.4103 -0.4291
 7857SOL    HW135030   2.167   0.692   4.653  0.4739  0.8525 -0.2405
 7857SOL    HW235031   2.020   0.705   4.682  1.5961  1.0036  0.3265
 7858SOL     OW35032   2.784   2.944   5.227 -0.3822 -0.1042 -0.8267
 7858SOL    HW135033   2.793   2.980   5.138 -1.7325  1.0662 -0.4893
 7858SOL    HW235034   2.707   2.995   5.252 -0.1392 -0.6430  0.9689
 7859SOL     OW35035   2.754   4.708   6.518 -0.9962  0.6842  0.7263
 7859SOL    HW135036   2.821   0.048   6.495 -2.2507  1.7091 -0.0500
 7859SOL    HW235037   2.697   0.017   6.587 -0.5005 -2.0268  2.4213
 7860SOL     OW35038   4.221   0.454  10.274 -0.2942 -0.4054 -0.4186
 7860SOL    HW135039   4.156   0.524  10.276 -0.5348 -0.5802 -2.0182
 7860SOL    HW235040   4.291   0.512  10.304 -0.6936  0.3711 -0.9829
 7861SOL     OW35041   0.695   1.616   9.690  0.5170 -0.0130 -0.1732
 7861SOL    HW135042   0.708   1.574   9.775  0.7193  1.2974  0.4373
 7861SOL    HW235043   0.668   1.533   9.650  2.4437 -0.1773 -1.1288
 7862SOL     OW35044   3.308   3.542   6.870  0.5319 -0.0845  0.2218
 7862SOL    HW135045   3.321   3.484   6.946 -1.8591  1.6787  1.9675
 7862SOL    HW235046   3.402   3.558   6.865  0.4239 -0.2592 -2.0736
 7863SOL     OW35047   2.731   0.955   5.150  0.1052 -0.6435  0.1723
 7863SOL    HW135048   2.681   1.026   5.110 -0.3683 -0.1108  1.7386
 7863SOL    HW235049   2.719   0.887   5.084 -2.1953  0.7824 -0.8701
 7864SOL     OW35050   3.244   0.823   4.438 -0.4394  0.1263  0.0562
 7864SOL    HW135051   3.326   0.871   4.423  0.0980 -0.9855 -0.5518
 7864SOL    HW235052   3.248   0.754   4.372 -1.7880  0.7410 -0.6581
 7865SOL     OW35053   4.267   1.024  12.603  0.8486 -0.0434 -0.2171
 7865SOL    HW135054   4.237   0.940  12.570  1.2277 -1.3707  2.7851
 7865SOL    HW235055   4.225   1.023  12.689  0.1996  0.9876 -0.5241
 7866SOL     OW35056   1.489   2.892   1.705 -0.0858  0.1258  0.0104
 7866SOL    HW135057   1.545   2.818   1.684 -0.8885 -0.1747 -1.0633
 7866SOL    HW235058   1.426   2.841   1.757  0.7281 -0.7868  0.0864
 7867SOL     OW35059   0.285   2.513   9.853  0.4983  0.2366  0.2409
 7867SOL    HW135060   0.257   2.423   9.837  1.1753 -0.0947  0.9443
 7867SOL    HW235061   0.376   2.489   9.870  0.9732  1.5921 -0.4167
 7868SOL     OW35062   3.458   0.987  15.777 -0.0668 -0.0872  0.2193
 7868SOL    HW135063   3.533   0.933  15.802  0.4395  0.3653 -0.3382
 7868SOL    HW235064   3.391   0.921  15.762 -0.9322  0.7424  0.4169
 7869SOL     OW35065   1.725   2.382   5.583  0.2077  0.0110  0.2640
 7869SOL    HW135066   1.712   2.451   5.518 -2.3311  1.2496  2.0941
 7869SOL    HW235067   1.786   2.413   5.649  0.6100 -3.4454  1.5483
 7870SOL     OW35068   3.683   0.359   4.529 -0.5195  0.2904  0.6642
 7870SOL    HW135069   3.632   0.366   4.609 -0.3307  0.6182  0.7552
 7870SOL    HW235070   3.666   0.265   4.518  2.3118  0.0998 -2.1434
 7871SOL     OW35071   0.938   4.724   3.938 -0.0788 -0.1063  0.4009
 7871SOL    HW135072   0.855   0.009   3.984  0.2870 -2.7291  1.6073
 7871SOL    HW235073   0.970   0.089   3.927  0.7071 -0.5843 -1.2974
 7872SOL     OW35074   4.660   2.383   7.583 -0.6411  0.3443 -0.1041
 7872SOL    HW135075   4.703   2.369   7.498  0.8060  1.9313  0.3813
 7872SOL    HW235076   4.639   2.294   7.614 -0.3723  0.1369 -0.5097
 7873SOL     OW35077   2.404   0.648   7.746 -0.1359  0.3119 -0.3956
 7873SOL    HW135078   2.382   0.736   7.777 -1.0286  0.2674 -0.9154
 7873SOL    HW235079   2.490   0.628   7.783 -1.1839 -1.0885  1.2671
 7874SOL     OW35080   4.501   3.743   4.363 -0.0748 -0.7576  0.4488
 7874SOL    HW135081   4.546   3.725   4.281  0.6471  0.8514  0.4856
 7874SOL    HW235082   4.484   3.652   4.388  0.3023 -0.8349  0.4281
 7875SOL     OW35083   3.817   4.398   8.111 -0.3163 -0.1389  0.5315
 7875SOL    HW135084   3.722   4.389   8.111 -0.3035 -0.2930  1.0446
 7875SOL    HW235085   3.844   4.465   8.048  2.3425 -1.9248 -0.2252
 7876SOL     OW35086   1.201   2.887  15.665  0.1177  0.2961  0.4225
 7876SOL    HW135087   1.179   2.978  15.650  0.3282  0.5851  1.8282
 7876SOL    HW235088   1.297   2.891  15.660  0.0174  0.8798 -1.1549
 7877SOL     OW35089   1.398   1.595   6.249 -0.4340 -0.3207 -0.4091
 7877SOL    HW135090   1.397   1.654   6.174 -0.0665  0.0752 -0.1114
 7877SOL    HW235091   1.491   1.599   6.274 -0.4381  1.5660 -0.6616
 7878SOL     OW35092   0.028   4.288  10.656  0.2861  0.1247 -0.7004
 7878SOL    HW135093   0.017   4.263  10.747  0.9618  0.3335 -0.5584
 7878SOL    HW235094   0.108   4.246  10.623  0.1172 -1.3948  0.8417
 7879SOL     OW35095   2.340   3.061   7.867 -0.1593  0.0206 -0.5366
 7879SOL    HW135096   2.413   3.006   7.839  1.1306  1.2418  0.4191
 7879SOL    HW235097   2.361   3.143   7.822  1.2745 -0.2007 -0.2616
 7880SOL     OW35098   2.299   2.953   6.833 -0.8936  0.4180  0.6059
 7880SOL    HW135099   2.251   2.878   6.798 -0.2213  0.4714 -0.4084
 7880SOL    HW235100   2.317   2.909   6.916 -2.7170 -1.1113  0.1870
 7881SOL     OW35101   1.320   0.937   7.071  0.2013  0.2769  0.2730
 7881SOL    HW135102   1.370   0.919   7.150  0.7143  0.3799 -0.0299
 7881SOL    HW235103   1.255   0.869   7.090 -1.0233  1.1078 -0.9044
 7882SOL     OW35104   0.321   4.543   1.202 -0.2567  0.0805 -0.7824
 7882SOL    HW135105   0.388   4.568   1.266 -1.9702 -0.7253  1.3232
 7882SOL    HW235106   0.309   4.629   1.160 -1.4877  0.4520  0.3030
 7883SOL     OW35107   4.191   3.363   1.562  0.3255 -0.2744  0.0068
 7883SOL    HW135108   4.205   3.351   1.468 -0.7573 -0.1874 -0.1633
 7883SOL    HW235109   4.273   3.333   1.601 -0.1069 -0.4394  0.7816
 7884SOL     OW35110   3.420   2.792  15.015 -0.0775  0.3359 -0.2686
 7884SOL    HW135111   3.456   2.865  14.965  0.3329  0.1189 -0.2977
 7884SOL    HW235112   3.482   2.720  15.006  0.7560  1.3630 -2.6563
 7885SOL     OW35113   4.133   3.941   9.782 -0.5552  0.3806 -0.0940
 7885SOL    HW135114   4.200   3.986   9.730  0.3210  0.0627  0.7611
 7885SOL    HW235115   4.186   3.873   9.824 -0.3526 -0.8936 -2.4791
 7886SOL     OW35116   1.773   3.084  13.542 -0.8928  0.2900  0.0111
 7886SOL    HW135117   1.840   3.018  13.556  0.6363  2.0518  0.9978
 7886SOL    HW235118   1.820   3.156  13.583 -0.8118 -0.2067  0.7728
 7887SOL     OW35119   1.826   1.859  15.528 -0.0355  0.1733  0.2973
 7887SOL    HW135120   1.796   1.947  15.552 -1.9087 -0.5458  0.5747
 7887SOL    HW235121   1.774   1.802  15.584  3.3193 -0.1234  3.0941
 7888SOL     OW35122   0.697   3.552  16.789  0.1812  0.5271  0.1895
 7888SOL    HW135123   0.753   3.622  16.754 -2.2557  1.2814 -2.2210
 7888SOL    HW235124   0.743   3.537  16.872  0.6151 -1.1239 -0.3543
 7889SOL     OW35125   1.457   4.348  11.110 -0.0364 -0.5977  0.2863
 7889SOL    HW135126   1.476   4.375  11.200  1.3189  0.2573 -0.2590
 7889SOL    HW235127   1.543   4.362  11.071 -0.4039  0.7380 -0.0352
 7890SOL     OW35128   1.123   3.772  12.103  0.4578 -0.2338 -0.0103
 7890SOL    HW135129   1.060   3.798  12.170 -1.2376  0.5365 -1.9172
 7890SOL    HW235130   1.105   3.681  12.079  1.4433 -0.5308  0.3743
 7891SOL     OW35131   4.367   3.153   9.278  0.1452  0.1772 -0.3064
 7891SOL    HW135132   4.387   3.100   9.356  2.3301  2.6745  0.8428
 7891SOL    HW235133   4.456   3.188   9.267 -0.1334  0.4020 -1.8753
 7892SOL     OW35134   1.289   4.217   8.459 -0.4658 -0.3089  0.8755
 7892SOL    HW135135   1.295   4.293   8.517  1.2998 -1.1786  1.8218
 7892SOL    HW235136   1.253   4.154   8.521  0.5252  0.0182  1.7931
 7893SOL     OW35137   2.636   1.167   7.549 -0.1097  0.1998 -0.4755
 7893SOL    HW135138   2.553   1.146   7.506 -0.6522  1.3793 -0.0050
 7893SOL    HW235139   2.615   1.205   7.635  0.0653 -2.7563  0.8840
 7894SOL     OW35140   0.759   2.021   2.607 -0.1082  0.2433  0.5227
 7894SOL    HW135141   0.716   1.962   2.545  1.7425 -0.1978 -0.3324
 7894SOL    HW235142   0.694   2.091   2.621 -0.5227 -0.4166  1.9788
 7895SOL     OW35143   2.475   2.632   6.839  0.1027 -0.2732  0.3891
 7895SOL    HW135144   2.450   2.583   6.917 -0.5568 -0.2606  0.1862
 7895SOL    HW235145   2.571   2.623   6.843  0.0534  0.3237  2.7876
 7896SOL     OW35146   3.383   2.170   8.244 -0.5251 -0.0847  0.6913
 7896SOL    HW135147   3.439   2.176   8.321  1.6836  1.7078 -1.0377
 7896SOL    HW235148   3.301   2.204   8.280 -1.7142 -0.3622 -1.7042
 7897SOL     OW35149   4.479   1.707   9.182 -0.3047  0.5169 -0.0602
 7897SOL    HW135150   4.570   1.706   9.210  0.2630 -0.2762 -1.8826
 7897SOL    HW235151   4.463   1.619   9.146 -1.1817 -0.7900  3.5436
 7898SOL     OW35152   0.079   0.279   0.780  0.1393  0.0669 -0.3420
 7898SOL    HW135153   0.022   0.335   0.833  0.7819  0.2948  0.1028
 7898SOL    HW235154   0.055   0.188   0.802 -0.8999  0.6086  0.7765
 7899SOL     OW35155   4.020   1.469   8.605 -0.3997  0.1278  0.4065
 7899SOL    HW135156   4.007   1.466   8.510 -1.9835 -1.8724  0.6826
 7899SOL    HW235157   3.933   1.448   8.640 -0.2825 -1.1293 -0.0712
 7900SOL     OW35158   1.645   0.750   3.044 -0.2962 -0.3029  0.2556
 7900SOL    HW135159   1.564   0.792   3.072 -1.2754 -0.5591 -2.2090
 7900SOL    HW235160   1.715   0.788   3.097 -2.1832  1.4737  1.4487
 7901SOL     OW35161   3.431   2.720   9.137  0.4780  0.3821  0.0985
 7901SOL    HW135162   3.382   2.650   9.180  1.8436 -1.0062 -0.6099
 7901SOL    HW235163   3.467   2.770   9.211 -0.4206 -1.9201  2.0839
 7902SOL     OW35164   3.885   4.666  16.572 -0.4335 -0.3241 -0.7168
 7902SOL    HW135165   3.900   4.664  16.478  0.1235 -2.0252 -0.5885
 7902SOL    HW235166   3.921   4.581  16.597  3.2278  0.9606 -1.7001
 7903SOL     OW35167   1.788   3.105   5.626 -0.0190  0.0588  0.2801
 7903SOL    HW135168   1.706   3.063   5.599  1.2990 -1.6687 -1.0882
 7903SOL    HW235169   1.831   3.110   5.541 -1.0837  2.6062 -0.0929
 7904SOL     OW35170   1.088   1.985   4.553  0.1568 -0.3247  0.3125
 7904SOL    HW135171   1.008   1.933   4.561 -0.4568  0.8103  1.6845
 7904SOL    HW235172   1.146   1.926   4.600  0.2696 -0.9120 -0.5560
 7905SOL     OW35173   0.816   1.789   9.504  0.3584 -0.5021 -0.0146
 7905SOL    HW135174   0.769   1.738   9.570  0.7668 -0.5870  0.2077
 7905SOL    HW235175   0.848   1.726   9.439  0.6502  0.6191 -0.9504
 7906SOL     OW35176   2.626   0.564  15.542  0.5270 -0.4319 -0.1014
 7906SOL    HW135177   2.549   0.597  15.496 -0.5100  0.4839  2.3028
 7906SOL    HW235178   2.698   0.616  15.506 -1.4408  1.4212 -1.4020
 7907SOL     OW35179   2.027   0.220  17.263 -0.2581  0.0652 -0.4906
 7907SOL    HW135180   2.050   0.306  17.299  2.0488 -0.7070 -0.1807
 7907SOL    HW235181   2.044   0.158  17.333  2.6364 -0.0156 -1.2928
 7908SOL     OW35182   1.109   4.211   5.670 -0.1893  0.1073 -0.3380
 7908SOL    HW135183   1.087   4.129   5.626  1.0744 -1.4577  1.9199
 7908SOL    HW235184   1.126   4.272   5.598 -0.8370  1.0687  0.3361
 7909SOL     OW35185   2.159   2.811  12.961 -0.3817  0.1103 -0.1249
 7909SOL    HW135186   2.072   2.787  12.931  0.4200 -1.2259 -1.3509
 7909SOL    HW235187   2.180   2.730  13.007  0.9358  0.9331  0.7478
 7910SOL     OW35188   1.796   2.010  12.053  0.1830  0.6716 -0.6300
 7910SOL    HW135189   1.865   2.042  11.995  0.3200 -1.7388 -1.7822
 7910SOL    HW235190   1.730   2.080  12.053  2.8524  3.2211 -0.8395
 7911SOL     OW35191   1.556   2.348   4.674  0.1660  0.0262 -0.3972
 7911SOL    HW135192   1.623   2.310   4.617 -0.3098 -1.4968  0.0747
 7911SOL    HW235193   1.478   2.347   4.618  0.0956  1.1285 -0.3140
 7912SOL     OW35194   4.425   3.700   7.207 -0.1307 -0.8350 -0.2657
 7912SOL    HW135195   4.401   3.622   7.257  1.0739 -0.5075  0.8352
 7912SOL    HW235196   4.476   3.656   7.139 -0.0401 -0.5984 -0.3522
 7913SOL     OW35197   2.131   4.703   4.830  0.1840 -0.1853  0.2720
 7913SOL    HW135198   2.122   4.656   4.747 -0.4187 -0.5309  0.5400
 7913SOL    HW235199   2.044   0.018   4.832 -0.3321 -1.3990  1.3673
 7914SOL     OW35200   2.306   4.524  11.133  0.9685  0.6073  0.3530
 7914SOL    HW135201   2.392   4.523  11.091 -0.4346  2.1112 -2.5384
 7914SOL    HW235202   2.294   4.429  11.137 -1.0451  0.9855  3.1822
 7915SOL     OW35203   2.075   2.588   4.434  0.0004  0.4653  1.3002
 7915SOL    HW135204   2.106   2.594   4.524  1.1078  0.8324  0.8990
 7915SOL    HW235205   1.980   2.589   4.442 -0.3921 -0.1815 -3.1653
 7916SOL     OW35206   0.150   4.068   2.353  0.5316  0.4432 -0.6009
 7916SOL    HW135207   0.214   4.065   2.282  1.8060  1.4401  0.5050
 7916SOL    HW235208   0.089   4.004   2.318  0.2356  0.9342 -0.9861
 7917SOL     OW35209   4.205   1.885   4.966  0.0653  0.0687  0.3978
 7917SOL    HW135210   4.208   1.790   4.974  0.7679  0.2025  1.7044
 7917SOL    HW235211   4.119   1.908   5.001 -0.5039 -1.1742 -0.1834
 7918SOL     OW35212   4.696   2.238   3.828  0.1471 -0.2511 -0.2045
 7918SOL    HW135213   0.032   2.297   3.872 -0.5771  0.1779  0.2194
 7918SOL    HW235214   0.031   2.197   3.766  0.2334 -1.1134  0.4561
 7919SOL     OW35215   1.930   4.294   4.458 -0.3534 -0.2751  0.1037
 7919SOL    HW135216   1.920   4.290   4.362  0.2939 -0.4023  0.0457
 7919SOL    HW235217   1.989   4.369   4.465  0.8112 -1.0595 -1.1481
 7920SOL     OW35218   0.013   2.453   3.593 -0.2927 -0.0904  0.5595
 7920SOL    HW135219   0.083   2.389   3.577 -2.2092 -1.3817 -2.5756
 7920SOL    HW235220   4.669   2.397   3.557  0.4025 -1.4929  1.4446
 7921SOL     OW35221   4.674   2.885  15.101  0.0981 -0.0073 -0.3186
 7921SOL    HW135222   4.601   2.852  15.154 -0.2481  0.1634 -0.6943
 7921SOL    HW235223   0.011   2.917  15.167 -0.6724 -1.0874  0.9442
 7922SOL     OW35224   1.362   2.438   5.015  0.0559 -0.0708 -0.4105
 7922SOL    HW135225   1.388   2.525   5.048 -0.1628 -0.0121 -0.3966
 7922SOL    HW235226   1.268   2.441   5.033  0.1646  1.2697 -0.0144
 7923SOL     OW35227   3.347   3.391   9.049  0.1246  0.4243 -0.0664
 7923SOL    HW135228   3.389   3.475   9.067 -1.1229  1.8486 -3.8425
 7923SOL    HW235229   3.302   3.420   8.970 -1.5569  2.1117  1.5142
 7924SOL     OW35230   1.610   3.821   2.774 -0.1211  0.4605 -0.2788
 7924SOL    HW135231   1.566   3.905   2.760 -1.3443 -0.1796 -0.2850
 7924SOL    HW235232   1.539   3.761   2.754 -0.9211  1.0785  0.7530
 7925SOL     OW35233   2.506   4.666   6.404  0.1694 -0.3458  0.5077
 7925SOL    HW135234   2.600   4.676   6.389  0.2180  0.4854  1.3482
 7925SOL    HW235235   2.505   4.579   6.443  2.6329 -0.6598 -0.1693
 7926SOL     OW35236   1.881   3.747   4.921 -0.2141 -0.2437 -0.1065
 7926SOL    HW135237   1.976   3.747   4.932 -0.2878  0.3294  0.5272
 7926SOL    HW235238   1.872   3.723   4.829 -1.3912  0.0415 -0.0564
 7927SOL     OW35239   0.927   3.701   2.189  0.1377  0.1637 -0.2101
 7927SOL    HW135240   0.884   3.684   2.105  0.7091 -3.0552  0.1540
 7927SOL    HW235241   0.862   3.676   2.255 -2.1473 -1.9987 -3.2777
 7928SOL     OW35242   0.395   2.158   3.243  0.0534  0.5438 -0.4242
 7928SOL    HW135243   0.451   2.225   3.202  1.0263  0.3560  0.5920
 7928SOL    HW235244   0.420   2.086   3.185  1.8292 -0.2255  1.3148
 7929SOL     OW35245   2.472   3.624  12.716  0.0491  0.1161 -0.1533
 7929SOL    HW135246   2.460   3.670  12.633 -1.6027 -2.6318 -1.4274
 7929SOL    HW235247   2.520   3.694  12.761  0.5813  0.2925 -0.9891
 7930SOL     OW35248   3.396   2.731   4.180 -0.4670 -0.4167  0.2040
 7930SOL    HW135249   3.430   2.655   4.132 -0.9872 -0.4660 -0.0847
 7930SOL    HW235250   3.408   2.700   4.270 -2.4842 -0.2654  0.5206
 7931SOL     OW35251   0.655   1.376   3.378 -0.5092  0.2035  0.5184
 7931SOL    HW135252   0.663   1.471   3.386 -0.7352  0.3643 -1.1116
 7931SOL    HW235253   0.693   1.362   3.291  0.9457  4.1232  0.5052
 7932SOL     OW35254   4.341   1.478   0.223 -0.3391  0.5629 -0.7459
 7932SOL    HW135255   4.351   1.532   0.302 -0.0963 -1.2479  0.4748
 7932SOL    HW235256   4.427   1.493   0.185  0.9684 -0.0521  1.9622
 7933SOL     OW35257   3.406   4.454   5.800  0.7372 -0.2130 -0.1557
 7933SOL    HW135258   3.311   4.454   5.792  0.7366 -1.4377 -0.1943
 7933SOL    HW235259   3.437   4.534   5.758  0.4030 -0.3443 -0.6523
 7934SOL     OW35260   3.716   2.630  15.076  0.1353 -0.6736 -0.1136
 7934SOL    HW135261   3.752   2.592  14.997 -2.1755  0.6220 -1.7850
 7934SOL    HW235262   3.727   2.553  15.133 -0.3332 -0.2667  0.5332
 7935SOL     OW35263   3.368   4.031   1.663  0.2776  0.3845 -0.3702
 7935SOL    HW135264   3.399   4.102   1.607  1.8275 -0.7480 -0.9387
 7935SOL    HW235265   3.388   3.949   1.618 -0.5235 -0.3381  0.6034
 7936SOL     OW35266   2.662   0.946   3.278  0.4409  0.0538  0.4805
 7936SOL    HW135267   2.745   0.902   3.293 -0.0528 -0.7279  0.8899
 7936SOL    HW235268   2.597   0.899   3.330  0.1604  0.7325  0.7476
 7937SOL     OW35269   2.916   4.219   5.516 -0.0198  0.4357  0.5153
 7937SOL    HW135270   2.974   4.291   5.540  0.6209  0.1362 -0.1161
 7937SOL    HW235271   2.981   4.149   5.507 -0.6953 -0.0402 -0.7085
 7938SOL     OW35272   1.436   3.363   8.407  0.8742 -0.2756 -0.0982
 7938SOL    HW135273   1.351   3.335   8.441  0.8631 -0.2859 -0.1340
 7938SOL    HW235274   1.484   3.393   8.483 -1.3132  0.6723  0.9179
 7939SOL     OW35275   3.406   0.292  10.556  1.0484  0.3974  0.0329
 7939SOL    HW135276   3.436   0.330  10.638 -2.0171  2.3847  0.2585
 7939SOL    HW235277   3.316   0.265  10.574  0.8843  0.0959 -1.2221
 7940SOL     OW35278   0.436   2.871   8.795 -0.1218 -0.0499 -0.4422
 7940SOL    HW135279   0.434   2.782   8.760 -2.3924  0.2386 -1.0789
 7940SOL    HW235280   0.495   2.867   8.870  0.2669 -0.6122 -0.7773
 7941SOL     OW35281   3.099   2.148   9.859 -0.0573 -0.2965 -0.6661
 7941SOL    HW135282   3.153   2.130   9.936 -0.1705  0.4805 -0.4096
 7941SOL    HW235283   3.026   2.193   9.903  1.0790 -0.1318  1.0573
 7942SOL     OW35284   4.657   1.421  11.743  0.2634 -0.3284  0.1120
 7942SOL    HW135285   4.724   1.457  11.686 -0.1636  0.9752  0.4356
 7942SOL    HW235286   4.576   1.434  11.693  0.2673 -1.0436 -0.0751
 7943SOL     OW35287   2.024   2.000   7.787  0.1673 -0.3331  0.0909
 7943SOL    HW135288   1.983   1.976   7.704 -0.7091 -0.0608  0.4376
 7943SOL    HW235289   2.113   1.967   7.776  0.2089 -0.8789  2.1375
 7944SOL     OW35290   0.986   0.768   8.758  0.2745  0.0770 -0.2396
 7944SOL    HW135291   1.050   0.697   8.751  0.2545  0.1343 -1.0053
 7944SOL    HW235292   0.904   0.718   8.751 -1.1332  2.1303  1.7968
 7945SOL     OW35293   4.659   2.273   7.324 -0.2572  0.1441 -0.2755
 7945SOL    HW135294   4.640   2.190   7.279 -1.1298  0.1420  0.0833
 7945SOL    HW235295   4.588   2.325   7.287 -1.9864 -1.0242  1.3863
 7946SOL     OW35296   3.232   2.532   7.055  0.5487  0.0552  0.6629
 7946SOL    HW135297   3.277   2.486   6.985 -1.0448 -1.0921  0.4010
 7946SOL    HW235298   3.158   2.576   7.012 -0.0139 -1.5449 -0.0167
 7947SOL     OW35299   2.233   4.062   8.922 -0.0293  0.2065  0.5813
 7947SOL    HW135300   2.304   4.000   8.908 -0.5922 -0.0212 -1.2356
 7947SOL    HW235301   2.241   4.118   8.845 -0.8142 -2.1915 -1.2431
 7948SOL     OW35302   0.532   2.147  12.507  0.5738 -0.3857 -0.3283
 7948SOL    HW135303   0.518   2.190  12.591 -1.8987  1.7638 -1.8531
 7948SOL    HW235304   0.557   2.057  12.529 -0.5388 -0.6021  0.0078
 7949SOL     OW35305   4.425   2.019   9.843 -0.1947 -0.1654  0.3747
 7949SOL    HW135306   4.354   1.959   9.865 -0.2832 -0.3069 -0.3190
 7949SOL    HW235307   4.462   1.968   9.771  0.0175  2.0612 -1.0887
 7950SOL     OW35308   4.267   0.591   5.521  0.2264 -0.0115  0.1797
 7950SOL    HW135309   4.196   0.655   5.520  2.4315  2.4279 -0.0729
 7950SOL    HW235310   4.264   0.566   5.614 -0.9778 -0.2595  0.0683
 7951SOL     OW35311   1.286   1.095  15.781 -0.6238 -0.0343  0.0558
 7951SOL    HW135312   1.275   1.151  15.858  0.2510 -0.3645  0.4207
 7951SOL    HW235313   1.276   1.165  15.716  1.4153 -0.7100 -0.9718
 7952SOL     OW35314   0.426   0.877  12.353 -0.4479 -0.1080 -0.0310
 7952SOL    HW135315   0.360   0.946  12.344 -0.3923  0.0968  1.2368
 7952SOL    HW235316   0.382   0.802  12.311 -0.7346 -0.1676  0.3771
 7953SOL     OW35317   1.137   0.226   4.513 -0.6937  0.5084 -0.1822
 7953SOL    HW135318   1.045   0.251   4.524 -0.5340  0.9873  0.0871
 7953SOL    HW235319   1.168   0.204   4.601 -1.7512  0.5879  0.2067
 7954SOL     OW35320   0.203   3.512   9.367 -0.9320  0.6916  0.2909
 7954SOL    HW135321   0.205   3.430   9.318  1.4809  0.3338  0.9623
 7954SOL    HW235322   0.223   3.472   9.452  0.0111  0.3848 -0.0749
 7955SOL     OW35323   1.412   1.223   2.965 -0.2755 -0.8557 -0.0588
 7955SOL    HW135324   1.352   1.162   3.009  0.1034  0.2932  2.0607
 7955SOL    HW235325   1.352   1.237   2.892 -2.1784  1.5125  1.9750
 7956SOL     OW35326   2.816   1.598   9.488 -0.6841  0.1792  0.2227
 7956SOL    HW135327   2.912   1.593   9.486 -0.5353  1.9064  2.6971
 7956SOL    HW235328   2.781   1.545   9.416 -0.5019 -0.4237  0.5729
 7957SOL     OW35329   3.105   3.514   0.666 -0.0437 -0.3360  0.3011
 7957SOL    HW135330   3.088   3.510   0.572 -0.9062 -0.6584  0.4774
 7957SOL    HW235331   3.171   3.582   0.679  1.2624 -1.3504 -0.9871
 7958SOL     OW35332   3.643   3.692   4.971 -0.6790  0.2688 -0.0892
 7958SOL    HW135333   3.578   3.669   5.038 -0.2027 -1.2227 -0.1427
 7958SOL    HW235334   3.596   3.692   4.888 -0.0833  0.5612 -0.4221
 7959SOL     OW35335   1.096   2.573   0.132  0.0582 -0.8116  0.4357
 7959SOL    HW135336   1.092   2.662   0.167  2.1053 -1.1373  1.4582
 7959SOL    HW235337   1.028   2.528   0.183  0.7455 -1.3192  0.8886
 7960SOL     OW35338   3.895   1.405   5.461 -0.0130 -0.3193 -0.0546
 7960SOL    HW135339   3.856   1.409   5.548  2.1449  0.2188  0.8814
 7960SOL    HW235340   3.981   1.443   5.476  0.5923 -1.0904 -1.6314
 7961SOL     OW35341   4.123   1.671   3.853  0.6462 -0.1193 -0.5215
 7961SOL    HW135342   4.124   1.648   3.760  1.3239 -1.3964 -0.1993
 7961SOL    HW235343   4.063   1.613   3.900  0.5198  0.0031 -0.5313
 7962SOL     OW35344   2.244   2.916  15.434  0.1318  0.0442 -0.4159
 7962SOL    HW135345   2.261   2.971  15.510  0.1456  1.2745 -1.3015
 7962SOL    HW235346   2.283   2.961  15.359  0.3300  2.7522  1.3109
 7963SOL     OW35347   2.260   3.992   9.754 -0.0635  0.5447  0.3035
 7963SOL    HW135348   2.326   3.935   9.793 -1.1419 -0.3571  0.8160
 7963SOL    HW235349   2.220   4.012   9.839 -0.8561  2.0583 -0.4202
 7964SOL     OW35350   0.464   1.403  10.127  0.6192  0.0863  0.1871
 7964SOL    HW135351   0.501   1.489  10.147 -0.7486  1.2280 -2.1716
 7964SOL    HW235352   0.537   1.353  10.091 -1.7770 -2.5467 -1.0266
 7965SOL     OW35353   0.243   4.633  10.467  0.0355  0.0858  0.0268
 7965SOL    HW135354   0.239   4.680  10.550  2.1469 -1.1645  0.8474
 7965SOL    HW235355   0.337   4.626  10.452  0.2617  0.0906  1.3846
 7966SOL     OW35356   0.529   1.001  11.599 -0.5207  0.4013  0.2751
 7966SOL    HW135357   0.610   1.004  11.549  0.9572 -0.3531  2.6119
 7966SOL    HW235358   0.565   0.980  11.685  0.4459  1.1898  0.0688
 7967SOL     OW35359   1.475   3.367   8.129 -0.1975 -0.0460  0.3696
 7967SOL    HW135360   1.454   3.330   8.215  1.5160 -0.9831  0.3865
 7967SOL    HW235361   1.405   3.432   8.120  0.6087  0.6951 -0.4375
 7968SOL     OW35362   4.026   0.172   3.699  0.4031  0.6524  0.4864
 7968SOL    HW135363   4.083   0.235   3.656 -0.1335  1.2124  0.6022
 7968SOL    HW235364   3.942   0.214   3.682  0.2751 -0.9196 -2.8261
 7969SOL     OW35365   0.498   1.244   8.033 -0.1553  0.0237 -0.4562
 7969SOL    HW135366   0.483   1.210   8.122  0.3442  1.2273  0.0843
 7969SOL    HW235367   0.593   1.251   8.038 -0.1467 -0.3743 -0.0940
 7970SOL     OW35368   4.219   4.519   2.438 -0.9890 -0.2146  0.0384
 7970SOL    HW135369   4.174   4.476   2.511 -0.8122 -1.4561 -0.5918
 7970SOL    HW235370   4.309   4.501   2.466 -1.0937 -0.5733  0.1487
 7971SOL     OW35371   1.165   2.694  13.221  0.4023  0.0584 -0.7997
 7971SOL    HW135372   1.146   2.611  13.178 -0.5054 -1.3581  2.3199
 7971SOL    HW235373   1.255   2.703  13.254  0.1669  3.0632 -0.9694
 7972SOL     OW35374   3.191   2.776   2.417 -0.0622  0.0267 -0.2881
 7972SOL    HW135375   3.261   2.716   2.441 -0.1913  0.6226  1.6154
 7972SOL    HW235376   3.114   2.740   2.461  1.0118 -3.0454 -0.9649
 7973SOL     OW35377   0.778   0.354  15.382  0.1459 -0.5174  0.3242
 7973SOL    HW135378   0.809   0.439  15.414 -1.1328 -0.5691  1.7005
 7973SOL    HW235379   0.773   0.306  15.464  0.4221 -0.4773  0.3660
 7974SOL     OW35380   3.537   3.072   1.432 -0.0342 -0.4500  0.1961
 7974SOL    HW135381   3.621   3.027   1.434  0.8633  1.2036  0.4502
 7974SOL    HW235382   3.569   3.160   1.452  1.2621 -0.6208 -1.1456
 7975SOL     OW35383   4.303   0.497   9.764  0.2107 -0.5539  0.1890
 7975SOL    HW135384   4.379   0.438   9.765  0.2743 -0.4523  1.5968
 7975SOL    HW235385   4.246   0.462   9.834 -1.2006 -2.5120 -1.9327
 7976SOL     OW35386   2.153   0.370  16.780  0.4857  0.1322 -0.2741
 7976SOL    HW135387   2.059   0.361  16.763  0.3805  0.2758  0.2410
 7976SOL    HW235388   2.182   0.293  16.731  0.8386 -0.2937  0.6073
 7977SOL     OW35389   4.084   2.483   2.524 -0.5743 -0.3117 -0.0413
 7977SOL    HW135390   4.048   2.543   2.459  0.6985  0.0884 -0.3769
 7977SOL    HW235391   4.087   2.404   2.470 -2.5639 -0.0469 -0.5438
 7978SOL     OW35392   1.345   1.855   3.476 -0.2439  0.6531 -0.4077
 7978SOL    HW135393   1.411   1.908   3.431  1.2983 -0.1126  0.9644
 7978SOL    HW235394   1.377   1.867   3.565 -0.6789 -1.6134  0.0582
 7979SOL     OW35395   2.071   2.626   3.553 -0.4590 -0.7550  0.4632
 7979SOL    HW135396   2.100   2.535   3.562  0.0851 -0.2422  3.6587
 7979SOL    HW235397   2.024   2.631   3.470  0.7987  0.8430 -0.1565
 7980SOL     OW35398   2.833   0.864   7.847 -0.1202  0.5080 -0.6596
 7980SOL    HW135399   2.891   0.788   7.849 -0.6634  0.1229  0.5093
 7980SOL    HW235400   2.841   0.890   7.939 -0.5145 -0.2163 -0.4141
 7981SOL     OW35401   1.263   4.255   4.727 -0.2778 -0.1836 -0.5821
 7981SOL    HW135402   1.354   4.286   4.725  0.1089 -1.2314  1.7205
 7981SOL    HW235403   1.256   4.209   4.810  1.0128 -1.7141 -1.3160
 7982SOL     OW35404   0.305   4.156   3.533  0.5372 -0.6095  0.5433
 7982SOL    HW135405   0.396   4.183   3.543  0.5046 -0.2976  0.0136
 7982SOL    HW235406   0.281   4.139   3.624 -1.5147  0.4011  0.1873
 7983SOL     OW35407   1.662   4.669  16.746 -0.4340  0.7443 -0.3781
 7983SOL    HW135408   1.695   4.632  16.664 -0.5856 -1.3948  0.5279
 7983SOL    HW235409   1.645   4.584  16.788  0.2907 -0.3718 -2.2978
 7984SOL     OW35410   2.197   2.199   4.573  0.7788  0.1558  0.1174
 7984SOL    HW135411   2.269   2.230   4.628  0.3785 -2.8275  2.3345
 7984SOL    HW235412   2.198   2.252   4.493 -0.2914  1.0753  0.7109
 7985SOL     OW35413   0.965   3.900  13.362  0.4217 -0.2641 -0.0460
 7985SOL    HW135414   0.994   3.881  13.451  0.7858 -0.3904 -0.1921
 7985SOL    HW235415   1.040   3.878  13.307 -1.2864 -1.9803 -1.6855
 7986SOL     OW35416   1.842   1.480   3.614  0.1870  0.4635 -0.7982
 7986SOL    HW135417   1.798   1.562   3.592 -1.5711 -0.1789  0.2705
 7986SOL    HW235418   1.812   1.425   3.541  0.2841  0.4929 -0.8595
 7987SOL     OW35419   2.812   3.903   4.281 -0.1512  0.1508  0.4427
 7987SOL    HW135420   2.771   3.953   4.210 -0.6691 -0.4661  0.3024
 7987SOL    HW235421   2.756   3.825   4.282 -0.8456  0.6622  1.0692
 7988SOL     OW35422   4.248   3.223   4.282  0.0882 -0.0795 -0.7850
 7988SOL    HW135423   4.295   3.291   4.235  2.3318 -0.2423  1.1981
 7988SOL    HW235424   4.315   3.190   4.343 -0.3436  0.6225  0.0778
 7989SOL     OW35425   4.691   2.944  15.922 -0.1072 -0.1926  0.0130
 7989SOL    HW135426   4.630   2.871  15.933 -0.4212 -0.1588 -1.5099
 7989SOL    HW235427   0.048   2.899  15.901  0.5128  1.1608 -0.4502
 7990SOL     OW35428   4.161   2.705   5.833  0.1285 -0.2161  0.5562
 7990SOL    HW135429   4.121   2.673   5.913  0.0600 -4.7612 -1.3338
 7990SOL    HW235430   4.200   2.785   5.868  3.4272 -1.4704 -0.2049
 7991SOL     OW35431   1.325   2.851  15.353  0.0869 -0.2922  0.0505
 7991SOL    HW135432   1.389   2.823  15.288 -1.2240  1.0083 -1.8079
 7991SOL    HW235433   1.381   2.898  15.414  0.9709  2.1202 -2.6136
 7992SOL     OW35434   4.714   0.468   2.783  0.1790 -0.2645 -0.5591
 7992SOL    HW135435   4.648   0.537   2.791 -1.1016 -1.6512  0.7216
 7992SOL    HW235436   0.004   0.440   2.873 -1.7246 -0.0146 -0.1780
 7993SOL     OW35437   0.162   1.193   5.921 -0.3367  0.2684  0.3155
 7993SOL    HW135438   0.237   1.205   5.863 -0.2764 -1.5221  0.0228
 7993SOL    HW235439   0.166   1.271   5.976  0.1836  1.2057 -1.0501
 7994SOL     OW35440   3.444   1.939   9.847  0.2425 -0.2204 -0.4615
 7994SOL    HW135441   3.436   2.027   9.812 -1.1285 -0.5581 -0.9844
 7994SOL    HW235442   3.496   1.955   9.926 -1.2175 -2.8439  1.0289
 7995SOL     OW35443   1.135   0.392   0.904  0.1645  0.7211  0.2561
 7995SOL    HW135444   1.149   0.469   0.959  3.0451  0.0206  0.4738
 7995SOL    HW235445   1.121   0.424   0.815 -3.1225  0.9594  0.8551
 7996SOL     OW35446   0.500   3.054   7.580  0.3207 -0.4066 -0.3781
 7996SOL    HW135447   0.404   3.052   7.581  0.2861  0.4912 -1.8811
 7996SOL    HW235448   0.506   3.144   7.550  0.1339  0.3074  1.7055
 7997SOL     OW35449   1.698   2.472  10.909  0.0372 -0.1772 -0.6580
 7997SOL    HW135450   1.763   2.537  10.882  0.9247 -1.1389 -0.8297
 7997SOL    HW235451   1.620   2.523  10.931  0.7812  0.1922  1.2080
 7998SOL     OW35452   3.257   4.053   4.043 -0.2030  0.0463 -0.1366
 7998SOL    HW135453   3.248   4.062   3.948  0.7245  0.7220 -0.1589
 7998SOL    HW235454   3.287   4.141   4.065 -0.8252  0.0409  0.7603
 7999SOL     OW35455   2.493   0.841   1.362  0.1484  0.0368  0.3196
 7999SOL    HW135456   2.531   0.788   1.431  0.0313  0.5770  0.7985
 7999SOL    HW235457   2.575   0.879   1.332  0.5464 -1.6227 -0.7276
 8000SOL     OW35458   0.874   0.633   6.619  0.8899  0.0827 -0.2656
 8000SOL    HW135459   0.932   0.671   6.553  0.9216  0.2833 -0.1208
 8000SOL    HW235460   0.899   0.540   6.615 -1.6473 -0.6942  1.8306
 8001SOL     OW35461   3.109   4.018   6.857 -0.6426 -0.1665  0.2921
 8001SOL    HW135462   3.077   3.969   6.781  1.8896 -1.5776  0.1487
 8001SOL    HW235463   3.198   3.986   6.871 -0.7093 -0.5117 -0.0696
 8002SOL     OW35464   3.058   2.219  17.583 -0.2548 -0.1597  0.1585
 8002SOL    HW135465   3.064   2.130  17.550 -0.0068  0.0133 -0.2615
 8002SOL    HW235466   3.100   2.206  17.668  1.5772 -0.3316 -0.7869
 8003SOL     OW35467   2.034   0.339   4.685  0.2774 -0.1686 -0.8117
 8003SOL    HW135468   1.987   0.395   4.624 -1.0789  0.6372  0.9519
 8003SOL    HW235469   2.037   0.395   4.763 -1.8439 -4.0347  2.0696
 8004SOL     OW35470   3.901   3.834  17.604 -0.0484  0.7783  0.2435
 8004SOL    HW135471   3.861   3.859  17.520 -1.6571  0.1068  0.7956
 8004SOL    HW235472   3.936   3.916  17.638  0.1744  0.7089  0.1784
 8005SOL     OW35473   4.430   0.262   8.189 -0.5880  0.8751  0.0287
 8005SOL    HW135474   4.344   0.230   8.219 -1.4191  1.3090 -1.9252
 8005SOL    HW235475   4.421   0.216   8.105  2.9204  3.3577 -1.6717
 8006SOL     OW35476   0.074   4.043   5.958 -0.1376 -0.2455 -0.2581
 8006SOL    HW135477   4.706   4.044   5.983 -0.0096  1.1314  0.2099
 8006SOL    HW235478   0.067   4.102   5.883 -1.0745 -1.4200 -1.0952
 8007SOL     OW35479   2.487   1.665   0.759 -0.1168  0.1718  0.0374
 8007SOL    HW135480   2.474   1.757   0.782 -1.3024 -0.4497  1.8297
 8007SOL    HW235481   2.561   1.637   0.812  0.3572  1.5229  0.0870
 8008SOL     OW35482   0.536   0.699  13.183  0.4065 -0.3961 -0.3726
 8008SOL    HW135483   0.505   0.614  13.155 -3.0064  0.6939  0.1153
 8008SOL    HW235484   0.457   0.727  13.229  0.0539 -2.7790  0.4717
 8009SOL     OW35485   3.442   1.948   6.828 -0.1111  0.0285  0.4185
 8009SOL    HW135486   3.481   1.882   6.885  3.1682  0.8135 -0.8992
 8009SOL    HW235487   3.379   1.985   6.889  0.5373  0.2919  0.9199
 8010SOL     OW35488   3.289   4.191   8.549 -0.3700 -0.3476 -0.1467
 8010SOL    HW135489   3.303   4.255   8.479 -0.5798 -1.4017 -1.1541
 8010SOL    HW235490   3.264   4.255   8.615  0.3594 -1.5033  1.2321
 8011SOL     OW35491   0.372   2.587  15.567  0.1422 -0.5229  0.4183
 8011SOL    HW135492   0.379   2.649  15.494 -0.2293  1.4958  2.0983
 8011SOL    HW235493   0.290   2.612  15.609 -0.5774 -1.4852 -0.4140
 8012SOL     OW35494   4.401   2.577   8.297  0.0909  0.1843 -0.7735
 8012SOL    HW135495   4.438   2.562   8.384  0.2971  0.6639 -0.7795
 8012SOL    HW235496   4.387   2.671   8.297  0.5579  0.2567 -0.9215
 8013SOL     OW35497   3.928   4.436   0.398 -0.3033 -0.5585 -0.0658
 8013SOL    HW135498   3.861   4.450   0.465  1.3907  0.8580  1.3490
 8013SOL    HW235499   3.977   4.517   0.407 -1.9661  0.1741  2.2973
 8014SOL     OW35500   0.350   1.234  10.897 -0.0040 -0.4687 -0.0931
 8014SOL    HW135501   0.257   1.216  10.911  0.2644 -1.0357  0.9652
 8014SOL    HW235502   0.357   1.328  10.915  1.5267 -0.7117  0.5888
 8015SOL     OW35503   3.133   4.663   7.849 -0.1623  0.2361  0.2343
 8015SOL    HW135504   3.059   4.646   7.791 -0.5630 -0.1158  0.8438
 8015SOL    HW235505   3.104   4.616   7.927  1.6088 -2.2014 -0.5730
 8016SOL     OW35506   0.673   2.653   5.457  0.4235 -0.2425 -0.6230
 8016SOL    HW135507   0.764   2.672   5.482  0.3891 -2.0796  0.8459
 8016SOL    HW235508   0.662   2.684   5.367 -0.3681 -2.1388 -1.1798
 8017SOL     OW35509   2.579   0.848   3.023  0.0516  0.4679 -0.4457
 8017SOL    HW135510   2.575   0.769   3.077  3.1550  0.3160 -0.4336
 8017SOL    HW235511   2.655   0.894   3.058 -0.7499  2.2851 -1.1065
 8018SOL     OW35512   3.389   0.277   4.416  0.1902 -0.1295  0.1968
 8018SOL    HW135513   3.446   0.202   4.427  0.2636 -0.0160  0.5885
 8018SOL    HW235514   3.427   0.317   4.337  0.8081  0.7801  0.9533
 8019SOL     OW35515   3.559   2.060   1.975  0.1985  0.1392  0.3527
 8019SOL    HW135516   3.636   2.066   1.917  0.6060  1.2273  1.0015
 8019SOL    HW235517   3.495   2.052   1.904 -0.4292  3.5298  0.5063
 8020SOL     OW35518   3.240   3.172  11.851  1.0891 -0.2174  0.0116
 8020SOL    HW135519   3.219   3.227  11.776 -1.3883 -0.4319  0.5570
 8020SOL    HW235520   3.334   3.154  11.844  1.5221  2.8162 -2.0009
 8021SOL     OW35521   2.869   2.153   1.671 -0.0427  0.2189 -0.0710
 8021SOL    HW135522   2.849   2.241   1.702 -1.9083 -1.0769  2.3846
 8021SOL    HW235523   2.881   2.114   1.758  0.6607  0.2435 -0.1522
 8022SOL     OW35524   0.538   1.389   0.048 -0.4865  0.1815  0.0195
 8022SOL    HW135525   0.608   1.384   0.113  1.3040  2.7321 -1.6505
 8022SOL    HW235526   0.467   1.350   0.097 -2.2273  3.0299 -0.2454
 8023SOL     OW35527   2.264   1.021   3.022 -0.2635 -0.1385  0.2268
 8023SOL    HW135528   2.248   1.060   3.108  3.4181 -0.2051  0.9264
 8023SOL    HW235529   2.290   1.096   2.969 -0.0796  0.0187  0.5399
 8024SOL     OW35530   2.791   0.048   5.828 -0.2974  0.1557 -0.5881
 8024SOL    HW135531   2.698   0.042   5.809  0.0256 -0.6113 -1.9790
 8024SOL    HW235532   2.797   4.713   5.902 -0.5599  1.2999  0.3376
 8025SOL     OW35533   0.736   4.385   3.148 -0.0604  0.6367 -0.0932
 8025SOL    HW135534   0.818   4.337   3.158 -0.4235 -0.0500 -0.4212
 8025SOL    HW235535   0.698   4.368   3.234 -2.1662 -0.7999 -1.2977
 8026SOL     OW35536   0.696   1.138   1.053  0.3503  0.0345 -0.1402
 8026SOL    HW135537   0.750   1.209   1.088  0.1185 -0.7380  1.8090
 8026SOL    HW235538   0.611   1.165   1.089  0.0656 -0.2859 -0.5786
 8027SOL     OW35539   4.464   1.119   2.072 -0.2798  0.4397 -0.0862
 8027SOL    HW135540   4.372   1.115   2.046 -0.2630  0.8878 -0.2228
 8027SOL    HW235541   4.504   1.035   2.047 -1.4031 -0.0924 -0.1134
 8028SOL     OW35542   3.839   3.057   8.794 -0.1606 -0.1589  0.1477
 8028SOL    HW135543   3.934   3.049   8.789 -0.4442 -2.9419 -1.0272
 8028SOL    HW235544   3.823   3.069   8.700 -0.2007 -1.2132  0.0188
 8029SOL     OW35545   1.757   2.556  16.286  0.9999  0.4034  0.2716
 8029SOL    HW135546   1.687   2.497  16.314  0.3397  1.7885  1.5570
 8029SOL    HW235547   1.753   2.544  16.192 -0.4903  1.0915  0.2430
 8030SOL     OW35548   0.007   1.692   6.445 -0.2401  0.0266 -0.3905
 8030SOL    HW135549   4.651   1.727   6.483  1.0001 -1.2092  3.3423
 8030SOL    HW235550   0.074   1.703   6.512  0.5383 -1.1886 -0.9698
 8031SOL     OW35551   0.230   0.757   3.007 -0.7673  0.0249 -0.0512
 8031SOL    HW135552   0.252   0.844   3.041 -1.6803  0.1985  0.0978
 8031SOL    HW235553   0.316   0.738   2.969  1.3139  2.6578  3.2869
 8032SOL     OW35554   1.112   3.036   4.981  0.0680 -0.2445 -0.3119
 8032SOL    HW135555   1.179   3.032   4.912  0.4136  0.0825  0.0011
 8032SOL    HW235556   1.047   2.990   4.928  2.4054 -1.0859 -2.4278
 8033SOL     OW35557   1.242   0.749   6.400 -0.2126  0.4699  0.1178
 8033SOL    HW135558   1.331   0.764   6.430  0.0939  0.4840 -0.8019
 8033SOL    HW235559   1.259   0.672   6.345 -1.0150 -1.6198  2.7475
 8034SOL     OW35560   4.034   1.678   9.466  0.1259  0.2188 -0.0342
 8034SOL    HW135561   4.031   1.636   9.552 -0.7041  1.8511  0.7364
 8034SOL    HW235562   4.123   1.713   9.470 -0.5199  1.4035  3.5093
 8035SOL     OW35563   0.576   0.699   4.020  0.1344 -0.1192 -0.6168
 8035SOL    HW135564   0.622   0.775   4.057  1.2359 -1.2754  0.3630
 8035SOL    HW235565   0.532   0.751   3.953  1.7980  0.3148 -1.3754
 8036SOL     OW35566   0.575   1.116   6.243 -0.9777  0.4276  0.1147
 8036SOL    HW135567   0.587   1.068   6.162  1.6607 -0.1415  0.8285
 8036SOL    HW235568   0.639   1.068   6.297  0.8515  1.4343 -1.1639
 8037SOL     OW35569   3.814   0.239   2.201  0.0344 -0.1212  0.0171
 8037SOL    HW135570   3.788   0.294   2.275 -1.6696 -1.8145  0.6768
 8037SOL    HW235571   3.786   0.293   2.126  1.6995  3.1152  1.7518
 8038SOL     OW35572   4.313   0.964   5.596 -0.4051 -0.1500  0.6835
 8038SOL    HW135573   4.386   0.968   5.535 -0.0064  1.0080  1.2386
 8038SOL    HW235574   4.329   1.031   5.662  0.0969  0.1407  0.2634
 8039SOL     OW35575   3.838   3.212  11.066  0.7271 -0.0476  0.2479
 8039SOL    HW135576   3.789   3.282  11.110  0.7776 -0.2745  0.6678
 8039SOL    HW235577   3.791   3.202  10.983 -1.5407  1.8811  1.2831
 8040SOL     OW35578   3.172   4.261   9.277  0.0429 -0.1505  0.1746
 8040SOL    HW135579   3.126   4.344   9.282  0.4699  0.0094  1.6091
 8040SOL    HW235580   3.225   4.259   9.197  1.5129  1.1215  1.1081
 8041SOL     OW35581   2.991   3.070   3.798 -0.0588  0.5420 -0.0212
 8041SOL    HW135582   2.899   3.055   3.777 -0.1237  2.9304 -1.4090
 8041SOL    HW235583   2.985   3.122   3.878  0.4597  0.0288  0.3545
 8042SOL     OW35584   4.600   0.760   2.777  0.1158  0.0081  0.2752
 8042SOL    HW135585   4.623   0.825   2.843  0.6506 -1.3138  1.3738
 8042SOL    HW235586   4.658   0.793   2.708 -2.2108 -0.1053 -1.7601
 8043SOL     OW35587   3.061   1.161  12.786 -0.2098 -0.3674  0.2180
 8043SOL    HW135588   3.103   1.246  12.800 -2.4814  1.0525 -1.6894
 8043SOL    HW235589   3.136   1.107  12.763  0.3033  0.3068  0.2998
 8044SOL     OW35590   3.552   1.065   2.949  0.2736  0.2747  0.2917
 8044SOL    HW135591   3.630   1.084   2.898 -0.1697  0.9949 -0.1072
 8044SOL    HW235592   3.493   1.137   2.926 -0.5963  0.2601  2.4773
 8045SOL     OW35593   2.411   2.577   4.776  0.1227  0.1087  0.6400
 8045SOL    HW135594   2.497   2.580   4.735  0.4767  0.8557  1.4460
 8045SOL    HW235595   2.412   2.490   4.816  0.7741  0.6391  1.7449
 8046SOL     OW35596   3.038   1.030   4.039 -0.0607  0.1644  0.1612
 8046SOL    HW135597   2.982   0.955   4.020 -0.7040  0.2184  1.8035
 8046SOL    HW235598   3.011   1.086   3.966  2.9422 -0.0956 -1.1738
 8047SOL     OW35599   2.833   1.418   3.933  0.0681  0.2577  0.4867
 8047SOL    HW135600   2.800   1.415   3.843 -2.3705 -1.0200  1.4082
 8047SOL    HW235601   2.774   1.481   3.975  1.2855  0.5565  1.7359
 8048SOL     OW35602   1.737   4.510   0.932 -0.2127 -0.3196  0.7159
 8048SOL    HW135603   1.653   4.473   0.905 -0.4051  0.8597 -0.2671
 8048SOL    HW235604   1.785   4.447   0.985  0.5395  0.3957  0.8840
 8049SOL     OW35605   2.989   0.206  13.712  0.6016 -0.2231  0.5333
 8049SOL    HW135606   3.066   0.161  13.676 -0.5762  0.9793 -3.4979
 8049SOL    HW235607   3.021   0.214  13.802  0.0367 -0.2017  0.7306
 8050SOL     OW35608   0.188   4.071   9.150 -0.3555 -0.1170  0.4523
 8050SOL    HW135609   0.283   4.063   9.142 -0.5969 -0.5938 -1.7984
 8050SOL    HW235610   0.186   4.102   9.241  1.7519 -0.4316  0.5949
 8051SOL     OW35611   3.118   1.277   9.193  0.6319  0.0438  0.1528
 8051SOL    HW135612   3.026   1.287   9.171  0.8116  1.9242  0.2336
 8051SOL    HW235613   3.135   1.369   9.215 -0.4566  0.1662  0.4992
 8052SOL     OW35614   2.415   1.228  14.959 -0.9959 -0.2351  0.6770
 8052SOL    HW135615   2.428   1.228  15.054  1.1289  0.7597  0.3814
 8052SOL    HW235616   2.431   1.321  14.942  1.9271 -0.6520  1.2556
 8053SOL     OW35617   3.075   3.053   7.937  0.0514  0.4581  0.0985
 8053SOL    HW135618   3.085   2.970   7.984  2.3238  0.5222 -0.2868
 8053SOL    HW235619   3.150   3.054   7.877  0.1241  0.6496  0.1938
 8054SOL     OW35620   3.009   1.972  12.091  0.0338 -0.2687  0.1905
 8054SOL    HW135621   3.008   2.029  12.167  1.8575 -0.8153  0.6080
 8054SOL    HW235622   3.028   2.035  12.022  1.4250 -0.4571  0.4077
 8055SOL     OW35623   1.267   3.581  14.208  0.1104 -0.1322 -0.4806
 8055SOL    HW135624   1.185   3.627  14.228 -0.0024 -0.3308 -0.4830
 8055SOL    HW235625   1.240   3.530  14.132  0.8423 -1.0902 -0.0986
 8056SOL     OW35626   1.129   1.577   6.881  0.2877 -0.2593 -0.3115
 8056SOL    HW135627   1.112   1.485   6.903  1.3465 -1.0079 -2.6915
 8056SOL    HW235628   1.097   1.571   6.791  0.2345  0.4510 -0.3408
 8057SOL     OW35629   4.701   2.913  16.369  0.2939 -0.1882 -0.1264
 8057SOL    HW135630   0.066   2.941  16.387 -0.3601  2.4060 -0.7994
 8057SOL    HW235631   4.662   2.990  16.328  1.3315  0.3872 -0.0329
 8058SOL     OW35632   1.020   2.970  15.853  0.6891 -0.4450 -0.0290
 8058SOL    HW135633   1.047   2.907  15.786  1.6754 -0.0687  0.0158
 8058SOL    HW235634   1.093   2.949  15.912 -1.6762 -0.8980  2.7622
 8059SOL     OW35635   3.578   0.436   8.096 -0.6453  0.0041  0.8827
 8059SOL    HW135636   3.611   0.376   8.163 -1.6962 -0.1047  1.2963
 8059SOL    HW235637   3.492   0.464   8.126 -0.8233  1.6669 -1.1284
 8060SOL     OW35638   3.111   3.562   3.704  0.6324 -0.4053  0.0940
 8060SOL    HW135639   3.189   3.514   3.674  0.7791 -0.2881  0.2921
 8060SOL    HW235640   3.135   3.653   3.686 -0.5426 -0.4542 -1.7465
 8061SOL     OW35641   3.363   0.825   2.973 -0.5036  0.0321  0.3337
 8061SOL    HW135642   3.408   0.908   2.958  2.3505 -1.5686  0.2015
 8061SOL    HW235643   3.293   0.827   2.908 -0.3615  1.0685  0.2150
 8062SOL     OW35644   1.931   0.120   6.029 -0.6209  0.6653  0.0863
 8062SOL    HW135645   1.891   0.179   5.966 -0.0091  1.1145  0.1314
 8062SOL    HW235646   1.887   0.036   6.012  2.4087 -0.7755 -0.6042
 8063SOL     OW35647   3.352   3.704   6.348 -0.1478 -0.4838 -0.1909
 8063SOL    HW135648   3.269   3.670   6.382 -0.5942  0.8881  0.0869
 8063SOL    HW235649   3.354   3.799   6.358 -0.1295 -0.4493 -0.5035
 8064SOL     OW35650   0.639   3.936   2.863  0.1217  0.1980  0.0520
 8064SOL    HW135651   0.701   3.942   2.936  0.0803  1.8864 -0.0671
 8064SOL    HW235652   0.592   4.018   2.878 -0.4533 -0.2046  0.5102
 8065SOL     OW35653   2.577   4.256   4.623  0.0165 -0.4934 -0.3828
 8065SOL    HW135654   2.604   4.232   4.712  0.0605 -2.5898 -0.9665
 8065SOL    HW235655   2.645   4.209   4.574 -0.1166 -1.4291  0.3361
 8066SOL     OW35656   0.090   0.918   6.519 -0.4081 -0.0970  0.7012
 8066SOL    HW135657   0.159   0.907   6.453  0.1411  2.6909  0.8370
 8066SOL    HW235658   0.006   0.902   6.476  0.2072 -0.3372 -0.4055
 8067SOL     OW35659   0.941   1.428   6.454 -0.3470 -0.4221 -0.2690
 8067SOL    HW135660   1.023   1.434   6.404  0.9589 -0.3383  1.8542
 8067SOL    HW235661   0.882   1.465   6.389 -0.8164 -0.8970 -0.1167
 8068SOL     OW35662   2.114   1.469   8.892  0.6280  0.6304 -0.0871
 8068SOL    HW135663   2.150   1.381   8.898 -1.0463 -0.0811 -0.4281
 8068SOL    HW235664   2.103   1.476   8.987 -2.0881  1.7001 -0.4661
 8069SOL     OW35665   3.500   2.030   9.304  0.6405 -0.1692 -0.0798
 8069SOL    HW135666   3.542   1.966   9.246 -0.8491 -0.2872 -1.0149
 8069SOL    HW235667   3.583   2.067   9.336  1.4183  1.2523 -3.7160
 8070SOL     OW35668   2.369   2.632  10.849 -0.2265 -0.4308 -0.1023
 8070SOL    HW135669   2.276   2.647  10.833  0.0358  1.0884 -0.2262
 8070SOL    HW235670   2.365   2.572  10.924  1.6406  3.1562  2.8786
 8071SOL     OW35671   1.140   1.863  16.102 -0.1713  0.0385 -0.1916
 8071SOL    HW135672   1.222   1.911  16.093  0.2293 -0.6785 -0.3392
 8071SOL    HW235673   1.089   1.896  16.028 -0.4171 -0.1347 -0.1016
 8072SOL     OW35674   4.266   3.174   2.199  0.2427 -0.1512 -0.1566
 8072SOL    HW135675   4.235   3.185   2.289 -0.0115  0.2952 -0.2993
 8072SOL    HW235676   4.225   3.251   2.159  1.2592  1.2368  1.4749
 8073SOL     OW35677   4.280   0.397   4.860 -0.2677 -0.5423  0.0974
 8073SOL    HW135678   4.294   0.475   4.806  1.2337  1.1632  2.9890
 8073SOL    HW235679   4.341   0.336   4.819  0.7651  0.3706  0.3020
 8074SOL     OW35680   0.474   0.487   6.954 -0.3618 -0.1177 -0.6612
 8074SOL    HW135681   0.498   0.505   6.863 -0.9021 -0.5999 -0.9013
 8074SOL    HW235682   0.441   0.575   6.973  0.1290 -0.2905  1.0309
 8075SOL     OW35683   0.273   1.784   5.072  0.0275  0.5756  0.1073
 8075SOL    HW135684   0.205   1.851   5.079 -1.7913 -1.1858 -0.6912
 8075SOL    HW235685   0.338   1.820   5.012  0.7227  0.5976  0.8739
 8076SOL     OW35686   0.151   0.561   1.020 -0.3173 -0.3758 -0.5404
 8076SOL    HW135687   0.117   0.562   0.930  1.5748 -1.6456 -1.2778
 8076SOL    HW235688   0.244   0.579   1.005  0.2720 -1.3774  1.8876
 8077SOL     OW35689   4.410   0.175  16.294  0.2129  0.0610  0.4051
 8077SOL    HW135690   4.416   0.111  16.223 -1.4776  0.9954 -0.5997
 8077SOL    HW235691   4.496   0.162  16.331  1.8014  0.4883 -3.1088
 8078SOL     OW35692   3.809   2.005  13.144 -0.1324 -0.9053  0.0930
 8078SOL    HW135693   3.746   1.966  13.204 -2.6650  2.5791 -0.3327
 8078SOL    HW235694   3.754   2.016  13.067  2.0588 -1.8680 -1.6212
 8079SOL     OW35695   4.324   3.723   4.842 -0.2736  0.7174  0.4921
 8079SOL    HW135696   4.276   3.787   4.896 -0.2465  3.0159 -2.2078
 8079SOL    HW235697   4.414   3.738   4.871 -0.3945  1.5097  0.4501
 8080SOL     OW35698   0.700   2.228   6.518 -0.1166 -0.4684 -0.0960
 8080SOL    HW135699   0.795   2.220   6.508 -0.1762 -0.5991 -0.5486
 8080SOL    HW235700   0.706   2.290   6.591  1.1512 -0.1800 -0.4508
 8081SOL     OW35701   3.956   0.124   2.536  0.2190  0.1976  0.0652
 8081SOL    HW135702   4.035   0.111   2.484 -1.0352  1.8480 -2.2430
 8081SOL    HW235703   3.912   0.194   2.489 -2.6741 -0.4979  1.7638
 8082SOL     OW35704   2.855   1.620   6.738  0.2342  0.3094  0.6574
 8082SOL    HW135705   2.838   1.709   6.705 -2.2724 -0.7563 -0.8999
 8082SOL    HW235706   2.767   1.582   6.727  0.6505 -0.8308  1.2623
 8083SOL     OW35707   3.614   1.360   2.706 -0.2423  0.4288  0.0139
 8083SOL    HW135708   3.665   1.280   2.719 -0.2505  0.3831 -0.2337
 8083SOL    HW235709   3.526   1.322   2.713 -0.4417  0.6410 -1.4381
 8084SOL     OW35710   0.846   2.040   1.531 -0.2366 -0.4515  0.3327
 8084SOL    HW135711   0.765   2.047   1.582  0.3803  0.5196  1.1708
 8084SOL    HW235712   0.808   2.012   1.447 -0.7478 -1.8735  1.0437
 8085SOL     OW35713   1.635   1.728  10.989 -0.4876  0.1010 -0.1038
 8085SOL    HW135714   1.620   1.799  10.926 -1.2379  0.2779  0.2749
 8085SOL    HW235715   1.604   1.775  11.066  0.3205  0.1775  0.1746
 8086SOL     OW35716   3.829   2.773   8.028 -0.8905 -0.0131 -0.8779
 8086SOL    HW135717   3.885   2.826   7.971 -0.1374  2.9159  2.5361
 8086SOL    HW235718   3.745   2.819   8.020 -0.7998 -0.0004 -1.7614
 8087SOL     OW35719   1.826   0.895   3.635 -0.1475  0.2315  0.0477
 8087SOL    HW135720   1.799   0.903   3.726  1.4683  0.3747  0.5180
 8087SOL    HW235721   1.921   0.888   3.644 -0.3418 -0.1197  1.8530
 8088SOL     OW35722   1.252   2.881   6.405 -0.0070  0.2701  0.3987
 8088SOL    HW135723   1.316   2.941   6.366 -0.6190  0.8919  0.3465
 8088SOL    HW235724   1.314   2.820   6.443  0.8514  0.0772 -1.2791
 8089SOL     OW35725   4.652   4.031   4.194  0.0109  0.1579  0.5629
 8089SOL    HW135726   0.018   3.999   4.198 -0.2234 -0.8789 -2.1363
 8089SOL    HW235727   4.637   4.039   4.288  0.0764 -0.1227  0.5992
 8090SOL     OW35728   3.864   1.640   7.232  0.1706 -0.6862  0.5616
 8090SOL    HW135729   3.788   1.697   7.221  0.0390 -1.0075 -0.2307
 8090SOL    HW235730   3.926   1.682   7.174 -0.6089  1.0895  1.0074
 8091SOL     OW35731   1.961   1.028   0.661  0.2734 -0.6748  0.1023
 8091SOL    HW135732   1.987   0.951   0.611  2.2665  0.1783 -0.1706
 8091SOL    HW235733   1.948   1.092   0.591 -1.2345 -1.5111 -0.3632
 8092SOL     OW35734   1.602   1.571  16.051  0.0984 -0.2781 -0.1629
 8092SOL    HW135735   1.525   1.624  16.028 -1.0801 -2.0754 -0.3870
 8092SOL    HW235736   1.675   1.613  16.005  0.2522  0.9054  1.1866
 8093SOL     OW35737   4.632   3.665   8.342  0.1544 -0.3235  0.9853
 8093SOL    HW135738   4.584   3.679   8.260 -0.0039 -0.1749  1.1026
 8093SOL    HW235739   4.595   3.581   8.369  0.5994 -1.1606 -1.0388
 8094SOL     OW35740   1.331   2.723   0.378  0.3371 -0.9994  0.5799
 8094SOL    HW135741   1.266   2.705   0.446  0.0868  1.4854  1.0045
 8094SOL    HW235742   1.282   2.739   0.298  1.1947 -0.9485  0.0649
 8095SOL     OW35743   1.589   0.979  12.498 -0.2580 -0.6733  0.0159
 8095SOL    HW135744   1.679   0.992  12.527 -1.6766  1.6291  3.3455
 8095SOL    HW235745   1.541   0.985  12.581  0.0285 -2.0398  0.2801
 8096SOL     OW35746   1.329   1.608   8.285 -0.2954 -0.4264  0.0864
 8096SOL    HW135747   1.327   1.649   8.198  3.3896 -0.6264 -0.0937
 8096SOL    HW235748   1.328   1.682   8.346  0.3787 -1.9360  1.9156
 8097SOL     OW35749   2.656   1.550   8.913  0.2617 -0.6963  0.2405
 8097SOL    HW135750   2.614   1.541   8.998  0.2273 -0.3725  0.2579
 8097SOL    HW235751   2.584   1.593   8.867  0.3714 -0.4934  0.2559
 8098SOL     OW35752   3.276   0.115  17.488  0.0241  0.4997 -0.1811
 8098SOL    HW135753   3.345   0.174  17.517 -0.0571 -0.2187  1.4755
 8098SOL    HW235754   3.321   0.033  17.508  0.6364  0.9485  0.2732
 8099SOL     OW35755   3.688   4.698   8.148  0.2942 -0.2045  0.5431
 8099SOL    HW135756   3.653   0.056   8.113  2.7744 -0.4702 -2.5350
 8099SOL    HW235757   3.695   4.709   8.243 -1.2328 -0.4962  0.7003
 8100SOL     OW35758   1.992   0.561  14.051 -0.4620  0.5670  0.1360
 8100SOL    HW135759   1.917   0.538  14.106 -1.5674  1.5333 -0.9777
 8100SOL    HW235760   1.981   0.489  13.989 -0.1157  2.7511 -2.4818
 8101SOL     OW35761   4.275   2.266   9.763  0.1510 -0.0966  0.6712
 8101SOL    HW135762   4.355   2.313   9.742 -0.2204  0.1486 -0.1873
 8101SOL    HW235763   4.322   2.188   9.794  1.8709  0.3036 -0.9411
 8102SOL     OW35764   1.002   3.468   8.027 -0.3640  0.2688 -0.0197
 8102SOL    HW135765   0.953   3.421   7.961  1.9438  0.2537 -1.7318
 8102SOL    HW235766   1.088   3.426   8.033 -0.9874 -0.8907  0.8496
 8103SOL     OW35767   1.519   0.601   6.959  0.4559 -0.1610 -0.3353
 8103SOL    HW135768   1.432   0.639   6.947 -0.8027 -3.0908 -0.6139
 8103SOL    HW235769   1.570   0.665   7.009  1.2674 -0.7445 -0.4068
 8104SOL     OW35770   4.176   2.957   5.965  0.7438  0.0485  0.3100
 8104SOL    HW135771   4.206   3.035   5.919  0.5599  0.7299  1.3589
 8104SOL    HW235772   4.246   2.946   6.029 -0.3452 -2.1050  1.1397
 8105SOL     OW35773   3.638   3.103   0.992 -0.2307 -0.2824  0.0310
 8105SOL    HW135774   3.649   3.016   0.954  0.6823  0.1651 -0.7376
 8105SOL    HW235775   3.654   3.097   1.087  0.9898  2.4649 -0.0070
 8106SOL     OW35776   0.539   0.680   4.542 -0.1510  0.1614 -0.0989
 8106SOL    HW135777   0.605   0.740   4.579 -0.9801  1.5566 -0.9162
 8106SOL    HW235778   0.600   0.606   4.539  0.8017  0.9413 -0.0887
 8107SOL     OW35779   1.751   0.085   6.950  0.3278  0.1660  0.2776
 8107SOL    HW135780   1.833   0.036   6.954  0.2488 -0.1349 -1.6938
 8107SOL    HW235781   1.753   0.130   6.866  1.4094  0.3742  0.4153
 8108SOL     OW35782   3.374   0.730   6.754  0.1617  0.4874  0.0882
 8108SOL    HW135783   3.362   0.814   6.710  2.1081  1.1704  0.8500
 8108SOL    HW235784   3.284   0.718   6.784  0.0059  2.6258  0.4281
 8109SOL     OW35785   0.481   2.196   4.215 -0.7104  0.0393  0.2182
 8109SOL    HW135786   0.497   2.226   4.304  0.3802 -1.5205  0.5425
 8109SOL    HW235787   0.492   2.280   4.171 -0.5224  0.0641  0.3151
 8110SOL     OW35788   3.298   0.609   3.912  0.1516  0.4636 -0.1404
 8110SOL    HW135789   3.303   0.695   3.953 -1.2479  0.7671 -0.6181
 8110SOL    HW235790   3.255   0.621   3.827 -0.1917  0.4491  0.0291
 8111SOL     OW35791   0.169   1.524  15.438 -0.4688 -0.1570 -0.1824
 8111SOL    HW135792   0.116   1.477  15.502 -0.9695 -0.4231 -0.7984
 8111SOL    HW235793   0.259   1.506  15.466 -1.1702  0.5898  2.5836
 8112SOL     OW35794   3.074   3.120  16.940  0.2238  0.3307  0.3683
 8112SOL    HW135795   3.019   3.195  16.918  0.3967  0.1178 -0.7939
 8112SOL    HW235796   3.149   3.141  16.884  0.9895 -0.8668  0.9354
 8113SOL     OW35797   2.040   1.481   2.778  0.2842 -0.1789 -0.1361
 8113SOL    HW135798   2.031   1.408   2.840  0.4817 -0.1052 -0.0221
 8113SOL    HW235799   2.112   1.538   2.802  0.3011 -0.7335  1.1386
 8114SOL     OW35800   3.305   0.402   0.804 -0.0284 -0.0014  0.0920
 8114SOL    HW135801   3.235   0.457   0.769  0.1948  0.9025  1.0773
 8114SOL    HW235802   3.351   0.468   0.856 -1.2828 -0.2648  1.5535
 8115SOL     OW35803   0.737   0.370   4.695  0.5314 -0.0517 -0.5061
 8115SOL    HW135804   0.658   0.397   4.742  0.4164  0.6713 -1.1238
 8115SOL    HW235805   0.767   0.290   4.739  1.6924 -0.0358 -1.2605
 8116SOL     OW35806   0.996   0.698   9.619 -0.2799 -0.0178  0.2973
 8116SOL    HW135807   1.088   0.673   9.626 -0.3721 -1.3148 -2.8852
 8116SOL    HW235808   0.979   0.661   9.706  4.3036 -1.8564  0.3809
 8117SOL     OW35809   2.802   0.669   6.791  0.4244 -0.2526  0.1461
 8117SOL    HW135810   2.832   0.752   6.828 -0.3028 -0.0563  0.3092
 8117SOL    HW235811   2.799   0.687   6.697 -1.3399  0.6566  0.3751
 8118SOL     OW35812   1.782   4.612   5.965  0.2376 -0.1783  0.6559
 8118SOL    HW135813   1.840   4.568   5.903 -0.1594 -0.4956  0.5116
 8118SOL    HW235814   1.708   4.551   5.966  0.2738 -0.2507 -0.3118
 8119SOL     OW35815   0.885   0.002   3.382 -0.4842  0.2105 -0.3723
 8119SOL    HW135816   0.920   4.637   3.389  0.3297  0.5786  0.2195
 8119SOL    HW235817   0.908   0.024   3.472  0.0758 -1.3045 -0.1475
 8120SOL     OW35818   3.536   4.595  11.701 -0.5147 -0.0771 -0.2132
 8120SOL    HW135819   3.449   4.594  11.740  0.5594 -0.5430  2.1445
 8120SOL    HW235820   3.516   4.541  11.624  2.8219  1.6393 -2.2792
 8121SOL     OW35821   1.689   2.797   7.923  0.3523 -0.4223 -0.4122
 8121SOL    HW135822   1.761   2.777   7.863  0.9502 -0.2029  0.2461
 8121SOL    HW235823   1.613   2.762   7.875  0.8507 -2.9117  0.5968
 8122SOL     OW35824   0.755   1.367   0.249  0.1232  0.1059 -0.0896
 8122SOL    HW135825   0.808   1.396   0.323 -2.5681  2.2874  0.9994
 8122SOL    HW235826   0.787   1.277   0.244  0.2226  0.2287 -1.7827
 8123SOL     OW35827   0.283   2.670   2.101 -0.4060  0.0726 -0.0838
 8123SOL    HW135828   0.198   2.632   2.080  0.0294 -0.9095 -0.0485
 8123SOL    HW235829   0.319   2.695   2.016  0.4977  1.5685  0.7304
 8124SOL     OW35830   2.282   3.416   5.588  0.1346  0.3611 -0.5878
 8124SOL    HW135831   2.244   3.449   5.669  0.4987 -0.0873 -0.2288
 8124SOL    HW235832   2.372   3.390   5.611  0.3389  0.7156 -0.9788
 8125SOL     OW35833   4.297   4.276   3.251  0.5990  0.0044 -0.3900
 8125SOL    HW135834   4.347   4.269   3.169 -0.3087 -2.8090 -0.6924
 8125SOL    HW235835   4.302   4.186   3.282  1.7706  0.7215  1.4644
 8126SOL     OW35836   2.531   4.065   4.317 -0.3686  0.5431 -0.4672
 8126SOL    HW135837   2.444   4.100   4.298  0.0810  0.5607 -2.4068
 8126SOL    HW235838   2.529   3.975   4.287 -0.5529  0.3092  0.2359
 8127SOL     OW35839   2.077   2.770   0.395  0.0289  0.3389  0.4778
 8127SOL    HW135840   2.092   2.788   0.488  3.6481  1.0690 -0.2347
 8127SOL    HW235841   1.986   2.796   0.385 -0.1504 -0.3505  0.3245
 8128SOL     OW35842   2.273   4.533   3.544 -0.2801  0.1348 -0.0477
 8128SOL    HW135843   2.365   4.539   3.572 -0.2944 -1.2614  0.2683
 8128SOL    HW235844   2.288   4.535   3.449  0.7117  1.1523  0.1258
 8129SOL     OW35845   3.309   3.092   3.293  0.5461 -0.7061 -0.4740
 8129SOL    HW135846   3.375   3.154   3.262 -0.0001 -0.3037 -0.8371
 8129SOL    HW235847   3.286   3.051   3.209 -0.5713 -1.4460  0.1990
 8130SOL     OW35848   4.695   2.629   6.253  0.1666  0.0939  0.2070
 8130SOL    HW135849   4.703   2.535   6.268 -1.0751 -0.1423 -0.5953
 8130SOL    HW235850   4.633   2.638   6.180 -0.3909 -0.2607  0.6423
 8131SOL     OW35851   3.807   1.332   4.061  0.2200 -0.3996  0.1001
 8131SOL    HW135852   3.742   1.274   4.100 -1.7692  0.7970 -1.4711
 8131SOL    HW235853   3.789   1.322   3.968  2.6133 -1.9442 -0.2103
 8132SOL     OW35854   4.189   0.195   7.945 -0.7520 -0.1300  0.6809
 8132SOL    HW135855   4.281   0.168   7.947 -1.1335 -1.6045 -1.7538
 8132SOL    HW235856   4.158   0.118   7.993  0.7248 -1.5344 -0.5744
 8133SOL     OW35857   3.864   0.996  11.297 -0.1210 -0.2656  0.3194
 8133SOL    HW135858   3.902   1.049  11.367  0.2060 -1.2655  0.8976
 8133SOL    HW235859   3.819   1.061  11.244  0.1875  0.0977  0.4978
 8134SOL     OW35860   3.243   2.334   9.359 -0.5266  0.8435 -0.2001
 8134SOL    HW135861   3.147   2.325   9.357 -0.5080  0.5069  0.4203
 8134SOL    HW235862   3.264   2.290   9.276 -1.1927 -2.8417  1.5856
 8135SOL     OW35863   3.794   4.108  15.140  0.3016  0.5277  0.1135
 8135SOL    HW135864   3.724   4.132  15.080  1.3644 -1.3278 -1.9032
 8135SOL    HW235865   3.857   4.065  15.082 -2.0508 -1.9968 -0.5563
 8136SOL     OW35866   1.413   3.065   2.448  0.4285  0.6066  0.0565
 8136SOL    HW135867   1.422   2.985   2.397 -2.7059  0.9302 -1.0054
 8136SOL    HW235868   1.361   3.122   2.390  0.1779 -0.9732 -1.2720
 8137SOL     OW35869   2.742   1.938   3.855  0.4898 -0.0370  0.7249
 8137SOL    HW135870   2.811   1.889   3.899  1.6309  0.1412 -0.8562
 8137SOL    HW235871   2.684   1.964   3.927 -0.1710  1.0089 -0.1832
 8138SOL     OW35872   1.866   0.069   7.536 -0.5112  0.3079  0.2891
 8138SOL    HW135873   1.915   0.123   7.598  0.1898  0.6075 -0.5137
 8138SOL    HW235874   1.859   4.714   7.588  2.2907 -0.0640  0.1191
 8139SOL     OW35875   0.033   4.116   8.118  0.2703 -0.2149  0.4857
 8139SOL    HW135876   4.683   4.107   8.177 -0.8246 -2.6707 -1.3104
 8139SOL    HW235877   0.008   4.109   8.026 -0.4166 -1.0417  0.7411
 8140SOL     OW35878   2.552   1.989   4.044  0.1037  0.1276  0.2088
 8140SOL    HW135879   2.544   2.078   4.009  2.8001  1.2669  2.4874
 8140SOL    HW235880   2.562   2.002   4.138  0.2029  0.5559  0.1397
 8141SOL     OW35881   0.989   1.675   8.494 -0.4468  0.8485  0.8121
 8141SOL    HW135882   1.026   1.587   8.504 -0.5566  0.6781 -0.2216
 8141SOL    HW235883   0.941   1.659   8.412  1.8592  0.9692 -0.5640
 8142SOL     OW35884   3.394   1.007   5.311  0.4391  0.5623 -0.1418
 8142SOL    HW135885   3.414   0.992   5.218 -1.7680 -0.7088 -0.4158
 8142SOL    HW235886   3.317   0.950   5.311  1.5524 -0.9559 -0.8205
 8143SOL     OW35887   4.380   1.584   3.408 -0.0367  0.2967 -0.4136
 8143SOL    HW135888   4.361   1.633   3.328 -1.7020 -0.0898 -0.2586
 8143SOL    HW235889   4.421   1.647   3.467  1.0379  1.4835 -2.4230
 8144SOL     OW35890   0.603   0.713   1.289 -0.3488  0.0262  0.5147
 8144SOL    HW135891   0.637   0.783   1.345  0.3556  1.5058 -1.7452
 8144SOL    HW235892   0.630   0.635   1.337  0.8881 -1.3798 -2.3974
 8145SOL     OW35893   0.154   2.293  12.207  0.1948  0.1515  0.1225
 8145SOL    HW135894   0.161   2.213  12.155  0.7364  0.0158  0.4064
 8145SOL    HW235895   0.228   2.287  12.267  0.0905 -0.3995  0.1945
 8146SOL     OW35896   0.509   3.752   2.103  0.1049  0.0573  0.2750
 8146SOL    HW135897   0.535   3.829   2.052  1.2760 -0.5374 -0.0248
 8146SOL    HW235898   0.413   3.758   2.105 -0.0293 -1.8701 -1.1900
 8147SOL     OW35899   3.042   4.016   7.976  0.1764 -0.1942 -0.4494
 8147SOL    HW135900   3.065   3.926   7.955 -2.1314 -0.4289 -2.0327
 8147SOL    HW235901   2.947   4.005   7.985  0.3991 -0.9277  0.9421
 8148SOL     OW35902   0.647   1.942   9.346 -0.0047 -0.0949  0.1886
 8148SOL    HW135903   0.709   1.902   9.406  1.0465  2.5496  0.8926
 8148SOL    HW235904   0.564   1.897   9.364 -0.8886  0.7598 -1.6817
 8149SOL     OW35905   1.743   1.082   1.069 -0.3267 -0.3737 -0.5951
 8149SOL    HW135906   1.730   0.990   1.092 -0.0087 -0.6629 -1.5888
 8149SOL    HW235907   1.689   1.122   1.137 -0.4820  0.4128 -1.1816
 8150SOL     OW35908   0.535   0.574  14.013  0.2760 -0.1420 -0.5985
 8150SOL    HW135909   0.559   0.654  14.060  3.1324  0.3102 -2.8658
 8150SOL    HW235910   0.493   0.610  13.935 -1.5650 -1.8515 -0.4057
 8151SOL     OW35911   1.330   4.434   6.346 -0.3788  0.7176  0.1823
 8151SOL    HW135912   1.312   4.428   6.439 -2.3490 -1.6139 -0.3540
 8151SOL    HW235913   1.305   4.352   6.302  0.2623 -0.4519  2.0179
 8152SOL     OW35914   1.960   1.544   4.438  0.0610 -0.6380  0.0175
 8152SOL    HW135915   1.910   1.616   4.477  0.8014 -0.6485  0.9762
 8152SOL    HW235916   2.027   1.587   4.386  0.0345  0.5512  0.9641
 8153SOL     OW35917   0.449   3.147   6.101 -0.3778  0.3279 -0.3385
 8153SOL    HW135918   0.533   3.126   6.061  0.6420  2.0941  0.8597
 8153SOL    HW235919   0.414   3.058   6.100  1.8055 -0.5481  2.3407
 8154SOL     OW35920   3.470   4.357  10.442 -0.2802  0.3751  0.1575
 8154SOL    HW135921   3.466   4.263  10.459 -2.7755  1.0552  3.2129
 8154SOL    HW235922   3.440   4.365  10.351 -1.0621  0.2248  0.4099
 8155SOL     OW35923   2.766   4.343   1.157  1.1599  0.0888 -0.7843
 8155SOL    HW135924   2.807   4.338   1.244 -2.1831  0.3583  0.7916
 8155SOL    HW235925   2.723   4.257   1.155  0.0035  0.6654 -0.6318
 8156SOL     OW35926   0.231   1.826   2.186 -0.3058  0.3327  0.4367
 8156SOL    HW135927   0.221   1.748   2.240 -2.3768  1.1344  1.2263
 8156SOL    HW235928   0.197   1.795   2.102 -0.4791 -0.0681  0.6590
 8157SOL     OW35929   2.681   1.835   3.284  0.3035  0.1403 -0.8987
 8157SOL    HW135930   2.709   1.923   3.306  1.9227 -0.8357  0.9123
 8157SOL    HW235931   2.631   1.851   3.204  0.9075  2.2959 -0.8382
 8158SOL     OW35932   0.139   1.739   7.824 -0.1206 -0.2367  0.5429
 8158SOL    HW135933   0.167   1.819   7.869  0.3123 -0.3429  0.4587
 8158SOL    HW235934   0.090   1.768   7.747 -0.1801  0.9264  1.0200
 8159SOL     OW35935   4.663   3.869  15.444 -0.0087 -0.1811 -0.1645
 8159SOL    HW135936   4.639   3.952  15.483 -0.2239 -0.2588 -0.1278
 8159SOL    HW235937   4.720   3.826  15.508  1.6426  0.9531 -0.8978
 8160SOL     OW35938   1.128   3.189   3.976  0.8244 -0.9999  0.1171
 8160SOL    HW135939   1.133   3.228   3.889 -1.0691  0.4480  0.6794
 8160SOL    HW235940   1.080   3.255   4.025  1.2634 -2.1116  2.0517
 8161SOL     OW35941   0.309   2.526  17.001 -0.3209  0.1062 -0.4160
 8161SOL    HW135942   0.308   2.621  16.997 -1.4772  0.1461  0.5875
 8161SOL    HW235943   0.264   2.513  17.085 -0.2005 -1.3103 -0.5594
 8162SOL     OW35944   0.361   2.551   6.945  0.1260  0.3835 -0.1057
 8162SOL    HW135945   0.339   2.640   6.973 -1.9898 -0.2350  0.1279
 8162SOL    HW235946   0.376   2.501   7.025 -0.0507  1.0864  0.3659
 8163SOL     OW35947   2.753   1.372   2.232 -0.0931  0.3285  0.2131
 8163SOL    HW135948   2.791   1.459   2.226 -1.2636  1.0435  2.9427
 8163SOL    HW235949   2.696   1.352   2.157 -0.8780 -0.0275  0.8997
 8164SOL     OW35950   3.944   0.719   5.739 -0.0514 -0.4790  0.0439
 8164SOL    HW135951   3.886   0.762   5.676  2.3493  0.0171 -1.8187
 8164SOL    HW235952   4.022   0.741   5.687  0.0811 -0.8110  0.0998
 8165SOL     OW35953   3.607   2.727   7.222  0.5840  0.2732  0.2103
 8165SOL    HW135954   3.676   2.676   7.180 -0.5388  0.1267 -1.4999
 8165SOL    HW235955   3.584   2.794   7.157  1.3252 -0.5372 -0.8800
 8166SOL     OW35956   0.881   1.724  11.512  0.5647 -0.3812 -0.3994
 8166SOL    HW135957   0.862   1.681  11.595 -1.1126  0.7973 -0.1650
 8166SOL    HW235958   0.957   1.672  11.484 -0.4751 -2.7102  1.1342
 8167SOL     OW35959   0.167   3.481   5.081 -0.1807  0.1213  0.2965
 8167SOL    HW135960   0.167   3.536   5.159 -1.0237  0.0984  0.3192
 8167SOL    HW235961   0.110   3.408   5.104 -1.6195  0.9452 -0.6366
 8168SOL     OW35962   4.643   1.195   6.817  0.1514  0.5474  0.0906
 8168SOL    HW135963   4.637   1.111   6.864 -0.1386  0.2306 -0.5007
 8168SOL    HW235964   4.581   1.168   6.749  0.7529  0.2444 -0.3311
 8169SOL     OW35965   1.455   3.223   3.948  0.2410  0.1569 -0.0376
 8169SOL    HW135966   1.515   3.221   3.874  0.7340 -1.3701  0.4189
 8169SOL    HW235967   1.379   3.259   3.903  1.8536 -0.7825 -3.4897
 8170SOL     OW35968   2.094   2.596   6.959 -0.4585  0.3456  0.0201
 8170SOL    HW135969   2.071   2.575   7.049  1.8501  1.1584  0.7897
 8170SOL    HW235970   2.122   2.686   6.972  3.1222 -0.4643 -2.0610
 8171SOL     OW35971   2.364   2.928  10.863 -0.0125 -0.3628 -0.7776
 8171SOL    HW135972   2.367   2.977  10.945  1.3248  1.6559 -2.0219
 8171SOL    HW235973   2.330   2.845  10.895  0.2904  0.2739  1.1972
 8172SOL     OW35974   2.749   1.163   2.973  0.3174 -0.2862  0.2516
 8172SOL    HW135975   2.667   1.165   3.023  0.3338 -2.4097  0.3751
 8172SOL    HW235976   2.768   1.256   2.959  2.8312 -0.8355  0.0514
 8173SOL     OW35977   0.706   0.924  13.516  0.1072  0.0805 -0.9618
 8173SOL    HW135978   0.614   0.951  13.515 -0.6626 -2.5072 -0.4150
 8173SOL    HW235979   0.730   0.909  13.425  1.5848 -2.4926 -0.1410
 8174SOL     OW35980   2.019   3.110   0.229 -0.1500 -0.0257  0.3165
 8174SOL    HW135981   1.989   3.192   0.267 -3.2689 -0.2533 -1.6412
 8174SOL    HW235982   1.986   3.042   0.288  0.2592 -0.1582  0.3932
 8175SOL     OW35983   2.041   3.445   8.635  0.0493 -0.2243  0.5829
 8175SOL    HW135984   2.092   3.465   8.557 -0.6439 -0.3190  0.0991
 8175SOL    HW235985   2.107   3.428   8.702 -0.2431  0.1420  0.9594
 8176SOL     OW35986   4.434   2.184   5.369  0.5284  0.3772  0.1178
 8176SOL    HW135987   4.472   2.114   5.422 -0.3507 -0.6483 -0.6178
 8176SOL    HW235988   4.510   2.242   5.367  1.5967 -1.1461 -1.9758
 8177SOL     OW35989   2.090   4.171   3.826  0.9052  0.1533 -0.4528
 8177SOL    HW135990   2.045   4.180   3.742 -0.7713 -1.1488  0.3152
 8177SOL    HW235991   2.107   4.264   3.843  1.8272 -0.3340  1.2206
 8178SOL     OW35992   2.070   4.396   8.631 -0.4024  0.2835  0.4297
 8178SOL    HW135993   2.085   4.488   8.651 -1.4874  0.4894  0.3288
 8178SOL    HW235994   2.009   4.405   8.558 -0.3437 -0.0049  0.3433
 8179SOL     OW35995   1.973   1.819   5.057  0.3988  0.7134 -0.3503
 8179SOL    HW135996   1.971   1.775   5.142  1.3832  4.1874  1.4773
 8179SOL    HW235997   2.037   1.887   5.078  0.9979  0.5930 -1.7827
 8180SOL     OW35998   3.278   1.965   9.470  0.1759 -0.6727  0.2815
 8180SOL    HW135999   3.337   1.902   9.512  0.3139  0.4390  1.7632
 8180SOL    HW236000   3.345   1.995   9.408  0.7965  0.9406  1.7200
 8181SOL     OW36001   3.878   3.407   5.210 -0.2548 -0.1968  0.3876
 8181SOL    HW136002   3.974   3.412   5.210 -0.3512  1.2912  1.9475
 8181SOL    HW236003   3.865   3.389   5.303  1.5861 -0.7829  0.5275
 8182SOL     OW36004   2.561   1.285  13.410 -0.3925 -0.4732  0.1888
 8182SOL    HW136005   2.604   1.358  13.365 -1.5071 -0.3027 -0.6039
 8182SOL    HW236006   2.623   1.215  13.390  1.0054  0.7088  0.4183
 8183SOL     OW36007   1.875   1.340  17.621 -0.3443  0.3261  0.1475
 8183SOL    HW136008   1.808   1.346  17.688 -0.0279  0.1742  0.4802
 8183SOL    HW236009   1.822   1.372  17.548 -0.5984  1.4474  0.8299
 8184SOL     OW36010   1.726   2.533   3.361 -0.9803  0.3990 -0.2742
 8184SOL    HW136011   1.675   2.454   3.344  2.4861 -2.5947  3.0917
 8184SOL    HW236012   1.667   2.585   3.417 -1.4021 -0.3588 -0.0184
 8185SOL     OW36013   2.507   2.509  14.623  0.5139  0.6934  0.0330
 8185SOL    HW136014   2.585   2.502  14.678  0.6499  0.5843 -0.1790
 8185SOL    HW236015   2.523   2.584  14.566  1.2029  2.0099  1.9217
 8186SOL     OW36016   2.906   0.767   0.687  0.4365  0.2550  0.2630
 8186SOL    HW136017   2.945   0.706   0.623 -2.4140  1.1078 -2.2883
 8186SOL    HW236018   2.840   0.714   0.731 -1.3960  1.2417 -1.3294
 8187SOL     OW36019   0.598   1.298   2.027 -0.2117 -0.4124 -0.1278
 8187SOL    HW136020   0.663   1.231   2.046  1.0549  1.1884  1.2426
 8187SOL    HW236021   0.621   1.360   2.097  0.9854  0.6758 -1.5030
 8188SOL     OW36022   3.384   2.384   4.266  0.0110  0.6397  0.3130
 8188SOL    HW136023   3.428   2.465   4.290  0.6219  0.4299 -0.0881
 8188SOL    HW236024   3.420   2.322   4.331 -2.8895 -0.8996  0.4609
 8189SOL     OW36025   3.927   1.181   4.922 -0.3759  0.0479  0.4701
 8189SOL    HW136026   3.959   1.212   4.838  0.1362  1.7363  1.2843
 8189SOL    HW236027   3.973   1.244   4.977 -0.2776 -0.7450  1.3099
 8190SOL     OW36028   3.597   2.697   2.711 -0.4215  0.5139  0.0780
 8190SOL    HW136029   3.602   2.768   2.646  3.3049  1.4889  1.4058
 8190SOL    HW236030   3.506   2.683   2.737  0.1350 -0.0199  1.7574
 8191SOL     OW36031   3.166   1.956  10.182 -0.2742  0.1176 -0.0233
 8191SOL    HW136032   3.181   1.899  10.107  1.6171 -1.5761  1.6340
 8191SOL    HW236033   3.203   2.035  10.142 -0.3436 -0.6327 -1.5545
 8192SOL     OW36034   4.484   2.062   8.858 -0.0069 -0.4497 -0.1995
 8192SOL    HW136035   4.420   1.992   8.846 -1.0543  0.2983  0.9836
 8192SOL    HW236036   4.565   2.011   8.865  1.6686  2.2724  0.2557
 8193SOL     OW36037   2.587   3.495   2.835  0.7038 -0.1789  0.1745
 8193SOL    HW136038   2.604   3.588   2.817  1.8437 -0.7973 -1.9292
 8193SOL    HW236039   2.510   3.512   2.890  0.9840 -1.3795  0.9326
 8194SOL     OW36040   4.520   3.627   5.213 -0.1309 -0.6219 -0.1534
 8194SOL    HW136041   4.504   3.715   5.248 -0.3790 -0.9821  0.6298
 8194SOL    HW236042   4.517   3.656   5.122  1.7246  0.0349 -0.0009
 8195SOL     OW36043   2.262   2.450   0.203  0.2362 -0.4691 -0.2572
 8195SOL    HW136044   2.312   2.409   0.274 -1.5306 -3.3315 -0.6510
 8195SOL    HW236045   2.175   2.465   0.241 -0.3800 -0.4082 -1.6818
 8196SOL     OW36046   0.282   0.221   4.806  0.4016  0.0489 -0.0892
 8196SOL    HW136047   0.199   0.218   4.854 -0.2310 -1.3221 -1.2623
 8196SOL    HW236048   0.290   0.316   4.796  0.1998  0.1769  0.9592
 8197SOL     OW36049   3.736   2.333   5.234  0.7114  1.0195 -0.8318
 8197SOL    HW136050   3.747   2.421   5.199  0.2805  1.1302 -0.6837
 8197SOL    HW236051   3.734   2.346   5.329  0.9730  1.3945 -0.8776
 8198SOL     OW36052   0.112   4.308   3.357  0.3361  0.0881 -0.3627
 8198SOL    HW136053   0.138   4.344   3.272  2.3833 -0.2822  0.1153
 8198SOL    HW236054   0.193   4.261   3.378 -0.4272 -1.0579  0.0299
 8199SOL     OW36055   0.207   4.625   7.524 -0.3732 -0.6598  0.0706
 8199SOL    HW136056   0.212   4.609   7.430 -1.1732  1.9267 -0.4136
 8199SOL    HW236057   0.204   4.721   7.527  0.7746 -0.7016  2.2915
 8200SOL     OW36058   0.530   1.185   5.229 -0.2727  0.3883 -0.1993
 8200SOL    HW136059   0.555   1.271   5.263  0.8902 -0.1748  0.3627
 8200SOL    HW236060   0.443   1.174   5.269 -0.0868 -1.1992 -0.2568
 8201SOL     OW36061   0.013   0.924   3.955 -0.2169 -0.2633 -0.0122
 8201SOL    HW136062   0.059   0.844   3.932  0.5557  0.5000 -1.1051
 8201SOL    HW236063   4.658   0.917   3.903  0.3657  0.7401 -1.0564
 8202SOL     OW36064   3.084   0.495   8.624 -0.2951 -0.0630  0.0049
 8202SOL    HW136065   3.177   0.471   8.627 -0.8420 -2.3257 -1.1151
 8202SOL    HW236066   3.083   0.572   8.681  0.7175  1.0332 -1.4452
 8203SOL     OW36067   0.352   1.509   4.912  0.0039  0.9624 -0.8276
 8203SOL    HW136068   0.351   1.415   4.930 -2.6496  1.0684 -0.4182
 8203SOL    HW236069   0.291   1.550   4.973  1.1418  2.0573 -0.4189
 8204SOL     OW36070   1.417   1.314   8.775 -0.6421 -0.4010  0.5123
 8204SOL    HW136071   1.428   1.321   8.870  1.3823  3.4815  0.0075
 8204SOL    HW236072   1.483   1.248   8.756 -2.2316 -1.5442 -1.0313
 8205SOL     OW36073   2.689   4.523   0.584 -0.2711 -0.7620  0.4864
 8205SOL    HW136074   2.783   4.536   0.598 -1.0109  2.2948  2.4923
 8205SOL    HW236075   2.660   4.592   0.643 -1.7288 -2.0311  1.2288
 8206SOL     OW36076   0.303   2.670   9.625  0.7612  0.2629  0.0870
 8206SOL    HW136077   0.337   2.756   9.652  1.3951 -0.5490  1.8802
 8206SOL    HW236078   0.288   2.631   9.711  0.5120 -1.8353 -0.9046
 8207SOL     OW36079   0.490   0.481   6.674 -0.2270  0.0973  0.3454
 8207SOL    HW136080   0.550   0.407   6.672  0.4210  0.6534 -0.5944
 8207SOL    HW236081   0.500   0.513   6.585 -1.1025  2.5143  1.1151
 8208SOL     OW36082   2.352   2.204  11.234 -0.0797 -0.6254  0.3430
 8208SOL    HW136083   2.408   2.199  11.312 -0.0755  1.0500  0.4563
 8208SOL    HW236084   2.282   2.144  11.259  2.3852 -3.8100 -0.4108
 8209SOL     OW36085   0.076   0.239   2.186  0.0299 -0.0427 -0.1132
 8209SOL    HW136086   0.004   0.289   2.147  1.2585 -0.1035 -2.4446
 8209SOL    HW236087   0.131   0.239   2.107  0.5020 -0.5284  0.2187
 8210SOL     OW36088   0.078   2.796   7.002  0.6220 -0.4751 -0.1163
 8210SOL    HW136089   4.718   2.832   6.977  1.1552  0.5729 -0.4083
 8210SOL    HW236090   0.075   2.709   6.961  1.8788  0.3776 -2.0264
 8211SOL     OW36091   2.309   0.961   5.188 -0.0690  0.3216 -0.7269
 8211SOL    HW136092   2.228   0.996   5.224  0.0057 -0.4515  0.2116
 8211SOL    HW236093   2.367   1.022   5.233 -0.5653  0.3285 -0.1056
 8212SOL     OW36094   3.461   1.930   6.058  0.0479  0.3991 -0.2167
 8212SOL    HW136095   3.370   1.954   6.040 -0.0396  0.8786  0.8611
 8212SOL    HW236096   3.497   2.018   6.043 -0.8913  0.4556 -2.0585
 8213SOL     OW36097   3.052   2.790   6.337 -0.1236  0.0913  0.5967
 8213SOL    HW136098   3.037   2.884   6.323  0.0664 -0.0865 -0.7446
 8213SOL    HW236099   2.984   2.748   6.285  0.2021 -0.3011  0.4845
 8214SOL     OW36100   3.882   4.373   4.410 -0.2379  0.1633 -0.3604
 8214SOL    HW136101   3.917   4.290   4.378  0.0437  0.3055 -0.4187
 8214SOL    HW236102   3.948   4.437   4.382 -1.1721  0.5257 -1.7383
 8215SOL     OW36103   2.807   3.150  12.790  0.3262  0.0508 -0.1195
 8215SOL    HW136104   2.721   3.192  12.793  0.7073  0.8827 -0.4866
 8215SOL    HW236105   2.851   3.194  12.717  0.9663  2.4784  1.7103
 8216SOL     OW36106   4.449   1.438   7.135  0.2121 -0.1801 -0.5591
 8216SOL    HW136107   4.435   1.407   7.224  0.3434 -0.3847 -0.6086
 8216SOL    HW236108   4.524   1.383   7.112  0.6100  1.0262 -2.1966
 8217SOL     OW36109   2.123   1.152  15.063 -0.1663 -0.0140  0.4420
 8217SOL    HW136110   2.187   1.184  15.125  0.9818 -2.9853  0.7588
 8217SOL    HW236111   2.176   1.154  14.983  1.3204  2.4576  1.4977
 8218SOL     OW36112   1.190   1.955  10.885 -0.6534 -0.2029 -0.6582
 8218SOL    HW136113   1.109   1.912  10.858 -1.5277  1.4882 -0.7165
 8218SOL    HW236114   1.166   2.046  10.871 -1.0845 -0.2378 -0.1372
 8219SOL     OW36115   3.784   4.006   3.017  0.2377 -0.1845  0.1549
 8219SOL    HW136116   3.794   4.088   2.969  0.2752 -0.0574  0.3791
 8219SOL    HW236117   3.832   3.952   2.955 -0.1652  0.6365 -0.8777
 8220SOL     OW36118   1.930   0.537  17.021 -0.0467  0.9385  0.1649
 8220SOL    HW136119   1.875   0.604  16.979  0.5602  2.3163  1.5968
 8220SOL    HW236120   2.018   0.550  16.987 -0.4269 -0.8280 -1.5495
 8221SOL     OW36121   3.895   0.883   6.891 -0.0453 -0.0402  0.5156
 8221SOL    HW136122   3.803   0.880   6.917 -0.5249  2.2192 -0.8563
 8221SOL    HW236123   3.892   0.820   6.819  0.2746  0.2225  0.2681
 8222SOL     OW36124   0.088   4.582  13.895  0.4840  0.4991 -0.1456
 8222SOL    HW136125   0.065   4.538  13.977 -0.3897  3.5243  1.2208
 8222SOL    HW236126   0.114   4.671  13.921  0.4235  0.4034  0.2468
 8223SOL     OW36127   1.465   0.285   2.976  0.0614  0.1888 -0.4083
 8223SOL    HW136128   1.447   0.312   2.886  1.8359 -0.1393 -0.8702
 8223SOL    HW236129   1.437   0.194   2.980  0.9617 -0.0319  0.8858
 8224SOL     OW36130   1.077   1.061   2.277 -0.2263 -0.1768  0.1243
 8224SOL    HW136131   1.011   1.071   2.346 -1.0476  2.6642 -1.0571
 8224SOL    HW236132   1.073   0.966   2.263 -0.4377  0.3455 -3.2208
 8225SOL     OW36133   2.986   2.234  13.482  0.5647 -0.2635 -0.0154
 8225SOL    HW136134   3.012   2.188  13.561 -0.2431  1.9504  1.5388
 8225SOL    HW236135   3.074   2.231  13.443 -0.2766  1.7940 -2.0601
 8226SOL     OW36136   1.611   4.527  10.848  0.1847 -0.2892 -0.0514
 8226SOL    HW136137   1.670   4.498  10.918  3.4385  0.4578 -2.4843
 8226SOL    HW236138   1.552   4.587  10.894 -1.7085 -1.7025 -0.6607
 8227SOL     OW36139   2.332   0.343   4.553  0.3097 -0.4153 -0.0378
 8227SOL    HW136140   2.355   0.250   4.552 -0.5157 -0.6334  1.1706
 8227SOL    HW236141   2.293   0.357   4.639  2.4722  0.5124  0.7729
 8228SOL     OW36142   1.259   1.879  16.715 -0.3776  0.8085  0.2930
 8228SOL    HW136143   1.338   1.839  16.751 -2.0410 -1.8447  0.9680
 8228SOL    HW236144   1.252   1.957  16.770 -0.8852  2.3345 -1.9415
 8229SOL     OW36145   3.852   3.249  15.593  0.3656 -0.1732 -0.0405
 8229SOL    HW136146   3.764   3.249  15.557 -0.0761 -2.8165  1.0727
 8229SOL    HW236147   3.897   3.173  15.556  1.2014  0.4848 -0.3991
 8230SOL     OW36148   2.007   4.299   2.040  0.2139 -0.2870  0.4969
 8230SOL    HW136149   2.002   4.244   1.962  0.4851  3.2493 -2.0015
 8230SOL    HW236150   1.974   4.235   2.103  0.5755 -0.0821  0.8955
 8231SOL     OW36151   3.397   0.401  15.246  0.1805  0.0355  0.1769
 8231SOL    HW136152   3.475   0.347  15.237  1.6932  2.0905  1.0580
 8231SOL    HW236153   3.400   0.411  15.341 -1.2560 -0.3549  0.2580
 8232SOL     OW36154   0.957   0.973   6.183 -0.0092 -0.3339 -0.1286
 8232SOL    HW136155   1.024   1.033   6.151 -0.5519 -0.3508 -1.2859
 8232SOL    HW236156   0.946   0.916   6.107 -2.8032 -0.9703  0.7376
 8233SOL     OW36157   1.416   2.656  15.991  0.0379  0.0601 -0.2824
 8233SOL    HW136158   1.361   2.595  15.942  1.9873 -1.7059 -0.2905
 8233SOL    HW236159   1.424   2.615  16.077 -1.8935  2.2323  0.9403
 8234SOL     OW36160   2.767   4.337   9.448 -0.2844  0.3515  0.0833
 8234SOL    HW136161   2.775   4.278   9.523  1.7712  0.0709 -0.3618
 8234SOL    HW236162   2.858   4.364   9.436 -0.8171  3.0096  1.9237
 8235SOL     OW36163   3.960   4.435   5.038  0.0168  0.4386  0.2473
 8235SOL    HW136164   3.958   4.524   5.074 -0.3490  1.0627 -1.3169
 8235SOL    HW236165   3.898   4.432   4.965 -0.2890  0.1086  0.5215
 8236SOL     OW36166   0.763   3.958  12.452  0.4350  0.1408 -0.4020
 8236SOL    HW136167   0.759   4.054  12.455 -0.7583  0.1371 -1.8576
 8236SOL    HW236168   0.677   3.933  12.487  1.5312 -0.6847  1.7479
 8237SOL     OW36169   4.031   1.434   8.959  0.0583 -0.3400  0.4071
 8237SOL    HW136170   4.002   1.397   9.042  2.1069 -3.6846 -0.3604
 8237SOL    HW236171   3.965   1.503   8.951 -0.9267 -1.3760 -0.2735
 8238SOL     OW36172   1.550   2.100   3.463 -0.2065 -0.0064 -0.0741
 8238SOL    HW136173   1.520   2.119   3.552  0.8475  2.3756 -0.2174
 8238SOL    HW236174   1.642   2.113   3.485  0.0210 -0.0866 -0.9880
 8239SOL     OW36175   1.011   4.599   3.694  0.5628 -0.9885 -0.7617
 8239SOL    HW136176   1.001   4.635   3.782 -3.0375 -0.4806 -1.3970
 8239SOL    HW236177   1.075   4.658   3.654  1.0485 -1.2688 -0.3973
 8240SOL     OW36178   4.664   0.517   3.446  0.5857 -0.3030 -0.6595
 8240SOL    HW136179   4.639   0.474   3.528  0.0503  0.6729 -0.3000
 8240SOL    HW236180   0.014   0.567   3.479  0.9395 -2.2768  1.5357
 8241SOL     OW36181   4.029   0.792   5.131  0.0602  0.0077  0.5062
 8241SOL    HW136182   3.942   0.755   5.147 -0.8504  1.8858 -0.1642
 8241SOL    HW236183   4.072   0.725   5.077  0.1507  0.3129  0.2019
 8242SOL     OW36184   3.561   2.468  12.686 -0.7053  0.3865 -0.5562
 8242SOL    HW136185   3.511   2.388  12.667 -0.1311 -0.3475  1.0043
 8242SOL    HW236186   3.500   2.526  12.733 -0.5760  0.1393 -0.0822
 8243SOL     OW36187   2.634   0.951   6.227 -0.3033  0.2271 -0.0450
 8243SOL    HW136188   2.591   0.937   6.311  0.6641  1.9898  0.7515
 8243SOL    HW236189   2.656   1.042   6.247  1.2382  0.0461 -0.8746
 8244SOL     OW36190   0.263   2.388   3.353  0.6499 -0.0421  0.1674
 8244SOL    HW136191   0.336   2.421   3.301  0.7799 -1.0492 -0.2877
 8244SOL    HW236192   0.253   2.299   3.318 -2.1263 -0.0553  0.9616
 8245SOL     OW36193   1.585   2.325  16.327  0.1714 -0.3636  0.3521
 8245SOL    HW136194   1.584   2.359  16.417 -0.2580  0.9653 -0.1680
 8245SOL    HW236195   1.511   2.369  16.287  0.0204 -0.0277  0.9919
 8246SOL     OW36196   3.352   3.964   6.320  1.0137  0.3822  0.2885
 8246SOL    HW136197   3.431   4.012   6.296  1.4563  0.3399  1.7021
 8246SOL    HW236198   3.336   4.019   6.396  0.8987  1.7953 -0.7537
 8247SOL     OW36199   0.476   4.209   7.502  0.0114  0.0904 -0.0209
 8247SOL    HW136200   0.385   4.226   7.476 -0.0088  2.4243  1.5572
 8247SOL    HW236201   0.509   4.295   7.529  2.3476 -0.4063 -1.3997
 8248SOL     OW36202   1.270   4.102   0.961 -0.1309 -0.0635 -0.2787
 8248SOL    HW136203   1.261   4.019   1.009 -0.3623 -1.1358 -2.1616
 8248SOL    HW236204   1.306   4.157   1.030  1.9047 -0.3217 -1.1534
 8249SOL     OW36205   2.471   2.785   3.000  0.1278  0.2541 -0.1697
 8249SOL    HW136206   2.395   2.828   2.961 -0.3598 -1.6790 -1.3236
 8249SOL    HW236207   2.546   2.822   2.952  0.5085 -1.7757 -1.1117
 8250SOL     OW36208   0.695   0.952  12.468  0.1380 -0.1453  0.0744
 8250SOL    HW136209   0.746   1.002  12.404  2.6274  0.7869  2.8050
 8250SOL    HW236210   0.612   0.949  12.420  1.4153  0.6755 -2.1862
 8251SOL     OW36211   1.986   1.903   9.085  0.0388  0.3528 -0.4227
 8251SOL    HW136212   1.950   1.912   8.997  2.4708  0.9962 -1.3576
 8251SOL    HW236213   1.961   1.983   9.132 -1.3091 -0.4967  0.3001
 8252SOL     OW36214   4.126   0.387   4.028  0.1245  0.7218 -0.1026
 8252SOL    HW136215   4.153   0.302   3.994 -1.6244  0.0718  0.1419
 8252SOL    HW236216   4.160   0.445   3.960  1.7450 -0.0299  0.0613
 8253SOL     OW36217   3.786   3.381   2.298 -0.5860 -0.5001 -0.7240
 8253SOL    HW136218   3.720   3.352   2.234 -2.0197  1.7395 -0.2698
 8253SOL    HW236219   3.845   3.433   2.244 -2.1143  1.4908 -0.5005
 8254SOL     OW36220   2.346   4.599   3.065  0.3062  0.4679 -0.1758
 8254SOL    HW136221   2.291   4.521   3.053  0.0864  0.4388  1.0006
 8254SOL    HW236222   2.284   4.666   3.038  0.5565  1.0757  0.7433
 8255SOL     OW36223   3.020   2.379   6.155 -0.3095 -0.5930  0.3979
 8255SOL    HW136224   2.947   2.402   6.098 -0.2456 -0.9475  0.1780
 8255SOL    HW236225   2.979   2.368   6.241  0.4677 -2.3387  0.5447
 8256SOL     OW36226   2.403   4.344  16.952 -0.2474  0.3697  0.4249
 8256SOL    HW136227   2.405   4.376  17.042 -2.9958  1.1521  0.2066
 8256SOL    HW236228   2.366   4.256  16.963  1.7433 -0.5411 -0.1721
 8257SOL     OW36229   1.066   4.111  10.300  0.2606 -0.5393  0.4505
 8257SOL    HW136230   1.141   4.129  10.243 -1.7337  0.7685 -1.7600
 8257SOL    HW236231   1.032   4.027  10.271 -1.1818  0.1546  0.1340
 8258SOL     OW36232   1.802   0.110   3.981  0.3414  0.0022  0.4851
 8258SOL    HW136233   1.858   0.038   3.953  0.7389  0.3578  0.3654
 8258SOL    HW236234   1.740   0.117   3.908  0.3779  2.7286  0.7266
 8259SOL     OW36235   0.781   4.441   3.801 -0.0467  0.5739  0.1259
 8259SOL    HW136236   0.875   4.452   3.784  0.0030 -1.0519 -0.6543
 8259SOL    HW236237   0.780   4.450   3.896 -1.2947  2.2634 -0.0402
 8260SOL     OW36238   4.017   0.977  13.357 -0.0775  0.4158 -0.2799
 8260SOL    HW136239   4.073   0.954  13.432  1.0298 -0.2585 -1.3041
 8260SOL    HW236240   4.063   0.930  13.287 -1.7580  0.9047 -1.6913
 8261SOL     OW36241   1.810   3.265   6.921  0.0361  0.3234  0.4025
 8261SOL    HW136242   1.725   3.258   6.965 -0.0048  0.0554  0.2780
 8261SOL    HW236243   1.853   3.180   6.927 -0.9409 -0.2810 -1.2231
 8262SOL     OW36244   3.508   4.027   5.432 -0.4229 -0.0598 -0.0021
 8262SOL    HW136245   3.453   4.049   5.507 -0.1721  0.6639 -0.0308
 8262SOL    HW236246   3.583   4.080   5.462  0.0803  0.1194 -1.5807
 8263SOL     OW36247   1.520   4.663   3.978 -0.1385 -0.0160  0.2751
 8263SOL    HW136248   1.476   4.659   4.063  0.6456 -0.2918  0.6759
 8263SOL    HW236249   1.462   4.701   3.912 -0.3201 -0.6182  0.0878
 8264SOL     OW36250   2.876   3.784   2.835 -0.2689  0.4036 -0.1586
 8264SOL    HW136251   2.864   3.692   2.814  0.7176  0.3893 -0.7041
 8264SOL    HW236252   2.819   3.833   2.775 -0.9490 -0.8073 -0.4969
 8265SOL     OW36253   0.512   3.041  15.607  0.6006 -0.7177 -0.1332
 8265SOL    HW136254   0.597   3.056  15.649  0.0953 -0.1456  0.6652
 8265SOL    HW236255   0.451   3.075  15.672  0.8637 -0.3896 -0.0575
 8266SOL     OW36256   4.171   0.827   3.996  0.4033 -0.0518 -0.1262
 8266SOL    HW136257   4.134   0.912   3.970 -2.7797 -0.9556  1.5662
 8266SOL    HW236258   4.105   0.802   4.060  2.5471  0.7464  2.3641
 8267SOL     OW36259   0.461   3.801   0.001 -0.4538 -0.0089 -0.3339
 8267SOL    HW136260   0.485   3.732  17.639  1.3922 -0.2511  0.6507
 8267SOL    HW236261   0.507   3.780   0.083 -0.2551 -0.3684 -0.5369
 8268SOL     OW36262   2.323   1.007   6.155 -0.3763  0.2229  0.2525
 8268SOL    HW136263   2.289   0.955   6.082 -0.0039 -1.0939  1.0057
 8268SOL    HW236264   2.405   0.958   6.168 -0.0322  0.2994 -1.5693
 8269SOL     OW36265   0.435   2.891   6.111 -0.1155  0.3799 -0.2803
 8269SOL    HW136266   0.449   2.816   6.053 -1.6918 -0.3786  0.3030
 8269SOL    HW236267   0.361   2.853   6.159 -0.3623  1.1366 -0.0625
 8270SOL     OW36268   2.528   1.510   2.742 -0.5109  0.1890  0.0045
 8270SOL    HW136269   2.563   1.435   2.693 -0.0329  0.0814  0.5075
 8270SOL    HW236270   2.548   1.579   2.679  0.2121  0.8551  0.9693
 8271SOL     OW36271   0.481   1.330   2.893  0.1429 -0.7847 -0.0886
 8271SOL    HW136272   0.536   1.407   2.901  0.1513 -0.7162 -0.7849
 8271SOL    HW236273   0.540   1.265   2.932  2.4552  0.2295 -1.9181
 8272SOL     OW36274   4.132   2.528  17.648  0.0631 -0.2445 -0.0222
 8272SOL    HW136275   4.121   2.571  17.563  0.7061  0.3970  0.2141
 8272SOL    HW236276   4.104   2.593   0.013 -2.2585 -0.6727 -0.6013
 8273SOL     OW36277   1.022   3.554   6.285 -0.1630  0.0414  0.0612
 8273SOL    HW136278   1.052   3.607   6.212 -2.5044  2.0219  0.5407
 8273SOL    HW236279   0.929   3.556   6.262 -0.2889 -1.7633  0.3566
 8274SOL     OW36280   2.281   4.681   8.209 -0.6835 -0.0991  0.0212
 8274SOL    HW136281   2.359   4.657   8.260  0.0525 -2.4138 -2.1806
 8274SOL    HW236282   2.277   4.613   8.142 -0.3420  0.0259 -0.1252
 8275SOL     OW36283   4.688   1.079   8.547 -0.2828  0.2172  0.1676
 8275SOL    HW136284   0.014   1.012   8.594 -0.9648  0.6795  1.5464
 8275SOL    HW236285   4.603   1.055   8.583 -0.3390  3.1250  1.9620
 8276SOL     OW36286   1.413   1.121   4.497  0.0880 -0.0390 -0.2414
 8276SOL    HW136287   1.475   1.171   4.551  0.9492 -0.8096 -0.5247
 8276SOL    HW236288   1.461   1.038   4.491 -1.6742 -1.2100  1.4675
 8277SOL     OW36289   0.195   0.024   2.651 -0.5945 -0.0401 -0.2017
 8277SOL    HW136290   0.273   4.723   2.701 -0.3845  0.2232 -0.3914
 8277SOL    HW236291   0.197   0.119   2.664 -1.8778 -0.2254  1.3295
 8278SOL     OW36292   0.335   0.121  13.822 -0.1204 -0.2810 -0.1392
 8278SOL    HW136293   0.410   0.067  13.849 -0.9957 -1.8685 -0.8579
 8278SOL    HW236294   0.355   0.121  13.728  0.0493  2.5504 -0.0857
 8279SOL     OW36295   0.347   4.569   7.949  0.0479 -0.2249  0.2955
 8279SOL    HW136296   0.355   4.474   7.959  1.5928 -0.4277 -2.6660
 8279SOL    HW236297   0.254   4.590   7.957  0.1830  0.3504  0.3493
 8280SOL     OW36298   0.367   2.089   8.302 -0.2366  0.1591  0.0416
 8280SOL    HW136299   0.316   2.015   8.268  0.9961 -0.2979 -0.8282
 8280SOL    HW236300   0.329   2.088   8.390 -0.8980  1.8815 -0.2166
 8281SOL     OW36301   0.708   0.599   2.862  0.1727 -0.2287 -0.3586
 8281SOL    HW136302   0.730   0.512   2.829  0.4257  0.2493 -1.4514
 8281SOL    HW236303   0.758   0.650   2.798 -0.4575  1.7190  0.6923
 8282SOL     OW36304   1.553   4.266  12.606  1.0316  0.1753  0.3314
 8282SOL    HW136305   1.648   4.279  12.602  1.1046  0.3286  2.2261
 8282SOL    HW236306   1.534   4.315  12.527 -2.4109 -0.4582  0.7664
 8283SOL     OW36307   1.436   0.330   3.523 -0.0656  0.1997  0.0481
 8283SOL    HW136308   1.500   0.400   3.512 -1.1127  0.8512 -1.9361
 8283SOL    HW236309   1.410   0.312   3.433  2.1139  2.4648 -1.0110
 8284SOL     OW36310   3.503   1.166   5.522  0.5351  0.1305  0.3649
 8284SOL    HW136311   3.473   1.098   5.462  2.2758  0.3195 -0.7204
 8284SOL    HW236312   3.515   1.228   5.450 -0.0197 -0.1737  0.0071
 8285SOL     OW36313   0.408   3.532   4.989 -0.1655 -0.0853 -0.0073
 8285SOL    HW136314   0.391   3.617   4.948 -2.0736  0.2564  1.4891
 8285SOL    HW236315   0.319   3.509   5.016  0.0602  0.1228  0.8997
 8286SOL     OW36316   1.727   3.227   2.697 -0.0544 -0.1118  0.6221
 8286SOL    HW136317   1.721   3.303   2.639  1.3973  0.4045  1.1506
 8286SOL    HW236318   1.790   3.266   2.757 -0.5516 -0.3032  1.2795
 8287SOL     OW36319   1.784   2.260  17.364 -0.1725 -0.2176 -0.1612
 8287SOL    HW136320   1.840   2.184  17.381  0.5347  0.7155  1.6800
 8287SOL    HW236321   1.827   2.294  17.285  0.2137  1.2389  0.6823
 8288SOL     OW36322   2.050   4.515   7.004  0.0001 -0.6362  1.0880
 8288SOL    HW136323   2.010   4.431   6.986  1.5764 -0.6418 -2.3243
 8288SOL    HW236324   1.988   4.552   7.067 -0.4219 -2.0183  1.4757
 8289SOL     OW36325   2.999   0.218  13.338  0.2120  0.7268  0.0244
 8289SOL    HW136326   3.045   0.294  13.305  3.1243 -1.5220 -1.1065
 8289SOL    HW236327   2.979   0.181  13.252 -2.6950  0.3003  0.8538
 8290SOL     OW36328   2.747   0.409  16.841  0.1855 -0.6054 -0.8559
 8290SOL    HW136329   2.768   0.319  16.866  0.1935 -0.5795 -0.7696
 8290SOL    HW236330   2.816   0.466  16.874 -0.7243  1.1222 -1.9829
 8291SOL     OW36331   2.031   2.770   6.265 -0.1590  0.4793 -0.3490
 8291SOL    HW136332   2.044   2.865   6.267  0.7771  0.3373  0.2935
 8291SOL    HW236333   1.956   2.770   6.206 -0.0363  0.1014 -0.5056
 8292SOL     OW36334   0.371   1.133  14.584  0.2632 -0.1606  0.0833
 8292SOL    HW136335   0.462   1.116  14.559  0.2969  2.1909 -1.4439
 8292SOL    HW236336   0.382   1.135  14.679  1.7062  0.2536 -0.1011
 8293SOL     OW36337   4.498   3.225  15.782 -0.3806  0.0107  0.6772
 8293SOL    HW136338   4.580   3.221  15.832  1.2448  0.2942 -1.9975
 8293SOL    HW236339   4.511   3.165  15.710  0.0044 -0.5301  1.1981
 8294SOL     OW36340   1.729   3.305   5.222  0.5190 -0.3212  0.0282
 8294SOL    HW136341   1.669   3.367   5.264  1.5821 -0.8693  2.3493
 8294SOL    HW236342   1.785   3.361   5.168  0.4776  0.5666  0.9090
 8295SOL     OW36343   0.305   4.213  13.569  0.0665 -0.3020  0.2614
 8295SOL    HW136344   0.300   4.299  13.610 -0.1135 -1.3029  2.3174
 8295SOL    HW236345   0.212   4.197  13.549  0.1047 -0.9842  0.6118
 8296SOL     OW36346   2.225   2.586   7.524  0.0026 -0.3074  0.2853
 8296SOL    HW136347   2.161   2.610   7.590 -1.8772 -2.1488 -0.8908
 8296SOL    HW236348   2.179   2.615   7.445 -0.0827 -1.8729 -0.2369
 8297SOL     OW36349   3.310   1.732   1.726  0.0887  0.0642  0.2387
 8297SOL    HW136350   3.360   1.728   1.644  0.4169 -1.3546  0.5052
 8297SOL    HW236351   3.338   1.657   1.779 -1.8618 -0.4253  0.5437
 8298SOL     OW36352   2.771   4.242   4.175 -0.2798  0.2984  0.3874
 8298SOL    HW136353   2.819   4.272   4.252  2.6555 -1.2355 -0.8639
 8298SOL    HW236354   2.836   4.198   4.120  0.1035  0.2819  0.8539
 8299SOL     OW36355   2.960   0.418  14.366 -0.1512  0.3906 -0.0126
 8299SOL    HW136356   2.875   0.441  14.403 -0.4112 -2.0066  0.8804
 8299SOL    HW236357   3.027   0.465  14.417 -0.5928 -0.1748  1.0920
 8300SOL     OW36358   4.723   0.389   1.941 -0.3554  0.5024  0.2960
 8300SOL    HW136359   4.669   0.465   1.960 -1.1193  0.3749 -1.3697
 8300SOL    HW236360   0.002   0.383   1.845 -0.0490 -0.9060  0.3984
 8301SOL     OW36361   0.356   4.041   2.174 -0.9223  0.3922 -0.2589
 8301SOL    HW136362   0.324   4.088   2.097 -1.0073 -1.9142 -1.6391
 8301SOL    HW236363   0.432   4.095   2.197 -0.1617 -1.5454  1.7784
 8302SOL     OW36364   2.581   0.463   7.945  0.5112 -0.1483  0.4941
 8302SOL    HW136365   2.611   0.474   8.035  1.7301 -1.1290  0.1964
 8302SOL    HW236366   2.566   0.369   7.954 -1.2506  0.0139 -0.7048
 8303SOL     OW36367   4.659   1.531   5.528 -0.1027 -0.7940  0.3035
 8303SOL    HW136368   4.690   1.622   5.528  0.4218 -0.9735  0.9770
 8303SOL    HW236369   4.657   1.517   5.434 -1.1298  0.3981  0.1483
 8304SOL     OW36370   1.260   1.365   6.636  0.3049  0.8611  0.4232
 8304SOL    HW136371   1.322   1.358   6.709 -0.0910  2.4885  0.9242
 8304SOL    HW236372   1.229   1.276   6.650 -0.9875  1.4360  1.2523
 8305SOL     OW36373   2.062   1.150  17.617 -0.0309  0.3086 -0.5329
 8305SOL    HW136374   1.977   1.193  17.608  0.1535  1.0197  1.1369
 8305SOL    HW236375   2.037   1.058  17.607  4.3315 -1.1282  1.7326
 8306SOL     OW36376   4.697   3.502  15.862 -0.1413 -0.0381  0.1787
 8306SOL    HW136377   4.658   3.548  15.936  0.2891 -0.4650  0.6718
 8306SOL    HW236378   4.704   3.411  15.893  0.7279  0.0243  0.1462
 8307SOL     OW36379   0.744   2.249   8.094 -0.0570 -0.1164  0.1035
 8307SOL    HW136380   0.702   2.253   8.008  2.8412  0.6420 -1.2447
 8307SOL    HW236381   0.710   2.166   8.127  2.4114 -0.7470  1.0280
 8308SOL     OW36382   4.464   3.246   6.220  0.4692 -0.6228  0.6748
 8308SOL    HW136383   4.545   3.290   6.196  0.4397 -0.5778  0.6565
 8308SOL    HW236384   4.476   3.235   6.314 -1.8809  0.0509  1.0723
 8309SOL     OW36385   2.949   2.571  16.130  0.5279 -0.4845 -0.6835
 8309SOL    HW136386   2.896   2.586  16.208  1.0695 -0.0821 -0.3957
 8309SOL    HW236387   3.025   2.529  16.168  0.5546 -0.1945 -0.4224
 8310SOL     OW36388   1.161   3.053   6.652  0.3735 -0.0912  0.2900
 8310SOL    HW136389   1.124   3.017   6.733 -1.1512  0.8159 -0.0001
 8310SOL    HW236390   1.151   2.981   6.589  2.9831  2.3826 -2.9452
 8311SOL     OW36391   3.982   2.937   7.877 -0.1599  0.1036  0.2408
 8311SOL    HW136392   4.074   2.963   7.887  0.1610 -1.5963  1.6851
 8311SOL    HW236393   3.944   3.003   7.819  0.0720  0.1754  0.1709
 8312SOL     OW36394   3.062   0.745   4.788 -0.4887 -0.6333  0.2436
 8312SOL    HW136395   3.057   0.800   4.710 -0.2210 -1.0269 -0.0509
 8312SOL    HW236396   3.108   0.667   4.758  0.3386 -0.3324  0.7253
 8313SOL     OW36397   4.323   3.410  15.841 -0.6957  0.4511 -0.2081
 8313SOL    HW136398   4.316   3.423  15.746 -0.4172  2.1496 -0.0069
 8313SOL    HW236399   4.384   3.337  15.838  1.2451  2.0784 -1.0337
 8314SOL     OW36400   0.089   4.393   7.090  0.1529  0.2109  0.3790
 8314SOL    HW136401   0.060   4.361   7.004  0.4133  2.8910 -0.6936
 8314SOL    HW236402   0.165   4.338   7.109  0.5430 -0.6019 -3.4900
 8315SOL     OW36403   4.123   1.687   7.866 -0.0962 -0.3003  0.5247
 8315SOL    HW136404   4.129   1.598   7.831 -0.2804  0.1050 -0.5270
 8315SOL    HW236405   4.048   1.686   7.926 -1.1097  1.5835 -0.7085
 8316SOL     OW36406   1.100   1.779   1.766  0.5521 -0.2119 -0.2623
 8316SOL    HW136407   1.105   1.845   1.697  1.6151  0.7163  0.7202
 8316SOL    HW236408   1.025   1.810   1.816 -1.3244 -0.7839 -2.6933
 8317SOL     OW36409   2.696   4.673   3.041  0.2581 -0.2207  0.4441
 8317SOL    HW136410   2.779   4.672   2.993 -0.6069 -1.0814 -1.0670
 8317SOL    HW236411   2.651   4.606   2.989 -2.0610  1.1262  0.7096
 8318SOL     OW36412   3.287   0.613   9.620  0.1160  0.2187  0.5984
 8318SOL    HW136413   3.316   0.522   9.625  1.4453  0.6377  0.4242
 8318SOL    HW236414   3.339   0.644   9.545 -1.1151 -2.4038 -1.3319
 8319SOL     OW36415   3.298   1.405   6.480  0.5211  0.8167 -0.0218
 8319SOL    HW136416   3.358   1.453   6.538  0.5100  1.1570 -0.2964
 8319SOL    HW236417   3.213   1.423   6.521  0.7969  0.7976  0.5684
 8320SOL     OW36418   1.579   1.617   8.968 -0.2136 -0.2150  0.4497
 8320SOL    HW136419   1.648   1.669   9.009  1.4778 -2.0710 -0.0398
 8320SOL    HW236420   1.621   1.534   8.947  1.6857  1.4336 -2.2629
 8321SOL     OW36421   0.691   1.166  15.768 -0.0271 -0.1252 -0.0141
 8321SOL    HW136422   0.733   1.182  15.684  0.1961  0.2600  0.1695
 8321SOL    HW236423   0.748   1.212  15.830 -0.1371 -1.0411  0.7634
 8322SOL     OW36424   2.171   4.008   3.566 -0.5152 -0.0935  0.2834
 8322SOL    HW136425   2.100   4.024   3.503  1.1382  0.4477 -1.4226
 8322SOL    HW236426   2.219   4.091   3.564 -1.6092  0.5217 -0.6306
 8323SOL     OW36427   4.347   3.257   5.011 -0.2474 -0.1399  0.3344
 8323SOL    HW136428   4.316   3.180   4.963  0.4101  0.2593 -0.7277
 8323SOL    HW236429   4.382   3.310   4.939 -0.2854 -1.4467 -0.6467
 8324SOL     OW36430   0.099   2.870   9.519 -0.4531 -0.0489  0.0077
 8324SOL    HW136431   0.069   2.830   9.600  2.2693 -1.3244  0.3938
 8324SOL    HW236432   0.182   2.825   9.505  1.3446  3.0614  0.6380
 8325SOL     OW36433   3.060   2.417   4.482  0.0241 -0.0341 -0.0400
 8325SOL    HW136434   3.128   2.426   4.416 -0.4980  1.7798 -0.3123
 8325SOL    HW236435   3.025   2.333   4.450  1.6391 -1.5858  2.2693
 8326SOL     OW36436   1.625   3.567   5.421 -0.1755 -0.3537  0.1257
 8326SOL    HW136437   1.564   3.537   5.354 -0.0520  1.2153 -0.6998
 8326SOL    HW236438   1.678   3.633   5.376 -1.0575  0.1780 -0.1208
 8327SOL     OW36439   3.980   4.624  10.923  0.4186 -0.7662 -0.1208
 8327SOL    HW136440   4.050   4.596  10.863 -0.2686  1.3476 -1.9328
 8327SOL    HW236441   3.937   4.697  10.877  1.8209 -0.2877 -0.6833
 8328SOL     OW36442   0.911   4.215   4.708  0.6635 -0.1740  0.5113
 8328SOL    HW136443   0.973   4.144   4.727 -0.4979 -1.8402 -1.8677
 8328SOL    HW236444   0.851   4.217   4.783 -2.5463 -2.1870 -1.9735
 8329SOL     OW36445   0.910   4.708   8.355 -0.1073 -0.0996  0.8977
 8329SOL    HW136446   0.857   4.628   8.361  0.0730 -0.0915  2.6618
 8329SOL    HW236447   0.987   4.668   8.314 -0.0875 -0.2211  1.0547
 8330SOL     OW36448   2.709   4.657  16.530 -0.1870 -0.2043 -0.3280
 8330SOL    HW136449   2.753   0.003  16.484  0.4799  1.3707  2.7215
 8330SOL    HW236450   2.697   4.703  16.614 -0.4373 -0.7319 -0.0694
 8331SOL     OW36451   1.072   1.447   7.527 -0.9123  0.0806  0.1771
 8331SOL    HW136452   1.024   1.438   7.608  1.1202  0.2923  1.4048
 8331SOL    HW236453   1.069   1.543   7.527  0.9169  0.1344  0.8103
 8332SOL     OW36454   0.865   3.620  11.514 -0.1543 -0.0206  0.5967
 8332SOL    HW136455   0.835   3.590  11.599  1.9040  0.6012  1.5497
 8332SOL    HW236456   0.805   3.695  11.508  0.0889  0.1643  0.4452
 8333SOL     OW36457   2.209   1.133   6.701 -0.1107 -0.3190 -0.4212
 8333SOL    HW136458   2.210   1.221   6.664 -0.0227 -1.3922 -3.0025
 8333SOL    HW236459   2.248   1.080   6.631 -0.4048 -2.1092  0.7695
 8334SOL     OW36460   2.856   3.803   7.573 -0.3520  0.3073 -0.4530
 8334SOL    HW136461   2.896   3.741   7.634 -0.1787 -0.9819 -1.9009
 8334SOL    HW236462   2.905   3.793   7.492  0.3832 -1.5651  0.2309
 8335SOL     OW36463   0.354   1.610   1.435 -0.0095 -0.1615  0.3184
 8335SOL    HW136464   0.276   1.622   1.488 -0.1016 -1.0272  0.3758
 8335SOL    HW236465   0.318   1.561   1.361  1.7583  1.6781 -1.7499
 8336SOL     OW36466   2.893   2.971   2.513  0.5556 -0.1817 -0.4353
 8336SOL    HW136467   2.824   2.912   2.543 -1.0553  1.7538 -0.2946
 8336SOL    HW236468   2.880   2.962   2.419 -1.8869  0.2526 -0.1580
 8337SOL     OW36469   1.076   1.097   4.037 -0.3043 -0.1766 -0.5081
 8337SOL    HW136470   1.099   1.180   3.994  1.4252  0.1439  1.0232
 8337SOL    HW236471   0.995   1.075   3.992 -0.5475  1.7176 -0.9913
 8338SOL     OW36472   1.514   1.345  13.564 -0.2955 -0.2597 -0.5674
 8338SOL    HW136473   1.449   1.287  13.602  0.0514  1.0022  1.9220
 8338SOL    HW236474   1.500   1.328  13.471  1.8651  0.5814 -1.0697
 8339SOL     OW36475   1.006   2.203   4.122 -0.2053 -0.2051  0.0428
 8339SOL    HW136476   1.078   2.163   4.171  1.0506  0.2223 -1.4449
 8339SOL    HW236477   1.072   2.268   4.098 -1.1322  1.3754  1.7484
 8340SOL     OW36478   4.065   2.166   8.918  0.2691 -0.4094  0.4550
 8340SOL    HW136479   4.123   2.189   8.991  1.4242  0.0237 -0.5897
 8340SOL    HW236480   4.018   2.248   8.903  1.6723  0.1906 -0.6521
 8341SOL     OW36481   1.222   0.800   8.310  0.5196  0.3154  0.2886
 8341SOL    HW136482   1.229   0.788   8.404 -0.6578  1.3536  0.5025
 8341SOL    HW236483   1.271   0.723   8.278  0.0195  0.4362 -0.7688
 8342SOL     OW36484   0.649   3.745   7.842 -0.1284  0.3624  0.3523
 8342SOL    HW136485   0.737   3.777   7.863  0.8828 -1.8530 -0.4872
 8342SOL    HW236486   0.633   3.708   7.929  0.5915 -0.3102  0.2066
 8343SOL     OW36487   1.772   2.663   4.966  0.0688 -0.5414  0.6084
 8343SOL    HW136488   1.794   2.728   5.033  3.1255 -0.7972 -0.1483
 8343SOL    HW236489   1.771   2.704   4.880 -2.3448 -0.8226  0.4834
 8344SOL     OW36490   0.899   1.763   5.401 -0.3467 -0.2305  0.2233
 8344SOL    HW136491   0.839   1.728   5.335  2.7683  0.1751 -2.8398
 8344SOL    HW236492   0.841   1.798   5.468 -0.8723  0.5740 -0.6528
 8345SOL     OW36493   2.193   1.466  17.444 -0.3472  0.0185  0.1627
 8345SOL    HW136494   2.131   1.514  17.498 -0.2935 -1.4878  1.5846
 8345SOL    HW236495   2.189   1.526  17.369  1.3707  0.1054  0.1465
 8346SOL     OW36496   3.822   3.619   2.971 -0.2423  0.2342 -0.1968
 8346SOL    HW136497   3.907   3.614   3.015 -0.0858 -1.1437 -0.6450
 8346SOL    HW236498   3.825   3.708   2.936  2.3726  0.5188  0.7324
 8347SOL     OW36499   3.383   1.334   8.407  0.5279  0.0642  0.0348
 8347SOL    HW136500   3.332   1.400   8.454 -0.1954 -0.9825  0.7373
 8347SOL    HW236501   3.471   1.362   8.432  0.5634 -1.6853  1.8627
 8348SOL     OW36502   2.689   2.130  14.974 -0.1599  0.4870  0.2347
 8348SOL    HW136503   2.639   2.177  15.041 -0.8075 -0.6706  0.5524
 8348SOL    HW236504   2.776   2.137  15.014  0.6362 -2.8283 -0.9373
 8349SOL     OW36505   4.698   1.707  10.331 -0.2978  0.1943 -0.1260
 8349SOL    HW136506   4.616   1.689  10.377  0.0736  1.2247  0.9462
 8349SOL    HW236507   4.714   1.625  10.285  2.5706  0.8593 -0.2884
 8350SOL     OW36508   0.952   0.403  16.758 -0.4173  0.2000 -0.3591
 8350SOL    HW136509   1.043   0.399  16.787 -0.6311  0.3949  0.3499
 8350SOL    HW236510   0.949   0.328  16.700 -2.0342 -0.4331  0.5295
 8351SOL     OW36511   1.374   1.322   0.478  0.1917  0.4941 -0.6423
 8351SOL    HW136512   1.339   1.243   0.439  0.6477  0.4758 -1.0131
 8351SOL    HW236513   1.294   1.372   0.494  0.4939  0.3636  1.3091
 8352SOL     OW36514   2.489   3.800   0.044 -0.2857  0.0690 -0.3922
 8352SOL    HW136515   2.469   3.879  17.694 -1.1299 -1.7204 -2.8838
 8352SOL    HW236516   2.442   3.822   0.125 -0.0929 -1.1555  0.0499
 8353SOL     OW36517   2.289   0.127   7.807  0.7656 -0.2773 -0.1214
 8353SOL    HW136518   2.374   0.164   7.831  1.4115 -0.5169 -2.0398
 8353SOL    HW236519   2.312   0.050   7.754  1.8208  0.3248 -0.5407
 8354SOL     OW36520   1.975   2.929  10.280  0.6336 -0.3518  0.6106
 8354SOL    HW136521   1.915   2.952  10.209  1.1961  1.4914  0.7307
 8354SOL    HW236522   1.919   2.931  10.358  0.3567  1.7291  0.3675
 8355SOL     OW36523   1.591   1.988   2.269 -0.1249  0.1683 -0.3544
 8355SOL    HW136524   1.650   2.052   2.309  0.9835  0.7788 -2.9685
 8355SOL    HW236525   1.646   1.947   2.203  1.6286  0.1496  1.1010
 8356SOL     OW36526   1.111   2.448   3.820 -0.3493 -0.0431 -0.0410
 8356SOL    HW136527   1.067   2.368   3.790 -0.8115  0.3696 -0.4497
 8356SOL    HW236528   1.032   2.501   3.834  0.0215 -0.2007  2.7083
 8357SOL     OW36529   3.537   2.192  11.330 -0.1876  0.0971  0.4374
 8357SOL    HW136530   3.596   2.177  11.403  0.1213  2.1128  0.5933
 8357SOL    HW236531   3.588   2.179  11.250 -0.2731 -1.6583  0.6747
 8358SOL     OW36532   3.806   2.716   8.457 -0.2821  0.4564 -0.3263
 8358SOL    HW136533   3.789   2.622   8.454  0.0923  0.3345  1.4910
 8358SOL    HW236534   3.844   2.721   8.545 -0.2584 -0.9354 -0.2627
 8359SOL     OW36535   4.448   3.171   7.122 -0.2271 -0.1228  0.0626
 8359SOL    HW136536   4.479   3.200   7.036  1.2618 -0.1852  0.5825
 8359SOL    HW236537   4.459   3.076   7.119 -1.0107 -0.0599 -4.3531
 8360SOL     OW36538   2.878   3.432   8.032 -0.5445  0.1254  0.2698
 8360SOL    HW136539   2.962   3.405   8.071 -0.3177  1.0185  0.3913
 8360SOL    HW236540   2.860   3.360   7.972 -1.3893 -0.4229  1.1997
 8361SOL     OW36541   0.754   0.996  11.798  0.3448  0.3533  0.2338
 8361SOL    HW136542   0.785   1.084  11.817  1.3398 -0.0292  0.3759
 8361SOL    HW236543   0.792   0.981  11.712 -2.6712 -2.4007 -0.6184
 8362SOL     OW36544   0.861   1.311   1.168 -0.3642  0.6544 -0.1017
 8362SOL    HW136545   0.845   1.397   1.130  0.3111  1.2446  0.9477
 8362SOL    HW236546   0.861   1.327   1.262  1.9448 -1.5612  0.2603
 8363SOL     OW36547   0.448   1.281   0.307 -0.4926  0.3762  0.5935
 8363SOL    HW136548   0.476   1.246   0.392  1.7880  1.3827  0.2813
 8363SOL    HW236549   0.398   1.357   0.335 -0.8843 -0.3643  1.8982
 8364SOL     OW36550   1.233   2.902  12.466 -0.0029 -0.1067  0.1296
 8364SOL    HW136551   1.282   2.848  12.403 -0.2130  0.8863 -0.8814
 8364SOL    HW236552   1.287   2.981  12.476  1.5379 -1.1556  0.1229
 8365SOL     OW36553   4.588   1.399   0.872  0.1539 -0.1083 -0.1991
 8365SOL    HW136554   4.662   1.448   0.838  1.1678 -0.0526  2.1363
 8365SOL    HW236555   4.553   1.466   0.931  2.6330  0.9469  0.0596
 8366SOL     OW36556   4.050   0.264   4.493  0.3228 -0.4326  0.2894
 8366SOL    HW136557   4.022   0.293   4.580 -0.7153 -2.0176  0.4723
 8366SOL    HW236558   3.969   0.221   4.465  0.0357  2.0028 -2.6515
 8367SOL     OW36559   4.678   1.225  15.662 -0.2475  0.6734 -0.5141
 8367SOL    HW136560   4.594   1.217  15.615 -0.0389 -0.3896 -0.7197
 8367SOL    HW236561   4.694   1.319  15.661 -0.0941  0.6286 -3.0388
 8368SOL     OW36562   1.644   2.325   8.955 -0.7121 -0.3472  0.3203
 8368SOL    HW136563   1.554   2.299   8.935 -1.3342  0.1434  2.4132
 8368SOL    HW236564   1.695   2.278   8.890 -0.5071 -0.3516  0.4849
 8369SOL     OW36565   3.552   2.671   0.257 -0.2864 -0.3160 -1.2215
 8369SOL    HW136566   3.539   2.765   0.272 -2.1700 -0.4105 -2.3457
 8369SOL    HW236567   3.468   2.647   0.296 -0.6915  2.5368 -0.3262
 8370SOL     OW36568   4.149   3.751   6.181 -0.0577 -0.1838 -0.4330
 8370SOL    HW136569   4.108   3.830   6.146 -0.7846 -0.6829 -0.7209
 8370SOL    HW236570   4.075   3.714   6.228  0.9634 -1.3500  0.2742
 8371SOL     OW36571   1.512   3.841   6.333 -0.0164 -0.7722 -0.1306
 8371SOL    HW136572   1.508   3.855   6.428  0.1731 -0.6617 -0.1383
 8371SOL    HW236573   1.607   3.857   6.328 -0.0383 -0.8909 -0.8436
 8372SOL     OW36574   1.774   2.759   4.059  0.8800  0.4047  0.2452
 8372SOL    HW136575   1.829   2.791   3.987  0.3289  2.3193  0.6696
 8372SOL    HW236576   1.694   2.812   4.053 -0.3514 -1.7848 -2.4771
 8373SOL     OW36577   2.360   2.304   7.955  0.1586  0.5399  0.1195
 8373SOL    HW136578   2.323   2.379   8.001  0.8130  1.4067 -0.7546
 8373SOL    HW236579   2.278   2.287   7.907 -0.9978  2.2248  1.5074
 8374SOL     OW36580   4.650   4.250   3.687  0.3349  0.2365 -0.4029
 8374SOL    HW136581   4.634   4.342   3.663 -1.3634  0.1084  0.2584
 8374SOL    HW236582   4.664   4.261   3.782 -0.8003  0.1910 -0.2331
 8375SOL     OW36583   3.685   4.272   9.007  0.4098 -0.5403  0.2921
 8375SOL    HW136584   3.761   4.228   8.969  0.7917 -0.6804  1.2129
 8375SOL    HW236585   3.629   4.199   9.034  2.0687 -2.6516 -1.9731
 8376SOL     OW36586   0.307   3.468   3.409 -0.1640 -0.3383 -0.2977
 8376SOL    HW136587   0.323   3.524   3.485  0.6563  0.9899 -1.4533
 8376SOL    HW236588   0.215   3.447   3.429  0.4798 -1.1708  1.8741
 8377SOL     OW36589   3.127   2.295   7.592 -0.2837  0.0486 -0.4455
 8377SOL    HW136590   3.139   2.343   7.674 -0.3677  1.9100 -1.5325
 8377SOL    HW236591   3.200   2.313   7.532 -1.2673  0.8017 -1.4148
 8378SOL     OW36592   3.465   0.430   5.192  0.0393  0.6322  0.5928
 8378SOL    HW136593   3.557   0.417   5.170 -0.4758  1.7859 -2.2871
 8378SOL    HW236594   3.423   0.431   5.106 -0.0157  0.6763  0.6200
 8379SOL     OW36595   2.196   1.270   4.102  0.6482  0.3286  0.4130
 8379SOL    HW136596   2.270   1.210   4.103 -0.1452 -0.6435  1.8200
 8379SOL    HW236597   2.152   1.241   4.182  1.1714  0.5257  0.7699
 8380SOL     OW36598   0.609   2.738  15.368  0.1918 -0.5304 -0.4329
 8380SOL    HW136599   0.650   2.760  15.284 -0.6174  0.7474 -0.4884
 8380SOL    HW236600   0.675   2.673  15.393 -1.2655 -1.9162 -0.2530
 8381SOL     OW36601   2.639   4.101   9.921 -0.3917 -0.1594 -0.0705
 8381SOL    HW136602   2.555   4.056   9.929 -0.3088 -0.2180  0.4518
 8381SOL    HW236603   2.684   4.060   9.994 -1.0031 -0.8816 -0.1004
 8382SOL     OW36604   2.502   2.527  13.112 -0.3616 -0.2243  0.5069
 8382SOL    HW136605   2.580   2.582  13.120 -2.3941  2.1886  4.1876
 8382SOL    HW236606   2.539   2.454  13.063 -0.3094  0.7218 -0.8510
 8383SOL     OW36607   0.634   1.412   6.792  0.2495  0.0438 -0.3701
 8383SOL    HW136608   0.721   1.377   6.772  0.5138 -0.0033  0.8513
 8383SOL    HW236609   0.617   1.463   6.714 -0.8734 -0.7036 -0.6203
 8384SOL     OW36610   3.020   0.143  11.419  0.1114 -0.2370  0.7667
 8384SOL    HW136611   2.930   0.154  11.389  0.3720  0.4893  0.2608
 8384SOL    HW236612   3.038   0.231  11.452  0.0851 -0.2781  0.8907
 8385SOL     OW36613   2.274   2.989  17.464  0.2551 -0.2695 -0.1758
 8385SOL    HW136614   2.292   3.019  17.553  2.2143 -2.2127  0.0769
 8385SOL    HW236615   2.179   2.974  17.465  0.0791  0.6824 -2.9463
 8386SOL     OW36616   1.254   1.454   9.696 -0.3375  0.3413  0.2181
 8386SOL    HW136617   1.263   1.362   9.669  0.2200  0.1023  1.2204
 8386SOL    HW236618   1.162   1.466   9.721 -0.3493 -0.3481  0.5029
 8387SOL     OW36619   4.211   2.507   5.378 -0.3429  0.1933 -0.0277
 8387SOL    HW136620   4.207   2.561   5.299 -1.6145  0.2154  0.0582
 8387SOL    HW236621   4.295   2.533   5.417 -1.5140  0.7331  2.1523
 8388SOL     OW36622   2.371   1.300   1.841  0.4464  0.0801  0.2162
 8388SOL    HW136623   2.429   1.248   1.786 -0.0305 -0.7854  0.5302
 8388SOL    HW236624   2.306   1.328   1.777 -0.1228  0.6422  1.0348
 8389SOL     OW36625   3.506   3.499   5.518  0.0397 -0.2567  0.2648
 8389SOL    HW136626   3.466   3.561   5.457  1.1812 -1.4196 -1.6939
 8389SOL    HW236627   3.506   3.547   5.600  0.5848 -0.1121  0.1849
 8390SOL     OW36628   4.205   2.507   7.511  0.8210 -0.2910  0.0614
 8390SOL    HW136629   4.231   2.415   7.504 -2.5809 -1.3842  2.1133
 8390SOL    HW236630   4.264   2.538   7.579  1.7609  1.1214 -1.3860
 8391SOL     OW36631   1.439   2.995  14.491  0.0696 -0.2540 -0.1399
 8391SOL    HW136632   1.425   2.991  14.397  0.0635 -2.3106 -0.0524
 8391SOL    HW236633   1.362   3.043  14.522  0.0751  0.1865 -0.7998
 8392SOL     OW36634   2.216   3.559   4.868 -0.7024  0.0637  0.1199
 8392SOL    HW136635   2.262   3.558   4.952 -0.2548 -0.7777 -0.1318
 8392SOL    HW236636   2.180   3.647   4.859 -1.4440 -0.2432  0.1353
 8393SOL     OW36637   3.635   3.193   6.660  0.1993 -0.3457 -0.7615
 8393SOL    HW136638   3.657   3.251   6.587 -0.9119 -0.4040 -1.1462
 8393SOL    HW236639   3.555   3.231   6.695 -0.2931 -2.8150  0.8480
 8394SOL     OW36640   4.439   1.232   9.703  0.2470  0.5613  0.0292
 8394SOL    HW136641   4.511   1.230   9.765  0.4762  4.2301 -0.1217
 8394SOL    HW236642   4.488   1.233   9.621  1.1326  2.1536  0.5661
 8395SOL     OW36643   4.309   1.805   8.853  0.0591 -0.6793  0.0662
 8395SOL    HW136644   4.289   1.712   8.860  1.8152 -1.0730 -0.0013
 8395SOL    HW236645   4.338   1.797   8.762  1.2946  2.0039  0.2383
 8396SOL     OW36646   3.016   4.379   8.921  0.3109  0.1740  0.1391
 8396SOL    HW136647   3.046   4.462   8.959  0.3471 -0.4465  1.4554
 8396SOL    HW236648   2.923   4.384   8.940  0.0946 -0.1397 -0.8399
 8397SOL     OW36649   0.046   3.850   7.034  0.7317 -0.7886  0.1087
 8397SOL    HW136650   0.138   3.828   7.024  0.3205 -1.9324 -1.2342
 8397SOL    HW236651   0.056   3.912   7.106  0.9960 -0.9415  0.2016
 8398SOL     OW36652   0.801   3.268   1.287  0.3099  0.2166  0.3438
 8398SOL    HW136653   0.727   3.327   1.271 -0.1975 -1.1372 -2.2333
 8398SOL    HW236654   0.843   3.262   1.201  0.9407  1.6781  0.5572
 8399SOL     OW36655   3.941   0.737   4.544 -0.1208 -0.3196  0.3708
 8399SOL    HW136656   3.859   0.708   4.504  0.7566  0.4737 -1.9958
 8399SOL    HW236657   4.003   0.670   4.516  2.5210  2.6462 -0.8227
 8400SOL     OW36658   3.268   3.243   4.729 -0.5643 -0.6339 -0.0211
 8400SOL    HW136659   3.304   3.328   4.705  1.3678 -0.8379  2.0877
 8400SOL    HW236660   3.204   3.223   4.661  0.9632  0.8922 -1.9201
 8401SOL     OW36661   3.951   3.664   1.538  0.2865 -0.3186 -0.3179
 8401SOL    HW136662   4.008   3.679   1.462  1.0494 -1.7064 -0.0123
 8401SOL    HW236663   3.956   3.569   1.552 -0.7870 -0.4194 -0.5914
 8402SOL     OW36664   1.333   4.621   4.194  0.5091 -0.9346  0.2511
 8402SOL    HW136665   1.312   4.714   4.204  0.7291 -1.0575  1.8141
 8402SOL    HW236666   1.383   4.617   4.276 -0.2343 -0.8585  0.7122
 8403SOL     OW36667   4.120   0.732   2.458  0.2243 -0.3056  0.0317
 8403SOL    HW136668   4.091   0.776   2.378  1.2749  0.3309  0.0014
 8403SOL    HW236669   4.193   0.788   2.485  0.6757  0.5493 -2.9862
 8404SOL     OW36670   4.628   1.983   2.194  0.1417 -0.4356 -0.0208
 8404SOL    HW136671   4.698   2.033   2.153  0.1700  0.1274  0.7045
 8404SOL    HW236672   4.561   2.018   2.136  1.8766  1.9222 -0.5969
 8405SOL     OW36673   2.856   2.060   8.265  0.2451 -0.2416 -0.2142
 8405SOL    HW136674   2.828   2.151   8.254 -0.1438 -0.3104  0.2359
 8405SOL    HW236675   2.782   2.008   8.294 -1.2417  2.3306  0.6531
 8406SOL     OW36676   3.977   3.457   8.499 -0.0132 -0.4352  0.0037
 8406SOL    HW136677   3.890   3.488   8.525 -0.6684 -1.2615 -1.2272
 8406SOL    HW236678   4.031   3.506   8.561 -0.9632 -2.2738  2.2906
 8407SOL     OW36679   0.371   1.816   0.801  0.3118 -0.0833 -0.0497
 8407SOL    HW136680   0.465   1.818   0.820  0.6169  0.6997 -1.5967
 8407SOL    HW236681   0.368   1.747   0.734  0.9526  1.6480 -1.8668
 8408SOL     OW36682   0.945   0.871  11.567 -0.1959  0.0346  0.2743
 8408SOL    HW136683   0.981   0.822  11.640 -1.3412  1.3527  1.7233
 8408SOL    HW236684   1.027   0.884  11.520 -1.1452 -2.5350 -2.1120
 8409SOL     OW36685   4.345   4.088   7.942  0.2856  0.4145 -0.0836
 8409SOL    HW136686   4.276   4.065   7.879 -0.3864  0.0768  0.7746
 8409SOL    HW236687   4.414   4.026   7.919  0.5236  0.6069  0.1180
 8410SOL     OW36688   3.574   3.337   5.304 -0.1438  0.5536 -0.5181
 8410SOL    HW136689   3.662   3.370   5.284  0.1621 -0.5780 -1.0358
 8410SOL    HW236690   3.568   3.376   5.391 -0.9433 -2.9424  0.9746
 8411SOL     OW36691   2.472   1.914   1.275 -0.2365  0.4833  0.3747
 8411SOL    HW136692   2.477   1.821   1.255  4.5518  0.5060  1.5065
 8411SOL    HW236693   2.555   1.913   1.321  0.8737 -1.8645 -1.7137
 8412SOL     OW36694   2.139   2.377   4.822  0.0145 -0.0576  0.6418
 8412SOL    HW136695   2.130   2.471   4.807  1.9969 -0.1196 -0.8928
 8412SOL    HW236696   2.055   2.347   4.786 -0.3737  3.4129 -1.3203
 8413SOL     OW36697   4.037   4.301  10.828 -0.3538  0.2437  0.2299
 8413SOL    HW136698   4.110   4.256  10.785 -0.6688  0.1865 -0.2511
 8413SOL    HW236699   4.072   4.388  10.812  0.6268  0.0130  1.1514
 8414SOL     OW36700   2.983   1.338   7.707 -0.2084  0.2764  0.1818
 8414SOL    HW136701   2.895   1.361   7.677 -0.6830 -1.3108  0.3639
 8414SOL    HW236702   2.972   1.246   7.729 -0.6200  0.2530 -0.1231
 8415SOL     OW36703   0.768   3.265  15.217  0.2257 -0.4641 -0.3009
 8415SOL    HW136704   0.771   3.207  15.293  1.2608 -0.6610 -0.4936
 8415SOL    HW236705   0.682   3.304  15.229  1.4382  1.3050  2.6727
 8416SOL     OW36706   2.090   0.245   1.703  0.3005 -0.0804  0.2272
 8416SOL    HW136707   2.129   0.325   1.666 -1.4931  0.5570 -0.2724
 8416SOL    HW236708   1.998   0.249   1.676  0.3170  0.1430  0.2003
 8417SOL     OW36709   1.940   3.362   6.048  0.3689 -0.6559  0.4855
 8417SOL    HW136710   2.032   3.385   6.037  0.0310 -0.7195 -2.4014
 8417SOL    HW236711   1.933   3.297   5.979  1.6704 -2.4834  2.0477
 8418SOL     OW36712   0.767   0.484   8.043 -0.4943 -0.0398  0.3695
 8418SOL    HW136713   0.787   0.533   8.123 -1.3913  2.0713 -0.7158
 8418SOL    HW236714   0.736   0.403   8.085  0.3547  0.3231  1.7212
 8419SOL     OW36715   0.273   2.708   2.905  0.3771 -0.6187 -0.2037
 8419SOL    HW136716   0.199   2.737   2.957  0.6262 -0.8709  0.2890
 8419SOL    HW236717   0.250   2.713   2.812 -1.4654 -3.6342  0.1050
 8420SOL     OW36718   1.386   3.090  17.070 -0.3297 -0.4141  0.0949
 8420SOL    HW136719   1.327   3.108  17.143 -0.6812  0.0688 -0.3040
 8420SOL    HW236720   1.352   3.009  17.032  1.4056 -0.5216 -1.2167
 8421SOL     OW36721   0.828   1.994   6.084 -0.3779  0.3936 -0.2423
 8421SOL    HW136722   0.889   1.920   6.075  1.1299  1.6256 -0.2279
 8421SOL    HW236723   0.766   1.958   6.147  0.2367 -0.1672  0.0504
 8422SOL     OW36724   2.662   4.264   4.923 -0.1410 -0.5839 -0.0985
 8422SOL    HW136725   2.751   4.229   4.932 -0.2123  0.0683  2.9890
 8422SOL    HW236726   2.620   4.181   4.902 -1.4940 -0.3393  1.7064
 8423SOL     OW36727   2.730   0.396   2.223 -0.0837  0.1856 -0.0404
 8423SOL    HW136728   2.748   0.354   2.307  0.2217 -0.1475 -0.2722
 8423SOL    HW236729   2.649   0.350   2.202 -1.1013  1.2320  1.5949
 8424SOL     OW36730   3.838   1.262   0.439  0.1121 -0.6533  0.1786
 8424SOL    HW136731   3.831   1.333   0.375 -0.2152  0.9106  1.9623
 8424SOL    HW236732   3.887   1.198   0.386 -0.5304 -0.7847 -0.2539
 8425SOL     OW36733   4.700   0.517  12.653  0.3853 -0.5728  0.1994
 8425SOL    HW136734   0.039   0.584  12.627  0.6671 -0.2146  1.7973
 8425SOL    HW236735   4.687   0.466  12.574  2.0228  0.8662 -1.0241
 8426SOL     OW36736   0.224   2.760   9.063 -0.0435 -0.4157  0.4220
 8426SOL    HW136737   0.294   2.795   9.119 -1.4674  2.6985  0.2144
 8426SOL    HW236738   0.184   2.694   9.119  1.2537  0.1491  2.0105
 8427SOL     OW36739   1.450   4.612   5.175  0.8452  0.3080 -0.2709
 8427SOL    HW136740   1.431   4.661   5.095  0.9962  0.2966 -0.3129
 8427SOL    HW236741   1.534   4.656   5.190 -0.3827  2.9533 -1.0317
 8428SOL     OW36742   2.447   1.270   4.270 -0.2139  0.1687  0.6458
 8428SOL    HW136743   2.422   1.357   4.300 -0.5389  0.6967 -1.1942
 8428SOL    HW236744   2.542   1.284   4.265 -0.4689  1.4570 -0.4905
 8429SOL     OW36745   2.735   0.266   3.648 -0.0152  0.4762 -0.4029
 8429SOL    HW136746   2.811   0.278   3.591 -0.3319  1.4015 -0.6232
 8429SOL    HW236747   2.772   0.220   3.724  0.2408  0.3026 -0.6298
 8430SOL     OW36748   1.443   0.896   7.314  0.2306  0.2832 -0.2390
 8430SOL    HW136749   1.513   0.937   7.364  0.5358 -1.8199  1.0792
 8430SOL    HW236750   1.464   0.803   7.319  0.6862  0.4984  2.0119
 8431SOL     OW36751   4.195   0.873   8.606 -0.7345 -0.3818 -0.3970
 8431SOL    HW136752   4.214   0.955   8.562 -0.9005  0.3130  0.8105
 8431SOL    HW236753   4.121   0.886   8.666 -2.8344 -0.9532 -2.8948
 8432SOL     OW36754   4.125   4.083   6.073 -0.6724  0.4515 -0.8555
 8432SOL    HW136755   4.061   4.148   6.044  0.7211  2.5542  0.7643
 8432SOL    HW236756   4.163   4.063   5.988  1.6930 -0.7628  0.4745
 8433SOL     OW36757   3.635   0.052  12.354  0.0913  0.0862 -0.3700
 8433SOL    HW136758   3.621   0.083  12.264  1.8508  1.7781 -0.0611
 8433SOL    HW236759   3.600   4.688  12.350  1.2597 -0.3954  0.0908
 8434SOL     OW36760   0.240   3.393  11.413  0.0616 -0.2551 -0.0670
 8434SOL    HW136761   0.189   3.355  11.341 -0.2365  1.4492 -0.7574
 8434SOL    HW236762   0.322   3.407  11.366  0.3464 -2.3743 -0.2230
 8435SOL     OW36763   3.722   2.882  14.637 -0.1304  0.3919 -0.2667
 8435SOL    HW136764   3.815   2.865  14.627  0.2377  1.3953  1.4113
 8435SOL    HW236765   3.681   2.816  14.581 -0.6691  0.0479  0.5326
 8436SOL     OW36766   4.060   1.020   5.343  0.5229 -0.1956 -0.3771
 8436SOL    HW136767   3.996   1.078   5.385 -0.5888 -0.8403 -1.1583
 8436SOL    HW236768   4.013   0.959   5.286  0.2888  0.0573 -0.4532
 8437SOL     OW36769   3.158   4.415   3.253  0.5644  0.1743 -0.1204
 8437SOL    HW136770   3.209   4.413   3.172 -0.2453  2.1634 -0.6984
 8437SOL    HW236771   3.172   4.505   3.284 -1.8488  0.3801  0.3607
 8438SOL     OW36772   0.682   4.213   5.927 -0.6791 -0.3505  0.0907
 8438SOL    HW136773   0.603   4.161   5.914 -0.9698  0.4037 -1.1000
 8438SOL    HW236774   0.735   4.159   5.986 -0.1193  0.7757  0.6196
 8439SOL     OW36775   1.643   2.679   6.936  0.0367 -0.2647  0.3857
 8439SOL    HW136776   1.576   2.643   6.993  0.2568  0.8821  1.3689
 8439SOL    HW236777   1.644   2.598   6.885  1.5032 -1.2065  1.8838
 8440SOL     OW36778   1.685   4.076  15.280 -0.4852  0.4128  0.2327
 8440SOL    HW136779   1.721   4.158  15.313  0.4827  0.1966 -0.2945
 8440SOL    HW236780   1.718   4.076  15.191  0.0391 -0.1808  0.4245
 8441SOL     OW36781   3.570   3.456  13.290  0.1657 -0.0983 -0.2890
 8441SOL    HW136782   3.583   3.374  13.336  2.0213 -0.1883 -0.9676
 8441SOL    HW236783   3.627   3.507  13.348 -0.6235 -1.9826  2.0851
 8442SOL     OW36784   2.975   1.078   7.785 -0.2239  0.2448  0.3954
 8442SOL    HW136785   2.924   0.999   7.801  0.0890  0.0431  0.3924
 8442SOL    HW236786   2.994   1.107   7.875  1.2671  1.1480 -0.2146
 8443SOL     OW36787   3.389   2.542   7.317 -0.0746  0.9052  0.4931
 8443SOL    HW136788   3.336   2.530   7.238  1.1096 -0.7445 -0.0627
 8443SOL    HW236789   3.444   2.615   7.289  1.8911 -1.2526 -1.3232
 8444SOL     OW36790   0.378   4.426   5.163  0.2709  0.5729  0.0605
 8444SOL    HW136791   0.320   4.447   5.236 -1.3585 -0.9999 -0.7770
 8444SOL    HW236792   0.329   4.463   5.090  3.5636  0.7258 -2.0726
 8445SOL     OW36793   1.351   2.290   2.395  0.3796 -0.0454 -0.1581
 8445SOL    HW136794   1.436   2.306   2.434  0.4168 -1.8129  0.5161
 8445SOL    HW236795   1.343   2.197   2.415  1.1109  0.0165  0.4094
 8446SOL     OW36796   0.058   2.570   3.887 -0.0364 -0.0517 -0.1839
 8446SOL    HW136797   0.062   2.539   3.797 -0.5897 -1.0224  0.1264
 8446SOL    HW236798   0.092   2.492   3.930 -0.3221  0.5796  1.1865
 8447SOL     OW36799   3.482   1.673   8.347  0.1208  0.0469 -0.8926
 8447SOL    HW136800   3.445   1.744   8.295 -1.4241  0.3303  0.6409
 8447SOL    HW236801   3.464   1.705   8.435  2.4187  0.3870 -0.5405
 8448SOL     OW36802   3.147   2.377  16.180 -0.2928  0.3660  0.3916
 8448SOL    HW136803   3.173   2.353  16.269  1.9695  1.8147  0.1288
 8448SOL    HW236804   3.196   2.312  16.130 -1.0586  0.6398 -0.7043
 8449SOL     OW36805   4.610   1.336   2.170 -0.7639 -0.0323 -0.5774
 8449SOL    HW136806   4.547   1.272   2.138 -0.7055  0.5423 -1.8137
 8449SOL    HW236807   4.581   1.421   2.138 -0.2974  1.1214  2.0735
 8450SOL     OW36808   0.948   1.221   4.350  0.1617 -0.4884 -0.7034
 8450SOL    HW136809   0.913   1.244   4.264  0.2581 -0.1443 -0.6526
 8450SOL    HW236810   0.887   1.280   4.394  0.4162 -0.4906 -0.3448
 8451SOL     OW36811   2.214   2.727   9.541 -0.1573 -0.0664  0.0752
 8451SOL    HW136812   2.301   2.722   9.501 -0.0102  0.5628  0.3155
 8451SOL    HW236813   2.211   2.637   9.573  4.1350  0.7209  2.8200
 8452SOL     OW36814   2.843   2.327  16.065 -0.3374 -0.3625 -0.0671
 8452SOL    HW136815   2.875   2.372  16.143  2.4703 -1.1863 -0.7483
 8452SOL    HW236816   2.825   2.405  16.012  0.9029  0.1478  0.2534
 8453SOL     OW36817   1.138   0.065   4.300  0.4990  0.4750  0.1740
 8453SOL    HW136818   1.136   0.126   4.374  2.2124 -0.3002  0.8459
 8453SOL    HW236819   1.117   4.708   4.346 -1.1248 -0.1195 -1.6100
 8454SOL     OW36820   2.956   0.372   7.116 -0.2552 -0.2603 -0.6065
 8454SOL    HW136821   2.949   0.447   7.175 -0.1911 -0.8780  0.1778
 8454SOL    HW236822   2.926   0.399   7.029 -3.0303 -0.0955  0.4074
 8455SOL     OW36823   1.852   0.900  12.315 -0.3811 -0.1071 -0.2694
 8455SOL    HW136824   1.922   0.943  12.365 -1.2501  1.8641 -0.7536
 8455SOL    HW236825   1.840   0.967  12.247  1.5407 -1.1431 -1.6201
 8456SOL     OW36826   1.091   2.772   4.228 -0.2905  0.2965 -0.6327
 8456SOL    HW136827   1.011   2.814   4.259 -0.4642  0.5452 -1.4279
 8456SOL    HW236828   1.105   2.831   4.155 -1.8679 -0.7861 -1.8151
 8457SOL     OW36829   3.124   2.059   6.493 -0.2906  0.2140  0.2174
 8457SOL    HW136830   3.193   2.061   6.428  0.2012  0.1572  0.7340
 8457SOL    HW236831   3.093   1.971   6.471 -1.0292  0.9019 -1.4720
 8458SOL     OW36832   2.030   1.908   6.395  0.2819  0.4247  0.7166
 8458SOL    HW136833   2.107   1.864   6.361  0.0830  0.8484 -0.2907
 8458SOL    HW236834   1.962   1.842   6.383 -0.6130  1.5920 -0.6619
 8459SOL     OW36835   4.719   4.439   4.489  0.1797 -0.4326  0.4423
 8459SOL    HW136836   4.645   4.391   4.524 -0.6603  1.5014  1.3155
 8459SOL    HW236837   4.673   4.486   4.419 -0.3809  0.5479  1.4745
 8460SOL     OW36838   0.606   1.829  17.043  0.1124 -0.7634  0.6740
 8460SOL    HW136839   0.600   1.846  17.138 -1.3364 -1.3430  0.6869
 8460SOL    HW236840   0.563   1.905  17.004 -0.6214 -1.5913 -0.1197
 8461SOL     OW36841   4.679   0.603  13.265  0.1482  0.3214 -0.2933
 8461SOL    HW136842   4.604   0.610  13.324 -1.0842  2.3974 -2.1055
 8461SOL    HW236843   0.022   0.587  13.331 -1.0340 -1.3338  0.4958
 8462SOL     OW36844   3.766   4.719   2.830  0.0401  0.3122  0.1446
 8462SOL    HW136845   3.726   0.043   2.902 -0.4825  0.4409 -0.2287
 8462SOL    HW236846   3.850   0.041   2.825  0.6361 -1.0882 -2.6088
 8463SOL     OW36847   2.589   0.508   2.842 -0.4499  0.3556  0.1090
 8463SOL    HW136848   2.507   0.505   2.793  0.3801 -3.0530 -1.0688
 8463SOL    HW236849   2.611   0.601   2.835 -1.3857  0.5249 -0.5714
 8464SOL     OW36850   1.312   1.540   4.473  0.0311 -0.3067  0.3332
 8464SOL    HW136851   1.271   1.607   4.418  1.0998  0.3874  0.3759
 8464SOL    HW236852   1.234   1.504   4.515  0.2051  0.1817  1.0727
 8465SOL     OW36853   1.078   1.161   7.165 -0.3206 -0.1010 -0.4770
 8465SOL    HW136854   1.069   1.243   7.212  1.5467 -0.3225  0.2593
 8465SOL    HW236855   1.068   1.185   7.073 -0.7628 -0.7470 -0.5978
 8466SOL     OW36856   3.943   4.549   6.690 -0.1470  0.5341  0.0635
 8466SOL    HW136857   3.942   4.508   6.604  0.7179 -0.1079  0.3471
 8466SOL    HW236858   3.887   4.481   6.729 -1.9597  1.3796 -1.0899
 8467SOL     OW36859   2.955   1.884   6.973 -0.6196 -0.2265  0.4373
 8467SOL    HW136860   2.967   1.789   6.969 -3.0873 -0.5672  1.5766
 8467SOL    HW236861   2.990   1.899   7.061 -0.7350 -2.7465  0.9395
 8468SOL     OW36862   4.631   3.477   7.462  0.0438  0.1993 -0.3824
 8468SOL    HW136863   4.545   3.436   7.471  1.4332 -2.1273  2.4224
 8468SOL    HW236864   4.647   3.467   7.368 -0.9365 -1.1322 -0.4147
 8469SOL     OW36865   0.692   3.415   0.912  0.3434  0.3537  0.5568
 8469SOL    HW136866   0.750   3.469   0.966 -1.6032  0.6598  2.3812
 8469SOL    HW236867   0.739   3.332   0.919 -0.4075 -0.1051  0.1942
 8470SOL     OW36868   4.087   3.624   8.671  0.0126  0.0103  0.4763
 8470SOL    HW136869   4.168   3.608   8.719 -0.0714 -1.7847  0.0154
 8470SOL    HW236870   4.030   3.661   8.739 -0.6860 -1.3725  0.6490
 8471SOL     OW36871   3.626   2.648   0.892 -0.5143  0.1568 -0.1092
 8471SOL    HW136872   3.646   2.573   0.837  1.7207  0.9138 -0.3252
 8471SOL    HW236873   3.530   2.654   0.885 -0.6331 -1.9272 -0.1269
 8472SOL     OW36874   0.251   3.189  12.652 -0.2524 -0.0783  0.5019
 8472SOL    HW136875   0.229   3.264  12.708  0.7983  1.2401 -0.8819
 8472SOL    HW236876   0.319   3.147  12.706 -1.4886 -2.4978  0.1922
 8473SOL     OW36877   0.797   0.529   2.415  0.1229  0.3605 -0.7437
 8473SOL    HW136878   0.781   0.439   2.389  1.0290 -0.3566  1.2323
 8473SOL    HW236879   0.845   0.547   2.335  0.6389 -1.0034 -0.7378
 8474SOL     OW36880   3.585   0.970   7.083  0.3039  0.2202 -0.0975
 8474SOL    HW136881   3.579   1.017   7.000  3.1398  1.4875  0.3946
 8474SOL    HW236882   3.598   0.879   7.057 -1.8295  0.4093 -1.8288
 8475SOL     OW36883   3.560   2.582   4.953 -0.2114 -0.2615  0.0992
 8475SOL    HW136884   3.500   2.657   4.954  0.9617  0.7300 -2.7144
 8475SOL    HW236885   3.631   2.630   4.993 -0.4292 -0.2348  0.4528
 8476SOL     OW36886   2.990   4.233   2.872  0.2376 -0.3481  0.8880
 8476SOL    HW136887   3.007   4.169   2.804 -1.3563 -0.4286  0.5837
 8476SOL    HW236888   3.068   4.219   2.926 -1.2813 -1.2614  2.8150
 8477SOL     OW36889   2.932   4.269  14.409 -0.1697 -0.0430  0.1586
 8477SOL    HW136890   2.916   4.363  14.414  0.2427  0.0505 -0.2603
 8477SOL    HW236891   2.842   4.239  14.414  0.3616 -1.5046  1.1734
 8478SOL     OW36892   3.652   1.556  10.366 -0.2277 -0.4095 -0.1651
 8478SOL    HW136893   3.671   1.466  10.343  0.4612 -0.0761 -0.9153
 8478SOL    HW236894   3.739   1.595  10.363 -0.8494  0.9418 -0.8866
 8479SOL     OW36895   4.214   0.267   9.217  0.4305 -0.2105  0.3136
 8479SOL    HW136896   4.228   0.361   9.222 -1.9278  0.1036  1.0090
 8479SOL    HW236897   4.288   0.232   9.267 -0.8365 -0.3479  2.0848
 8480SOL     OW36898   2.142   0.801   1.764  0.8196 -0.1234  0.3540
 8480SOL    HW136899   2.165   0.802   1.856 -1.5861 -1.6240  0.9823
 8480SOL    HW236900   2.222   0.759   1.731  0.8851  1.0001 -0.9211
 8481SOL     OW36901   0.333   1.143   5.430 -0.0474 -0.1714  0.6231
 8481SOL    HW136902   0.388   1.173   5.502  1.9874 -0.1622 -0.9326
 8481SOL    HW236903   0.246   1.173   5.457 -0.1944  0.8832 -1.0479
 8482SOL     OW36904   1.993   4.482   5.815 -0.2054  0.0089 -0.4275
 8482SOL    HW136905   2.082   4.486   5.852 -1.5017  0.0516  2.6524
 8482SOL    HW236906   2.006   4.414   5.749 -2.3044  0.7008 -1.5627
 8483SOL     OW36907   4.476   4.519   4.837  0.1311  0.6145 -0.9499
 8483SOL    HW136908   4.491   4.507   4.743  1.1579  0.4918 -0.7666
 8483SOL    HW236909   4.550   4.483   4.886 -0.9519  1.6922  1.4418
 8484SOL     OW36910   2.002   2.716   5.124 -0.3935  0.7110  0.9052
 8484SOL    HW136911   2.010   2.621   5.128  2.0426  0.8444 -1.0531
 8484SOL    HW236912   2.042   2.730   5.039 -1.0215  0.4809  0.5753
 8485SOL     OW36913   2.750   0.849  10.533 -0.2360 -0.2248  0.1262
 8485SOL    HW136914   2.784   0.833  10.621  1.1978 -1.8635 -0.7327
 8485SOL    HW236915   2.803   0.785  10.486  0.4646  0.0432  0.5499
 8486SOL     OW36916   3.515   0.691   8.503 -0.4247 -0.1791 -0.0789
 8486SOL    HW136917   3.562   0.652   8.430  1.3998  0.2655  0.8493
 8486SOL    HW236918   3.558   0.777   8.510  0.4034 -0.7357  1.8366
 8487SOL     OW36919   0.634   3.862  15.020 -0.3782 -0.2010 -0.0514
 8487SOL    HW136920   0.653   3.951  14.990 -1.8794  0.9853  2.4953
 8487SOL    HW236921   0.718   3.817  15.018  0.0607  0.6177  0.2206
 8488SOL     OW36922   2.384   1.228   0.073 -0.2431 -0.1769 -0.5950
 8488SOL    HW136923   2.328   1.259   0.144 -0.2558 -0.7596 -0.3555
 8488SOL    HW236924   2.462   1.197   0.119  1.6648  2.8887 -1.7440
 8489SOL     OW36925   0.226   3.062   2.466  0.0441 -0.3603  0.2148
 8489SOL    HW136926   0.131   3.051   2.468  0.1164 -0.4896  2.1811
 8489SOL    HW236927   0.250   2.999   2.398 -3.7083  0.5712 -1.9797
 8490SOL     OW36928   1.371   3.632   6.777  0.2718 -0.8686 -0.3550
 8490SOL    HW136929   1.356   3.545   6.815 -1.8876 -0.9594 -1.4227
 8490SOL    HW236930   1.432   3.665   6.843 -1.7917 -0.6883  1.4535
 8491SOL     OW36931   4.311   3.183  14.686 -0.3129  0.1032 -0.4959
 8491SOL    HW136932   4.270   3.098  14.669 -1.1422  0.2758  0.6957
 8491SOL    HW236933   4.296   3.208  14.777  2.0094  0.2943 -0.1659
 8492SOL     OW36934   0.647   2.081  10.114  0.0678  0.5858 -0.0059
 8492SOL    HW136935   0.728   2.101  10.161  1.1155 -0.1213 -1.5142
 8492SOL    HW236936   0.591   2.149  10.152 -1.7749 -1.1220  0.3295
 8493SOL     OW36937   0.747   4.148   5.509  0.4641  0.1291  0.1431
 8493SOL    HW136938   0.661   4.164   5.548 -0.2778  1.5950 -2.0633
 8493SOL    HW236939   0.766   4.239   5.483  0.5806  0.5476  1.6740
 8494SOL     OW36940   4.603   1.920   3.360 -0.1148 -0.5743  0.3699
 8494SOL    HW136941   4.552   1.872   3.425  0.8595  0.0462  1.6080
 8494SOL    HW236942   4.575   1.880   3.278  1.9188 -1.3390  0.0318
 8495SOL     OW36943   1.927   1.093  14.799 -0.4657  0.6162  0.4629
 8495SOL    HW136944   1.965   1.047  14.874 -0.2422  0.7392  0.4254
 8495SOL    HW236945   2.008   1.123  14.758 -1.1714  2.4826  0.4452
 8496SOL     OW36946   2.646   4.439   4.312  0.7023  0.1866 -0.0197
 8496SOL    HW136947   2.597   4.499   4.255  1.7798 -2.0121 -3.2518
 8496SOL    HW236948   2.657   4.370   4.246 -1.0651  1.2275 -1.4294
 8497SOL     OW36949   3.403   0.226  13.403 -0.7137  0.2593 -0.1340
 8497SOL    HW136950   3.478   0.202  13.458 -0.9393  0.4094  0.2345
 8497SOL    HW236951   3.373   0.300  13.455 -1.7006 -0.9118  0.9712
 8498SOL     OW36952   0.957   3.861   3.370  0.1868 -0.4323 -0.2564
 8498SOL    HW136953   0.989   3.916   3.441  2.7290 -2.0303 -0.1725
 8498SOL    HW236954   0.865   3.885   3.361  0.2562  0.7448  2.1070
 8499SOL     OW36955   3.141   1.698  17.371 -0.0905 -0.4025 -0.3681
 8499SOL    HW136956   3.183   1.780  17.397  0.2467 -0.7053  0.0357
 8499SOL    HW236957   3.052   1.709  17.405 -0.0014  0.9960 -0.6007
 8500SOL     OW36958   1.956   2.336   0.649 -0.2973 -0.2467 -0.1011
 8500SOL    HW136959   1.887   2.298   0.594 -1.4882  1.1792  0.4263
 8500SOL    HW236960   1.992   2.391   0.579  0.6899  1.5391  1.8343
 8501SOL     OW36961   0.189   2.594  14.790 -0.4383  0.0619  0.0658
 8501SOL    HW136962   0.151   2.661  14.847 -0.1276  1.5431 -1.4845
 8501SOL    HW236963   0.114   2.549  14.753 -1.5818  0.8054  1.4774
 8502SOL     OW36964   4.015   3.592   3.661  0.4391 -0.6076  1.2956
 8502SOL    HW136965   4.090   3.650   3.675  0.4326 -0.3952  0.4158
 8502SOL    HW236966   4.060   3.521   3.616 -0.4160  0.9637 -2.0220
 8503SOL     OW36967   2.652   3.863  11.404 -0.0651 -0.4343  0.1277
 8503SOL    HW136968   2.738   3.858  11.446  0.4147 -0.3068 -0.8245
 8503SOL    HW236969   2.621   3.773  11.399 -0.8876  0.0071 -3.1159
 8504SOL     OW36970   2.525   0.020   5.835 -0.2385 -0.4309  0.1538
 8504SOL    HW136971   2.493   4.676   5.776  0.2192  1.2560 -2.0596
 8504SOL    HW236972   2.443   0.069   5.839  1.1128  1.6138  2.6086
 8505SOL     OW36973   1.187   0.111  15.005  0.3955 -0.3517  0.4699
 8505SOL    HW136974   1.199   0.188  15.062  1.4507 -0.5216  0.4753
 8505SOL    HW236975   1.134   0.147  14.934  2.7349  1.6447 -0.2788
 8506SOL     OW36976   2.233   1.721   2.093  0.0508  0.3627 -0.3676
 8506SOL    HW136977   2.249   1.627   2.100  1.3844  0.5892 -0.3786
 8506SOL    HW236978   2.178   1.725   2.015 -1.0792 -1.6427  0.3164
 8507SOL     OW36979   1.290   4.267   3.902 -0.2367  0.1932  0.1992
 8507SOL    HW136980   1.334   4.268   3.988  0.2564  0.8030 -0.0619
 8507SOL    HW236981   1.304   4.179   3.867  0.0091  0.5163 -0.5110
 8508SOL     OW36982   3.022   2.303   8.097  0.1963  0.4013 -0.0560
 8508SOL    HW136983   3.030   2.226   8.041  1.7976  0.3558  0.2404
 8508SOL    HW236984   2.929   2.321   8.083  0.2877  1.4432  0.6525
 8509SOL     OW36985   1.386   0.972   2.609 -0.0620 -0.0874  0.0660
 8509SOL    HW136986   1.433   0.935   2.534 -2.8904 -0.8629 -1.2972
 8509SOL    HW236987   1.426   0.914   2.673  2.1593  1.3174 -0.0451
 8510SOL     OW36988   2.355   0.394  13.071 -0.1778 -0.5006  0.4075
 8510SOL    HW136989   2.300   0.340  13.015  0.7808 -1.9573  0.8689
 8510SOL    HW236990   2.328   0.476  13.030 -0.7770 -0.0609  1.6885
 8511SOL     OW36991   1.276   3.449   3.005  0.0543 -0.1273  0.6720
 8511SOL    HW136992   1.291   3.403   3.088 -2.5220  2.4966  2.5769
 8511SOL    HW236993   1.288   3.541   3.029  2.3695 -0.3809  0.5112
 8512SOL     OW36994   2.231   1.540   7.271 -0.2754 -0.1370  0.2260
 8512SOL    HW136995   2.305   1.494   7.311  1.6178  2.7200  0.0159
 8512SOL    HW236996   2.268   1.628   7.269 -0.6881  0.0426  0.6538
 8513SOL     OW36997   0.527   0.913   6.858  0.2782  0.0742 -0.1603
 8513SOL    HW136998   0.584   0.862   6.800 -0.0706  0.7113 -1.0719
 8513SOL    HW236999   0.589   0.978   6.890  2.9592 -1.3017 -2.4599
 8514SOL     OW37000   1.104   2.150   1.987 -0.1692 -0.0268  0.0637
 8514SOL    HW137001   1.141   2.178   1.904  1.5145  1.9269  1.4568
 8514SOL    HW237002   1.177   2.110   2.034 -0.3832  0.2766  0.6546
 8515SOL     OW37003   3.496   1.860   2.632  0.4082  0.0767 -0.3536
 8515SOL    HW137004   3.458   1.783   2.675 -0.8586  0.3670 -0.9740
 8515SOL    HW237005   3.418   1.909   2.609  0.0084  0.5558  2.0406
 8516SOL     OW37006   3.078   3.997   2.792  0.5964  0.5685 -0.5988
 8516SOL    HW137007   3.088   3.972   2.700  1.2831  0.4327 -0.4885
 8516SOL    HW237008   2.985   3.981   2.807  0.8938  0.0319  0.6825
 8517SOL     OW37009   4.545   4.606   9.088  0.1786  0.2347 -0.0423
 8517SOL    HW137010   4.480   4.603   9.159  0.4500 -1.3816  0.1281
 8517SOL    HW237011   4.588   4.524   9.110  1.0969  0.1563 -2.2345
 8518SOL     OW37012   3.620   4.118  14.578  1.0440  0.0435  0.2382
 8518SOL    HW137013   3.526   4.123  14.594  1.4361  3.0089  1.7026
 8518SOL    HW237014   3.651   4.137  14.667  0.4915  0.9942  0.2279
 8519SOL     OW37015   1.173   4.683   7.274  0.0209  0.0870 -0.0328
 8519SOL    HW137016   1.192   4.655   7.185 -2.2618  1.8294 -1.0691
 8519SOL    HW237017   1.084   4.650   7.284  1.3327 -2.9016  1.8297
 8520SOL     OW37018   0.257   1.147   2.543 -0.2364 -0.2736 -0.4517
 8520SOL    HW137019   0.209   1.229   2.533 -0.3366 -0.2247  0.4017
 8520SOL    HW237020   0.226   1.098   2.467  3.6389 -1.7145 -1.1198
 8521SOL     OW37021   2.302   0.759   7.414  0.2748 -0.0620  0.0045
 8521SOL    HW137022   2.228   0.718   7.460 -0.3004 -0.2014 -1.0401
 8521SOL    HW237023   2.325   0.827   7.476 -0.7592  0.8206 -0.5826
 8522SOL     OW37024   0.706   3.135   1.547 -0.4143  0.8312 -0.0137
 8522SOL    HW137025   0.728   3.091   1.465 -0.3250  2.8746 -1.0844
 8522SOL    HW237026   0.702   3.225   1.515  1.2271  0.4918 -1.1575
 8523SOL     OW37027   1.268   3.627   7.566  0.1863  0.4979  0.3574
 8523SOL    HW137028   1.290   3.564   7.635  0.3565  0.8406  0.6103
 8523SOL    HW237029   1.322   3.699   7.597 -0.2760  0.9525  0.1124
 8524SOL     OW37030   0.980   3.793  17.187  0.5274  0.5901 -0.3308
 8524SOL    HW137031   1.044   3.722  17.188  0.3454  0.4447  0.7715
 8524SOL    HW237032   0.914   3.746  17.237  0.9723 -0.4458 -0.7258
 8525SOL     OW37033   0.356   3.865  11.152 -0.2196 -0.2541 -0.3830
 8525SOL    HW137034   0.293   3.807  11.109 -1.4392  0.1719  0.8339
 8525SOL    HW237035   0.435   3.810  11.148  0.5571  0.6930  2.2419
 8526SOL     OW37036   0.888   4.558  13.149 -0.2919 -0.1211 -0.1716
 8526SOL    HW137037   0.883   4.463  13.140  2.3307 -0.1033 -1.9107
 8526SOL    HW237038   0.797   4.582  13.130 -0.8393 -0.5851  1.8942
 8527SOL     OW37039   0.318   0.387   4.223 -0.6086 -0.3982 -0.8287
 8527SOL    HW137040   0.302   0.481   4.234  0.4731 -0.3795  0.6585
 8527SOL    HW237041   0.303   0.365   4.315  0.3469 -0.2172 -0.6266
 8528SOL     OW37042   2.121   3.256   7.316 -0.1784 -0.0420 -0.3029
 8528SOL    HW137043   2.086   3.256   7.227 -1.9047  1.3692  0.3854
 8528SOL    HW237044   2.177   3.333   7.323  0.1426 -0.5750  3.4018
 8529SOL     OW37045   0.166   2.239  12.502  0.0823 -0.4931  0.5678
 8529SOL    HW137046   0.252   2.280  12.498 -0.4222  0.4886 -0.2670
 8529SOL    HW237047   0.182   2.176  12.572 -1.1224 -1.6026 -0.1321
 8530SOL     OW37048   2.515   1.910  10.980  0.2966 -0.8155 -0.1262
 8530SOL    HW137049   2.494   1.909  10.886 -0.9609 -1.5577  0.1716
 8530SOL    HW237050   2.530   2.004  10.993 -0.2870 -0.6371 -0.7650
 8531SOL     OW37051   1.894   4.026   2.093 -0.5785  0.1577 -0.3984
 8531SOL    HW137052   1.814   4.077   2.103  0.7776  2.0210  1.0000
 8531SOL    HW237053   1.913   4.047   2.001 -0.0652 -0.7643 -0.5039
 8532SOL     OW37054   0.573   3.642   6.767  0.2726 -0.1465 -0.1604
 8532SOL    HW137055   0.503   3.648   6.702 -0.1496  0.1600  0.3173
 8532SOL    HW237056   0.639   3.680   6.710 -0.0821 -0.7251 -0.9614
 8533SOL     OW37057   1.037   4.511  14.833  0.5061 -0.0764 -0.0012
 8533SOL    HW137058   1.127   4.481  14.830  0.3767 -0.6186  1.7295
 8533SOL    HW237059   1.017   4.456  14.909  0.4273  1.7611  1.3080
 8534SOL     OW37060   0.156   4.094   6.750 -0.1979  0.0833  0.1861
 8534SOL    HW137061   0.112   4.018   6.713 -1.2122  0.4211  0.7014
 8534SOL    HW237062   0.109   4.127   6.827 -0.9901 -3.9059  1.4238
 8535SOL     OW37063   4.182   0.751   9.811  0.0916  0.3374  0.1147
 8535SOL    HW137064   4.235   0.673   9.794  1.0915  0.8823  0.7438
 8535SOL    HW237065   4.240   0.799   9.871 -1.5981  0.3862  1.6941
 8536SOL     OW37066   0.101   3.332  13.115  0.5177 -0.0716  0.0861
 8536SOL    HW137067   0.095   3.260  13.051  0.0445  0.1325 -0.1033
 8536SOL    HW237068   0.049   3.397  13.067  0.6440 -1.0456 -1.3852
 8537SOL     OW37069   3.598   0.049   3.549 -0.3443 -0.2677 -0.3090
 8537SOL    HW137070   3.503   0.055   3.545 -0.5512 -2.7482  0.8198
 8537SOL    HW237071   3.621   0.040   3.456  0.4314  0.7191 -0.2141
 8538SOL     OW37072   2.005   2.002  13.267  0.6444  0.4454  0.5012
 8538SOL    HW137073   2.012   1.956  13.351  0.2832 -0.9782 -0.2484
 8538SOL    HW237074   1.971   1.928  13.217 -2.0038  0.9697  1.5003
 8539SOL     OW37075   1.807   2.835   0.240  0.0116 -0.5961 -0.4155
 8539SOL    HW137076   1.731   2.892   0.250  0.3360 -0.1621 -0.4126
 8539SOL    HW237077   1.759   2.756   0.265  2.3962 -1.1279  2.5073
 8540SOL     OW37078   3.123   1.885  12.368 -0.3132 -0.5576 -0.0013
 8540SOL    HW137079   3.164   1.805  12.402 -0.9191 -1.1425 -0.6350
 8540SOL    HW237080   3.079   1.910  12.449  0.3150 -0.1871  0.2217
 8541SOL     OW37081   0.029   0.704   9.214  0.1293 -0.3812  0.7692
 8541SOL    HW137082   0.095   0.677   9.151  1.2170 -3.1035  3.0419
 8541SOL    HW237083   4.687   0.727   9.150  0.2623  2.2455  1.5754
 8542SOL     OW37084   2.618   3.403   8.077  0.1362  0.4324 -0.2514
 8542SOL    HW137085   2.570   3.467   8.025 -2.3081 -1.2786 -0.1172
 8542SOL    HW237086   2.710   3.418   8.059  0.8176 -2.3776  0.8207
 8543SOL     OW37087   4.456   2.569   6.980 -0.0648  0.0267  0.2106
 8543SOL    HW137088   4.402   2.602   6.908 -1.1124 -0.2841  0.8559
 8543SOL    HW237089   4.464   2.476   6.957  2.1044  0.1690  0.4581
 8544SOL     OW37090   0.008   1.426   9.623  0.0171  0.2598 -0.1979
 8544SOL    HW137091   0.071   1.471   9.680  0.4997 -0.8689  0.1451
 8544SOL    HW237092   4.654   1.466   9.661 -1.7375 -3.9049  0.4703
 8545SOL     OW37093   2.509   0.823   6.442  0.1446  0.3957 -0.4895
 8545SOL    HW137094   2.418   0.846   6.425 -0.1776  0.3677  1.1869
 8545SOL    HW237095   2.489   0.739   6.485 -0.3083 -0.0071 -1.4766
 8546SOL     OW37096   4.502   3.806   8.555  0.0237 -0.5281 -0.1193
 8546SOL    HW137097   4.489   3.753   8.477  1.2540  0.0589 -0.7112
 8546SOL    HW237098   4.566   3.752   8.602  2.2057  1.6796 -0.5703
 8547SOL     OW37099   1.965   0.575  10.291 -0.5865 -0.1724  0.0315
 8547SOL    HW137100   1.895   0.509  10.283 -0.6818  0.1486 -1.8557
 8547SOL    HW237101   2.014   0.531  10.360 -0.3704 -0.4216 -0.2833
 8548SOL     OW37102   0.939   0.873   4.180 -0.1249  0.6875  0.1975
 8548SOL    HW137103   0.996   0.947   4.201 -1.1255  0.8847  2.2191
 8548SOL    HW237104   1.003   0.803   4.194 -0.1707  0.2241 -1.9120
 8549SOL     OW37105   1.260   1.051   3.590 -0.1779  0.5339  0.1130
 8549SOL    HW137106   1.268   0.956   3.585 -0.9682  0.4283  0.7716
 8549SOL    HW237107   1.326   1.080   3.527  0.3244 -1.1534 -0.1314
 8550SOL     OW37108   1.801   2.045  15.910 -0.4603  0.0740  0.6476
 8550SOL    HW137109   1.877   2.077  15.861 -0.2404  2.0021  2.2294
 8550SOL    HW237110   1.825   2.064  16.001  0.6859  0.8301  0.1877
 8551SOL     OW37111   1.693   0.320   7.992  0.2526 -0.1117  0.4322
 8551SOL    HW137112   1.743   0.394   7.956  2.3733 -0.4989  2.5820
 8551SOL    HW237113   1.607   0.330   7.950  0.7447 -1.6766 -0.9499
 8552SOL     OW37114   0.732   4.315  14.771  0.2111  0.0595  0.1007
 8552SOL    HW137115   0.640   4.289  14.783 -0.2492  1.0306 -1.3789
 8552SOL    HW237116   0.720   4.393  14.718  2.1255 -0.5248 -1.1782
 8553SOL     OW37117   2.218   4.563   8.909  0.6794 -0.0560 -0.2476
 8553SOL    HW137118   2.305   4.534   8.883 -0.0667 -0.8966 -1.8234
 8553SOL    HW237119   2.181   4.482   8.944 -0.8930  0.8740  0.2575
 8554SOL     OW37120   3.084   0.015   9.258 -0.0600  0.8096 -1.0017
 8554SOL    HW137121   3.068   0.083   9.192 -0.1627  2.5500  0.8031
 8554SOL    HW237122   3.145   4.680   9.214 -2.2049 -1.1190 -1.2977
 8555SOL     OW37123   2.953   1.720  16.133 -0.3460 -0.3774  0.2803
 8555SOL    HW137124   2.858   1.728  16.135 -0.1960  1.3150  0.2454
 8555SOL    HW237125   2.977   1.722  16.226 -3.3291 -0.7676  1.0404
 8556SOL     OW37126   4.395   2.397   6.229  0.2130  0.0665  0.6860
 8556SOL    HW137127   4.344   2.421   6.152  0.4218 -0.5213  0.3644
 8556SOL    HW237128   4.470   2.455   6.218 -0.3806  0.2248 -2.4005
 8557SOL     OW37129   3.997   4.087  16.734  0.2666 -0.1609  0.4223
 8557SOL    HW137130   4.085   4.119  16.750 -0.3166  2.0642 -0.7571
 8557SOL    HW237131   4.024   4.019  16.673 -2.6363  0.7855 -1.9485
 8558SOL     OW37132   3.956   4.297   3.175 -0.0133 -0.4495 -0.2854
 8558SOL    HW137133   3.974   4.220   3.229 -1.6995 -0.8050 -0.2265
 8558SOL    HW237134   3.951   4.369   3.238  3.9355 -0.3243 -0.1587
 8559SOL     OW37135   1.868   0.184   0.041 -0.0405  0.0107  0.6390
 8559SOL    HW137136   1.774   0.201   0.047 -0.3187 -1.0277 -1.0172
 8559SOL    HW237137   1.889   0.152   0.129 -2.4812 -0.6244  1.0081
 8560SOL     OW37138   2.695   2.683   3.624  0.1262 -0.2683  0.1542
 8560SOL    HW137139   2.630   2.752   3.609  0.6844  0.3943  0.8045
 8560SOL    HW237140   2.679   2.619   3.554  1.6753  0.2097 -0.6424
 8561SOL     OW37141   3.010   0.872  10.064 -0.0630 -0.5481  0.0563
 8561SOL    HW137142   2.924   0.879  10.105 -0.5954 -0.4042 -1.0792
 8561SOL    HW237143   2.991   0.798  10.007 -0.1491  0.1490 -0.8124
 8562SOL     OW37144   3.195   3.671  13.006  0.4041 -0.6978  0.7460
 8562SOL    HW137145   3.193   3.616  12.928  1.0245 -1.1385  1.0435
 8562SOL    HW237146   3.287   3.659  13.028  1.2126  2.9266 -0.5252
 8563SOL     OW37147   2.345   0.956  12.035  0.1665  0.5708 -0.5903
 8563SOL    HW137148   2.261   0.916  12.058  1.7178 -0.9357  2.5289
 8563SOL    HW237149   2.364   0.924  11.947  2.5009  0.5712 -0.0880
 8564SOL     OW37150   2.588   0.162   0.626 -0.4643 -0.1222  1.0586
 8564SOL    HW137151   2.557   0.081   0.665 -0.5928 -0.7497 -0.3498
 8564SOL    HW237152   2.670   0.167   0.676 -0.0972 -0.9524  0.5506
 8565SOL     OW37153   0.237   3.516   7.192 -0.3783  0.0118  0.1456
 8565SOL    HW137154   0.225   3.482   7.280  0.4059 -0.9741 -0.1338
 8565SOL    HW237155   0.308   3.460   7.161  0.2106 -0.1086  1.7156
 8566SOL     OW37156   3.579   1.560   3.172 -0.2193 -0.0817 -0.1560
 8566SOL    HW137157   3.502   1.564   3.229  1.0610 -0.1558  1.5751
 8566SOL    HW237158   3.629   1.634   3.207 -0.7676  0.0800  0.2936
 8567SOL     OW37159   0.852   3.529  11.781  0.0395 -0.0431 -0.8234
 8567SOL    HW137160   0.800   3.501  11.856  0.0611 -2.8178 -1.8437
 8567SOL    HW237161   0.856   3.624  11.791 -2.5069 -0.0608  0.3516
 8568SOL     OW37162   1.863   3.304   3.627  0.3701 -0.0315  0.9897
 8568SOL    HW137163   1.911   3.328   3.707  1.2834  0.6323  0.2487
 8568SOL    HW237164   1.856   3.383   3.574 -2.0651 -0.9985 -0.1341
 8569SOL     OW37165   3.257   3.350   8.429 -0.4857 -0.1589 -0.4847
 8569SOL    HW137166   3.172   3.305   8.425  0.3279 -1.6395 -1.1112
 8569SOL    HW237167   3.281   3.330   8.338 -2.7294 -0.5715 -1.0009
 8570SOL     OW37168   1.745   1.935   1.771  0.0812 -0.4268  0.7612
 8570SOL    HW137169   1.745   1.990   1.692 -0.0354 -0.4744  0.7286
 8570SOL    HW237170   1.682   1.865   1.756  0.0593 -0.6661  1.9320
 8571SOL     OW37171   3.882   4.439  15.483  0.2969 -0.5162  0.5005
 8571SOL    HW137172   3.928   4.362  15.515  3.3919  1.6207  1.2185
 8571SOL    HW237173   3.811   4.391  15.442  2.0701 -0.6972 -2.3216
 8572SOL     OW37174   1.598   0.916   0.524 -0.1486  0.1109  0.0187
 8572SOL    HW137175   1.685   0.878   0.514 -0.3466 -0.3728  0.1587
 8572SOL    HW237176   1.552   0.900   0.441  1.2945 -2.1296 -0.3438
 8573SOL     OW37177   0.055   1.459   7.410  0.2945 -0.0900 -0.2087
 8573SOL    HW137178   0.027   1.379   7.455  2.3627 -1.9420 -2.1980
 8573SOL    HW237179   0.149   1.462   7.426  0.3833  0.7090 -0.8640
 8574SOL     OW37180   1.925   3.488  11.946 -0.0629 -0.0515 -0.2144
 8574SOL    HW137181   1.977   3.440  12.010 -2.1641 -1.2142  0.6154
 8574SOL    HW237182   1.928   3.427  11.872 -0.9103 -0.7045  0.2944
 8575SOL     OW37183   4.139   1.791   1.462  0.5808  0.2246 -0.6253
 8575SOL    HW137184   4.213   1.825   1.512  1.7095 -2.0282 -0.7454
 8575SOL    HW237185   4.073   1.803   1.531  1.0728  2.7140 -0.5974
 8576SOL     OW37186   1.318   0.580  14.935 -0.1933 -0.3194  0.6880
 8576SOL    HW137187   1.262   0.657  14.947  2.6736  1.6641  1.3192
 8576SOL    HW237188   1.373   0.621  14.868  0.1981  0.7078  1.6260
 8577SOL     OW37189   1.857   1.147   4.820  0.5415  0.0747 -0.2113
 8577SOL    HW137190   1.940   1.128   4.775  1.2987  0.7967  0.8643
 8577SOL    HW237191   1.880   1.237   4.841  0.6295  0.3855 -1.6287
 8578SOL     OW37192   1.421   1.185  16.635 -1.0223 -0.4984  0.3989
 8578SOL    HW137193   1.372   1.128  16.694 -0.4260 -2.6818 -1.2093
 8578SOL    HW237194   1.409   1.266  16.685  0.5524 -0.4216  0.6442
 8579SOL     OW37195   0.145   3.239   5.434 -0.0767  0.3088 -0.0814
 8579SOL    HW137196   0.159   3.167   5.495 -2.1457  0.1231  0.1859
 8579SOL    HW237197   0.140   3.315   5.492  2.0115 -1.1492  2.0099
 8580SOL     OW37198   3.584   3.161   8.146  0.2640  0.1167 -0.8180
 8580SOL    HW137199   3.643   3.205   8.207  0.0962 -1.9860  0.8761
 8580SOL    HW237200   3.618   3.071   8.147 -0.9528 -0.3350  0.6227
 8581SOL     OW37201   0.780   0.148   7.833  0.5062 -0.0001 -0.2053
 8581SOL    HW137202   0.690   0.159   7.863  0.1363 -0.3607 -1.1935
 8581SOL    HW237203   0.778   0.055   7.812  1.3961 -0.1766  0.4773
 8582SOL     OW37204   4.340   2.449   8.066 -0.1566 -0.6635  0.8541
 8582SOL    HW137205   4.290   2.523   8.030 -0.4351 -1.5176 -0.5425
 8582SOL    HW237206   4.360   2.484   8.152 -0.7741  0.9715  0.3399
 8583SOL     OW37207   2.525   1.533  10.417  0.0353  0.1539 -0.0715
 8583SOL    HW137208   2.608   1.497  10.385  1.1342  1.8051  0.9174
 8583SOL    HW237209   2.467   1.460  10.397 -1.1730  0.1917  3.2655
 8584SOL     OW37210   0.432   0.729   3.526  0.0594  0.8582  0.1752
 8584SOL    HW137211   0.488   0.680   3.466 -0.7688 -1.8000  1.5648
 8584SOL    HW237212   0.461   0.818   3.507  0.8420  0.6844  0.5682
 8585SOL     OW37213   0.114   1.899   4.720  0.0013 -0.0530  0.5641
 8585SOL    HW137214   0.055   1.944   4.660 -0.3498 -0.2820  0.7325
 8585SOL    HW237215   0.144   1.978   4.765 -0.0886 -1.0891  2.4509
 8586SOL     OW37216   0.952   4.057   3.852  0.7297  0.2789  0.5792
 8586SOL    HW137217   0.993   4.128   3.802  0.5302 -1.1418 -1.5913
 8586SOL    HW237218   0.881   4.103   3.898 -0.2971  0.4112 -1.1106
 8587SOL     OW37219   4.097   1.367   5.837  0.2796 -0.0018  0.6051
 8587SOL    HW137220   4.031   1.385   5.770  0.2346  0.4053  0.7604
 8587SOL    HW237221   4.107   1.454   5.875  0.8996  0.4892 -0.6657
 8588SOL     OW37222   0.063   0.910   2.621  0.1247 -0.2980  0.6808
 8588SOL    HW137223   0.036   0.954   2.541 -1.1746  0.9641  1.8068
 8588SOL    HW237224   0.096   0.988   2.665  0.6917  0.0124 -0.3098
 8589SOL     OW37225   2.303   3.984   4.681 -0.5542  0.2864  0.0153
 8589SOL    HW137226   2.318   4.070   4.641 -2.2508 -0.3941 -2.1077
 8589SOL    HW237227   2.394   3.954   4.684 -0.1400  1.7012  1.4335
 8590SOL     OW37228   1.735   0.798   4.097  0.2975  0.5337 -0.7841
 8590SOL    HW137229   1.787   0.768   4.171 -0.8049 -1.7274 -0.9085
 8590SOL    HW237230   1.646   0.809   4.131  0.2747 -1.4142 -0.2507
 8591SOL     OW37231   3.473   3.382   4.181 -0.3401 -0.1041 -0.2597
 8591SOL    HW137232   3.514   3.319   4.240  1.7706  0.3656 -1.2203
 8591SOL    HW237233   3.419   3.434   4.240 -0.0901 -0.0998 -0.0355
 8592SOL     OW37234   0.355   1.314   4.009 -1.0604 -0.1733 -0.7492
 8592SOL    HW137235   0.380   1.225   3.985 -1.1627 -0.5951  0.7128
 8592SOL    HW237236   0.279   1.293   4.063 -0.4769 -1.0270 -0.2672
 8593SOL     OW37237   0.384   4.574   3.694 -0.1939  0.0370 -0.1472
 8593SOL    HW137238   0.356   4.494   3.650 -0.6685  0.3424 -0.3982
 8593SOL    HW237239   0.470   4.594   3.656  0.9946 -0.7591  2.1597
 8594SOL     OW37240   3.096   1.037   9.840 -0.0459 -0.3080 -0.5446
 8594SOL    HW137241   3.047   1.004   9.915  0.6301 -2.9600 -1.2909
 8594SOL    HW237242   3.138   0.954   9.819 -0.1845 -0.8586  1.3762
 8595SOL     OW37243   2.339   1.414   0.296  0.0211  0.7767  0.0318
 8595SOL    HW137244   2.357   1.423   0.390  1.3301 -0.8480 -0.0693
 8595SOL    HW237245   2.348   1.500   0.255 -0.6783  0.5122 -0.6784
 8596SOL     OW37246   4.133   0.432   6.718  0.3719 -0.1427 -0.3846
 8596SOL    HW137247   4.064   0.395   6.664 -0.1323  1.4350 -0.8272
 8596SOL    HW237248   4.184   0.357   6.748 -1.1876 -1.0200  0.0525
 8597SOL     OW37249   3.999   0.728   6.528 -0.1613 -0.3579  0.5302
 8597SOL    HW137250   3.982   0.808   6.478 -1.6187 -0.8743  0.1861
 8597SOL    HW237251   3.965   0.671   6.458 -0.6167 -0.2958  0.7030
 8598SOL     OW37252   0.780   3.945   1.764  0.1539  0.4408  0.0658
 8598SOL    HW137253   0.865   3.988   1.768  0.9862 -1.3775  2.6006
 8598SOL    HW237254   0.722   4.021   1.773  1.4043  1.2717  1.1178
 8599SOL     OW37255   0.404   0.451   5.195 -0.0579  0.1000 -0.1970
 8599SOL    HW137256   0.347   0.521   5.225 -0.4868 -0.5451  0.4942
 8599SOL    HW237257   0.363   0.446   5.108 -2.2658 -0.4260  0.8850
 8600SOL     OW37258   3.887   1.746  15.923  0.7828  0.0625 -0.1203
 8600SOL    HW137259   3.877   1.836  15.954 -0.5006  0.0530 -0.4887
 8600SOL    HW237260   3.800   1.709  15.939  0.4401  0.7835 -0.2970
 8601SOL     OW37261   3.007   4.362   8.286  0.1711  0.6771 -0.0021
 8601SOL    HW137262   2.976   4.379   8.376  2.0623  0.2452  0.7246
 8601SOL    HW237263   2.922   4.340   8.248 -0.4468  3.6287 -0.2871
 8602SOL     OW37264   1.948   4.031   6.407  0.6602  0.1563 -0.0680
 8602SOL    HW137265   1.940   4.011   6.500  1.7856 -1.3381 -0.3070
 8602SOL    HW237266   1.902   3.955   6.371  0.1598  0.3844  0.0821
 8603SOL     OW37267   0.132   0.297  14.765  0.0910 -0.2960 -0.5209
 8603SOL    HW137268   0.184   0.364  14.810  0.8893 -2.4190  1.6522
 8603SOL    HW237269   0.051   0.345  14.749  0.0981 -0.3005 -0.5727
 8604SOL     OW37270   2.524   1.985   4.345 -0.2511  0.4047  0.4875
 8604SOL    HW137271   2.518   1.910   4.405 -0.5822 -0.9257 -1.1949
 8604SOL    HW237272   2.533   2.054   4.411  0.5102  0.4488  0.3313
 8605SOL     OW37273   3.744   3.095   7.269  0.2848 -0.3704 -0.0718
 8605SOL    HW137274   3.797   3.167   7.236  0.7332 -0.8501 -0.4136
 8605SOL    HW237275   3.734   3.051   7.184 -0.3376  0.6695 -0.5344
 8606SOL     OW37276   3.158   0.230   3.077  0.3005  0.0130 -0.1137
 8606SOL    HW137277   3.185   0.140   3.056  2.6255  0.8891 -0.9564
 8606SOL    HW237278   3.074   0.213   3.120  1.4212  0.6780  2.3828
 8607SOL     OW37279   3.698   0.013   9.161 -0.1879  0.2291 -0.1675
 8607SOL    HW137280   3.785   0.034   9.195 -0.1230  0.4559 -0.4731
 8607SOL    HW237281   3.720   0.038   9.071  0.4037 -1.0756 -0.3832
 8608SOL     OW37282   2.732   2.760   4.571 -0.0148 -0.2826 -0.1912
 8608SOL    HW137283   2.793   2.700   4.614 -0.8573  0.2686  1.7922
 8608SOL    HW237284   2.762   2.763   4.481  2.1362 -0.6374  0.5078
 8609SOL     OW37285   2.567   1.004   9.075 -0.2455 -0.5419  0.1676
 8609SOL    HW137286   2.480   0.996   9.114 -0.3377 -0.1962  0.0298
 8609SOL    HW237287   2.621   0.996   9.154  0.2621  0.4707 -0.0694
 8610SOL     OW37288   1.699   3.643  12.998 -0.2933 -0.2360  0.0698
 8610SOL    HW137289   1.695   3.654  12.903 -0.2994 -0.1102  0.0839
 8610SOL    HW237290   1.784   3.604  13.019  0.7036  2.0875  0.3769
 8611SOL     OW37291   2.186   4.291   8.173 -0.6573  0.1086 -0.2660
 8611SOL    HW137292   2.194   4.278   8.267  0.7462  0.8646 -0.2952
 8611SOL    HW237293   2.151   4.205   8.147 -1.1047  0.1240  0.2747
 8612SOL     OW37294   2.612   3.297   2.664 -0.9375  0.0236 -0.0606
 8612SOL    HW137295   2.594   3.330   2.576  0.7958  0.6034 -0.2022
 8612SOL    HW237296   2.607   3.378   2.715  1.2862  0.5928 -0.7358
 8613SOL     OW37297   1.687   3.815   8.366 -0.1743  0.3692  0.3127
 8613SOL    HW137298   1.745   3.754   8.412  0.8408 -1.3504 -3.2745
 8613SOL    HW237299   1.686   3.900   8.411  3.6215 -1.3256  3.5745
 8614SOL     OW37300   0.635   0.376  15.744 -0.2134  0.1492  0.0278
 8614SOL    HW137301   0.615   0.308  15.680  0.7629  0.2036 -0.3288
 8614SOL    HW237302   0.616   0.334  15.828 -1.8770  0.3673 -0.2221
 8615SOL     OW37303   3.136   4.166   6.586  0.5919  0.1372 -0.5745
 8615SOL    HW137304   3.227   4.140   6.567  1.3617  1.7740  0.8476
 8615SOL    HW237305   3.132   4.205   6.673 -0.6085  0.8661 -0.9640
 8616SOL     OW37306   3.480   1.160   8.195  0.4311 -0.5594 -0.4038
 8616SOL    HW137307   3.437   1.230   8.244  0.1624 -1.2398  0.3352
 8616SOL    HW237308   3.537   1.216   8.142  2.5382 -1.0400  1.3231
 8617SOL     OW37309   3.372   3.031   9.687  0.8313 -0.3820 -0.2624
 8617SOL    HW137310   3.398   3.001   9.599 -0.0287 -0.0166 -0.6421
 8617SOL    HW237311   3.430   3.107   9.692  0.7347 -0.4252  1.2873
 8618SOL     OW37312   3.655   2.998   9.366  0.6577 -0.1458 -0.1793
 8618SOL    HW137313   3.679   3.040   9.283  1.6845  0.1438  0.2665
 8618SOL    HW237314   3.727   2.940   9.390  1.6017  1.6849  1.3955
 8619SOL     OW37315   3.877   3.390  15.998 -0.0973 -0.2063  0.5755
 8619SOL    HW137316   3.966   3.424  16.003  0.6107 -2.0076  0.3259
 8619SOL    HW237317   3.855   3.380  16.090 -0.9312  0.4025  0.4465
 8620SOL     OW37318   3.855   0.633   3.121 -0.6457 -0.1656  0.1223
 8620SOL    HW137319   3.763   0.645   3.145 -1.2352 -2.4871 -0.9264
 8620SOL    HW237320   3.867   0.681   3.039  0.3460  0.1357  0.4399
 8621SOL     OW37321   0.276   1.813   2.572  0.1762  0.1153  0.4355
 8621SOL    HW137322   0.340   1.746   2.550 -0.1955 -0.0830 -0.0261
 8621SOL    HW237323   0.314   1.892   2.534  0.9939  1.0368  3.1376
 8622SOL     OW37324   3.429   2.797  16.762  0.2608 -0.0938  0.6723
 8622SOL    HW137325   3.436   2.880  16.714 -0.6877 -1.0222 -1.0513
 8622SOL    HW237326   3.335   2.791  16.780 -0.3190  0.9236 -2.1059
 8623SOL     OW37327   3.295   3.783   0.728 -0.3726 -0.3247 -0.1432
 8623SOL    HW137328   3.355   3.734   0.784 -0.4337  1.5939  1.5739
 8623SOL    HW237329   3.252   3.836   0.795  3.8223  1.5311  1.0596
 8624SOL     OW37330   0.081   0.932   4.421 -0.3432  0.1314  0.7205
 8624SOL    HW137331   0.175   0.950   4.431 -0.2811  1.1876 -1.7543
 8624SOL    HW237332   0.086   0.837   4.435  0.0765 -0.4215 -3.1634
 8625SOL     OW37333   4.229   4.567   6.799  0.5943  0.5491  0.8080
 8625SOL    HW137334   4.146   4.559   6.752 -0.6505 -0.4077  3.1339
 8625SOL    HW237335   4.294   4.530   6.740  0.1472  1.1432 -0.0664
 8626SOL     OW37336   1.782   3.853   6.295  0.5718  0.2501  0.2901
 8626SOL    HW137337   1.809   3.833   6.205  2.4246 -1.3504  1.1989
 8626SOL    HW237338   1.767   3.765   6.329  1.7887  0.0411  0.3074
 8627SOL     OW37339   0.696   2.743   1.386 -0.7153  0.4832 -0.1989
 8627SOL    HW137340   0.744   2.826   1.397  1.6992 -0.6239 -2.3896
 8627SOL    HW237341   0.699   2.733   1.291  0.9230 -1.8646  0.1103
 8628SOL     OW37342   0.055   3.427   3.463 -0.6569 -0.1099 -0.0437
 8628SOL    HW137343   4.712   3.359   3.473  0.0440 -1.1842 -2.6874
 8628SOL    HW237344   0.006   3.489   3.409 -0.3118 -1.2404 -1.6468
 8629SOL     OW37345   3.305   4.630  10.535 -0.5377  0.1147 -0.2277
 8629SOL    HW137346   3.366   4.648  10.464 -0.8019 -0.5161 -0.6085
 8629SOL    HW237347   3.334   4.544  10.564 -2.6367 -0.2775  0.7186
 8630SOL     OW37348   3.402   2.868  10.495  0.4748 -0.7982  0.3287
 8630SOL    HW137349   3.332   2.805  10.515  2.5855 -2.7999  1.4371
 8630SOL    HW237350   3.388   2.929  10.567 -2.8863  0.3535 -1.3008
 8631SOL     OW37351   0.814   2.788  15.949  0.1675  0.1025 -0.4273
 8631SOL    HW137352   0.882   2.805  15.884  0.0911  0.2113 -0.4795
 8631SOL    HW237353   0.870   2.757  16.020 -1.7877 -2.1474  0.1401
 8632SOL     OW37354   1.764   2.208   4.507  0.1948 -0.0941  0.4172
 8632SOL    HW137355   1.736   2.230   4.418  0.3628 -0.8314  0.1859
 8632SOL    HW237356   1.728   2.120   4.517  3.1599 -1.0842  2.2924
 8633SOL     OW37357   3.784   2.621  12.222 -0.3117 -0.2635 -0.8515
 8633SOL    HW137358   3.772   2.547  12.162  1.9147 -0.3332 -1.2191
 8633SOL    HW237359   3.750   2.577  12.300 -0.1265  2.2778  0.6540
 8634SOL     OW37360   3.487   0.918   2.224  0.2595 -0.4067 -0.2959
 8634SOL    HW137361   3.446   0.909   2.138  0.9910 -1.5463 -0.5264
 8634SOL    HW237362   3.438   0.994   2.255 -0.1251 -0.7253 -0.1180
 8635SOL     OW37363   0.393   4.623   2.806 -0.0684 -0.3922 -0.1919
 8635SOL    HW137364   0.431   4.606   2.720  1.3235 -0.7081  0.4772
 8635SOL    HW237365   0.460   4.684   2.837 -0.0363 -0.3014 -0.4395
 8636SOL     OW37366   3.870   0.299  11.722  0.2550 -0.0491 -0.5236
 8636SOL    HW137367   3.950   0.332  11.763 -1.1668 -0.7884  2.8595
 8636SOL    HW237368   3.846   0.215  11.761 -2.2459 -0.1197 -2.1812
 8637SOL     OW37369   3.648   1.731   7.007  0.9899  0.5170  0.8802
 8637SOL    HW137370   3.691   1.691   6.931  1.5067  1.2714  0.7762
 8637SOL    HW237371   3.678   1.821   6.996  0.8239  0.8299  2.9531
 8638SOL     OW37372   1.218   3.013   6.995 -0.1605  0.5225  0.2925
 8638SOL    HW137373   1.280   2.979   6.931 -0.0493 -0.0503  0.7088
 8638SOL    HW237374   1.136   2.978   6.959  0.3509 -0.4855  0.1078
 8639SOL     OW37375   0.645   0.617   7.699  0.1366 -0.2401  0.2547
 8639SOL    HW137376   0.719   0.647   7.752  1.8602 -2.0757 -1.0963
 8639SOL    HW237377   0.574   0.634   7.761 -0.1225  1.9028 -0.6664
 8640SOL     OW37378   1.600   0.711  10.296 -0.0036 -0.4914 -0.4274
 8640SOL    HW137379   1.593   0.618  10.273 -1.4764 -0.5876  0.4417
 8640SOL    HW237380   1.644   0.706  10.381  2.0907  0.0686 -1.4670
 8641SOL     OW37381   0.505   2.369  17.302  0.1376  0.1935 -0.5691
 8641SOL    HW137382   0.426   2.413  17.269 -0.0225  0.1271 -0.2663
 8641SOL    HW237383   0.511   2.392  17.394 -2.2939 -3.3094  0.4544
 8642SOL     OW37384   0.152   2.333   8.002 -0.0814 -0.1556 -0.5127
 8642SOL    HW137385   0.114   2.266   8.059 -1.5699  0.0330 -1.2848
 8642SOL    HW237386   0.236   2.346   8.046 -0.2440  0.9797 -0.5252
 8643SOL     OW37387   4.402   4.239  10.299 -0.0003  0.3134  0.2587
 8643SOL    HW137388   4.316   4.201  10.318 -0.1027  0.0245 -0.7616
 8643SOL    HW237389   4.417   4.297  10.373 -2.4014  2.6492 -1.0866
 8644SOL     OW37390   1.280   2.454   3.538 -0.4373  0.0285 -0.8887
 8644SOL    HW137391   1.314   2.498   3.615  0.5610 -2.7124  0.2348
 8644SOL    HW237392   1.219   2.397   3.584  1.8037 -0.5178  1.3729
 8645SOL     OW37393   2.899   4.125   4.943  0.5536 -0.3806  0.6557
 8645SOL    HW137394   2.876   4.041   4.983 -2.7328  0.8876  1.4900
 8645SOL    HW237395   2.987   4.116   4.908 -0.4611 -1.4229 -1.6417
 8646SOL     OW37396   3.353   0.270   3.875 -0.1724  0.6027  0.0710
 8646SOL    HW137397   3.439   0.311   3.870  0.2304 -0.1270  1.0200
 8646SOL    HW237398   3.336   0.269   3.781 -1.7244  0.5842  0.3516
 8647SOL     OW37399   4.272   1.582   5.370 -0.2284  0.1512 -0.3757
 8647SOL    HW137400   4.304   1.671   5.355  1.5958 -0.3003  0.8565
 8647SOL    HW237401   4.290   1.545   5.284  1.6331  0.4374 -0.1013
 8648SOL     OW37402   4.463   0.052  17.480  0.1569  0.3920 -0.2294
 8648SOL    HW137403   4.432   0.137  17.449  0.8074  1.2944  1.5803
 8648SOL    HW237404   4.381   0.006  17.468  0.0530  0.2740  0.9887
 8649SOL     OW37405   3.147   3.860  11.292 -0.0645  0.3658 -0.3031
 8649SOL    HW137406   3.130   3.832  11.202 -1.2352  0.8561 -0.2357
 8649SOL    HW237407   3.208   3.933  11.288  2.0172 -1.3817 -0.7595
 8650SOL     OW37408   0.017   1.908   7.594  0.1046 -0.6065  0.0462
 8650SOL    HW137409   0.030   1.998   7.564 -0.5955 -0.4017  0.3628
 8650SOL    HW237410   4.652   1.908   7.628  1.3424 -0.3532  3.2238
 8651SOL     OW37411   0.757   4.106   4.944  0.2630  0.2999 -0.2778
 8651SOL    HW137412   0.663   4.116   4.960  0.7926  2.0690  1.8293
 8651SOL    HW237413   0.757   4.018   4.906 -0.8704 -0.1077  0.6621
 8652SOL     OW37414   3.365   4.146   5.649  0.2491 -0.0692  0.1907
 8652SOL    HW137415   3.300   4.212   5.626 -0.4356 -0.0723  2.1918
 8652SOL    HW237416   3.323   4.116   5.729  1.4207  0.3353  0.9670
 8653SOL     OW37417   0.374   0.858   5.521  0.3925  0.1197 -0.0636
 8653SOL    HW137418   0.325   0.900   5.591  1.3106  0.9077  0.1052
 8653SOL    HW237419   0.397   0.930   5.461  2.1910  0.3908  0.9639
 8654SOL     OW37420   4.513   0.553   1.050 -0.7294 -0.1526  0.1031
 8654SOL    HW137421   4.419   0.532   1.048 -0.5087 -0.9408 -2.3457
 8654SOL    HW237422   4.550   0.516   0.970 -1.5482  1.3462 -0.9641
 8655SOL     OW37423   0.489   2.264   5.160 -0.1815  0.4225  0.1695
 8655SOL    HW137424   0.582   2.244   5.151 -0.6721 -2.2392  0.9947
 8655SOL    HW237425   0.484   2.358   5.177 -1.4982  0.4678 -0.4075
 8656SOL     OW37426   1.302   0.139   0.066  0.0674 -0.2823  0.1032
 8656SOL    HW137427   1.390   0.158   0.098 -0.1605  1.2174 -0.1558
 8656SOL    HW237428   1.317   0.122  17.673  0.7656  1.2569 -0.0680
 8657SOL     OW37429   0.960   3.268  14.694  0.1261 -0.5189 -0.6663
 8657SOL    HW137430   0.914   3.347  14.722  0.8578 -0.1760 -0.4387
 8657SOL    HW237431   0.905   3.263  14.616 -0.5736 -1.3170 -0.1278
 8658SOL     OW37432   2.054   2.241   8.879  0.6540  0.2193  0.1036
 8658SOL    HW137433   1.973   2.230   8.829 -1.1147  1.8059  2.5663
 8658SOL    HW237434   2.106   2.173   8.837  0.5227  0.8416 -1.0572
 8659SOL     OW37435   3.601   0.768  17.318  0.3514 -0.1212  0.3902
 8659SOL    HW137436   3.560   0.741  17.236  1.8309 -2.1815  0.3296
 8659SOL    HW237437   3.522   0.751  17.369 -0.0710  1.1460  0.1637
 8660SOL     OW37438   3.534   4.335   8.206  0.4089  0.1389  0.3445
 8660SOL    HW137439   3.575   4.387   8.275  1.1529  0.2455 -0.1713
 8660SOL    HW237440   3.450   4.324   8.250 -0.2967  0.4414 -0.8930
 8661SOL     OW37441   3.447   4.529   1.606 -0.0755 -1.1273 -0.0375
 8661SOL    HW137442   3.509   4.544   1.535 -2.2845  0.2557 -1.7009
 8661SOL    HW237443   3.478   4.594   1.669  0.1645  0.0692 -1.3748
 8662SOL     OW37444   0.108   1.296   5.557 -0.2145 -0.0297 -0.0726
 8662SOL    HW137445   0.040   1.362   5.568  1.0557  1.2468  0.1981
 8662SOL    HW237446   0.057   1.217   5.541 -0.8679  0.0739  1.4669
 8663SOL     OW37447   2.811   4.016   9.395  0.6877  0.0587  0.5623
 8663SOL    HW137448   2.824   3.926   9.365  0.8448  0.2397  0.0841
 8663SOL    HW237449   2.772   4.012   9.482  0.9256 -1.1588  0.6056
 8664SOL     OW37450   1.225   3.003   6.104 -0.6102  0.3833 -0.3156
 8664SOL    HW137451   1.300   2.970   6.055 -2.2639  1.0718 -3.3389
 8664SOL    HW237452   1.223   2.941   6.177 -1.0937 -0.2666 -0.8744
 8665SOL     OW37453   4.692   1.920   1.702 -0.0073  0.2087 -0.0026
 8665SOL    HW137454   4.650   1.857   1.760 -1.3946  0.7268 -0.4335
 8665SOL    HW237455   0.055   1.882   1.702  0.1970  0.6833  2.4945
 8666SOL     OW37456   0.417   3.137   1.291 -0.2133  0.0913 -0.2033
 8666SOL    HW137457   0.344   3.187   1.254 -0.9980 -1.0603 -0.1977
 8666SOL    HW237458   0.444   3.097   1.209 -0.6199 -1.3744  0.3813
 8667SOL     OW37459   3.758   1.588  12.357 -0.4917 -0.6346 -0.4697
 8667SOL    HW137460   3.698   1.655  12.391 -1.7603 -2.0023 -0.0063
 8667SOL    HW237461   3.755   1.597  12.262 -0.1672 -2.2036 -0.6240
 8668SOL     OW37462   1.794   3.429   4.789  0.1046  0.1518  0.2311
 8668SOL    HW137463   1.752   3.355   4.744  1.6312 -0.8527  0.4550
 8668SOL    HW237464   1.881   3.390   4.794  0.1650  0.1949 -0.4406
 8669SOL     OW37465   0.972   2.766  16.181 -0.1243 -0.1533 -0.6209
 8669SOL    HW137466   0.995   2.677  16.208  0.0558 -0.0044 -0.2773
 8669SOL    HW237467   0.993   2.818  16.258 -1.2631 -2.6526  1.3699
 8670SOL     OW37468   0.328   0.335   7.104  0.0672  0.6478 -0.3051
 8670SOL    HW137469   0.318   0.389   7.182  2.2981  1.1445 -0.3613
 8670SOL    HW237470   0.396   0.384   7.058  0.0046  0.2012 -0.8724
 8671SOL     OW37471   4.268   4.722  12.440  0.3136  0.2928 -0.2633
 8671SOL    HW137472   4.317   0.052  12.501  0.7685 -1.1745  0.6893
 8671SOL    HW237473   4.230   4.665  12.508  3.1209 -1.0415  0.1767
 8672SOL     OW37474   2.236   3.431  15.334  0.1603 -0.0541  1.0333
 8672SOL    HW137475   2.173   3.360  15.345  0.6503 -0.7087 -0.4702
 8672SOL    HW237476   2.307   3.382  15.294 -1.2493 -1.6135  0.4201
 8673SOL     OW37477   2.259   1.314   2.355 -0.1444 -0.7281 -0.0912
 8673SOL    HW137478   2.313   1.239   2.331  0.3622  0.2520 -1.9273
 8673SOL    HW237479   2.273   1.312   2.450  0.5813  0.8287 -0.1635
 8674SOL     OW37480   4.214   2.866   9.155 -0.6324 -0.0136 -0.3410
 8674SOL    HW137481   4.152   2.938   9.145  0.6443  0.9670 -1.2036
 8674SOL    HW237482   4.223   2.862   9.250 -0.5501  1.2999 -0.2873
 8675SOL     OW37483   3.225   3.041   7.084  0.1394 -0.6709 -0.0181
 8675SOL    HW137484   3.269   3.054   7.000  0.1175 -0.0081  0.0699
 8675SOL    HW237485   3.247   3.123   7.130 -2.0556 -1.4100  2.3390
 8676SOL     OW37486   4.208   4.250   9.503 -0.4902  0.4034 -0.0369
 8676SOL    HW137487   4.223   4.159   9.529 -1.1997 -0.1497 -1.5861
 8676SOL    HW237488   4.297   4.278   9.485 -0.8553  2.4776  1.2919
 8677SOL     OW37489   0.770   0.459  10.701  0.3322 -0.0011  0.0979
 8677SOL    HW137490   0.744   0.378  10.658  1.5666 -0.3452 -0.0062
 8677SOL    HW237491   0.716   0.515  10.646  1.8473  0.3895 -0.9758
 8678SOL     OW37492   0.799   0.916   8.925 -0.3665  0.3010  0.5066
 8678SOL    HW137493   0.828   0.899   9.015  1.6024 -0.0849 -0.1862
 8678SOL    HW237494   0.873   0.883   8.874 -1.9693  1.2864 -2.4569
 8679SOL     OW37495   1.564   1.753   1.430 -0.6438 -0.1252  0.0696
 8679SOL    HW137496   1.601   1.730   1.515 -2.3183  1.2303  1.1578
 8679SOL    HW237497   1.527   1.837   1.457 -0.1451  0.4311 -0.9639
 8680SOL     OW37498   2.610   3.858   3.449  0.1172 -0.0079 -0.0132
 8680SOL    HW137499   2.630   3.950   3.429 -1.0821  0.8012  2.5314
 8680SOL    HW237500   2.527   3.861   3.496 -0.6336  1.0020 -1.3759
 8681SOL     OW37501   3.012   2.161   4.341 -0.3327  0.1249 -0.7448
 8681SOL    HW137502   2.963   2.082   4.321  1.3760 -1.0881 -0.1566
 8681SOL    HW237503   3.075   2.165   4.270  0.2687  2.0172 -0.1137
 8682SOL     OW37504   0.863   1.329   4.107  0.3601  0.0710 -0.1001
 8682SOL    HW137505   0.780   1.368   4.081  1.3102 -0.0375 -3.3577
 8682SOL    HW237506   0.928   1.377   4.055 -0.8213 -0.5018 -2.1041
 8683SOL     OW37507   3.208   3.658   3.301 -0.9787 -0.2840  0.2041
 8683SOL    HW137508   3.187   3.605   3.225 -0.0672  1.6287 -1.3846
 8683SOL    HW237509   3.203   3.595   3.373  0.3462 -0.9669 -0.3061
 8684SOL     OW37510   0.410   0.529   3.785 -0.2385  0.0660 -0.4629
 8684SOL    HW137511   0.338   0.579   3.824  1.0528  1.9325 -0.4625
 8684SOL    HW237512   0.431   0.463   3.851 -1.6707 -1.5390 -1.6116
 8685SOL     OW37513   0.775   3.194   7.305  0.4062  0.3795 -0.5651
 8685SOL    HW137514   0.859   3.181   7.350 -1.3498 -1.4180  2.2324
 8685SOL    HW237515   0.779   3.126   7.238 -0.0020  1.1760 -1.3895
 8686SOL     OW37516   0.401   2.055   3.482 -0.2414  0.1266  0.0436
 8686SOL    HW137517   0.367   2.082   3.396 -0.9154 -0.7687  0.0378
 8686SOL    HW237518   0.486   2.099   3.480 -1.1040  1.8103  0.2437
 8687SOL     OW37519   1.020   3.209   2.343  0.8865  0.1170  0.0443
 8687SOL    HW137520   0.933   3.171   2.357  0.6132  0.8495  0.3225
 8687SOL    HW237521   1.016   3.273   2.414  0.0310 -0.9746  0.9690
 8688SOL     OW37522   2.080   2.492   8.707  0.3629 -0.4898 -0.2080
 8688SOL    HW137523   2.035   2.575   8.691  1.6791  0.5539  1.4749
 8688SOL    HW237524   2.017   2.435   8.663 -0.0564 -1.4302  1.5880
 8689SOL     OW37525   0.625   3.922   2.311 -0.2324  0.1356 -0.0067
 8689SOL    HW137526   0.672   3.985   2.257 -1.0959 -0.0099 -0.9317
 8689SOL    HW237527   0.577   3.866   2.250  0.1670  0.5892 -0.7267
 8690SOL     OW37528   3.173   4.045  13.554 -0.0200  0.3357  0.0707
 8690SOL    HW137529   3.242   4.016  13.614 -1.8576 -2.3062  0.9067
 8690SOL    HW237530   3.169   4.136  13.582  1.4421  0.9050 -1.5392
 8691SOL     OW37531   0.841   3.017   3.202  0.2521 -0.1250  0.3025
 8691SOL    HW137532   0.858   2.940   3.257 -0.9960  0.1738  1.1112
 8691SOL    HW237533   0.849   3.084   3.270 -0.7722  1.3837 -1.0553
 8692SOL     OW37534   0.895   1.162  13.472  0.6049  0.1875 -0.2486
 8692SOL    HW137535   0.884   1.067  13.479  0.4032  0.2776  0.5971
 8692SOL    HW237536   0.972   1.167  13.529 -0.8931 -1.0032  1.8762
 8693SOL     OW37537   4.489   4.395   1.744 -0.1635 -0.0524 -0.5654
 8693SOL    HW137538   4.544   4.446   1.804 -0.5632 -1.9331  1.4114
 8693SOL    HW237539   4.458   4.334   1.812  0.5986  0.3131  0.1232
 8694SOL     OW37540   0.757   1.652   9.124  0.0539  0.3537 -0.4037
 8694SOL    HW137541   0.822   1.639   9.194  0.0194  0.7282 -0.2985
 8694SOL    HW237542   0.754   1.748   9.124  2.4325  0.4481  2.0383
 8695SOL     OW37543   1.947   1.820   1.582 -0.0888 -0.0430 -0.0767
 8695SOL    HW137544   2.043   1.820   1.588  0.0375  3.1685 -1.8415
 8695SOL    HW237545   1.913   1.836   1.670  1.2559  0.9715  0.2738
 8696SOL     OW37546   2.604   0.674  16.832  0.6324 -0.2101 -0.0292
 8696SOL    HW137547   2.579   0.627  16.753  0.8769 -2.4975  1.2608
 8696SOL    HW237548   2.667   0.611  16.867 -0.2738 -0.4543  1.1703
 8697SOL     OW37549   4.142   2.026  11.161 -0.7628  0.7712 -0.4301
 8697SOL    HW137550   4.231   2.024  11.125 -0.4810 -2.1058  0.4536
 8697SOL    HW237551   4.135   1.944  11.209  2.4266  0.7325  0.0022
 8698SOL     OW37552   4.019   4.168   6.312 -0.0558  0.6756 -0.3219
 8698SOL    HW137553   4.075   4.151   6.236  2.1946  0.6162  1.3454
 8698SOL    HW237554   3.942   4.115   6.295  2.0775 -1.5223 -3.2502
 8699SOL     OW37555   0.762   4.472   2.200 -0.2845  0.4450 -0.5373
 8699SOL    HW137556   0.842   4.419   2.194  0.0960  0.6771  2.4065
 8699SOL    HW237557   0.745   4.498   2.110  0.6050  2.9228 -0.0210
 8700SOL     OW37558   1.533   1.572  14.674 -0.0258  0.0164 -0.0864
 8700SOL    HW137559   1.480   1.631  14.620  0.7453  1.8169  1.1208
 8700SOL    HW237560   1.466   1.532  14.729 -0.2114  0.7408  0.2176
 8701SOL     OW37561   3.452   3.075   5.336  0.1088  0.0797 -0.3091
 8701SOL    HW137562   3.431   3.074   5.429 -0.6557  0.6557 -0.4696
 8701SOL    HW237563   3.514   3.147   5.333  1.2758 -0.9543 -1.0694
 8702SOL     OW37564   2.419   1.141  15.232  0.1809 -0.6538 -0.4298
 8702SOL    HW137565   2.427   1.050  15.261  0.9819 -0.8879 -1.4119
 8702SOL    HW237566   2.510   1.169  15.226  0.2285  0.0202  3.4123
 8703SOL     OW37567   2.535   0.473   4.697  0.1734  0.1514 -0.0073
 8703SOL    HW137568   2.488   0.438   4.622  0.2871 -1.9216  0.9028
 8703SOL    HW237569   2.603   0.520   4.648  0.5531  0.0974  0.4704
 8704SOL     OW37570   4.594   3.623   2.636 -0.5664  0.2322 -0.5070
 8704SOL    HW137571   4.636   3.708   2.625 -2.7769  1.4418  0.3523
 8704SOL    HW237572   4.529   3.631   2.567 -2.3499  0.4553  1.1822
 8705SOL     OW37573   0.759   3.769   6.981 -0.6725 -0.0123  0.1037
 8705SOL    HW137574   0.701   3.822   6.927 -1.7334 -1.6562 -0.3790
 8705SOL    HW237575   0.816   3.835   7.020  0.5385 -0.9873 -0.0325
 8706SOL     OW37576   0.563   3.545   6.041  0.5939  0.5290 -0.5650
 8706SOL    HW137577   0.595   3.524   5.953 -0.7985  0.8467 -1.1372
 8706SOL    HW237578   0.484   3.493   6.049  0.4453  1.1473  1.7958
 8707SOL     OW37579   4.621   2.276  13.855 -0.3174 -0.4187 -0.0723
 8707SOL    HW137580   4.717   2.276  13.849 -0.2624  2.2629  0.7493
 8707SOL    HW237581   4.611   2.320  13.940  0.9953  1.7407 -1.0413
 8708SOL     OW37582   4.471   0.389  17.620  0.2866 -0.2039 -0.6423
 8708SOL    HW137583   4.421   0.381  17.538  0.5087  0.5456 -0.8530
 8708SOL    HW237584   4.498   0.480  17.631 -0.0619 -0.4131  1.7614
 8709SOL     OW37585   2.707   2.299   8.246 -0.1711  0.2237  0.2265
 8709SOL    HW137586   2.652   2.348   8.307  0.6922  0.1848  1.0331
 8709SOL    HW237587   2.678   2.344   8.167  1.3363  0.0657 -0.4131
 8710SOL     OW37588   2.499   2.124   2.770  0.1884  0.0149  0.1634
 8710SOL    HW137589   2.436   2.146   2.839 -0.3568 -0.4247 -0.1865
 8710SOL    HW237590   2.544   2.208   2.768 -0.0470  0.1459  0.3637
 8711SOL     OW37591   1.039   4.497  11.460 -0.6939 -0.0788 -0.5781
 8711SOL    HW137592   1.094   4.473  11.386  0.6884  0.1818  0.3490
 8711SOL    HW237593   1.092   4.569  11.494  2.1838 -1.9156 -1.1052
 8712SOL     OW37594   1.505   1.813  11.211  0.2085  0.1314 -0.5246
 8712SOL    HW137595   1.533   1.882  11.271  1.4095 -0.0958 -0.8168
 8712SOL    HW237596   1.436   1.772  11.264  0.4915  1.6617  1.0159
 8713SOL     OW37597   1.191   1.876   7.816  0.6087  0.5289  0.5047
 8713SOL    HW137598   1.253   1.931   7.767 -0.4840  2.8262  1.6912
 8713SOL    HW237599   1.164   1.818   7.745  0.2826  0.5913  0.5749
 8714SOL     OW37600   2.358   0.392   1.346  0.5754  0.1826  0.5283
 8714SOL    HW137601   2.450   0.379   1.370  0.5708 -1.2534 -0.2354
 8714SOL    HW237602   2.336   0.301   1.368  0.9669 -0.1835 -0.5609
 8715SOL     OW37603   0.777   3.837   3.627  0.3587 -0.3962  0.1224
 8715SOL    HW137604   0.711   3.901   3.603  0.2169 -0.0910  1.3707
 8715SOL    HW237605   0.737   3.811   3.710  0.6676  1.8839  0.9777
 8716SOL     OW37606   3.758   3.565   8.584 -0.1831 -0.0802  0.0654
 8716SOL    HW137607   3.708   3.637   8.546  0.0120  0.8691  1.6200
 8716SOL    HW237608   3.691   3.518   8.635  0.4558 -1.3145 -0.2413
 8717SOL     OW37609   0.328   1.470   9.252 -0.1289  0.5957 -0.2213
 8717SOL    HW137610   0.233   1.455   9.251  0.0710 -0.7933  2.8174
 8717SOL    HW237611   0.361   1.429   9.172 -0.1519 -0.1063  0.1306
 8718SOL     OW37612   0.658   2.063   8.894  0.5324 -0.7850  0.0287
 8718SOL    HW137613   0.718   2.097   8.827  1.0575  0.3394  1.0671
 8718SOL    HW237614   0.623   2.144   8.932 -0.5420 -0.7290 -1.0996
 8719SOL     OW37615   3.610   4.297   5.178  0.3476  0.0044  0.1426
 8719SOL    HW137616   3.572   4.253   5.254  0.8355  0.0759  0.4301
 8719SOL    HW237617   3.607   4.227   5.113  0.3561 -0.7303  0.9300
 8720SOL     OW37618   0.878   4.227   1.223 -0.1698  0.3758  0.0982
 8720SOL    HW137619   0.827   4.152   1.255 -0.6312  1.3322  1.5779
 8720SOL    HW237620   0.813   4.295   1.209 -1.2159 -0.7203 -0.4316
 8721SOL     OW37621   3.596   3.509   9.743  0.4645 -0.1524 -0.0450
 8721SOL    HW137622   3.672   3.484   9.690  1.8469 -0.1189  1.9196
 8721SOL    HW237623   3.580   3.598   9.712 -0.0645  0.4804  2.0665
 8722SOL     OW37624   0.128   2.014   1.462 -0.1355  0.6855  0.3090
 8722SOL    HW137625   0.058   2.061   1.508  0.7934 -0.0733  2.4975
 8722SOL    HW237626   0.146   1.943   1.524  0.4266 -1.4725 -2.3518
 8723SOL     OW37627   1.107   0.877   3.049 -0.0883 -0.1678 -0.7345
 8723SOL    HW137628   1.114   0.783   3.031  0.3500 -0.3046  0.1744
 8723SOL    HW237629   1.020   0.895   3.014 -0.4358  1.3823  0.9190
 8724SOL     OW37630   4.520   4.670   8.830 -0.0332 -0.6542  0.1626
 8724SOL    HW137631   4.514   4.643   8.922  2.4436  0.7376  0.7380
 8724SOL    HW237632   4.609   4.642   8.809  0.4806  0.9052  0.2564
 8725SOL     OW37633   0.013   2.863   1.827  0.3658 -0.6520  0.0109
 8725SOL    HW137634   4.660   2.894   1.873 -1.3898 -1.0370 -2.7259
 8725SOL    HW237635   0.073   2.936   1.847 -0.3994 -0.5752  1.9918
 8726SOL     OW37636   3.213   2.519   8.057  1.0655  0.7772 -0.5297
 8726SOL    HW137637   3.201   2.530   7.963 -0.4316 -0.8394 -0.5401
 8726SOL    HW237638   3.146   2.453   8.076  2.9296 -1.3045 -1.1738
 8727SOL     OW37639   3.389   1.177   2.696 -1.0886 -0.5458 -0.6959
 8727SOL    HW137640   3.371   1.097   2.647  0.4571 -1.4043  0.1348
 8727SOL    HW237641   3.303   1.213   2.716 -0.9651 -0.7488  0.2224
 8728SOL     OW37642   2.310   0.292   6.343 -0.3022  0.0025  0.4370
 8728SOL    HW137643   2.302   0.223   6.409 -0.9315 -1.4623 -1.1887
 8728SOL    HW237644   2.370   0.253   6.279  0.4404  3.9891 -1.2763
 8729SOL     OW37645   3.639   3.301   8.952  0.1105  0.3080 -0.1170
 8729SOL    HW137646   3.649   3.303   9.047 -0.8346 -0.7528  0.0026
 8729SOL    HW237647   3.719   3.341   8.918 -0.9574  1.7390 -0.9075
 8730SOL     OW37648   1.636   3.748  11.192 -0.0040  0.8320 -0.2219
 8730SOL    HW137649   1.603   3.835  11.169 -3.8662 -0.2789  1.0141
 8730SOL    HW237650   1.715   3.755  11.244  0.3310 -2.8034 -0.2373
 8731SOL     OW37651   2.705   0.464   0.577  0.5313 -0.4345  0.2619
 8731SOL    HW137652   2.713   0.536   0.639 -2.3757  1.4617 -1.5915
 8731SOL    HW237653   2.796   0.435   0.579  0.2954 -1.0561  2.0292
 8732SOL     OW37654   2.586   3.160   7.427 -0.2138  0.4833 -0.1092
 8732SOL    HW137655   2.575   3.232   7.489  1.0082 -1.4010  2.2861
 8732SOL    HW237656   2.679   3.155   7.408 -0.5321 -0.0058 -1.5800
 8733SOL     OW37657   0.346   4.607   5.806  0.0298  0.3785 -0.1203
 8733SOL    HW137658   0.367   4.516   5.786  1.2874  1.1273 -2.3011
 8733SOL    HW237659   0.430   4.645   5.830  0.6242  0.3710 -2.1860
 8734SOL     OW37660   0.157   2.385  14.053  0.0707  0.3676 -0.0236
 8734SOL    HW137661   0.186   2.404  13.964 -1.5060  0.9330 -0.4202
 8734SOL    HW237662   0.078   2.438  14.063  1.3283  1.8589  2.0323
 8735SOL     OW37663   4.002   2.079   6.820 -0.1401  0.2136 -0.1670
 8735SOL    HW137664   3.985   2.170   6.798 -1.1190  0.6503  2.4334
 8735SOL    HW237665   3.932   2.056   6.880 -0.5119 -2.0820 -1.4550
 8736SOL     OW37666   0.662   0.418   3.180  0.0577  0.7882  0.6396
 8736SOL    HW137667   0.732   0.418   3.114  0.0191 -0.4573  0.6045
 8736SOL    HW237668   0.597   0.368   3.131 -0.6858  1.9186  0.4690
 8737SOL     OW37669   2.329   0.944  10.775  0.1808  0.3344  0.0231
 8737SOL    HW137670   2.353   0.917  10.863  2.4451 -0.9027 -0.9767
 8737SOL    HW237671   2.336   1.039  10.785 -0.7733  0.3827  0.2824
 8738SOL     OW37672   1.725   2.079   8.274  0.0445 -0.2287 -0.3176
 8738SOL    HW137673   1.707   2.072   8.181 -3.3801  2.0562  0.1558
 8738SOL    HW237674   1.660   2.021   8.313 -0.3955 -0.4481 -1.3923
 8739SOL     OW37675   3.688   3.296  15.834 -0.3683 -0.5802 -0.2852
 8739SOL    HW137676   3.766   3.336  15.872 -0.8387  0.2095 -0.1354
 8739SOL    HW237677   3.732   3.258  15.758  0.8051  1.8008 -0.8270
 8740SOL     OW37678   1.878   4.647  12.814 -0.3188 -0.1354  0.0712
 8740SOL    HW137679   1.802   4.660  12.757 -0.8327 -1.5975  0.4189
 8740SOL    HW237680   1.944   4.605  12.759  0.3296  1.1513 -0.1354
 8741SOL     OW37681   4.385   1.110  13.152  0.2020  0.2886  0.4363
 8741SOL    HW137682   4.360   1.046  13.085 -1.3144 -1.0560  2.2785
 8741SOL    HW237683   4.346   1.191  13.121 -0.6565 -0.4146 -0.3207
 8742SOL     OW37684   1.299   1.894  15.534 -0.3166 -0.2850 -0.3393
 8742SOL    HW137685   1.301   1.984  15.565  1.3876 -0.8082  1.0863
 8742SOL    HW237686   1.243   1.899  15.456 -0.3814  1.0945 -0.2042
 8743SOL     OW37687   4.090   3.922  12.191  0.3278  0.5281 -0.2532
 8743SOL    HW137688   4.062   3.889  12.106 -0.6015 -2.6259  1.3006
 8743SOL    HW237689   4.074   3.849  12.250  1.0161  1.6133  1.2885
 8744SOL     OW37690   1.248   3.140   3.139 -0.0292  0.2595 -0.2929
 8744SOL    HW137691   1.157   3.150   3.110  0.0641  0.1827 -0.6093
 8744SOL    HW237692   1.246   3.203   3.211  2.6016 -0.0037  0.0004
 8745SOL     OW37693   3.793   0.874  10.674  0.2687  0.1220  0.0156
 8745SOL    HW137694   3.757   0.787  10.692 -1.8816  1.9627  4.6543
 8745SOL    HW237695   3.869   0.865  10.616 -0.0385  0.6553 -0.4608
 8746SOL     OW37696   0.860   4.668   5.669 -0.0939  0.4264 -0.3850
 8746SOL    HW137697   0.857   4.580   5.706  0.1461  0.0160 -1.3297
 8746SOL    HW237698   0.956   4.672   5.669 -0.0175 -1.3699 -0.2758
 8747SOL     OW37699   3.153   4.065  11.529  0.3262 -0.0701  0.3433
 8747SOL    HW137700   3.216   4.075  11.457 -1.0219 -1.7058 -1.0690
 8747SOL    HW237701   3.206   4.003  11.578  0.2421 -2.3989 -2.5567
 8748SOL     OW37702   2.651   2.970   8.699  0.1270  0.1389  0.4065
 8748SOL    HW137703   2.596   3.015   8.763 -0.3002 -1.4057  1.1316
 8748SOL    HW237704   2.627   2.878   8.711 -0.4861  0.2080 -0.2962
 8749SOL     OW37705   1.483   4.386  15.099 -0.5117 -0.4560  0.3308
 8749SOL    HW137706   1.558   4.437  15.070 -0.4236 -2.3134 -2.7117
 8749SOL    HW237707   1.508   4.388  15.191  1.1625  0.0493 -0.1386
 8750SOL     OW37708   2.629   4.225  11.429 -0.2716 -0.3710 -0.5331
 8750SOL    HW137709   2.669   4.160  11.370 -3.2822 -1.3703 -1.4862
 8750SOL    HW237710   2.646   4.304  11.378 -2.8595  1.4771  1.5499
 8751SOL     OW37711   0.001   4.428  10.383  0.3847 -0.5194 -0.5580
 8751SOL    HW137712   4.673   4.405  10.307  0.0517  0.2486 -0.5657
 8751SOL    HW237713   4.659   4.457  10.446  1.6337 -0.6611  0.8459
 8752SOL     OW37714   0.097   4.416   1.745 -0.1089  0.5840  0.6131
 8752SOL    HW137715   0.056   4.336   1.712 -2.1962  2.0195 -0.2855
 8752SOL    HW237716   0.172   4.371   1.783  0.4152  2.2388  1.5185
 8753SOL     OW37717   4.713   4.018   2.110 -0.1800  0.3326  0.1835
 8753SOL    HW137718   0.033   4.086   2.059  0.1835  1.9004  2.5972
 8753SOL    HW237719   4.631   4.011   2.061 -0.2916 -1.2065  0.5859
 8754SOL     OW37720   3.425   4.186   3.181 -0.1241  0.0590 -0.2883
 8754SOL    HW137721   3.510   4.230   3.187 -0.5112  1.0433 -2.0143
 8754SOL    HW237722   3.398   4.182   3.273 -0.0489  0.9095 -0.2299
 8755SOL     OW37723   3.982   2.804   8.265  0.2451 -0.0611  0.3210
 8755SOL    HW137724   3.930   2.808   8.184  1.1730 -0.8425 -0.3130
 8755SOL    HW237725   3.921   2.765   8.327  0.1161 -2.6538 -1.4463
 8756SOL     OW37726   3.681   1.848   4.507 -0.0839  0.4445 -0.2417
 8756SOL    HW137727   3.693   1.907   4.581  0.5956  0.4069 -0.3191
 8756SOL    HW237728   3.769   1.815   4.487 -0.3603 -0.1434 -0.4744
 8757SOL     OW37729   4.183   3.622   5.339 -0.0056  0.2059  0.0806
 8757SOL    HW137730   4.169   3.696   5.280  1.9842 -0.3513 -1.0650
 8757SOL    HW237731   4.160   3.540   5.295 -1.9081  1.5388 -1.4159
 8758SOL     OW37732   0.148   1.730   0.282  0.0371  0.1201 -0.1262
 8758SOL    HW137733   0.172   1.822   0.293  1.7276 -0.2613 -0.6153
 8758SOL    HW237734   0.238   1.701   0.266 -0.0977 -0.1263 -0.4300
 8759SOL     OW37735   4.560   4.537   3.769  0.0971  0.1234  0.6146
 8759SOL    HW137736   4.594   4.626   3.774 -0.4576  0.3555  0.2210
 8759SOL    HW237737   4.506   4.547   3.691 -0.6962 -0.7993  1.0370
 8760SOL     OW37738   1.974   3.862  17.242  0.2272 -0.1920 -0.2275
 8760SOL    HW137739   2.004   3.882  17.331 -2.6711 -3.7694  1.5530
 8760SOL    HW237740   2.055   3.835  17.200  0.4413  2.0697 -1.2750
 8761SOL     OW37741   3.648   0.808   5.375  0.4518 -0.0003  0.0947
 8761SOL    HW137742   3.641   0.890   5.326 -3.8599 -2.1905 -2.9286
 8761SOL    HW237743   3.573   0.810   5.433  1.4382 -1.2106  1.4168
 8762SOL     OW37744   2.954   3.100   4.085  0.5107 -0.2940  0.3611
 8762SOL    HW137745   2.887   3.034   4.067  0.2042 -0.2395  1.3013
 8762SOL    HW237746   2.951   3.092   4.180 -2.0435  0.3668  0.3489
 8763SOL     OW37747   4.266   4.199   4.931 -0.3163  1.0921  0.3221
 8763SOL    HW137748   4.219   4.240   4.858 -0.5141 -1.3258 -0.9105
 8763SOL    HW237749   4.210   4.125   4.953 -0.2344  0.6726 -0.8572
 8764SOL     OW37750   4.376   1.905   4.175  0.1963  0.1766 -0.0977
 8764SOL    HW137751   4.321   1.967   4.223  0.7687  0.2359  0.4786
 8764SOL    HW237752   4.308   1.848   4.138  1.8173  0.3503 -3.2978
 8765SOL     OW37753   0.524   3.545   2.277 -0.3076  0.6297  0.2286
 8765SOL    HW137754   0.618   3.537   2.263  0.1574  3.5399  1.6182
 8765SOL    HW237755   0.509   3.631   2.237  0.2399 -0.4994 -2.3753
 8766SOL     OW37756   0.532   0.870   8.141  0.2063  0.2614  0.0231
 8766SOL    HW137757   0.491   0.934   8.200  1.0419  0.3411  0.5201
 8766SOL    HW237758   0.460   0.808   8.130  0.3454  0.2376 -0.7311
 8767SOL     OW37759   3.563   0.201   6.330  0.6554 -0.1213  0.4388
 8767SOL    HW137760   3.565   0.174   6.422 -0.8465  1.9147  1.0632
 8767SOL    HW237761   3.473   0.232   6.317  1.1540  0.8572 -0.6830
 8768SOL     OW37762   0.451   4.377   6.274 -1.1242 -0.7017  0.0821
 8768SOL    HW137763   0.447   4.434   6.351 -0.8715  1.2601 -1.3672
 8768SOL    HW237764   0.359   4.388   6.251 -0.2023  3.0442 -1.7516
 8769SOL     OW37765   2.217   3.442   2.601 -0.8069 -0.6338 -0.2104
 8769SOL    HW137766   2.255   3.387   2.670 -2.2873  1.6483  2.4230
 8769SOL    HW237767   2.264   3.395   2.532  0.3282 -1.8832  1.4102
 8770SOL     OW37768   2.847   1.327   5.737  0.1149  0.0365  1.0659
 8770SOL    HW137769   2.841   1.326   5.833 -2.3631 -0.1024  0.9207
 8770SOL    HW237770   2.826   1.235   5.721 -1.9808  0.6809  0.0039
 8771SOL     OW37771   0.752   0.570   5.224  0.0811 -0.4857 -0.2295
 8771SOL    HW137772   0.687   0.604   5.162 -0.0203  1.1273  0.7723
 8771SOL    HW237773   0.735   0.476   5.220 -3.4320  0.1794 -0.9535
 8772SOL     OW37774   2.252   4.078   6.549 -0.0040  0.3176  0.7416
 8772SOL    HW137775   2.171   4.127   6.559  0.1515  0.9646 -1.2055
 8772SOL    HW237776   2.223   3.992   6.520 -0.8849  0.0754  2.3407
 8773SOL     OW37777   2.689   1.570  17.281 -0.1842  0.2278 -0.6029
 8773SOL    HW137778   2.620   1.592  17.343 -0.6204  1.1233 -1.4050
 8773SOL    HW237779   2.634   1.540  17.208  0.5791 -0.6072 -0.8407
 8774SOL     OW37780   1.497   3.969  14.793  0.1042  0.3739 -0.0279
 8774SOL    HW137781   1.495   4.048  14.847  0.9647  0.9532 -0.8479
 8774SOL    HW237782   1.588   3.941  14.800 -0.4846 -1.9716 -1.8186
 8775SOL     OW37783   3.441   0.302   2.593  0.2592 -0.4905  0.1622
 8775SOL    HW137784   3.350   0.294   2.566 -0.3530  1.4614  1.6022
 8775SOL    HW237785   3.493   0.299   2.513  1.1713  1.6189  0.6749
 8776SOL     OW37786   1.158   2.829  14.309  0.3115 -0.3414  0.1319
 8776SOL    HW137787   1.227   2.870  14.256  0.8232 -1.9862 -0.4949
 8776SOL    HW237788   1.197   2.742  14.320  1.0831 -0.0119  0.0187
 8777SOL     OW37789   3.234   3.043   2.207 -0.1255  0.8565  1.0648
 8777SOL    HW137790   3.161   2.992   2.173 -0.5894  2.2348  0.0029
 8777SOL    HW237791   3.225   3.127   2.161 -1.2148  1.1897  1.8601
 8778SOL     OW37792   3.196   2.629  16.938  0.1469  0.3715 -0.7911
 8778SOL    HW137793   3.173   2.718  16.965  0.7834  0.4902 -0.6433
 8778SOL    HW237794   3.259   2.607  17.007 -1.1419 -0.4452  0.1247
 8779SOL     OW37795   1.908   1.846   4.282 -0.3531 -0.0095 -0.1116
 8779SOL    HW137796   1.847   1.818   4.349 -1.5340  3.5819  0.3095
 8779SOL    HW237797   1.975   1.889   4.335  1.3670 -0.5923 -1.7796
 8780SOL     OW37798   3.439   0.561   6.319  0.2323  0.5253 -0.1719
 8780SOL    HW137799   3.468   0.599   6.402  1.3968  0.2345 -0.4481
 8780SOL    HW237800   3.518   0.567   6.265  1.9215 -0.7090  2.1554
 8781SOL     OW37801   3.753   4.376   8.668 -0.1967 -0.0823  0.5625
 8781SOL    HW137802   3.833   4.406   8.712 -0.0128 -0.1709  0.2872
 8781SOL    HW237803   3.701   4.351   8.745 -0.4230  0.8101  0.6922
 8782SOL     OW37804   3.280   3.315   2.961  0.0995 -0.2236  0.0185
 8782SOL    HW137805   3.287   3.315   2.866  2.7459 -2.2587  0.2338
 8782SOL    HW237806   3.186   3.306   2.979  0.2399 -0.4917  0.6222
 8783SOL     OW37807   1.089   0.514   1.203  0.3096 -0.6321 -0.2298
 8783SOL    HW137808   1.150   0.585   1.223  0.2999 -1.0236  1.1331
 8783SOL    HW237809   1.059   0.485   1.288  1.6579  1.1162  0.8519
 8784SOL     OW37810   1.603   0.267   2.024 -0.1798  0.3060  0.5526
 8784SOL    HW137811   1.552   0.192   2.055  0.9463 -0.3129  0.9174
 8784SOL    HW237812   1.536   0.303   1.966 -0.9605 -1.4865  0.3447
 8785SOL     OW37813   4.060   1.389   5.063  0.0692 -0.4920 -0.3280
 8785SOL    HW137814   4.135   1.365   5.117 -0.7213  1.6188  1.6983
 8785SOL    HW237815   4.011   1.459   5.105 -0.5051 -0.7168 -0.6297
 8786SOL     OW37816   4.697   3.583   8.659 -0.0034  0.5793 -1.1525
 8786SOL    HW137817   4.648   3.530   8.721  0.3932  1.1267 -0.3704
 8786SOL    HW237818   4.666   3.534   8.582  0.3088  0.5383 -1.2534
 8787SOL     OW37819   1.693   2.588  10.148 -0.5348  0.4149  0.5458
 8787SOL    HW137820   1.648   2.590  10.233 -3.2567  2.7470 -0.9057
 8787SOL    HW237821   1.645   2.514  10.109 -0.0650  0.5200 -0.2357
 8788SOL     OW37822   4.294   2.401  10.026 -0.5858  0.4145  0.4466
 8788SOL    HW137823   4.227   2.465  10.050 -0.1301  1.2859 -0.5769
 8788SOL    HW237824   4.251   2.379   9.943  1.2459  2.2887 -1.0096
 8789SOL     OW37825   3.264   0.913  12.730  0.3596 -0.2374  0.3706
 8789SOL    HW137826   3.172   0.887  12.722  0.4673 -0.9058  1.2543
 8789SOL    HW237827   3.300   0.866  12.655  0.6583 -0.1000  0.4258
 8790SOL     OW37828   3.725   4.315   2.196  0.2483  0.5156  0.2990
 8790SOL    HW137829   3.799   4.273   2.239  0.2915 -0.4375 -0.6959
 8790SOL    HW237830   3.754   4.337   2.107  2.1974 -1.0722  0.5505
 8791SOL     OW37831   3.801   0.995   1.163  0.1858  1.0151 -0.2979
 8791SOL    HW137832   3.761   1.050   1.231 -0.1204 -0.1000  0.4157
 8791SOL    HW237833   3.824   0.916   1.212 -2.4724 -0.3602 -1.3075
 8792SOL     OW37834   4.494   0.887   5.917 -0.1998  0.7873  0.4055
 8792SOL    HW137835   4.419   0.942   5.940  0.2009  0.6319  2.0994
 8792SOL    HW237836   4.458   0.800   5.937  0.9811  0.1780 -0.1612
 8793SOL     OW37837   4.107   1.308  11.933 -0.1270 -0.3574  0.1982
 8793SOL    HW137838   4.176   1.323  11.869 -0.1649 -0.4348  0.1396
 8793SOL    HW237839   4.056   1.239  11.890 -1.7957  1.3469 -0.5351
 8794SOL     OW37840   1.975   2.948   2.481 -0.7589  0.0743  0.7160
 8794SOL    HW137841   1.973   2.923   2.389  1.3824  2.3831  0.0381
 8794SOL    HW237842   1.890   2.990   2.495 -1.6513 -1.4956  0.0370
 8795SOL     OW37843   0.448   1.061   6.641 -0.7960  0.4632 -0.3761
 8795SOL    HW137844   0.491   0.987   6.684 -1.6628  0.3063  0.2232
 8795SOL    HW237845   0.520   1.122   6.624  2.1517 -3.0126 -0.3444
 8796SOL     OW37846   4.134   1.669  15.869 -0.3470 -0.1603  0.1370
 8796SOL    HW137847   4.047   1.706  15.886 -0.1784  1.2345 -1.9840
 8796SOL    HW237848   4.144   1.691  15.776  1.8716 -1.9547 -0.0637
 8797SOL     OW37849   0.467   0.658   2.708  0.4432  0.8938  0.4646
 8797SOL    HW137850   0.531   0.628   2.642  0.7700 -0.6124  1.4557
 8797SOL    HW237851   0.394   0.679   2.649 -0.7473  0.0834  1.6578
 8798SOL     OW37852   2.499   2.706   9.807 -0.2369 -0.0030 -0.3574
 8798SOL    HW137853   2.591   2.716   9.833 -0.0182  0.3109 -1.2476
 8798SOL    HW237854   2.454   2.774   9.858  0.5637 -0.0063  0.3563
 8799SOL     OW37855   2.249   4.411   5.445 -0.2340  0.2706 -0.0295
 8799SOL    HW137856   2.185   4.340   5.441  1.1751 -1.0318  0.4222
 8799SOL    HW237857   2.316   4.380   5.383  1.2367  0.8134  1.2981
 8800SOL     OW37858   0.996   2.767   3.012  0.6393 -0.2351  0.9241
 8800SOL    HW137859   1.060   2.699   3.032  3.5396  2.0584 -0.4341
 8800SOL    HW237860   1.062   2.832   2.987 -0.4274  0.8275  0.8908
 8801SOL     OW37861   1.756   1.061   1.819 -0.2641  0.8719 -0.0152
 8801SOL    HW137862   1.673   1.062   1.868  1.4202  3.3858  2.8254
 8801SOL    HW237863   1.779   0.970   1.837 -0.2019  0.9319  0.2126
 8802SOL     OW37864   2.183   2.848   9.138  0.0515 -0.0874 -0.5194
 8802SOL    HW137865   2.225   2.930   9.113  0.4569  0.3633  1.6367
 8802SOL    HW237866   2.183   2.806   9.052 -1.7272 -0.4606 -0.3218
 8803SOL     OW37867   1.652   2.535   3.893  0.0126 -0.1777  0.2518
 8803SOL    HW137868   1.677   2.446   3.919  3.1738  0.8790  0.7597
 8803SOL    HW237869   1.730   2.570   3.850  1.1506 -0.6889  1.8853
 8804SOL     OW37870   4.533   1.861   4.552 -0.0672 -0.0724 -0.4449
 8804SOL    HW137871   4.587   1.940   4.565 -1.4206  0.9786 -1.2479
 8804SOL    HW237872   4.547   1.852   4.458 -2.2042 -0.8435 -0.6833
 8805SOL     OW37873   1.956   3.958   8.651  0.0426 -0.4845  0.0132
 8805SOL    HW137874   1.921   4.010   8.723  0.6866 -0.8566  0.5997
 8805SOL    HW237875   2.042   3.933   8.686  0.6961 -2.0318 -2.7353
 8806SOL     OW37876   1.705   1.455   1.540  0.3268  0.5878 -0.0359
 8806SOL    HW137877   1.781   1.511   1.523  0.4693  0.4578  0.1791
 8806SOL    HW237878   1.634   1.518   1.527 -0.5393 -0.5628 -0.8256
 8807SOL     OW37879   0.280   1.072   3.046 -0.5807  0.4129 -0.1093
 8807SOL    HW137880   0.371   1.101   3.036 -0.4198 -0.3400 -0.8384
 8807SOL    HW237881   0.241   1.143   3.097  0.2849  1.3754 -0.7824
 8808SOL     OW37882   3.425   4.126  12.298  0.1810  0.0858 -0.2268
 8808SOL    HW137883   3.463   4.209  12.329 -0.1986  0.3155 -0.3743
 8808SOL    HW237884   3.404   4.150  12.208 -1.2405 -0.9754 -0.1708
 8809SOL     OW37885   0.420   0.746   7.141 -0.2732  0.0394 -0.2561
 8809SOL    HW137886   0.416   0.708   7.229  0.3667  0.7708  0.0969
 8809SOL    HW237887   0.512   0.774   7.138  0.0208 -0.8974  0.0903
 8810SOL     OW37888   4.668   0.263  15.764 -0.3617 -0.1222  0.3989
 8810SOL    HW137889   0.011   0.291  15.826  0.9663 -3.1781  0.3194
 8810SOL    HW237890   4.618   0.204  15.820  2.3214 -0.1025  2.7833
 8811SOL     OW37891   1.732   3.127  16.136 -0.1081 -0.2887  0.0239
 8811SOL    HW137892   1.773   3.214  16.141  0.1148 -0.3278 -1.1681
 8811SOL    HW237893   1.667   3.140  16.067 -0.6301 -0.4053  0.4944
 8812SOL     OW37894   4.328   0.850   1.450 -0.5244  0.2006 -0.0787
 8812SOL    HW137895   4.272   0.778   1.420  0.2341 -1.7521  3.2256
 8812SOL    HW237896   4.411   0.815   1.483 -0.5437 -0.4486 -0.6982
 8813SOL     OW37897   2.300   0.924   8.753  0.2844 -0.3072 -0.4223
 8813SOL    HW137898   2.302   0.855   8.819 -0.9456 -1.2385 -1.3582
 8813SOL    HW237899   2.395   0.935   8.743 -0.0048  2.1177 -0.4632
 8814SOL     OW37900   4.547   3.909   7.596 -0.3452 -0.0088 -0.2092
 8814SOL    HW137901   4.502   3.828   7.572  1.5786 -0.5574 -1.9609
 8814SOL    HW237902   4.479   3.960   7.552 -1.4007 -2.6439 -1.5943
 8815SOL     OW37903   1.082   4.344  14.383 -0.0186  0.0556 -0.3389
 8815SOL    HW137904   1.071   4.354  14.478 -0.5696  1.4352 -0.5502
 8815SOL    HW237905   1.019   4.274  14.368 -0.7967  0.3326  1.6092
 8816SOL     OW37906   3.073   0.670   7.911  0.1925 -0.5572 -0.1784
 8816SOL    HW137907   3.151   0.644   7.863  1.2067  0.6010  0.8144
 8816SOL    HW237908   3.022   0.590   7.896  1.1174 -1.2139  0.1806
 8817SOL     OW37909   0.324   1.198  17.392  0.1833 -0.2313  0.0696
 8817SOL    HW137910   0.398   1.144  17.417  1.2509  0.5353 -1.4072
 8817SOL    HW237911   0.372   1.272  17.355 -0.7149  0.3846  0.1295
 8818SOL     OW37912   4.379   0.014   6.966  0.0824  0.6331 -0.1133
 8818SOL    HW137913   4.320   4.683   6.915 -0.3092  1.9217 -1.0719
 8818SOL    HW237914   4.450   4.679   6.988 -0.1489 -0.3286 -2.0145
 8819SOL     OW37915   1.964   1.957   8.609  0.0244  0.4659  0.0532
 8819SOL    HW137916   2.049   1.986   8.642 -0.7131  2.4586  0.2046
 8819SOL    HW237917   1.982   1.957   8.515  0.3026  1.4534  0.1030
 8820SOL     OW37918   0.710   1.109  12.687  0.0293 -0.6350 -0.1424
 8820SOL    HW137919   0.712   1.056  12.607  0.6323 -1.0331  0.1385
 8820SOL    HW237920   0.640   1.070  12.739  2.3788 -0.9964  2.7154
 8821SOL     OW37921   3.235   1.243  14.522 -0.7194  0.1371  0.1734
 8821SOL    HW137922   3.181   1.315  14.554 -1.4095 -0.5329  0.5112
 8821SOL    HW237923   3.182   1.196  14.457  1.8149 -1.0253 -1.0565
 8822SOL     OW37924   3.452   1.936   3.879  0.0464 -0.0691 -0.1661
 8822SOL    HW137925   3.439   1.842   3.866  1.5927 -0.1474 -1.1360
 8822SOL    HW237926   3.412   1.972   3.800 -0.6399  0.6181  0.4957
 8823SOL     OW37927   3.304   1.040   5.989  0.2184  0.2724  0.2483
 8823SOL    HW137928   3.245   1.004   6.055  1.7592 -0.4896  1.2056
 8823SOL    HW237929   3.371   1.076   6.047  1.3831  0.0735 -0.9944
 8824SOL     OW37930   1.831   1.696   1.912  0.0720  0.4780  0.3221
 8824SOL    HW137931   1.873   1.620   1.952 -0.9918 -1.2967 -1.9446
 8824SOL    HW237932   1.820   1.744   1.995  2.5433  0.3848  0.6816
 8825SOL     OW37933   1.671   4.707  15.295 -0.0392 -0.5642  0.6251
 8825SOL    HW137934   1.580   4.699  15.322  0.0149 -4.7715 -0.4196
 8825SOL    HW237935   1.670   4.685  15.202  0.9231  0.4056  0.3746
 8826SOL     OW37936   0.116   4.665  16.710 -0.6340 -0.0801 -0.2541
 8826SOL    HW137937   0.129   4.652  16.616 -3.0810 -0.6503 -0.5203
 8826SOL    HW237938   0.045   0.003  16.697  0.1443  0.8308 -0.1286
 8827SOL     OW37939   1.604   3.948   4.797 -0.1568 -0.1308 -0.0767
 8827SOL    HW137940   1.547   3.932   4.722  1.1015 -0.6070 -0.9365
 8827SOL    HW237941   1.669   4.013   4.769  0.7647 -0.3547  1.5495
 8828SOL     OW37942   3.675   2.727   5.591 -0.3968  0.4101 -0.2817
 8828SOL    HW137943   3.657   2.650   5.646 -1.1756  1.8409  1.4563
 8828SOL    HW237944   3.733   2.697   5.521  0.4691  1.0993  0.1389
 8829SOL     OW37945   3.241   2.190   3.052 -0.1922 -0.1105 -0.1869
 8829SOL    HW137946   3.209   2.270   3.010  0.7009 -0.1566 -0.9488
 8829SOL    HW237947   3.284   2.151   2.976 -0.7108 -1.9722  0.4768
 8830SOL     OW37948   1.183   1.756   5.047  0.4756  0.1714  0.0792
 8830SOL    HW137949   1.208   1.755   5.139  2.8765 -1.5181 -0.5786
 8830SOL    HW237950   1.090   1.777   5.044 -0.0626 -2.1670  0.3775
 8831SOL     OW37951   2.126   2.714  10.709  0.0808 -0.3549 -0.3794
 8831SOL    HW137952   2.157   2.729  10.620  3.1426 -1.4368  0.4793
 8831SOL    HW237953   2.091   2.801  10.727 -0.5670 -0.4201 -1.3490
 8832SOL     OW37954   1.003   4.445   8.968  0.3243 -0.2259 -0.6758
 8832SOL    HW137955   0.997   4.367   8.912  0.5180  0.4504 -1.6302
 8832SOL    HW237956   1.077   4.496   8.936  0.1706  0.1506 -0.4232
 8833SOL     OW37957   4.567   3.280   3.382 -0.2727  0.0053  0.6577
 8833SOL    HW137958   4.539   3.338   3.311  0.2502  0.1910  0.6081
 8833SOL    HW237959   4.483   3.264   3.427 -0.3512  1.1503  0.9275
 8834SOL     OW37960   2.040   4.088  12.077 -0.4849 -0.2236  0.5080
 8834SOL    HW137961   2.081   4.109  12.162  0.5579  0.1360 -0.0847
 8834SOL    HW237962   2.007   4.000  12.094  1.3084 -1.2497 -1.2897
 8835SOL     OW37963   2.273   3.785   6.886 -0.3534 -0.2579  0.2949
 8835SOL    HW137964   2.206   3.834   6.932 -1.2130 -1.1059 -0.0577
 8835SOL    HW237965   2.242   3.695   6.896  1.6322 -0.8611  1.0168
 8836SOL     OW37966   4.615   0.354   3.259 -0.3008 -0.1952 -0.2646
 8836SOL    HW137967   4.639   0.422   3.321  1.3186 -0.1533 -0.9329
 8836SOL    HW237968   4.674   0.286   3.291  2.8066  3.0236  0.8745
 8837SOL     OW37969   4.087   1.721   5.804  0.1398  0.4524  0.0648
 8837SOL    HW137970   4.105   1.684   5.890 -1.6435 -0.5843 -0.0073
 8837SOL    HW237971   3.993   1.708   5.790  0.1859 -0.9995  1.1685
 8838SOL     OW37972   4.098   3.889  11.189  0.1580 -0.0755 -0.3196
 8838SOL    HW137973   4.025   3.845  11.232  0.3264 -0.2674 -0.2297
 8838SOL    HW237974   4.062   3.946  11.122 -2.5584 -2.2239 -0.6944
 8839SOL     OW37975   2.130   2.185  14.087  0.3711  0.1031  0.1579
 8839SOL    HW137976   2.168   2.100  14.108  2.4389  0.5901 -1.6186
 8839SOL    HW237977   2.114   2.173  13.993  1.5976  0.2315 -0.0762
 8840SOL     OW37978   0.533   2.989   6.767 -0.0482  0.3456  0.2457
 8840SOL    HW137979   0.456   3.013   6.818  0.2372  1.9760 -0.0904
 8840SOL    HW237980   0.498   2.910   6.725  0.8173  0.4212 -0.6349
 8841SOL     OW37981   4.231   1.058   1.312  0.3615  0.3590  0.2175
 8841SOL    HW137982   4.270   1.004   1.381  2.7116  2.1180  0.2774
 8841SOL    HW237983   4.227   1.136   1.368 -1.7260 -0.6989  1.5366
 8842SOL     OW37984   0.508   3.654   2.956  0.7072 -0.4354  0.1110
 8842SOL    HW137985   0.489   3.692   3.042  0.3391  0.2458 -0.2687
 8842SOL    HW237986   0.479   3.566   2.978  1.4937 -0.6574  0.2567
 8843SOL     OW37987   1.834   1.614   2.437 -0.5373 -0.3583  0.1683
 8843SOL    HW137988   1.896   1.686   2.421 -1.0812 -0.2327 -1.3357
 8843SOL    HW237989   1.904   1.550   2.451  1.9433  2.3346  0.2763
 8844SOL     OW37990   1.899   3.398   5.645  0.5033  0.2036  0.2176
 8844SOL    HW137991   1.916   3.321   5.590 -0.4793 -0.3352  0.6729
 8844SOL    HW237992   1.850   3.354   5.714  1.3981 -0.7914  0.2156
 8845SOL     OW37993   2.424   4.134   6.349 -0.0603 -0.3459 -0.6316
 8845SOL    HW137994   2.518   4.141   6.363 -0.0385  1.4995 -1.7623
 8845SOL    HW237995   2.389   4.095   6.429 -1.2882  1.2260 -0.4069
 8846SOL     OW37996   0.228   2.885   0.199 -0.3966 -0.4208  0.0974
 8846SOL    HW137997   0.218   2.957   0.262 -0.0868  0.1334 -0.4821
 8846SOL    HW237998   0.139   2.852   0.191 -0.3027  0.0418 -3.2353
 8847SOL     OW37999   2.001   1.638   6.583 -0.0197 -0.0632 -0.8523
 8847SOL    HW138000   1.945   1.652   6.507 -1.5475  1.1069  0.5157
 8847SOL    HW238001   2.050   1.719   6.571  2.4495 -1.3482  0.4134
 8848SOL     OW38002   0.171   1.626   3.347 -0.0271  0.1289 -0.1449
 8848SOL    HW138003   0.262   1.605   3.327 -0.8430 -2.5965 -1.0365
 8848SOL    HW238004   0.189   1.714   3.381 -1.3191  0.7435 -1.0483
 8849SOL     OW38005   3.719   0.119  17.595  0.4025 -0.3790  0.1868
 8849SOL    HW138006   3.675   0.095  17.676 -2.2939  2.3049 -0.4892
 8849SOL    HW238007   3.813   0.106  17.612  1.4487  2.0937 -3.7416
 8850SOL     OW38008   4.329   4.251   5.867  0.3413  0.2632 -0.3063
 8850SOL    HW138009   4.401   4.301   5.830  0.2331  1.2874  0.8737
 8850SOL    HW238010   4.311   4.298   5.949  0.4191  0.5568 -0.4589
 8851SOL     OW38011   0.647   0.335   1.702  0.4126  0.0563  0.3537
 8851SOL    HW138012   0.706   0.354   1.775  0.9812  1.5304 -0.4887
 8851SOL    HW238013   0.581   0.292   1.756  2.3657 -1.1601  1.7624
 8852SOL     OW38014   2.868   3.294   6.427  0.2797 -0.5891 -0.5440
 8852SOL    HW138015   2.833   3.332   6.347  0.3011  0.6503  0.0403
 8852SOL    HW238016   2.955   3.268   6.398  1.1302 -0.1068  1.5714
 8853SOL     OW38017   0.979   2.987   6.869  0.2154  0.1077  0.0528
 8853SOL    HW138018   0.937   2.930   6.934  0.7130  0.6750  0.8657
 8853SOL    HW238019   0.906   3.046   6.850  1.6262  2.1645  1.0845
 8854SOL     OW38020   2.731   3.885   5.263  0.0226 -0.0181  0.2847
 8854SOL    HW138021   2.738   3.873   5.169  0.9224 -0.7370  0.4359
 8854SOL    HW238022   2.760   3.798   5.290  1.9788  0.4533 -0.2997
 8855SOL     OW38023   3.007   0.264   0.119  0.2774  0.3780 -0.0074
 8855SOL    HW138024   2.966   0.180   0.141 -0.3558  0.6932  0.0213
 8855SOL    HW238025   3.096   0.231   0.111  0.3645  0.5408  0.2896
 8856SOL     OW38026   3.570   2.760   6.430 -0.0268  0.7609  0.2228
 8856SOL    HW138027   3.636   2.699   6.396  0.0549  0.4638  0.9266
 8856SOL    HW238028   3.492   2.706   6.422 -0.7590  1.7334  0.8429
 8857SOL     OW38029   0.331   4.323   2.325  0.2871  0.1901  0.4903
 8857SOL    HW138030   0.353   4.297   2.414  3.2361 -2.6247 -1.0523
 8857SOL    HW238031   0.248   4.368   2.341 -0.9728 -1.6023 -0.9392
 8858SOL     OW38032   3.982   4.267   7.706  0.0691  0.8338  0.0730
 8858SOL    HW138033   3.949   4.269   7.616  0.5847  1.3040 -0.1057
 8858SOL    HW238034   3.963   4.352   7.746 -1.5600  0.8317 -0.7165
 8859SOL     OW38035   2.291   1.931   4.849 -0.1792  0.1382 -0.2652
 8859SOL    HW138036   2.236   2.009   4.846 -0.0130  0.2222 -1.4072
 8859SOL    HW238037   2.234   1.855   4.837  1.2564 -0.9895  0.0353
 8860SOL     OW38038   3.688   2.559   3.225 -0.5785 -0.5456 -0.0908
 8860SOL    HW138039   3.744   2.635   3.209 -3.6632  1.6689 -0.4843
 8860SOL    HW238040   3.738   2.491   3.269 -0.4121 -0.5057 -0.2204
 8861SOL     OW38041   1.484   4.069   8.323  0.4159  0.9346 -0.3458
 8861SOL    HW138042   1.424   4.129   8.368  2.2650  3.3298 -1.1182
 8861SOL    HW238043   1.540   4.046   8.398 -2.6377  1.4815  2.1309
 8862SOL     OW38044   1.815   2.997   4.518 -0.1257  0.1509 -0.1197
 8862SOL    HW138045   1.860   3.008   4.435 -1.0342  0.5152 -0.5660
 8862SOL    HW238046   1.728   2.988   4.479  0.0490 -0.0829 -0.4509
 8863SOL     OW38047   4.498   3.776   8.083 -0.7071 -0.8580 -0.0925
 8863SOL    HW138048   4.436   3.824   8.137  0.1086  1.6659 -1.4069
 8863SOL    HW238049   4.471   3.808   7.997 -0.4702  2.4906  1.0921
 8864SOL     OW38050   0.008   2.757  10.173 -0.4227  0.4821 -0.1444
 8864SOL    HW138051   0.041   2.778  10.085  0.0279 -1.1997 -0.3804
 8864SOL    HW238052   0.024   2.840  10.219  2.4879 -0.1530  0.0048
 8865SOL     OW38053   0.647   3.791   2.538 -0.0142 -0.3399  0.8021
 8865SOL    HW138054   0.624   3.819   2.449 -0.8522  0.3159  1.2148
 8865SOL    HW238055   0.702   3.717   2.515 -0.6402 -1.3631  2.6145
 8866SOL     OW38056   1.779   3.355   0.254  0.4721 -0.1596  0.2253
 8866SOL    HW138057   1.831   3.314   0.323  0.4411 -0.1863  0.2327
 8866SOL    HW238058   1.851   3.403   0.213  0.8543  0.1797  1.2860
 8867SOL     OW38059   3.738   0.097   3.983  0.2611  0.0642 -0.3181
 8867SOL    HW138060   3.742   0.039   4.059 -2.0749  1.1448  0.6254
 8867SOL    HW238061   3.727   0.027   3.919 -1.5336 -0.3829  0.5039
 8868SOL     OW38062   0.929   2.255   3.059 -0.5222  0.0261  0.0895
 8868SOL    HW138063   0.903   2.269   2.968  0.8640  0.9406 -0.1724
 8868SOL    HW238064   1.021   2.234   3.042 -0.7772 -0.8714 -0.1569
 8869SOL     OW38065   3.209   3.753  13.515 -0.5776  0.3433  0.2813
 8869SOL    HW138066   3.203   3.736  13.421 -1.2116 -0.6228  0.4928
 8869SOL    HW238067   3.241   3.843  13.510  3.5761 -1.1018  1.0297
 8870SOL     OW38068   1.504   2.369   3.381  0.4657 -0.3855  0.4510
 8870SOL    HW138069   1.521   2.278   3.406  2.3255 -0.5840 -1.5873
 8870SOL    HW238070   1.429   2.395   3.433 -0.3623  0.6713 -1.3019
 8871SOL     OW38071   1.298   4.363   7.994  0.0818  0.1770 -0.3588
 8871SOL    HW138072   1.337   4.427   7.935  0.8870  0.3652  0.3921
 8871SOL    HW238073   1.366   4.367   8.061  0.6100 -0.8641 -0.8327
 8872SOL     OW38074   0.252   0.815   1.233  0.9392 -0.7279 -0.6589
 8872SOL    HW138075   0.156   0.816   1.241  1.1252  1.7110  1.4258
 8872SOL    HW238076   0.272   0.772   1.316  2.0788  0.2687 -0.4201
 8873SOL     OW38077   3.849   3.056   6.433  0.0401 -0.4306 -0.4834
 8873SOL    HW138078   3.756   3.034   6.439 -0.4652  1.7647 -0.2521
 8873SOL    HW238079   3.870   3.036   6.341 -1.4933 -1.3951 -0.6246
 8874SOL     OW38080   1.317   4.140   7.764  0.6027  0.4073  0.5724
 8874SOL    HW138081   1.247   4.205   7.760 -2.1547 -2.5033  1.0194
 8874SOL    HW238082   1.294   4.095   7.846  0.0013 -0.9786 -0.3415
 8875SOL     OW38083   1.042   0.500   5.123  0.1681 -0.4515  0.2647
 8875SOL    HW138084   0.962   0.552   5.131 -1.1325 -2.6179  1.2412
 8875SOL    HW238085   1.043   0.477   5.030  1.5889 -1.5544  0.5583
 8876SOL     OW38086   1.760   0.163  10.647 -0.1719 -0.2011 -0.0238
 8876SOL    HW138087   1.699   0.230  10.616  0.7440 -0.3111 -2.0490
 8876SOL    HW238088   1.848   0.185  10.617  0.7893 -2.5556  1.0263
 8877SOL     OW38089   1.046   2.299   7.418  0.0814 -0.8594 -0.6331
 8877SOL    HW138090   1.082   2.341   7.496  0.6573 -2.0345 -0.2696
 8877SOL    HW238091   1.012   2.375   7.371  0.5573 -0.9383 -1.1194
 8878SOL     OW38092   0.381   2.917   8.069 -0.2829  0.2038 -0.6113
 8878SOL    HW138093   0.414   2.925   8.159 -0.1952  1.6376 -0.7733
 8878SOL    HW238094   0.434   2.983   8.024  0.3077  0.0398 -0.1648
 8879SOL     OW38095   0.304   4.688  11.658  0.2989 -0.5361 -0.3290
 8879SOL    HW138096   0.368   4.704  11.588 -2.0731 -1.0912 -2.6292
 8879SOL    HW238097   0.219   4.722  11.628  0.7700 -0.3627 -1.4857
 8880SOL     OW38098   2.113   4.044   0.215 -0.3683 -0.3552 -0.1750
 8880SOL    HW138099   2.064   4.013   0.291 -1.8630 -4.0285 -2.6120
 8880SOL    HW238100   2.164   3.967   0.189 -0.4218 -0.2384 -0.6238
 8881SOL     OW38101   1.464   3.156   9.782  0.0789  0.3830  0.1569
 8881SOL    HW138102   1.521   3.213   9.731  0.5483 -0.2899 -0.0783
 8881SOL    HW238103   1.542   3.101   9.796  0.5523  0.3666 -2.4186
 8882SOL     OW38104   2.246   1.127   0.968 -0.2265  0.0427 -0.0094
 8882SOL    HW138105   2.282   1.215   0.961 -0.3965 -0.0294 -1.7697
 8882SOL    HW238106   2.286   1.093   0.888  1.7957 -0.3711  1.1607
 8883SOL     OW38107   2.167   3.358  14.408 -0.5742  0.0585 -0.1689
 8883SOL    HW138108   2.194   3.352  14.499  0.6615 -0.3449 -0.5622
 8883SOL    HW238109   2.149   3.451  14.399  1.2572  0.0836 -3.9306
 8884SOL     OW38110   3.500   2.982   6.305 -0.0390 -0.0863 -0.0617
 8884SOL    HW138111   3.534   2.988   6.215 -0.9480 -0.8835 -0.4590
 8884SOL    HW238112   3.505   2.893   6.341 -1.4351 -0.5273 -0.9672
 8885SOL     OW38113   3.938   3.661   6.339 -0.0747  0.1605 -0.8523
 8885SOL    HW138114   3.862   3.687   6.392 -0.3177 -1.1134 -0.5724
 8885SOL    HW238115   3.986   3.610   6.405  1.0119  0.3739 -1.4808
 8886SOL     OW38116   1.584   2.926   4.655 -0.5933 -0.1794  0.0149
 8886SOL    HW138117   1.563   2.860   4.589 -2.3766  0.3198  0.0831
 8886SOL    HW238118   1.680   2.919   4.659 -0.7935 -2.8191  0.7650
 8887SOL     OW38119   1.103   3.576  11.681 -0.1074 -0.1774  0.5241
 8887SOL    HW138120   1.008   3.565  11.692 -0.2568  0.8359  0.2399
 8887SOL    HW238121   1.113   3.633  11.606  0.2925  0.3936  1.0103
 8888SOL     OW38122   3.512   4.048   0.747 -0.5878  0.5876  0.4626
 8888SOL    HW138123   3.435   3.991   0.752  0.2744 -0.5206  1.1269
 8888SOL    HW238124   3.475   4.121   0.796 -2.4585 -0.3144  0.3992
 8889SOL     OW38125   4.604   3.292  17.014  0.2333 -0.4101  0.2954
 8889SOL    HW138126   4.533   3.352  17.035 -0.4475 -2.3409  3.4579
 8889SOL    HW238127   4.652   3.337  16.944 -0.2267 -2.3480 -1.2810
 8890SOL     OW38128   2.791   2.628   1.060 -0.1745 -0.4216  0.2208
 8890SOL    HW138129   2.740   2.709   1.056  1.5064  0.6154 -0.1705
 8890SOL    HW238130   2.832   2.629   1.146 -2.1677  0.5332  1.1551
 8891SOL     OW38131   4.071   3.063   5.028 -0.1467  0.2694  0.5748
 8891SOL    HW138132   4.137   3.039   4.963 -0.3851  1.4908 -0.0963
 8891SOL    HW238133   4.051   3.150   4.994  1.5822 -1.1187 -4.0078
 8892SOL     OW38134   0.450   3.562   0.960  0.2744  0.3325 -0.0459
 8892SOL    HW138135   0.541   3.533   0.961  0.7981  1.9305 -0.4976
 8892SOL    HW238136   0.424   3.544   0.869 -0.1560 -0.9342  0.3397
 8893SOL     OW38137   2.515   1.143  16.175 -0.0171 -0.6745 -0.1869
 8893SOL    HW138138   2.562   1.117  16.255  1.7287  1.4408 -0.5386
 8893SOL    HW238139   2.432   1.095  16.178 -0.7586  0.6432  0.2641
 8894SOL     OW38140   1.012   3.410  16.929 -0.1853 -0.0654 -0.6502
 8894SOL    HW138141   1.007   3.321  16.962  0.3802  0.5125  1.0084
 8894SOL    HW238142   1.050   3.450  17.008 -0.2836  1.5445 -1.4110
 8895SOL     OW38143   0.538   0.472   5.784  0.0722 -0.2952  0.0296
 8895SOL    HW138144   0.609   0.506   5.838 -1.5058  1.3190  1.0520
 8895SOL    HW238145   0.516   0.553   5.738 -0.6224 -0.0519  0.7925
 8896SOL     OW38146   1.938   0.074   5.305  0.8229 -0.6023  0.0079
 8896SOL    HW138147   2.019   0.098   5.261  0.9097  0.5367  0.7935
 8896SOL    HW238148   1.950   4.706   5.327  1.5829 -1.0941 -2.5310
 8897SOL     OW38149   1.236   1.820   4.734  0.2054  0.1231 -0.3526
 8897SOL    HW138150   1.182   1.788   4.806 -0.7173  0.2417 -0.9909
 8897SOL    HW238151   1.326   1.796   4.757  0.1144 -1.2870 -1.4630
 8898SOL     OW38152   0.240   4.666   8.311  0.1581  0.5319 -0.0025
 8898SOL    HW138153   0.179   4.689   8.381 -1.8601 -2.1027 -0.8926
 8898SOL    HW238154   0.174   4.660   8.242  2.7545 -0.1890 -2.4558
 8899SOL     OW38155   2.769   4.198   9.185 -0.3631 -0.5124 -0.1282
 8899SOL    HW138156   2.783   4.255   9.261 -1.6683  0.0958 -0.3492
 8899SOL    HW238157   2.766   4.116   9.234 -1.8962 -0.3189  0.0869
 8900SOL     OW38158   0.334   0.691   6.770  0.2200  0.4074  0.2025
 8900SOL    HW138159   0.403   0.642   6.726 -2.1317 -0.6495 -2.3271
 8900SOL    HW238160   0.267   0.695   6.701  0.8830 -2.1094 -0.5657
 8901SOL     OW38161   2.019   3.365   6.739 -0.0482 -0.3043  0.2795
 8901SOL    HW138162   1.950   3.344   6.802 -0.1092 -2.3424 -0.4699
 8901SOL    HW238163   1.994   3.298   6.675  2.2172 -0.9763  0.1028
 8902SOL     OW38164   1.246   3.868   6.757 -0.0959 -0.0766  0.2621
 8902SOL    HW138165   1.188   3.829   6.823 -1.3603  1.5374  0.1149
 8902SOL    HW238166   1.273   3.790   6.709 -0.1613 -0.0602  0.1993
 8903SOL     OW38167   0.225   1.798   7.413  0.2891 -0.0716 -0.2523
 8903SOL    HW138168   0.187   1.854   7.481 -2.1022  2.0142 -3.3498
 8903SOL    HW238169   0.283   1.864   7.375 -1.2744 -0.0803 -2.6046
 8904SOL     OW38170   3.876   0.514  12.789  0.7648 -0.2591  0.0587
 8904SOL    HW138171   3.788   0.522  12.827  1.2043 -5.0593  2.0000
 8904SOL    HW238172   3.879   0.603  12.753 -0.1805 -1.5369 -3.1655
 8905SOL     OW38173   2.124   4.645   5.112 -0.0130  0.1478  0.0836
 8905SOL    HW138174   2.154   4.658   5.022  1.0829  0.8046  0.5355
 8905SOL    HW238175   2.122   4.550   5.113  0.6289  0.1284  0.0945
 8906SOL     OW38176   3.304   0.970   3.557 -0.1770 -0.0204  0.2129
 8906SOL    HW138177   3.317   0.890   3.608 -1.3736  0.1972  0.8718
 8906SOL    HW238178   3.389   0.988   3.519 -0.1546  0.0043  0.2754
 8907SOL     OW38179   4.420   0.659   2.368 -0.3203  0.1193  0.6338
 8907SOL    HW138180   4.378   0.700   2.292  1.0092  0.5850  0.1407
 8907SOL    HW238181   4.393   0.725   2.432 -2.4270 -1.1630  1.0654
 8908SOL     OW38182   2.954   0.450   3.781  0.0965  0.2921 -0.0910
 8908SOL    HW138183   2.944   0.378   3.843  0.8093 -0.2849 -0.6436
 8908SOL    HW238184   2.944   0.531   3.831  2.2170 -0.7016  1.9123
 8909SOL     OW38185   3.100   4.370  15.733 -0.4258  0.0247  0.1168
 8909SOL    HW138186   3.012   4.334  15.722  0.7938 -1.7621 -3.9172
 8909SOL    HW238187   3.120   4.362  15.640  0.2858 -0.4983  0.3123
 8910SOL     OW38188   1.459   2.281  14.873  0.5489 -0.1163 -0.2830
 8910SOL    HW138189   1.436   2.220  14.943 -0.6585 -1.5999 -1.9861
 8910SOL    HW238190   1.475   2.364  14.919 -0.1658 -1.0263  1.6356
 8911SOL     OW38191   1.632   0.093   2.739 -0.3822  0.3161  0.1690
 8911SOL    HW138192   1.613   0.004   2.770 -0.2298 -0.2403 -1.3288
 8911SOL    HW238193   1.544   0.130   2.730  0.0774  2.2454  4.0958
 8912SOL     OW38194   3.194   0.709   8.783 -0.0848  0.0503 -0.6425
 8912SOL    HW138195   3.189   0.726   8.877  0.5938  1.2889 -0.8243
 8912SOL    HW238196   3.284   0.739   8.771  0.8137 -2.2227  0.4768
 8913SOL     OW38197   1.144   0.702   5.381 -0.0023 -0.3592  0.4579
 8913SOL    HW138198   1.144   0.631   5.317 -0.3984 -0.4223  0.5284
 8913SOL    HW238199   1.092   0.765   5.331  4.2297  1.5638 -1.5029
 8914SOL     OW38200   1.743   0.859   3.337  0.6458 -0.0722  0.0496
 8914SOL    HW138201   1.788   0.877   3.419  1.3960 -3.4908  0.3798
 8914SOL    HW238202   1.659   0.829   3.371  1.1680  0.1391  1.5297
 8915SOL     OW38203   1.149   1.675   5.330  0.1400  0.5451  0.2160
 8915SOL    HW138204   1.060   1.702   5.351 -0.0910  0.5336 -0.7812
 8915SOL    HW238205   1.187   1.688   5.417 -1.7579  1.0405  0.9552
 8916SOL     OW38206   2.321   3.852   4.043  0.1668 -0.5517  0.2620
 8916SOL    HW138207   2.309   3.941   4.076  0.8202  0.3626 -1.9365
 8916SOL    HW238208   2.282   3.866   3.957 -2.9980  1.0761  1.9684
 8917SOL     OW38209   1.592   1.800   7.958  0.0863  0.2461 -0.2439
 8917SOL    HW138210   1.625   1.717   7.922  0.5135  0.3820 -0.1635
 8917SOL    HW238211   1.631   1.797   8.045  0.7789  1.6622 -0.4948
 8918SOL     OW38212   2.272   3.306   8.773 -0.0747  0.6150 -0.1701
 8918SOL    HW138213   2.317   3.275   8.694 -0.2427 -0.5317  0.2014
 8918SOL    HW238214   2.349   3.325   8.827  0.7149 -0.7567 -0.7993
 8919SOL     OW38215   2.519   1.696   8.126  0.0865  0.1559  0.3167
 8919SOL    HW138216   2.506   1.663   8.037 -0.1105  0.0203  0.3971
 8919SOL    HW238217   2.460   1.636   8.170 -1.0280  0.5055 -0.6895
 8920SOL     OW38218   0.463   0.014  14.137  0.1603  0.0378 -0.3190
 8920SOL    HW138219   0.431   0.104  14.147  1.8424  0.6940 -0.9653
 8920SOL    HW238220   0.379   4.696  14.118 -1.1374  3.1737 -1.5870
 8921SOL     OW38221   0.807   1.343   3.167 -0.2407 -0.1557 -0.7084
 8921SOL    HW138222   0.821   1.410   3.101 -0.4318  0.6427  0.0533
 8921SOL    HW238223   0.898   1.346   3.197 -0.0531 -0.9640 -1.2056
 8922SOL     OW38224   1.336   1.030   4.148  0.0589 -0.0969  0.2698
 8922SOL    HW138225   1.291   1.055   4.229  0.6323 -1.0315  0.8936
 8922SOL    HW238226   1.265   1.015   4.086 -0.2974  2.8049 -0.0266
 8923SOL     OW38227   4.049   3.019   1.954 -0.2747  0.1864  0.2851
 8923SOL    HW138228   4.031   3.108   1.983 -1.1147 -0.2578  1.1327
 8923SOL    HW238229   3.987   3.002   1.883  1.2288 -0.1619 -0.9458
 8924SOL     OW38230   0.062   4.277  13.786  0.0398  0.1881 -0.2489
 8924SOL    HW138231   0.120   4.345  13.754  1.7083 -1.7441 -1.3231
 8924SOL    HW238232   4.701   4.319  13.786  0.3473  0.8499  2.5793
 8925SOL     OW38233   0.565   1.762   6.890 -0.7513  0.3241  0.6511
 8925SOL    HW138234   0.481   1.715   6.898  0.8362 -3.1661 -3.2938
 8925SOL    HW238235   0.626   1.704   6.936  1.1347  0.1503 -2.0694
 8926SOL     OW38236   4.021   1.979   9.611  0.4546  0.2380 -0.3469
 8926SOL    HW138237   4.030   2.074   9.609 -3.2554  0.6407  1.4412
 8926SOL    HW238238   4.027   1.958   9.518  0.6023  2.5424 -0.8533
 8927SOL     OW38239   3.365   3.587  12.323 -0.0564 -0.0921 -0.4848
 8927SOL    HW138240   3.405   3.617  12.241 -0.0216  1.0117 -0.0562
 8927SOL    HW238241   3.319   3.512  12.286 -1.4591 -0.2579  1.6202
 8928SOL     OW38242   2.978   3.111  12.013 -0.0112 -0.4781 -0.1064
 8928SOL    HW138243   3.031   3.105  12.093  1.0185  0.7394 -0.7005
 8928SOL    HW238244   3.039   3.116  11.939 -0.2577  1.7777 -0.1318
 8929SOL     OW38245   0.705   2.417   4.668  0.4904 -0.2243  0.3008
 8929SOL    HW138246   0.653   2.469   4.729  0.8029 -0.0176  0.3942
 8929SOL    HW238247   0.731   2.482   4.603  0.1523 -1.0549 -0.6551
 8930SOL     OW38248   1.895   0.233  16.751  0.0856  0.4751 -0.1544
 8930SOL    HW138249   1.808   0.198  16.769 -0.0575  2.1853  2.3844
 8930SOL    HW238250   1.932   0.204  16.835  0.3512  0.9431 -0.1056
 8931SOL     OW38251   3.709   0.958   3.179  0.0113 -0.0869 -0.0978
 8931SOL    HW138252   3.635   0.995   3.132  0.4663 -0.3332 -1.0013
 8931SOL    HW238253   3.684   0.872   3.213  0.5216 -0.4145 -0.5422
 8932SOL     OW38254   2.219   1.566   6.857  0.3240 -0.2944  0.3665
 8932SOL    HW138255   2.291   1.559   6.919 -0.5810 -1.5591  1.2837
 8932SOL    HW238256   2.149   1.620   6.894  1.0631 -0.2641  1.7149
 8933SOL     OW38257   4.554   0.940  10.807  0.1515 -0.1439 -0.0606
 8933SOL    HW138258   4.594   0.989  10.736  1.6383 -3.3938 -1.4623
 8933SOL    HW238259   4.638   0.906  10.837 -0.3271 -2.2205 -1.0814
 8934SOL     OW38260   4.416   4.267   6.396 -0.0167  0.0127  0.5794
 8934SOL    HW138261   4.495   4.267   6.342  0.7182  0.8126  1.6486
 8934SOL    HW238262   4.385   4.181   6.368 -0.7167  0.2648  0.5844
 8935SOL     OW38263   1.466   2.409   1.693  0.1292  0.0962 -0.6662
 8935SOL    HW138264   1.490   2.492   1.653 -1.9109  0.7782 -0.4666
 8935SOL    HW238265   1.543   2.386   1.746 -1.1644 -0.5114  0.9596
 8936SOL     OW38266   2.180   2.035   8.761  0.1424 -0.7078 -0.2596
 8936SOL    HW138267   2.274   2.054   8.768 -0.5661  2.1488  1.2632
 8936SOL    HW238268   2.173   1.948   8.801 -0.8781  0.0318  1.1164
 8937SOL     OW38269   2.770   3.840  11.696  0.3519  0.6647  0.2178
 8937SOL    HW138270   2.787   3.746  11.698  1.0175  0.7906  0.5581
 8937SOL    HW238271   2.842   3.873  11.643 -0.1198 -0.0601 -0.8622
 8938SOL     OW38272   0.674   0.885   3.519  0.5755  1.0756 -0.5036
 8938SOL    HW138273   0.744   0.903   3.582  0.7452  1.0274 -0.6808
 8938SOL    HW238274   0.670   0.789   3.521  0.3999  1.0879 -0.1148
 8939SOL     OW38275   0.435   2.590  14.409  0.4730  0.1411  0.4941
 8939SOL    HW138276   0.407   2.498  14.413  1.1666 -0.0965 -0.1238
 8939SOL    HW238277   0.507   2.570  14.349  0.7280  0.2616  0.7622
 8940SOL     OW38278   4.093   4.114   4.661 -0.6428 -0.5249  0.3526
 8940SOL    HW138279   4.124   4.024   4.649  0.9470  0.0969 -0.1933
 8940SOL    HW238280   4.021   4.095   4.721 -1.5001 -2.7444 -1.3791
 8941SOL     OW38281   2.424   2.607   2.539 -0.3131 -0.3135 -0.1248
 8941SOL    HW138282   2.358   2.647   2.597  0.9802  0.2496  0.9653
 8941SOL    HW238283   2.378   2.609   2.455  1.7569 -2.7809 -1.3023
 8942SOL     OW38284   0.878   1.268  17.586 -0.0310 -0.6421  0.0617
 8942SOL    HW138285   0.913   1.214  17.657  1.9663  0.6921  0.0828
 8942SOL    HW238286   0.843   1.345  17.630  0.4253  1.6219 -3.5288
 8943SOL     OW38287   0.927   0.051  16.144  0.0431 -0.1327 -0.4047
 8943SOL    HW138288   0.851   0.019  16.095  1.1073 -1.1310 -1.3997
 8943SOL    HW238289   0.894   0.140  16.130 -2.2826 -0.9365 -0.0054
 8944SOL     OW38290   3.864   4.304  14.448 -0.4689  0.1407 -0.4078
 8944SOL    HW138291   3.942   4.346  14.410  0.8319 -1.4857  0.4917
 8944SOL    HW238292   3.836   4.384  14.493 -0.9287 -1.1568  1.5792
 8945SOL     OW38293   0.214   2.492   8.406  0.0421  0.4349 -0.5088
 8945SOL    HW138294   0.150   2.426   8.434  0.9842 -1.1772 -2.1726
 8945SOL    HW238295   0.156   2.558   8.368  0.4322 -0.5090 -2.7089
 8946SOL     OW38296   1.515   2.940   8.133 -0.2356 -0.2663 -0.6995
 8946SOL    HW138297   1.556   3.014   8.177  0.8937 -0.3329 -1.6131
 8946SOL    HW238298   1.574   2.930   8.057 -1.3746  1.0521 -1.7569
 8947SOL     OW38299   0.039   4.386  17.316 -0.0013  0.1413 -0.4735
 8947SOL    HW138300   0.127   4.381  17.353 -0.3847  0.2452  0.4468
 8947SOL    HW238301   0.064   4.327  17.245 -0.6096 -0.9359  0.2120
 8948SOL     OW38302   1.434   0.497   5.698  0.1321 -0.0792  0.3335
 8948SOL    HW138303   1.361   0.553   5.674  0.2026  0.0255  0.3607
 8948SOL    HW238304   1.498   0.509   5.627  1.0387 -0.6538  1.0506
 8949SOL     OW38305   2.446   1.928   0.840 -0.4446 -0.5766  0.0035
 8949SOL    HW138306   2.499   2.004   0.864 -1.3829  0.2732 -0.5899
 8949SOL    HW238307   2.389   1.927   0.917  1.4661 -0.4299  1.4168
 8950SOL     OW38308   2.603   1.920  14.106  0.7156  0.0050 -0.8884
 8950SOL    HW138309   2.679   1.904  14.163 -0.7724 -0.0980  1.0559
 8950SOL    HW238310   2.648   1.893  14.026  0.1725  1.2069 -1.6127
 8951SOL     OW38311   3.165   0.111  10.608  0.0495 -0.1535 -0.3805
 8951SOL    HW138312   3.114   0.134  10.530 -0.6052 -0.7579 -0.1283
 8951SOL    HW238313   3.196   0.022  10.591  0.6956 -0.0201  0.0981
 8952SOL     OW38314   0.105   3.212   4.028  0.3833 -0.7433  0.1331
 8952SOL    HW138315   0.099   3.250   3.940 -0.0642 -2.3097 -0.5036
 8952SOL    HW238316   0.173   3.145   4.022 -1.2807 -2.4936  0.9526
 8953SOL     OW38317   1.155   2.649  16.499  0.3183 -0.4195 -0.1981
 8953SOL    HW138318   1.149   2.609  16.412  2.6459 -0.9123 -0.1082
 8953SOL    HW238319   1.126   2.738  16.476  4.5793  0.2843 -2.8895
 8954SOL     OW38320   2.652   2.711   4.953 -0.2396  0.4079 -0.5217
 8954SOL    HW138321   2.696   2.795   4.936 -1.8168  1.2238 -0.5733
 8954SOL    HW238322   2.566   2.733   4.918 -0.8534  1.6492  1.7623
 8955SOL     OW38323   3.636   1.752   2.420  0.4524 -0.4225  0.3810
 8955SOL    HW138324   3.605   1.791   2.501 -0.6942 -0.5192 -0.0188
 8955SOL    HW238325   3.615   1.823   2.359  1.3387 -0.6299 -0.1663
 8956SOL     OW38326   0.730   0.835   4.708 -0.3528 -0.4583 -0.0321
 8956SOL    HW138327   0.826   0.837   4.702 -0.3030  1.2388  1.1488
 8956SOL    HW238328   0.727   0.893   4.785  2.2287  0.6230 -0.7441
 8957SOL     OW38329   2.096   1.225   0.470  0.5854  0.2410 -0.0486
 8957SOL    HW138330   2.189   1.202   0.460  0.9353  1.2062  0.9784
 8957SOL    HW238331   2.057   1.228   0.382  0.0148 -2.5808  0.1014
 8958SOL     OW38332   4.609   1.627   3.842 -0.4910  0.6188  0.2389
 8958SOL    HW138333   4.681   1.668   3.891 -1.1244  0.4274  1.3421
 8958SOL    HW238334   4.659   1.612   3.762 -0.0048  1.3289  0.4015
 8959SOL     OW38335   4.249   3.703  10.677  0.5592  0.1471  0.0110
 8959SOL    HW138336   4.321   3.694  10.740 -0.5623 -0.8589  1.1551
 8959SOL    HW238337   4.182   3.749  10.727  0.3207 -0.9686  0.7151
 8960SOL     OW38338   0.419   1.821   3.330 -0.3857 -0.2136  0.2935
 8960SOL    HW138339   0.460   1.851   3.249  0.3366  1.1029  1.1315
 8960SOL    HW238340   0.421   1.892   3.395 -1.7430 -1.0036  1.1984
 8961SOL     OW38341   1.143   3.308  10.855  0.5334 -0.5104 -0.8193
 8961SOL    HW138342   1.082   3.304  10.929 -0.6442  0.6452 -1.7226
 8961SOL    HW238343   1.229   3.326  10.892 -0.1797 -0.1927  0.6924
 8962SOL     OW38344   1.548   0.912  13.023 -0.6055 -0.1535  0.1617
 8962SOL    HW138345   1.525   0.893  13.114 -0.6878 -0.3076  0.1075
 8962SOL    HW238346   1.619   0.848  13.013 -0.6213  0.2955 -2.9601
 8963SOL     OW38347   2.780   1.901  14.822 -0.4553  0.2635 -0.2729
 8963SOL    HW138348   2.736   1.968  14.875  0.5871  0.7762 -0.0508
 8963SOL    HW238349   2.794   1.944  14.738  0.6871 -1.0777 -0.7679
 8964SOL     OW38350   3.011   0.432   3.533 -0.6153 -0.9302  0.0409
 8964SOL    HW138351   3.078   0.499   3.526 -2.3369  0.7444 -0.2089
 8964SOL    HW238352   2.986   0.428   3.625 -1.2116 -0.2923 -0.0969
 8965SOL     OW38353   0.065   1.203  10.929 -0.2567 -0.1107  0.0714
 8965SOL    HW138354   0.056   1.176  11.021  1.1628 -1.0686 -0.0785
 8965SOL    HW238355   0.046   1.118  10.890  1.1326 -0.4854  0.2244
 8966SOL     OW38356   4.044   0.826   0.361 -0.1894 -0.6014 -0.0562
 8966SOL    HW138357   4.086   0.902   0.401  1.9168 -1.4396 -0.6993
 8966SOL    HW238358   3.967   0.866   0.322 -0.3883 -1.5080 -0.5827
 8967SOL     OW38359   0.839   3.200   4.607  0.3644  0.1924 -0.3362
 8967SOL    HW138360   0.794   3.211   4.691  0.7935  0.9230 -0.1990
 8967SOL    HW238361   0.765   3.216   4.548 -0.4966 -0.4348  0.5770
 8968SOL     OW38362   4.170   3.715   2.139  0.4481 -0.3307 -0.4433
 8968SOL    HW138363   4.211   3.628   2.141  1.7072  0.2653 -0.4296
 8968SOL    HW238364   4.227   3.760   2.077 -0.8908  0.0127 -1.4263
 8969SOL     OW38365   0.152   0.184   6.940 -0.3354 -0.3624 -0.1857
 8969SOL    HW138366   0.207   0.259   6.961 -3.0073  0.8839  2.3916
 8969SOL    HW238367   0.066   0.226   6.936 -1.4466 -2.7671 -1.8547
 8970SOL     OW38368   3.885   0.652  17.384  0.5772  0.4236  0.3919
 8970SOL    HW138369   3.883   0.687  17.295  1.4870 -0.6433 -0.0441
 8970SOL    HW238370   3.792   0.640  17.405 -0.2767  3.3169 -1.6251
 8971SOL     OW38371   3.618   0.766   2.688  0.2398  0.3339  0.7735
 8971SOL    HW138372   3.616   0.757   2.592  0.4102  0.3760  0.7665
 8971SOL    HW238373   3.617   0.861   2.696  2.8956  0.4542 -0.2787
 8972SOL     OW38374   1.178   3.662   0.521 -0.8463  0.1450 -0.1124
 8972SOL    HW138375   1.205   3.673   0.612 -0.1346  0.0034 -0.3109
 8972SOL    HW238376   1.212   3.577   0.494  3.0295  1.3886  0.9466
 8973SOL     OW38377   0.261   3.139   0.876 -0.0703  0.2875  0.1873
 8973SOL    HW138378   0.283   3.049   0.900  0.5268  0.5438  0.6073
 8973SOL    HW238379   0.341   3.179   0.911  0.3130  0.9348 -1.4174
 8974SOL     OW38380   3.809   3.775  13.065 -0.2999 -0.2105 -0.2938
 8974SOL    HW138381   3.777   3.856  13.027  2.5463  0.9746 -0.2049
 8974SOL    HW238382   3.824   3.721  12.988 -2.3022 -0.2683 -0.6361
 8975SOL     OW38383   2.465   0.086  16.481  0.3388  0.3022 -0.1387
 8975SOL    HW138384   2.499   0.173  16.498  4.1425 -0.9503 -1.3541
 8975SOL    HW238385   2.541   0.049  16.436  0.6332 -2.5051  2.6467
 8976SOL     OW38386   4.293   3.731   3.437 -0.1349  0.2004  0.2904
 8976SOL    HW138387   4.241   3.771   3.367  1.2978  1.3336 -0.1229
 8976SOL    HW238388   4.264   3.774   3.518  0.4236  0.2324  0.4749
 8977SOL     OW38389   3.922   4.228   0.202  0.1797  0.2540 -0.4152
 8977SOL    HW138390   3.859   4.227   0.274  0.7000 -1.5509  0.0355
 8977SOL    HW238391   3.977   4.304   0.221 -1.5234  0.7690  2.4402
 8978SOL     OW38392   4.185   0.404   5.105 -0.4328 -0.6572  0.1013
 8978SOL    HW138393   4.238   0.385   5.028 -0.1883  1.7683 -0.3162
 8978SOL    HW238394   4.135   0.481   5.077 -0.7569 -0.4833  1.1390
 8979SOL     OW38395   3.608   1.597   8.835 -0.5507 -0.0979  0.1756
 8979SOL    HW138396   3.607   1.691   8.852  3.7624 -0.2447  1.1672
 8979SOL    HW238397   3.689   1.577   8.882 -0.8611 -0.2808  0.6313
 8980SOL     OW38398   2.971   4.524   3.050  0.8326 -0.0495  0.3966
 8980SOL    HW138399   3.013   4.439   3.039  0.1301 -0.5833  1.8515
 8980SOL    HW238400   2.927   4.506   3.133 -0.6558 -0.4242 -0.4654
 8981SOL     OW38401   3.002   0.546  10.019 -0.3126  0.0070 -0.4750
 8981SOL    HW138402   3.083   0.540  10.069  0.0533  1.9263 -0.8519
 8981SOL    HW238403   2.945   0.507  10.085  0.4452 -0.1170  0.1048
 8982SOL     OW38404   2.090   3.160   7.718  0.3474 -0.1814 -0.6639
 8982SOL    HW138405   2.028   3.180   7.788 -1.0116 -1.9960 -1.3379
 8982SOL    HW238406   2.029   3.108   7.665  0.7628 -1.6857  0.3351
 8983SOL     OW38407   3.994   0.073   4.233 -0.5548  0.1124  0.0688
 8983SOL    HW138408   3.937   0.150   4.229  1.8478  1.8442 -0.7819
 8983SOL    HW238409   4.041   0.082   4.150  1.2872  2.6600  1.3819
 8984SOL     OW38410   3.738   3.326   8.339 -0.0691  0.3908  0.3493
 8984SOL    HW138411   3.770   3.392   8.278 -1.4006 -1.6178 -2.4790
 8984SOL    HW238412   3.656   3.367   8.367  1.3689  2.5102  1.4834
 8985SOL     OW38413   3.388   4.630  17.579  0.3436  0.2541  0.0587
 8985SOL    HW138414   3.406   4.603  17.669  2.1021  1.8514  0.1969
 8985SOL    HW238415   3.475   4.632  17.538  0.4531  1.6778  0.3493
 8986SOL     OW38416   1.651   3.017   8.881 -0.2324  0.4152  0.3542
 8986SOL    HW138417   1.736   3.014   8.925 -0.9134 -2.2210  1.5221
 8986SOL    HW238418   1.629   2.924   8.888 -2.4436  1.0680  1.9001
 8987SOL     OW38419   2.886   1.793   1.953 -0.5141 -0.4774  0.0122
 8987SOL    HW138420   2.856   1.876   1.991 -0.5648  0.2414 -1.5875
 8987SOL    HW238421   2.942   1.821   1.880  1.9681 -3.9955  0.5901
 8988SOL     OW38422   3.108   1.499   5.832  0.8659  0.1417 -0.5650
 8988SOL    HW138423   3.014   1.501   5.818  0.9006 -1.4385 -1.0661
 8988SOL    HW238424   3.131   1.592   5.824  0.9695  0.1189 -0.5428
 8989SOL     OW38425   4.043   3.556   3.156  0.2799  0.2304  0.2627
 8989SOL    HW138426   4.114   3.494   3.136 -0.7707 -0.1487 -2.3389
 8989SOL    HW238427   4.005   3.507   3.229 -2.0554 -0.0420 -1.1300
 8990SOL     OW38428   3.386   2.343  12.467 -0.9930  0.3147 -0.3582
 8990SOL    HW138429   3.319   2.400  12.431 -0.0090  1.6117 -0.1450
 8990SOL    HW238430   3.335   2.291  12.529 -0.3946 -1.5046 -1.3743
 8991SOL     OW38431   4.421   0.546   6.361 -0.2933 -1.0561 -0.1263
 8991SOL    HW138432   4.378   0.546   6.447 -0.0823 -1.2700 -0.0199
 8991SOL    HW238433   4.356   0.588   6.305 -1.8266 -2.9519  0.2036
 8992SOL     OW38434   3.040   4.100   3.163  0.0213 -0.1469 -0.4779
 8992SOL    HW138435   3.045   4.039   3.236 -1.3998  1.5543  1.0494
 8992SOL    HW238436   3.130   4.100   3.130  0.4053 -0.1101  0.5690
 8993SOL     OW38437   2.476   0.068   8.854 -0.2528 -0.1596  0.7935
 8993SOL    HW138438   2.523   0.094   8.933  3.1406  0.0710 -1.2770
 8993SOL    HW238439   2.389   0.087   8.888  0.4833  1.7997  1.5770
 8994SOL     OW38440   3.485   3.581  10.524 -0.3448 -0.1478  0.3666
 8994SOL    HW138441   3.514   3.537  10.604 -1.8068 -0.8404  0.5106
 8994SOL    HW238442   3.444   3.506  10.481 -1.2826  1.0356 -0.8158
 8995SOL     OW38443   2.022   0.269  10.746 -0.1401 -0.0419  0.1420
 8995SOL    HW138444   2.095   0.330  10.736  0.1845 -0.5999 -0.8509
 8995SOL    HW238445   2.069   0.190  10.718 -0.4124 -0.1702  0.0480
 8996SOL     OW38446   2.596   0.553  16.578 -0.1505 -0.5601  0.1085
 8996SOL    HW138447   2.646   0.603  16.514 -1.0123  0.7797  0.4712
 8996SOL    HW238448   2.582   0.465  16.543 -0.8945 -0.8093  1.0494
 8997SOL     OW38449   4.464   1.054   6.653  0.0573  0.0327  0.4050
 8997SOL    HW138450   4.493   0.993   6.585 -0.2143  0.4213 -0.0546
 8997SOL    HW238451   4.415   0.995   6.710 -1.7180  0.7271 -0.4209
 8998SOL     OW38452   2.304   1.713  17.624 -0.1397 -0.6346  0.0351
 8998SOL    HW138453   2.275   1.796  17.586 -0.8222  0.1289  2.2650
 8998SOL    HW238454   2.306   1.718   0.020  0.4599  0.8026 -0.0576
 8999SOL     OW38455   0.333   1.617   6.078 -0.0178  0.3654 -0.0501
 8999SOL    HW138456   0.268   1.678   6.113 -1.2553 -1.3494  0.6005
 8999SOL    HW238457   0.282   1.558   6.023 -0.7857  2.1019 -1.2016
 9000SOL     OW38458   3.311   3.227   8.203  0.2080  0.2181 -0.4471
 9000SOL    HW138459   3.283   3.138   8.223 -2.8621  1.3459  0.2845
 9000SOL    HW238460   3.404   3.218   8.182  0.1559  0.4327 -0.7836
 9001SOL     OW38461   1.206   4.385   5.457 -0.5269  0.1297 -0.5346
 9001SOL    HW138462   1.175   4.418   5.372  1.3377 -3.2831 -2.5288
 9001SOL    HW238463   1.301   4.386   5.449 -0.5192 -1.2063 -0.6033
 9002SOL     OW38464   3.156   3.931   7.491 -0.3407 -0.1336  0.3965
 9002SOL    HW138465   3.173   3.917   7.584 -2.1319  1.1293  0.9042
 9002SOL    HW238466   3.113   3.849   7.464  1.1503 -0.9399  0.4632
 9003SOL     OW38467   3.920   4.584   8.391 -0.2087 -0.3243 -0.4988
 9003SOL    HW138468   3.874   4.579   8.307 -0.6610  0.4446 -0.2987
 9003SOL    HW238469   3.966   4.502   8.379 -1.9635 -1.0651 -2.2119
 9004SOL     OW38470   4.242   2.093   5.981  0.0153  0.0616 -0.9042
 9004SOL    HW138471   4.181   2.062   6.047  0.2488 -1.9267 -1.6246
 9004SOL    HW238472   4.220   2.029   5.914  0.8103 -0.8652 -0.2830
 9005SOL     OW38473   4.466   0.359   7.129 -0.3985 -0.2474  0.0855
 9005SOL    HW138474   4.393   0.421   7.129  0.6257  0.9426  0.0440
 9005SOL    HW238475   4.493   0.378   7.219 -1.0220 -1.2181  0.4830
 9006SOL     OW38476   3.595   0.150   5.506 -0.1541  0.1404 -0.1363
 9006SOL    HW138477   3.682   0.110   5.511 -1.6590 -2.9723  1.3591
 9006SOL    HW238478   3.579   0.189   5.420 -0.5679 -1.0437 -0.5962
 9007SOL     OW38479   1.795   3.117   7.916 -0.1972  0.0027 -0.0724
 9007SOL    HW138480   1.710   3.159   7.923  0.8290  2.1750 -0.3753
 9007SOL    HW238481   1.777   3.036   7.869 -0.1189 -0.4305  0.6566
 9008SOL     OW38482   1.990   2.312  16.038  0.4353  0.3406 -0.6399
 9008SOL    HW138483   1.950   2.272  16.116  0.2253 -0.0961 -0.9695
 9008SOL    HW238484   1.918   2.368  16.010  0.7635  1.3760  0.5882
 9009SOL     OW38485   0.703   1.980   1.309  0.8431  0.1125  0.3497
 9009SOL    HW138486   0.636   1.914   1.290  0.0372  0.9870  0.1632
 9009SOL    HW238487   0.678   2.057   1.258 -2.4754  0.3365  2.2661
 9010SOL     OW38488   1.748   1.541   5.483 -0.3558 -0.2687  0.3190
 9010SOL    HW138489   1.809   1.468   5.483 -0.5929 -0.4507  2.7126
 9010SOL    HW238490   1.747   1.567   5.575  1.7620 -0.2812  0.3527
 9011SOL     OW38491   2.319   4.318  14.230 -0.2083 -0.0060  0.5745
 9011SOL    HW138492   2.234   4.355  14.208  0.7496  2.0146  0.2587
 9011SOL    HW238493   2.356   4.279  14.151 -1.1990  1.4083 -0.5627
 9012SOL     OW38494   1.322   4.723   2.987  0.1806  0.0916  0.3681
 9012SOL    HW138495   1.379   4.646   2.978  0.4940  0.6554 -2.4479
 9012SOL    HW238496   1.250   4.676   3.029 -0.2749  0.1938 -0.3013
 9013SOL     OW38497   3.351   3.276   0.666 -0.3532 -0.1099  0.1932
 9013SOL    HW138498   3.312   3.317   0.589 -0.3614 -0.6832 -0.1075
 9013SOL    HW238499   3.279   3.280   0.729 -1.9367  2.3431 -1.7660
 9014SOL     OW38500   4.272   0.162   3.846 -0.3314  0.4391 -0.0979
 9014SOL    HW138501   4.186   0.119   3.856 -0.0386 -0.3844 -1.1771
 9014SOL    HW238502   4.289   0.146   3.754 -2.2609 -1.2122 -0.1890
 9015SOL     OW38503   1.329   2.843  16.695  0.2137  0.4751  0.1097
 9015SOL    HW138504   1.295   2.805  16.614 -2.7443 -0.1332  1.6703
 9015SOL    HW238505   1.402   2.782  16.704 -1.0953 -1.4457 -2.2119
 9016SOL     OW38506   1.827   2.539   4.513  0.7814  0.6775 -0.2776
 9016SOL    HW138507   1.823   2.444   4.508  1.2476  0.4657  3.1297
 9016SOL    HW238508   1.770   2.549   4.437 -0.4440 -0.5551  0.4693
 9017SOL     OW38509   3.042   1.535   4.871 -0.4267  0.2917  0.2405
 9017SOL    HW138510   3.037   1.481   4.949 -0.6423  0.3518  0.2668
 9017SOL    HW238511   3.132   1.517   4.841 -0.6153  0.6004 -0.5241
 9018SOL     OW38512   3.319   0.335   9.668 -0.0200  0.7971  0.3971
 9018SOL    HW138513   3.290   0.310   9.755 -0.9214  1.8652  0.3965
 9018SOL    HW238514   3.354   0.248   9.644 -0.2923  0.3121  1.7941
 9019SOL     OW38515   2.469   3.534  10.002  0.0400 -0.2742  0.1400
 9019SOL    HW138516   2.429   3.452   9.973 -0.5582 -0.1589  0.6258
 9019SOL    HW238517   2.402   3.556  10.067  0.1421  3.2581 -0.9511
 9020SOL     OW38518   4.310   4.108   5.622  0.4531 -0.0935 -0.5673
 9020SOL    HW138519   4.297   4.156   5.704 -0.1347 -1.7520  0.3246
 9020SOL    HW238520   4.367   4.168   5.575 -0.7348  0.7167 -0.9876
 9021SOL     OW38521   4.597   0.902  11.977 -0.1717 -0.2199 -0.0478
 9021SOL    HW138522   4.658   0.969  11.948 -0.0802 -0.8814 -1.3700
 9021SOL    HW238523   4.573   0.915  12.069 -0.1738 -1.6468  0.1476
 9022SOL     OW38524   4.384   3.230   7.424  0.0463 -0.1394  0.0369
 9022SOL    HW138525   4.449   3.169   7.389 -0.6326  0.6105 -2.4891
 9022SOL    HW238526   4.355   3.284   7.351 -0.6285  0.1900  0.5529
 9023SOL     OW38527   2.517   2.448   5.155 -0.3099  0.2937 -0.2973
 9023SOL    HW138528   2.499   2.530   5.110 -2.0519 -0.0690 -0.2697
 9023SOL    HW238529   2.583   2.404   5.102  0.6712  1.8221 -0.3312
 9024SOL     OW38530   3.745   4.641   1.041 -0.2549  0.1000  0.0190
 9024SOL    HW138531   3.837   4.642   1.017 -0.4450 -1.1755 -0.7608
 9024SOL    HW238532   3.737   4.720   1.094  1.8271  0.9510 -0.9795
 9025SOL     OW38533   1.640   3.740   9.953 -0.0377  0.1745 -0.3642
 9025SOL    HW138534   1.590   3.822   9.952  0.5840  0.5635  0.4240
 9025SOL    HW238535   1.572   3.673   9.946 -0.0550 -0.0020  1.5670
 9026SOL     OW38536   1.371   2.148   5.173  0.4122  0.0594 -0.8031
 9026SOL    HW138537   1.286   2.188   5.155  0.3309 -0.4767 -1.6483
 9026SOL    HW238538   1.382   2.082   5.104 -1.6921 -0.1913 -0.9138
 9027SOL     OW38539   4.466   4.291   3.042 -0.7685 -0.8681  0.3712
 9027SOL    HW138540   4.516   4.308   2.962 -0.6706  1.5370  0.9287
 9027SOL    HW238541   4.411   4.368   3.025  0.0737 -0.7986 -2.0820
 9028SOL     OW38542   1.312   2.219  16.541  0.8666 -0.7338 -0.0177
 9028SOL    HW138543   1.285   2.243  16.630  3.1324 -0.2802  0.5561
 9028SOL    HW238544   1.271   2.133  16.535  0.2172 -0.4108 -0.2402
 9029SOL     OW38545   0.361   1.225  10.468 -0.1838 -0.5134 -0.2862
 9029SOL    HW138546   0.386   1.160  10.534  2.3957  0.4649 -0.3065
 9029SOL    HW238547   0.357   1.306  10.519 -0.8847 -1.9165  1.8946
 9030SOL     OW38548   4.303   4.654   2.032 -0.3303  0.0696 -0.3590
 9030SOL    HW138549   4.237   4.603   2.079  0.1660 -0.1718  0.0781
 9030SOL    HW238550   4.263   4.667   1.946 -2.6534  0.2800  0.7577
 9031SOL     OW38551   3.757   1.992   6.953  0.4933  0.2643 -0.4415
 9031SOL    HW138552   3.712   2.066   6.912  2.4494  0.9345 -1.3858
 9031SOL    HW238553   3.755   2.010   7.047 -2.6346  0.7740 -0.5944
 9032SOL     OW38554   1.693   0.805  15.758 -0.0598 -0.5448  0.6957
 9032SOL    HW138555   1.766   0.758  15.718 -1.0928 -0.3693 -1.3980
 9032SOL    HW238556   1.634   0.830  15.687  0.9034  1.3539  0.5551
 9033SOL     OW38557   3.907   0.810   4.094 -0.4672  0.3326  0.1587
 9033SOL    HW138558   3.884   0.866   4.168  1.8996 -2.2079  2.7897
 9033SOL    HW238559   3.815   0.798   4.069  0.0386  3.4909 -3.3443
 9034SOL     OW38560   0.030   0.654   4.503 -0.3526 -0.3037 -0.1332
 9034SOL    HW138561   4.697   0.682   4.575 -3.1179 -1.8409 -1.7424
 9034SOL    HW238562   4.689   0.623   4.440  1.3583  0.1600 -2.1284
 9035SOL     OW38563   3.858   0.199  15.494  0.2542  0.7255  0.0285
 9035SOL    HW138564   3.894   0.123  15.539  1.1521  0.0018 -1.9336
 9035SOL    HW238565   3.895   0.183  15.407 -1.5414  0.7293 -0.7393
 9036SOL     OW38566   4.715   3.044   3.659 -0.0417  0.1744 -0.0865
 9036SOL    HW138567   0.014   3.023   3.568  2.4196  0.2595  0.5439
 9036SOL    HW238568   4.628   3.003   3.664 -1.5610  3.9251  3.5907
 9037SOL     OW38569   0.770   4.247   2.684 -0.4717  0.1575  0.2238
 9037SOL    HW138570   0.713   4.188   2.634 -0.2576  1.3649 -1.4349
 9037SOL    HW238571   0.701   4.297   2.727 -2.3490  0.1815 -2.7513
 9038SOL     OW38572   2.023   2.734   0.077 -0.2365 -0.1484 -0.3484
 9038SOL    HW138573   2.093   2.794   0.102 -1.3497 -0.0284  2.4845
 9038SOL    HW238574   1.967   2.764   0.149  1.1837 -1.7282  1.3975
 9039SOL     OW38575   1.962   3.347  16.324 -0.8922  0.1527 -0.1335
 9039SOL    HW138576   1.892   3.364  16.261 -1.3209  2.1257  0.8627
 9039SOL    HW238577   2.014   3.276  16.286 -1.1591 -0.0563 -0.1100
 9040SOL     OW38578   0.239   0.581   9.028 -0.2485  0.0387 -0.4463
 9040SOL    HW138579   0.333   0.562   9.023 -0.1728  1.1541 -3.2713
 9040SOL    HW238580   0.202   0.505   8.982 -1.7086 -0.2250  1.1705
 9041SOL     OW38581   4.496   0.741   3.470  0.3096  0.2995 -0.7088
 9041SOL    HW138582   4.525   0.653   3.445 -1.0589 -0.5319  0.6013
 9041SOL    HW238583   4.496   0.782   3.384 -3.1967 -3.8370 -2.7405
 9042SOL     OW38584   2.225   0.657   4.388 -0.3972  0.3166  0.3196
 9042SOL    HW138585   2.173   0.636   4.466 -1.6208 -2.7401 -1.3156
 9042SOL    HW238586   2.182   0.740   4.366 -0.8973  0.1054  0.4960
 9043SOL     OW38587   3.692   3.589   3.420 -0.0001  0.0175 -0.3848
 9043SOL    HW138588   3.706   3.684   3.420  3.2709 -0.4538  0.3155
 9043SOL    HW238589   3.621   3.581   3.483  0.6837  2.0309  0.6382
 9044SOL     OW38590   2.492   1.633   6.267 -0.1943 -1.2215 -0.0947
 9044SOL    HW138591   2.498   1.704   6.203 -3.1475  0.6133  1.6992
 9044SOL    HW238592   2.410   1.600   6.231  0.1180 -0.6229 -1.3696
 9045SOL     OW38593   2.030   0.463   5.269 -0.1256  0.5657  0.4264
 9045SOL    HW138594   1.957   0.434   5.323  0.7502  0.2697  1.4463
 9045SOL    HW238595   2.053   0.386   5.216  3.2565 -0.1665  2.9496
 9046SOL     OW38596   0.657   2.834   8.956 -0.2000  0.1521 -0.1999
 9046SOL    HW138597   0.736   2.782   8.963  0.6452  1.5191  0.3700
 9046SOL    HW238598   0.682   2.915   9.001  0.0644 -0.4440  0.7029
 9047SOL     OW38599   1.143   2.730   8.652 -0.5298 -0.3372 -0.0432
 9047SOL    HW138600   1.225   2.723   8.701 -0.8926  1.4212  0.8066
 9047SOL    HW238601   1.185   2.749   8.569 -2.1793  2.8022 -0.1659
 9048SOL     OW38602   3.924   0.250   1.329  0.3960  0.1765  0.2637
 9048SOL    HW138603   3.908   0.164   1.368  1.6032 -0.3402 -0.3644
 9048SOL    HW238604   3.896   0.228   1.240  1.8733 -1.1089  0.1061
 9049SOL     OW38605   3.006   0.811   2.818  0.0985  0.2676  0.2672
 9049SOL    HW138606   3.072   0.741   2.823  0.1917  0.1978 -1.7107
 9049SOL    HW238607   2.938   0.760   2.774 -0.6125 -0.6487  2.4249
 9050SOL     OW38608   4.369   2.202  13.742 -0.1294 -0.5744 -0.2770
 9050SOL    HW138609   4.451   2.195  13.791  0.4155 -0.6056 -1.1981
 9050SOL    HW238610   4.376   2.141  13.669  1.8029 -0.1807 -0.4356
 9051SOL     OW38611   3.567   4.489  11.173  0.0817 -0.5814 -0.0953
 9051SOL    HW138612   3.631   4.512  11.105 -0.2079 -1.8955 -0.8050
 9051SOL    HW238613   3.491   4.457  11.125  0.9369  1.0792 -2.5485
 9052SOL     OW38614   1.503   2.747  15.154 -0.1786 -0.4023  0.3352
 9052SOL    HW138615   1.463   2.680  15.098  0.4505  1.1414 -2.0020
 9052SOL    HW238616   1.576   2.759  15.093  0.6370 -1.1747  1.1637
 9053SOL     OW38617   1.951   2.655   3.284  0.4684 -0.1200 -0.0258
 9053SOL    HW138618   1.944   2.654   3.188 -0.1069 -1.1494  0.0253
 9053SOL    HW238619   1.886   2.594   3.317  0.1133  0.3307  0.1045
 9054SOL     OW38620   4.026   3.169   3.765  0.1005  0.1257  0.0136
 9054SOL    HW138621   4.088   3.178   3.837 -2.2571  0.3612  2.0112
 9054SOL    HW238622   4.043   3.078   3.741  0.1120  0.9273 -2.9864
 9055SOL     OW38623   0.710   0.648   0.447 -0.1197  0.4570  0.0362
 9055SOL    HW138624   0.633   0.703   0.455 -0.2997  0.0413  1.3077
 9055SOL    HW238625   0.765   0.673   0.521 -1.4335  0.4877  1.0052
 9056SOL     OW38626   4.021   0.194   6.912  0.3212  0.8580  0.1407
 9056SOL    HW138627   4.002   0.220   7.002  1.2418 -0.6015  0.7547
 9056SOL    HW238628   4.114   0.212   6.924  0.0710  2.4587 -0.3463
 9057SOL     OW38629   0.561   0.994   7.846 -0.3987 -0.1954  0.0967
 9057SOL    HW138630   0.550   1.056   7.774 -3.4315  0.6632  1.3150
 9057SOL    HW238631   0.583   1.049   7.921 -2.0122  2.4144 -1.3389
 9058SOL     OW38632   1.048   1.470   4.544  0.2710 -0.6425  0.3800
 9058SOL    HW138633   0.999   1.400   4.500  0.3129 -1.8367  2.2317
 9058SOL    HW238634   0.995   1.545   4.517 -1.5724 -2.3438 -0.7430
 9059SOL     OW38635   3.466   2.826  17.369 -0.2832  0.0304 -1.1037
 9059SOL    HW138636   3.419   2.846  17.450 -1.1246  0.7207 -1.7535
 9059SOL    HW238637   3.465   2.913  17.328 -1.0871  0.1550 -0.8238
 9060SOL     OW38638   0.704   1.593  16.663  0.0199  0.3202  0.0753
 9060SOL    HW138639   0.648   1.653  16.613  0.0033  0.9164  0.8177
 9060SOL    HW238640   0.736   1.537  16.591 -0.4677 -1.5553  1.3016
 9061SOL     OW38641   1.746   0.832   2.273 -0.1968 -0.4047  0.2841
 9061SOL    HW138642   1.838   0.809   2.262  0.1248  0.6746  0.8059
 9061SOL    HW238643   1.758   0.926   2.279  0.7253 -0.5405  0.4449
 9062SOL     OW38644   3.938   2.152   4.464 -0.0508  0.0330  0.4597
 9062SOL    HW138645   3.924   2.247   4.464  0.9391  0.1825  0.0326
 9062SOL    HW238646   3.848   2.121   4.468 -0.3780  0.6706 -1.9082
 9063SOL     OW38647   2.301   0.470  16.270 -0.4822  0.2462 -0.0476
 9063SOL    HW138648   2.276   0.400  16.329  0.5063  0.0563  0.1505
 9063SOL    HW238649   2.396   0.481  16.274 -0.5519  0.6858  0.3464
 9064SOL     OW38650   1.977   1.321   5.899  0.0395  0.0549  0.0887
 9064SOL    HW138651   1.938   1.387   5.957 -0.6756 -0.9423  0.7375
 9064SOL    HW238652   2.055   1.367   5.867 -0.0857 -2.2923 -3.5054
 9065SOL     OW38653   4.621   4.673  13.097 -0.4761 -0.2576 -0.0210
 9065SOL    HW138654   4.542   4.688  13.150 -1.2797  4.1291 -2.4649
 9065SOL    HW238655   4.600   4.592  13.051 -0.2905  1.0282 -2.3463
 9066SOL     OW38656   1.523   0.432   4.563 -0.2799  0.0146  0.2412
 9066SOL    HW138657   1.595   0.391   4.610 -0.5050  0.8864  1.3519
 9066SOL    HW238658   1.504   0.374   4.490 -2.7001  0.8176  0.2087
 9067SOL     OW38659   1.415   3.341   2.688 -0.2313  0.2642 -0.2851
 9067SOL    HW138660   1.491   3.293   2.654  0.5591  1.2119  0.1364
 9067SOL    HW238661   1.378   3.280   2.752  2.5423  0.1194  1.1689
 9068SOL     OW38662   4.384   3.645   6.302  0.7058 -0.2484 -0.1095
 9068SOL    HW138663   4.469   3.688   6.292 -0.0787  1.3151 -0.1848
 9068SOL    HW238664   4.323   3.685   6.239 -2.3585 -0.5062  2.6809
 9069SOL     OW38665   0.457   3.216  14.974 -0.1335 -0.2293 -0.6095
 9069SOL    HW138666   0.415   3.278  14.914 -0.6973 -1.8846 -1.9289
 9069SOL    HW238667   0.533   3.193  14.921  0.3730  0.5586 -0.2097
 9070SOL     OW38668   3.556   1.375   7.532  0.0410  0.6606 -0.6065
 9070SOL    HW138669   3.611   1.421   7.469  1.9918 -1.0067 -0.1551
 9070SOL    HW238670   3.614   1.317   7.582  0.1560  0.2511 -1.2150
 9071SOL     OW38671   2.800   1.503   7.965  0.0677 -0.2729  0.7220
 9071SOL    HW138672   2.725   1.483   8.020 -1.1387  3.8365  0.5478
 9071SOL    HW238673   2.779   1.587   7.924 -0.3756 -1.5773 -1.7526
 9072SOL     OW38674   2.734   4.252   7.509 -0.2083 -0.3130 -0.0798
 9072SOL    HW138675   2.777   4.178   7.552 -3.2767 -1.0546  1.7059
 9072SOL    HW238676   2.764   4.238   7.420  0.8356  1.6431 -0.0475
 9073SOL     OW38677   2.272   1.151   7.607 -0.2012  0.0194 -0.3300
 9073SOL    HW138678   2.312   1.101   7.536  0.0899 -1.7619  1.1082
 9073SOL    HW238679   2.181   1.146   7.580  0.7160 -0.3551 -3.3581
 9074SOL     OW38680   2.256   3.639   7.534  0.0088 -0.0058 -0.0269
 9074SOL    HW138681   2.241   3.651   7.440  2.3891  2.1493 -0.1329
 9074SOL    HW238682   2.208   3.556   7.534 -3.4863  2.0554 -1.5092
 9075SOL     OW38683   0.378   1.597  14.170  0.6680  0.0649  0.2312
 9075SOL    HW138684   0.364   1.682  14.126 -0.0449  0.7424  1.7601
 9075SOL    HW238685   0.365   1.626  14.260 -1.6096 -2.1512  0.6169
 9076SOL     OW38686   2.762   4.107   4.468 -0.0762 -0.5234  0.3526
 9076SOL    HW138687   2.789   4.031   4.415  0.4211 -2.0874  2.8299
 9076SOL    HW238688   2.682   4.120   4.416 -0.5593 -3.1975  0.4260
 9077SOL     OW38689   3.432   4.345   5.421  0.7580 -0.0433  0.1526
 9077SOL    HW138690   3.442   4.436   5.394  0.1737 -0.3255 -1.0507
 9077SOL    HW238691   3.516   4.326   5.463  0.6945 -0.0326  0.2854
 9078SOL     OW38692   3.473   2.870   9.509 -0.6744  0.0490  0.1798
 9078SOL    HW138693   3.514   2.923   9.441 -1.6251 -0.2412 -0.6208
 9078SOL    HW238694   3.544   2.821   9.550 -0.0353  0.9981  0.2244
 9079SOL     OW38695   1.308   1.641   1.348  0.5518  0.1006  0.2129
 9079SOL    HW138696   1.260   1.711   1.305  1.4507  0.9841  0.6477
 9079SOL    HW238697   1.376   1.696   1.388 -0.5060  0.4627  1.5186
 9080SOL     OW38698   1.010   2.726   7.419 -0.2762  0.5646  0.0076
 9080SOL    HW138699   0.990   2.812   7.383 -0.7691 -0.2598 -1.6781
 9080SOL    HW238700   0.949   2.733   7.492 -3.2182  1.1597 -2.5067
 9081SOL     OW38701   0.854   4.417   5.470 -0.1685 -0.1297  0.0872
 9081SOL    HW138702   0.859   4.511   5.453  1.0649 -0.4795 -1.4791
 9081SOL    HW238703   0.876   4.420   5.563 -1.7417  0.7233  0.4395
 9082SOL     OW38704   2.411   4.686   4.871  0.1836  0.0644  0.0448
 9082SOL    HW138705   2.465   4.620   4.915 -0.9403 -1.1383 -0.3821
 9082SOL    HW238706   2.353   4.621   4.832  3.1718 -1.2390 -2.2985
 9083SOL     OW38707   2.402   1.337  16.874  0.5339 -0.0794  0.0038
 9083SOL    HW138708   2.406   1.254  16.826  0.9915  0.7077 -1.3168
 9083SOL    HW238709   2.330   1.382  16.831  2.1278 -0.1635 -2.7859
 9084SOL     OW38710   3.275   3.281   2.682  0.4163 -0.0143 -0.3240
 9084SOL    HW138711   3.263   3.356   2.625  2.0111 -0.6843 -1.5629
 9084SOL    HW238712   3.255   3.208   2.624  1.1586  1.4168 -2.3826
 9085SOL     OW38713   1.762   3.415  15.383 -0.4220 -0.5019 -0.2307
 9085SOL    HW138714   1.780   3.338  15.329 -1.7751 -2.1995  1.7397
 9085SOL    HW238715   1.821   3.409  15.458  0.6609  1.6235 -0.8965
 9086SOL     OW38716   4.345   1.786   0.236 -0.4018 -0.1064 -0.4401
 9086SOL    HW138717   4.439   1.782   0.252 -0.4793 -1.0460 -0.2550
 9086SOL    HW238718   4.319   1.798   0.327  0.5012 -1.2657 -0.0246
 9087SOL     OW38719   0.693   4.194   9.217 -0.4720  0.1221 -0.0825
 9087SOL    HW138720   0.679   4.143   9.297  0.9179  2.2100  1.5136
 9087SOL    HW238721   0.786   4.216   9.223 -0.8693  2.0742 -1.2499
 9088SOL     OW38722   1.435   4.712   6.969  0.6261  0.0833 -0.4861
 9088SOL    HW138723   1.479   0.066   7.001  0.8940 -0.6161  0.8777
 9088SOL    HW238724   1.344   0.009   6.989 -0.1950 -2.8804 -0.9956
 9089SOL     OW38725   4.083   1.856   3.148  0.1022  0.2198  0.2399
 9089SOL    HW138726   4.031   1.934   3.127  1.2633  0.9253 -0.0281
 9089SOL    HW238727   4.075   1.801   3.070 -1.0089  1.4601 -0.5350
 9090SOL     OW38728   3.807   3.667   7.352 -0.2104 -0.2173  0.0719
 9090SOL    HW138729   3.848   3.709   7.428  0.8590 -1.2952  0.0822
 9090SOL    HW238730   3.723   3.636   7.388  0.6414  0.4980  2.6833
 9091SOL     OW38731   3.988   0.566  12.185 -0.1750 -0.0412  0.0645
 9091SOL    HW138732   4.047   0.541  12.115 -0.5705 -0.1628 -0.2270
 9091SOL    HW238733   4.001   0.496  12.248  3.1188  0.5888  0.0687
 9092SOL     OW38734   2.525   2.332   4.858 -0.9338 -0.7347  0.2600
 9092SOL    HW138735   2.612   2.349   4.893 -1.3308  0.7235  0.5496
 9092SOL    HW238736   2.523   2.236   4.852  0.6063 -0.7846  0.5696
 9093SOL     OW38737   3.188   0.618   3.386  0.3778 -0.6485 -0.0133
 9093SOL    HW138738   3.201   0.528   3.355  1.0826 -0.3061 -0.7297
 9093SOL    HW238739   3.208   0.667   3.306 -0.7962 -2.0488 -1.1723
 9094SOL     OW38740   3.635   3.331   1.783  0.0338 -0.1590  0.0342
 9094SOL    HW138741   3.724   3.298   1.788 -0.3003 -1.0190  0.3472
 9094SOL    HW238742   3.614   3.298   1.696 -2.6215  1.9513 -0.1301
 9095SOL     OW38743   0.633   1.164   3.711 -0.4338 -0.0156 -0.3560
 9095SOL    HW138744   0.685   1.202   3.781 -1.6704 -1.7479  1.5134
 9095SOL    HW238745   0.696   1.095   3.689 -0.6171 -0.4154  0.3815
 9096SOL     OW38746   1.564   2.674  14.272 -0.4407 -0.6083 -0.1386
 9096SOL    HW138747   1.641   2.618  14.266 -0.8014 -1.2124  1.0052
 9096SOL    HW238748   1.606   2.760  14.271 -0.1317 -0.7657 -0.6664
 9097SOL     OW38749   0.908   4.031   7.439 -0.5071 -0.5917  0.5566
 9097SOL    HW138750   0.951   3.947   7.456 -0.5564 -0.6669  0.3148
 9097SOL    HW238751   0.819   4.002   7.423 -0.8509  1.8278 -1.9063
 9098SOL     OW38752   4.434   1.565   2.095 -0.4162 -0.0273 -0.0899
 9098SOL    HW138753   4.370   1.606   2.037  1.2409  0.9903 -1.2120
 9098SOL    HW238754   4.462   1.636   2.154  0.0330  0.9039 -1.4167
 9099SOL     OW38755   3.958   3.533   2.158 -0.0125 -0.2168 -0.1234
 9099SOL    HW138756   3.887   3.589   2.126 -1.1301 -0.3933  2.0092
 9099SOL    HW238757   4.032   3.594   2.162 -2.5972  2.9330  0.7243
 9100SOL     OW38758   0.037   0.855   6.199 -0.2731 -0.8161  0.1473
 9100SOL    HW138759   0.094   0.790   6.158  1.9461  1.4894 -0.4125
 9100SOL    HW238760   0.040   0.922   6.130 -1.7095 -0.2860  0.5898
 9101SOL     OW38761   3.042   1.462   2.794  0.4423 -0.1380 -0.1567
 9101SOL    HW138762   3.025   1.415   2.712  0.1992 -1.4830  0.6621
 9101SOL    HW238763   2.958   1.507   2.801  0.2700 -0.1504 -2.0590
 9102SOL     OW38764   3.791   0.364   5.400 -1.0611 -0.1298  0.2513
 9102SOL    HW138765   3.832   0.415   5.469  0.6802 -0.7661 -0.3248
 9102SOL    HW238766   3.864   0.321   5.355 -0.4892  0.6475  0.4371
 9103SOL     OW38767   2.232   4.190   4.085  0.2069  0.3277 -0.0870
 9103SOL    HW138768   2.156   4.158   4.036 -0.7410  1.4214  0.6867
 9103SOL    HW238769   2.264   4.261   4.030  2.0144  0.5781  1.2775
 9104SOL     OW38770   2.475   4.048   3.734  0.2039 -0.1824 -0.3643
 9104SOL    HW138771   2.512   4.135   3.716  1.2130 -0.4432  0.4091
 9104SOL    HW238772   2.471   4.051   3.829  0.8881  2.3638 -0.4020
 9105SOL     OW38773   3.630   0.237   8.967 -0.0454 -0.0853 -0.4669
 9105SOL    HW138774   3.721   0.229   8.994 -0.9330  0.0043  2.5467
 9105SOL    HW238775   3.623   0.158   8.913 -2.4954 -0.3569  0.2306
 9106SOL     OW38776   4.662   1.499   5.264  0.3086 -0.0688 -0.2056
 9106SOL    HW138777   4.627   1.583   5.236  0.2632  0.0773  0.2844
 9106SOL    HW238778   0.025   1.506   5.227  0.3741 -1.5592 -0.3236
 9107SOL     OW38779   1.721   4.000   3.079 -0.0262 -0.3280 -0.0402
 9107SOL    HW138780   1.691   4.090   3.072  0.0378 -0.2323  0.9513
 9107SOL    HW238781   1.814   4.023   3.071  0.0660 -1.2162 -1.5226
 9108SOL     OW38782   0.491   1.525   5.612  0.2554 -0.3450 -0.5144
 9108SOL    HW138783   0.554   1.588   5.647  0.9851 -2.3205  1.6574
 9108SOL    HW238784   0.551   1.450   5.612 -0.4506 -0.9216 -1.7983
 9109SOL     OW38785   4.061   2.774   4.429 -0.8357 -0.0394 -0.3434
 9109SOL    HW138786   4.090   2.692   4.388 -2.2651 -0.1080 -1.2204
 9109SOL    HW238787   4.034   2.834   4.360  1.4272 -0.3322 -1.4867
 9110SOL     OW38788   4.678   1.931   8.229 -0.2965  0.5197 -0.5536
 9110SOL    HW138789   4.682   1.992   8.303 -0.3472 -0.8471  0.5681
 9110SOL    HW238790   4.598   1.881   8.246 -1.2195  2.1206 -0.2401
 9111SOL     OW38791   4.254   3.081   5.678 -0.0566  0.3505  0.1450
 9111SOL    HW138792   4.269   2.987   5.668 -0.8227  0.3295 -0.7597
 9111SOL    HW238793   4.338   3.124   5.693  0.2170 -0.2745  0.4111
 9112SOL     OW38794   3.410   3.406   6.150  0.0958 -0.0748 -0.2083
 9112SOL    HW138795   3.362   3.324   6.137  1.2303 -0.9150  0.8180
 9112SOL    HW238796   3.347   3.476   6.136 -0.0038  0.1356  1.2823
 9113SOL     OW38797   2.161   2.737  10.404  0.0955 -0.2306  0.0974
 9113SOL    HW138798   2.091   2.797  10.376  0.9059  1.1646  1.0829
 9113SOL    HW238799   2.149   2.655  10.357  0.6744  1.2110 -2.5649
 9114SOL     OW38800   0.624   1.498  10.889 -0.2275 -0.0177 -0.1978
 9114SOL    HW138801   0.538   1.526  10.858 -0.6178 -1.1585 -0.1454
 9114SOL    HW238802   0.612   1.535  10.977  4.7650  2.9464 -0.7440
 9115SOL     OW38803   1.428   4.595   3.487 -0.0441 -0.4229  0.7563
 9115SOL    HW138804   1.426   4.565   3.577 -1.5512 -0.2963  0.7558
 9115SOL    HW238805   1.511   4.558   3.457 -1.4603 -3.0710  0.1176
 9116SOL     OW38806   0.958   3.933  16.708  0.1567  0.3645 -0.1151
 9116SOL    HW138807   0.964   3.839  16.690 -1.0521  0.0787  0.9883
 9116SOL    HW238808   0.985   3.982  16.630 -0.5876  1.0511  0.0537
 9117SOL     OW38809   4.441   1.048   0.478  0.4310 -0.3991 -0.0031
 9117SOL    HW138810   4.434   1.099   0.559  0.8915 -0.4734  0.0836
 9117SOL    HW238811   4.419   1.109   0.408  1.5271  0.8926  0.7883
 9118SOL     OW38812   1.647   1.066  12.749 -0.5357 -0.2042  0.8862
 9118SOL    HW138813   1.703   1.114  12.810  3.1844 -1.7773 -1.3292
 9118SOL    HW238814   1.678   0.976  12.755  0.3777  0.1983  2.1322
 9119SOL     OW38815   3.656   2.097   7.586 -0.4476  0.0179  0.0028
 9119SOL    HW138816   3.670   2.160   7.515 -0.7472  0.9079  0.7298
 9119SOL    HW238817   3.584   2.047   7.549 -0.0195 -0.4140 -0.2479
 9120SOL     OW38818   1.017   0.783  11.936  0.2932 -0.8961 -0.1690
 9120SOL    HW138819   1.022   0.708  11.996 -0.6093 -1.2238 -0.4988
 9120SOL    HW238820   1.028   0.850  12.003  0.4956 -0.6773 -0.4251
 9121SOL     OW38821   2.890   0.071  10.756 -0.2242  0.1080 -0.0380
 9121SOL    HW138822   2.914   0.087  10.665 -0.6783  1.0733  0.0081
 9121SOL    HW238823   2.801   0.040  10.741  1.6189 -5.6251  0.9624
 9122SOL     OW38824   1.992   1.296   4.542  0.6605  0.0206  0.4386
 9122SOL    HW138825   1.982   1.379   4.496 -0.6701 -0.0749  0.5594
 9122SOL    HW238826   2.079   1.275   4.506 -0.0756  1.3899 -2.1136
 9123SOL     OW38827   4.398   0.776   6.752  0.2064 -0.2991  0.3897
 9123SOL    HW138828   4.355   0.755   6.669  0.6897 -2.1415  0.5965
 9123SOL    HW238829   4.342   0.726   6.812 -0.5094  0.9736  0.7878
 9124SOL     OW38830   2.940   0.729   9.810  0.2387  0.4543  0.2232
 9124SOL    HW138831   3.030   0.720   9.776  0.0614 -0.8397  0.0963
 9124SOL    HW238832   2.936   0.660   9.877  0.7981 -1.2830 -1.5262
 9125SOL     OW38833   1.849   2.443   8.527 -0.2257 -0.2013  0.1485
 9125SOL    HW138834   1.769   2.404   8.560 -1.3534  0.8348 -1.3834
 9125SOL    HW238835   1.831   2.535   8.546 -0.2815 -0.4966  1.5319
 9126SOL     OW38836   3.692   3.973   2.455 -0.5246  0.1092  0.2075
 9126SOL    HW138837   3.648   3.927   2.384 -0.1552 -2.9117  1.9226
 9126SOL    HW238838   3.738   3.904   2.502 -2.2985 -0.0869  1.6486
 9127SOL     OW38839   2.316   3.564  10.733  0.2982  0.3940  0.3360
 9127SOL    HW138840   2.356   3.485  10.767  1.3013 -0.1929 -2.2848
 9127SOL    HW238841   2.230   3.550  10.772 -0.1311  1.8175 -0.0691
 9128SOL     OW38842   0.481   3.808   0.304 -0.0335  0.5643 -0.3611
 9128SOL    HW138843   0.561   3.861   0.299  0.2942 -0.0095 -1.1512
 9128SOL    HW238844   0.436   3.870   0.361  1.0770  0.0065  1.1153
 9129SOL     OW38845   2.570   2.520   3.033  0.3776 -0.5709 -0.0444
 9129SOL    HW138846   2.532   2.606   3.053 -0.8114 -1.2910  0.8012
 9129SOL    HW238847   2.536   2.491   2.949  1.6589  1.9667 -1.4453
 9130SOL     OW38848   0.733   3.671  12.578  0.1239 -0.1273  0.3917
 9130SOL    HW138849   0.708   3.759  12.548  1.2955 -0.2670 -1.0269
 9130SOL    HW238850   0.820   3.691  12.613  1.1489  0.6537 -2.6136
 9131SOL     OW38851   1.541   3.142  10.080  0.0473 -0.1881 -0.8009
 9131SOL    HW138852   1.599   3.092  10.024 -0.2348  0.8686 -2.0395
 9131SOL    HW238853   1.482   3.175  10.012 -0.8079 -0.3989 -0.1711
 9132SOL     OW38854   4.101   0.018   1.842 -0.1831  0.4723 -0.4536
 9132SOL    HW138855   4.073   0.078   1.911 -1.6781 -0.1789 -0.4806
 9132SOL    HW238856   4.143   0.067   1.771  1.1621  0.8159  0.5909
 9133SOL     OW38857   1.485   3.330   3.564 -0.0183  0.4056  0.4449
 9133SOL    HW138858   1.530   3.296   3.486 -1.4571  1.1501 -0.7251
 9133SOL    HW238859   1.467   3.415   3.523 -0.4492  0.4023  0.6321
 9134SOL     OW38860   1.134   1.429   5.886 -0.1591 -0.3385  0.3015
 9134SOL    HW138861   1.128   1.472   5.800 -1.1012  0.1902  0.6338
 9134SOL    HW238862   1.045   1.452   5.915 -0.7989 -1.8064 -0.5345
 9135SOL     OW38863   4.324   3.978   9.546  0.0046 -0.0364 -0.6178
 9135SOL    HW138864   4.344   3.987   9.453  1.3110  0.4304 -0.2821
 9135SOL    HW238865   4.355   3.888   9.556  1.6442  0.4256 -1.5920
 9136SOL     OW38866   4.706   2.749   2.444 -0.7655  0.2207  0.0534
 9136SOL    HW138867   4.635   2.695   2.409  0.4819  0.0896 -2.2779
 9136SOL    HW238868   4.667   2.784   2.523 -1.2317 -1.1520  0.4366
 9137SOL     OW38869   1.845   1.595   6.819 -0.5346 -0.2369 -0.1979
 9137SOL    HW138870   1.919   1.630   6.769 -2.6184 -0.4710 -3.4476
 9137SOL    HW238871   1.799   1.539   6.756 -0.0363 -0.2244 -0.5761
 9138SOL     OW38872   0.837   1.256  11.460 -0.7636  0.3005 -0.5958
 9138SOL    HW138873   0.806   1.285  11.374 -0.2438 -1.9541 -1.5255
 9138SOL    HW238874   0.912   1.205  11.430 -0.0911  0.6775  0.4388
 9139SOL     OW38875   4.069   0.261   3.092  0.1911  0.4996  0.0517
 9139SOL    HW138876   4.132   0.266   3.021 -0.3705  2.2207 -0.3188
 9139SOL    HW238877   4.090   0.178   3.134 -0.7672  0.6601  0.8533
 9140SOL     OW38878   1.853   3.430  16.565 -0.0423 -0.0561 -0.4046
 9140SOL    HW138879   1.818   3.355  16.614  0.3115  0.0470  0.0021
 9140SOL    HW238880   1.901   3.381  16.498  0.2134 -1.6219  0.9019
 9141SOL     OW38881   2.396   2.890   8.380  0.0956 -0.1066  0.3810
 9141SOL    HW138882   2.371   2.870   8.290 -0.7274 -2.6892  1.1712
 9141SOL    HW238883   2.442   2.972   8.366  0.2230 -0.1139  0.7777
 9142SOL     OW38884   2.202   1.108  11.825  0.0151 -0.7042 -0.4937
 9142SOL    HW138885   2.246   1.171  11.882 -1.4520 -0.2761  0.1751
 9142SOL    HW238886   2.225   1.018  11.848 -0.0753 -0.7077 -0.4140
 9143SOL     OW38887   0.567   3.993   3.582 -0.2022 -0.6397  0.6148
 9143SOL    HW138888   0.608   4.054   3.644 -0.8563  1.3002 -0.8584
 9143SOL    HW238889   0.486   3.978   3.630 -1.6062  0.1482 -1.4914
 9144SOL     OW38890   2.708   2.501   9.041 -0.0334  0.0931  0.1622
 9144SOL    HW138891   2.707   2.555   9.120 -0.4340  0.2905  0.0226
 9144SOL    HW238892   2.793   2.458   9.047 -0.7751 -1.5042 -0.6849
 9145SOL     OW38893   3.696   2.616   7.469 -0.2991 -0.1925  0.2393
 9145SOL    HW138894   3.653   2.667   7.401 -1.8948 -0.4268  1.0875
 9145SOL    HW238895   3.785   2.651   7.464  0.0161 -1.0797 -0.4992
 9146SOL     OW38896   4.589   0.464   7.363  0.3576 -0.0146 -0.6944
 9146SOL    HW138897   4.678   0.430   7.371 -0.3712 -1.4123  1.4886
 9146SOL    HW238898   4.551   0.442   7.448 -1.1289 -0.5495 -1.4880
 9147SOL     OW38899   3.324   4.603   7.577  0.3455  0.3304 -0.3226
 9147SOL    HW138900   3.288   4.531   7.526 -2.0719  1.1276  0.2380
 9147SOL    HW238901   3.248   4.660   7.589  0.4313  0.2705  0.5589
 9148SOL     OW38902   3.406   0.050   4.146 -0.1918 -0.0033 -0.1116
 9148SOL    HW138903   3.492   0.013   4.126 -1.3325 -2.4343 -0.5759
 9148SOL    HW238904   3.418   0.137   4.110  1.4606 -0.5748 -0.9729
 9149SOL     OW38905   4.684   0.378  12.910  0.1683 -0.0736 -0.2126
 9149SOL    HW138906   4.652   0.294  12.876 -2.2410  0.7802 -0.0859
 9149SOL    HW238907   4.672   0.440  12.838  2.3992  2.3691  1.5430
 9150SOL     OW38908   3.993   3.036  15.515 -0.3429  0.0650  0.4774
 9150SOL    HW138909   4.012   2.954  15.562 -1.1710 -0.7257 -0.5669
 9150SOL    HW238910   3.975   3.010  15.425  0.3303 -0.0705  0.3879
 9151SOL     OW38911   3.281   3.567   7.157 -0.1723 -0.5490  0.5448
 9151SOL    HW138912   3.208   3.627   7.170 -0.5143 -0.5449 -1.3004
 9151SOL    HW238913   3.351   3.631   7.153  0.7872 -1.6388 -0.1343
 9152SOL     OW38914   3.766   1.272   3.554 -0.4010 -0.1389  0.2556
 9152SOL    HW138915   3.811   1.247   3.473  0.9299 -1.6780  1.4773
 9152SOL    HW238916   3.703   1.336   3.522  1.1757  2.4009  2.2521
 9153SOL     OW38917   0.189   4.531   5.393 -0.4530  0.0552 -0.0437
 9153SOL    HW138918   0.220   4.604   5.447 -0.8014  1.3800 -1.6330
 9153SOL    HW238919   0.135   4.586   5.337  0.2607  1.4797  0.6589
 9154SOL     OW38920   3.677   1.318   3.071  0.4036 -0.2872 -0.2164
 9154SOL    HW138921   3.600   1.267   3.047  0.3296 -0.1305 -0.3110
 9154SOL    HW238922   3.641   1.403   3.096 -2.4283 -0.8681 -2.3263
 9155SOL     OW38923   1.766   4.316   6.792 -0.0318  0.3099  1.0467
 9155SOL    HW138924   1.694   4.291   6.734  1.4781  0.7706 -0.9999
 9155SOL    HW238925   1.721   4.342   6.873 -2.2689  0.1549 -0.1518
 9156SOL     OW38926   1.642   4.654  12.154 -0.3359 -0.3298 -0.6815
 9156SOL    HW138927   1.567   4.614  12.198  1.0453 -0.5321  1.4995
 9156SOL    HW238928   1.718   4.629  12.207 -1.3180 -0.6986  0.5336
 9157SOL     OW38929   3.202   4.642   8.923  0.1151 -0.0106 -0.2884
 9157SOL    HW138930   3.277   4.684   8.881  0.5030  0.7321  1.1251
 9157SOL    HW238931   3.124   4.681   8.884  0.5771  1.5859  0.3747
 9158SOL     OW38932   3.650   1.174   8.875  0.2710 -0.1020 -0.1105
 9158SOL    HW138933   3.665   1.083   8.849 -1.0935 -0.2579 -0.3212
 9158SOL    HW238934   3.707   1.192   8.950  2.3970 -0.8951 -1.5504
 9159SOL     OW38935   0.170   0.956   6.762 -0.0453 -0.3921  0.2073
 9159SOL    HW138936   0.141   1.045   6.780 -0.0279 -0.4766  0.6544
 9159SOL    HW238937   0.153   0.947   6.668  2.6382  0.0250 -0.3018
 9160SOL     OW38938   1.847   0.793   6.230 -0.2481  0.1485  0.1301
 9160SOL    HW138939   1.829   0.705   6.263  1.9411 -0.3658 -0.0705
 9160SOL    HW238940   1.770   0.846   6.250  1.4504  2.2839  0.9569
 9161SOL     OW38941   2.696   4.549  14.679 -0.0186 -1.1027  0.2038
 9161SOL    HW138942   2.611   4.590  14.663  0.8070  0.3057 -0.6310
 9161SOL    HW238943   2.764   4.613  14.653  0.4434 -1.5157  0.3960
 9162SOL     OW38944   0.848   2.474   8.191 -0.1483  0.4431 -0.2316
 9162SOL    HW138945   0.940   2.454   8.178 -0.1869  0.0148  0.1421
 9162SOL    HW238946   0.808   2.407   8.136  1.2749 -0.1784 -0.5042
 9163SOL     OW38947   1.903   1.101   6.660  0.4198 -0.0169  0.3154
 9163SOL    HW138948   1.945   1.019   6.689  1.5282  0.2018 -0.6596
 9163SOL    HW238949   1.977   1.156   6.685 -2.5465  3.4405  1.5248
 9164SOL     OW38950   1.829   1.217   8.754 -0.1328 -0.0739  0.4367
 9164SOL    HW138951   1.827   1.269   8.674 -2.0944 -2.0379 -0.7736
 9164SOL    HW238952   1.766   1.149   8.729 -0.1591  0.7758 -1.7547
 9165SOL     OW38953   2.770   0.018   7.217  0.7795  0.4645  0.2718
 9165SOL    HW138954   2.803   0.020   7.127 -1.0641 -1.9701 -0.4566
 9165SOL    HW238955   2.738   4.652   7.212  0.8382  0.4475  0.1850
 9166SOL     OW38956   3.772   0.452   2.779 -0.0684  0.3467 -0.6008
 9166SOL    HW138957   3.827   0.386   2.821  2.2538  3.0603  0.6169
 9166SOL    HW238958   3.769   0.419   2.690 -3.3306 -1.8419  0.3263
 9167SOL     OW38959   0.900   3.924   2.446 -0.1970 -0.1132  0.3809
 9167SOL    HW138960   0.945   3.918   2.531  1.1322 -2.7831 -0.5144
 9167SOL    HW238961   0.811   3.889   2.454  0.0203 -0.8905 -0.6709
 9168SOL     OW38962   2.401   3.996   8.125  0.5116 -0.6043  0.6141
 9168SOL    HW138963   2.366   4.075   8.084  1.9411 -0.8547 -1.0689
 9168SOL    HW238964   2.489   4.028   8.144  0.7337  0.3724 -2.1605
 9169SOL     OW38965   2.473   1.572  17.455 -0.5837  0.2375  0.0123
 9169SOL    HW138966   2.402   1.590  17.516  0.0342  0.0878  0.7862
 9169SOL    HW238967   2.488   1.478  17.466  2.3567  0.8915  1.6700
 9170SOL     OW38968   1.452   1.086  14.387  0.0476 -0.2814 -0.0904
 9170SOL    HW138969   1.359   1.081  14.410  0.8013  0.1025  2.9548
 9170SOL    HW238970   1.475   1.027  14.314 -2.2234 -1.0463 -0.1859
 9171SOL     OW38971   4.531   1.735   3.571 -0.1067 -0.1659 -0.0734
 9171SOL    HW138972   4.494   1.744   3.659 -1.1503 -0.4804 -0.4775
 9171SOL    HW238973   4.605   1.676   3.582 -2.2378 -2.6264  1.0898
 9172SOL     OW38974   2.856   2.854  10.578 -0.4198 -0.2072 -0.6067
 9172SOL    HW138975   2.927   2.903  10.620  0.2214  0.2666 -2.2238
 9172SOL    HW238976   2.790   2.858  10.647  1.1889  1.5907  0.8063
 9173SOL     OW38977   3.284   2.256   9.116  0.2584 -0.2434 -0.2004
 9173SOL    HW138978   3.357   2.311   9.090  1.0429 -1.6920 -1.0636
 9173SOL    HW238979   3.329   2.173   9.136 -2.7014 -1.7423  0.1773
 9174SOL     OW38980   2.920   0.534   0.004 -0.4119 -0.1398  0.0461
 9174SOL    HW138981   2.975   0.609   0.028 -2.1020  0.8593  0.7592
 9174SOL    HW238982   2.962   0.455   0.038 -1.8525 -1.1181 -0.4551
 9175SOL     OW38983   3.726   0.120  12.080 -0.0666 -0.2262 -0.4426
 9175SOL    HW138984   3.763   0.034  12.097  1.3298  0.3725 -0.4508
 9175SOL    HW238985   3.727   0.111  11.985 -0.7042 -1.6151 -0.3119
 9176SOL     OW38986   1.556   3.258   8.809 -0.1460  0.1462  0.1280
 9176SOL    HW138987   1.592   3.170   8.812 -2.6014 -0.9073 -1.1726
 9176SOL    HW238988   1.467   3.229   8.832  0.7373 -2.2147  0.4956
 9177SOL     OW38989   0.488   2.345  15.582  0.0801 -0.4240  0.4334
 9177SOL    HW138990   0.479   2.437  15.557 -1.3678 -0.5356  0.5375
 9177SOL    HW238991   0.400   2.334  15.618 -0.3375 -0.6061 -0.6492
 9178SOL     OW38992   2.035   3.876   5.757  0.4379  0.2675  0.1452
 9178SOL    HW138993   2.088   3.948   5.792  0.4842  0.3742 -0.1389
 9178SOL    HW238994   1.945   3.909   5.758  0.2040 -0.5566  3.1751
 9179SOL     OW38995   1.546   0.921   6.867  0.1778  0.1046 -0.9358
 9179SOL    HW138996   1.576   0.887   6.951 -0.7108 -2.3410 -1.6165
 9179SOL    HW238997   1.450   0.910   6.868  0.4176 -1.7025  0.9960
 9180SOL     OW38998   1.324   4.555   7.474  0.4309  0.4481  0.0419
 9180SOL    HW138999   1.395   4.609   7.441  0.8610  1.3336  2.4611
 9180SOL    HW239000   1.250   4.592   7.424 -0.8683  0.1576  1.7465
 9181SOL     OW39001   2.102   1.077   5.310  0.4150 -0.2886  0.6008
 9181SOL    HW139002   2.028   1.025   5.342  0.8548 -0.8256  0.7583
 9181SOL    HW239003   2.136   1.107   5.394 -1.7616 -0.5989  1.5986
 9182SOL     OW39004   2.464   0.811   4.437  0.5097  0.1083  0.5328
 9182SOL    HW139005   2.386   0.769   4.400  0.9014 -0.0738 -0.0842
 9182SOL    HW239006   2.522   0.735   4.439 -0.7401 -0.8971 -1.2961
 9183SOL     OW39007   1.585   0.696   7.674 -0.0931  0.7618  0.4292
 9183SOL    HW139008   1.490   0.707   7.675 -0.2687 -0.9596  1.4617
 9183SOL    HW239009   1.618   0.724   7.760  0.9688 -0.3498  0.3855
 9184SOL     OW39010   0.658   2.105  10.726  0.3424 -0.0817  0.2883
 9184SOL    HW139011   0.640   2.011  10.723  0.7570 -0.1969  1.2639
 9184SOL    HW239012   0.745   2.113  10.687  0.0635  0.4594 -0.2180
 9185SOL     OW39013   2.861   1.140   3.545  0.0080 -0.0470 -0.4465
 9185SOL    HW139014   2.936   1.115   3.492  2.0715  1.0836  1.9563
 9185SOL    HW239015   2.789   1.112   3.489 -0.2399 -0.8338  0.2650
 9186SOL     OW39016   0.489   1.082   8.989  0.0501  0.1632 -0.7713
 9186SOL    HW139017   0.488   1.070   8.894  0.5878  1.8208 -0.9870
 9186SOL    HW239018   0.486   1.178   8.992  1.8622  0.1411  1.6895
 9187SOL     OW39019   0.140   3.608   6.490  0.5149  0.1787 -0.0714
 9187SOL    HW139020   0.216   3.609   6.547  2.0019 -1.9628 -2.0130
 9187SOL    HW239021   0.160   3.531   6.436  0.6495 -0.0461  0.2985
 9188SOL     OW39022   4.435   1.326   8.386 -0.8203 -0.4729 -0.4016
 9188SOL    HW139023   4.393   1.411   8.403  0.7737  0.1357  0.5339
 9188SOL    HW239024   4.491   1.354   8.313 -0.4579 -1.5351 -0.5197
 9189SOL     OW39025   2.377   1.671   3.796  0.6120  0.0477 -0.0001
 9189SOL    HW139026   2.353   1.589   3.839 -0.7106  1.8723  2.7534
 9189SOL    HW239027   2.388   1.720   3.878  0.5411  4.0171 -2.3754
 9190SOL     OW39028   2.748   3.359   8.730  0.0252 -0.5488  0.3853
 9190SOL    HW139029   2.763   3.453   8.718 -0.7093 -0.5221 -0.3243
 9190SOL    HW239030   2.794   3.344   8.812 -0.3943 -0.5986  0.6097
 9191SOL     OW39031   0.492   3.980   7.073 -0.1629 -0.2964  0.6989
 9191SOL    HW139032   0.448   3.904   7.035 -0.7277  1.0742 -1.3713
 9191SOL    HW239033   0.551   4.002   7.001 -2.1333 -1.5775 -1.2861
 9192SOL     OW39034   1.509   3.056  11.102  0.1356  0.1518  0.0436
 9192SOL    HW139035   1.415   3.036  11.106  0.1803  0.2892  1.8309
 9192SOL    HW239036   1.531   3.023  11.189 -1.0191  1.9690  1.0187
 9193SOL     OW39037   1.047   2.670   7.705 -0.8966 -0.5447  0.5837
 9193SOL    HW139038   1.098   2.678   7.785 -0.6050  1.2519  0.2226
 9193SOL    HW239039   0.960   2.657   7.743 -0.6633 -1.6157  0.7391
 9194SOL     OW39040   0.860   2.330   5.747 -0.1189 -0.1780 -1.0897
 9194SOL    HW139041   0.799   2.355   5.678 -0.4228 -1.4827 -1.2945
 9194SOL    HW239042   0.923   2.269   5.708  1.5757  1.1362 -0.3911
 9195SOL     OW39043   2.493   3.806  12.491  0.6128  0.1629  0.3178
 9195SOL    HW139044   2.434   3.851  12.551  2.3246  0.6135  1.6901
 9195SOL    HW239045   2.560   3.875  12.486  0.8164  0.2100  3.5795
 9196SOL     OW39046   1.818   3.594   6.814  0.0659 -0.4272 -0.0442
 9196SOL    HW139047   1.851   3.537   6.745 -1.4017  0.2250 -1.2869
 9196SOL    HW239048   1.882   3.665   6.825 -0.7306  0.4588 -1.0344
 9197SOL     OW39049   4.543   0.223   8.510  0.3113 -0.6199 -0.4343
 9197SOL    HW139050   4.546   0.319   8.514 -1.2820 -0.6846  2.5994
 9197SOL    HW239051   4.529   0.212   8.416 -0.5081 -2.6641 -0.0760
 9198SOL     OW39052   4.472   2.064   0.561 -0.2068  0.4486  0.4282
 9198SOL    HW139053   4.448   2.124   0.632  2.3411  2.0513 -0.0705
 9198SOL    HW239054   4.465   2.129   0.492 -1.7346 -1.9568 -1.6822
 9199SOL     OW39055   3.474   2.388   5.145  0.1475  0.1809 -0.0797
 9199SOL    HW139056   3.491   2.427   5.060 -0.3356 -1.8236 -1.0943
 9199SOL    HW239057   3.563   2.403   5.175 -0.7147  1.6765  1.7353
 9200SOL     OW39058   1.259   2.859   7.597  0.1116  0.4780 -0.2775
 9200SOL    HW139059   1.333   2.809   7.562  0.5368  0.9638 -0.0738
 9200SOL    HW239060   1.193   2.794   7.622  0.4773  0.5160  0.7766
 9201SOL     OW39061   0.408   0.317   6.354 -0.1477 -0.3135 -0.2255
 9201SOL    HW139062   0.500   0.298   6.333 -0.1196 -0.4117 -0.0171
 9201SOL    HW239063   0.415   0.409   6.380 -0.2173 -0.7220  1.2395
 9202SOL     OW39064   4.255   0.603  10.823  0.7094 -0.0389 -0.1236
 9202SOL    HW139065   4.190   0.549  10.778 -1.9364  3.0956 -0.0674
 9202SOL    HW239066   4.220   0.692  10.814 -2.5232 -1.2024  0.9682
 9203SOL     OW39067   2.235   4.521   5.937 -0.1729 -0.1755  0.1111
 9203SOL    HW139068   2.226   4.615   5.953 -1.3448 -0.0717 -1.0950
 9203SOL    HW239069   2.303   4.520   5.870  1.0534 -0.4595  1.3712
 9204SOL     OW39070   3.101   4.310  13.653  0.0754 -0.2889  0.1833
 9204SOL    HW139071   3.157   4.358  13.592 -0.8058  1.7196  0.9520
 9204SOL    HW239072   3.030   4.373  13.667  1.2815  1.1590 -0.1650
 9205SOL     OW39073   0.049   1.962   8.881  0.5610 -0.4233 -0.1770
 9205SOL    HW139074   0.092   1.938   8.964  0.1239 -1.8894 -0.3755
 9205SOL    HW239075   0.117   2.023   8.854  0.0102 -0.4041 -1.4764
 9206SOL     OW39076   2.223   1.623   2.905  0.8849 -0.2235  0.7756
 9206SOL    HW139077   2.238   1.717   2.903  0.5958 -0.1515  2.1874
 9206SOL    HW239078   2.299   1.595   2.956  1.2497  0.9022  0.8550
 9207SOL     OW39079   1.703   3.300   9.205 -0.5185  0.1312  0.4650
 9207SOL    HW139080   1.767   3.238   9.169  0.3295  2.6389 -2.3635
 9207SOL    HW239081   1.624   3.247   9.199 -1.1138  1.2654 -1.4785
 9208SOL     OW39082   3.658   2.873   4.565  0.3498  0.1118 -0.3475
 9208SOL    HW139083   3.726   2.833   4.619  0.2625  0.0137 -0.3100
 9208SOL    HW239084   3.693   2.956   4.534  1.6715 -0.0059  0.8782
 9209SOL     OW39085   2.626   4.210  15.553 -0.2084 -0.2300  0.2559
 9209SOL    HW139086   2.603   4.263  15.630  1.5195 -0.1934  0.7683
 9209SOL    HW239087   2.543   4.224  15.508 -0.2335  0.2181  0.4366
 9210SOL     OW39088   2.029   2.530   7.221 -0.1654 -0.3994 -0.2910
 9210SOL    HW139089   1.993   2.608   7.262  3.2083 -0.5818  3.0039
 9210SOL    HW239090   1.982   2.457   7.261  1.1572 -0.3677  1.2874
 9211SOL     OW39091   4.605   2.336  12.497  0.3710  0.0581  0.1705
 9211SOL    HW139092   4.697   2.310  12.508  0.1118 -1.2045 -0.5981
 9211SOL    HW239093   4.572   2.332  12.586  0.1773  0.9834  0.1365
 9212SOL     OW39094   4.018   2.919   2.478 -0.1328 -0.4489  0.5520
 9212SOL    HW139095   4.001   2.912   2.572 -1.2319 -2.5312  0.1920
 9212SOL    HW239096   4.005   3.013   2.464  0.5563 -0.3288  0.7414
 9213SOL     OW39097   3.987   2.807   3.749  0.6819 -0.0791  0.2853
 9213SOL    HW139098   3.963   2.803   3.842 -0.5858 -0.6718 -0.0673
 9213SOL    HW239099   3.907   2.816   3.697 -0.4451  1.7141  2.2951
 9214SOL     OW39100   0.723   3.070   5.074 -0.7690 -0.0546  0.3411
 9214SOL    HW139101   0.700   3.162   5.062  0.4359 -0.0006 -1.5386
 9214SOL    HW239102   0.735   3.067   5.169  1.2369  2.9868  0.1920
 9215SOL     OW39103   1.362   1.120  13.669  0.4473  0.4615  0.2543
 9215SOL    HW139104   1.269   1.100  13.658 -0.0828  2.2675  1.3606
 9215SOL    HW239105   1.373   1.127  13.764  1.4973 -0.4998  0.1931
 9216SOL     OW39106   2.486   4.247   8.573 -0.2128 -0.3971 -0.0101
 9216SOL    HW139107   2.560   4.234   8.633  0.4695 -2.6374 -1.3605
 9216SOL    HW239108   2.500   4.339   8.550 -1.5361 -0.7952 -2.4491
 9217SOL     OW39109   0.868   4.213  10.490 -0.3589  0.2815 -0.1129
 9217SOL    HW139110   0.851   4.121  10.512 -1.5921  0.7806  1.0112
 9217SOL    HW239111   0.932   4.191  10.423  0.2914 -1.8382  1.2126
 9218SOL     OW39112   0.886   2.508  16.621  0.3049  0.2388 -0.1582
 9218SOL    HW139113   0.881   2.426  16.670 -1.5287  0.3864 -0.1084
 9218SOL    HW239114   0.971   2.496  16.579 -0.0689  1.1363 -1.1675
 9219SOL     OW39115   1.314   1.082   6.295  1.1284 -0.1518  0.1233
 9219SOL    HW139116   1.323   1.159   6.239  0.3746 -0.9522 -1.1121
 9219SOL    HW239117   1.393   1.087   6.349  0.9621  1.5276  0.2098
 9220SOL     OW39118   2.638   3.660   8.326 -0.3815  0.5943 -0.3760
 9220SOL    HW139119   2.586   3.691   8.252 -1.2043  0.9215  0.3302
 9220SOL    HW239120   2.722   3.699   8.303  0.6565 -1.5700 -0.3102
 9221SOL     OW39121   2.799   4.200   5.762 -0.1091  0.0147  0.0295
 9221SOL    HW139122   2.828   4.170   5.676 -2.3883 -0.6075 -0.4953
 9221SOL    HW239123   2.774   4.289   5.737 -0.4242 -0.0927 -0.0359
 9222SOL     OW39124   3.898   0.958   3.593  0.4253  0.2536 -0.3992
 9222SOL    HW139125   3.945   0.943   3.511 -1.6346 -1.5122 -1.2880
 9222SOL    HW239126   3.922   0.881   3.645  0.1694  0.1093 -0.4934
 9223SOL     OW39127   4.154   1.932   3.549  0.2812  0.1385  0.0780
 9223SOL    HW139128   4.216   1.910   3.479 -1.3255  2.0428 -1.9346
 9223SOL    HW239129   4.205   1.940   3.630  2.6879  0.3678 -1.4644
 9224SOL     OW39130   2.518   1.301  17.504  0.1052  0.1818 -0.5907
 9224SOL    HW139131   2.595   1.288  17.559  0.3815  1.1963 -0.7448
 9224SOL    HW239132   2.545   1.272  17.417  1.8835  1.0429 -0.3330
 9225SOL     OW39133   4.533   0.569   2.009  0.0995 -0.0531  0.2568
 9225SOL    HW139134   4.549   0.662   2.025 -1.9258  0.8255 -2.7784
 9225SOL    HW239135   4.448   0.568   1.964  0.4380  0.0729 -0.3953
 9226SOL     OW39136   2.761   1.972   5.162 -0.2514  0.0134  0.6212
 9226SOL    HW139137   2.852   1.979   5.134 -0.8724  0.2977 -1.2876
 9226SOL    HW239138   2.726   2.053   5.124 -2.6537 -2.3168 -2.0803
 9227SOL     OW39139   1.099   3.540  11.963 -0.2336 -0.4439  0.3523
 9227SOL    HW139140   1.023   3.482  11.961 -0.9854  0.5714 -0.3334
 9227SOL    HW239141   1.108   3.552  11.869  1.5901  2.3429  0.8937
 9228SOL     OW39142   2.214   2.703   6.678  0.2282  0.4820  0.1673
 9228SOL    HW139143   2.252   2.665   6.598 -1.3186  1.5456 -1.0792
 9228SOL    HW239144   2.238   2.636   6.742  1.8673 -0.2575 -1.2020
 9229SOL     OW39145   3.517   1.020   4.663 -0.2844  0.4611  0.2007
 9229SOL    HW139146   3.609   0.992   4.666  0.2116  2.1974  1.8328
 9229SOL    HW239147   3.519   1.091   4.728  0.1792  0.6503 -0.0165
 9230SOL     OW39148   3.882   1.429  12.070 -0.1774  0.0959 -0.1138
 9230SOL    HW139149   3.954   1.413  12.008 -1.0893  1.2377 -1.4888
 9230SOL    HW239150   3.855   1.517  12.041  0.3058  0.9219  1.9398
 9231SOL     OW39151   2.678   0.434   0.994 -0.8206 -0.2634 -0.4558
 9231SOL    HW139152   2.667   0.340   0.988 -0.1075 -0.3323 -0.6574
 9231SOL    HW239153   2.717   0.454   1.079  0.8233 -2.0384 -0.7963
 9232SOL     OW39154   0.566   1.198   5.837 -0.3956  0.6536  0.1505
 9232SOL    HW139155   0.625   1.217   5.764  0.6987 -3.2619  0.0678
 9232SOL    HW239156   0.484   1.238   5.807 -0.3061  0.9692  0.3252
 9233SOL     OW39157   0.697   3.661   7.587 -0.0873  0.0010  0.0550
 9233SOL    HW139158   0.698   3.687   7.678 -0.6144  1.5141 -0.3796
 9233SOL    HW239159   0.778   3.701   7.554 -0.3718  1.9843  1.8550
 9234SOL     OW39160   1.324   1.847   9.200  0.2030 -0.1934 -0.0298
 9234SOL    HW139161   1.244   1.888   9.233  0.0020 -2.1117  1.8767
 9234SOL    HW239162   1.313   1.778   9.266 -0.9515 -1.2025 -1.3026
 9235SOL     OW39163   3.209   2.113   6.983 -0.0169  0.2011  0.1033
 9235SOL    HW139164   3.137   2.097   6.923  2.7451 -0.3475 -3.0235
 9235SOL    HW239165   3.173   2.095   7.070 -2.1334 -1.9876 -1.2639
 9236SOL     OW39166   3.956   2.766   1.994  0.4119 -0.3076  0.6536
 9236SOL    HW139167   3.928   2.725   1.912  4.3542  0.2946 -1.0042
 9236SOL    HW239168   3.998   2.844   1.959  2.9851 -0.4157  3.5015
 9237SOL     OW39169   0.451   4.032   9.160 -0.0599  0.2486 -0.1565
 9237SOL    HW139170   0.525   4.083   9.128 -0.9635  1.7293  0.0944
 9237SOL    HW239171   0.468   4.046   9.253 -1.8343 -1.6483  0.4755
 9238SOL     OW39172   1.698   2.820   2.749  0.0296 -0.7102  0.1599
 9238SOL    HW139173   1.666   2.884   2.812  1.0906 -0.2492  0.2282
 9238SOL    HW239174   1.612   2.784   2.726 -0.0769 -0.1081 -0.3722
 9239SOL     OW39175   2.437   4.051  16.119  0.3053  0.2346  0.0827
 9239SOL    HW139176   2.509   4.034  16.180  0.1459 -2.0018 -0.3589
 9239SOL    HW239177   2.440   3.987  16.048 -1.3686  1.8034 -1.4142
 9240SOL     OW39178   2.326   2.703   5.351 -0.2857  0.0401  0.2320
 9240SOL    HW139179   2.354   2.624   5.398 -1.2342 -1.4647 -1.7364
 9240SOL    HW239180   2.310   2.667   5.264  2.3064  2.1318 -1.1020
 9241SOL     OW39181   2.641   0.636   3.172 -0.3375  0.9282 -0.3860
 9241SOL    HW139182   2.638   0.601   3.261 -3.8373  0.5881 -0.6534
 9241SOL    HW239183   2.736   0.640   3.173 -0.2105 -2.6657 -1.1933
 9242SOL     OW39184   3.030   2.210   2.663  0.2057  0.3684  0.2756
 9242SOL    HW139185   2.961   2.250   2.611 -0.1095 -1.3702 -0.6256
 9242SOL    HW239186   2.975   2.151   2.714  0.3793 -2.1434 -2.4354
 9243SOL     OW39187   3.284   1.485  16.712 -0.1504  0.5966 -0.2289
 9243SOL    HW139188   3.327   1.524  16.789 -1.9306  0.0817  1.0395
 9243SOL    HW239189   3.364   1.490  16.661  0.7586  0.0623  1.1338
 9244SOL     OW39190   2.999   1.139   1.550  0.4383  0.8729  0.3088
 9244SOL    HW139191   2.984   1.053   1.510 -0.9393  1.9993 -1.5645
 9244SOL    HW239192   3.085   1.138   1.592  0.1740 -1.6472  0.8155
 9245SOL     OW39193   0.992   3.932   6.496 -0.3873 -0.1023 -0.5423
 9245SOL    HW139194   1.008   3.838   6.491  2.5080  0.2752  2.1680
 9245SOL    HW239195   0.935   3.929   6.572 -2.0442  0.4350 -1.7628
 9246SOL     OW39196   3.638   2.370  13.209 -0.1815  0.1545 -0.0068
 9246SOL    HW139197   3.626   2.451  13.159 -0.0719  0.1727 -0.0051
 9246SOL    HW239198   3.727   2.382  13.242  0.3021 -2.0143 -0.4923
 9247SOL     OW39199   3.926   0.438   5.612 -0.1264 -0.2310  0.1533
 9247SOL    HW139200   3.855   0.431   5.675  0.0714  3.7947  0.8007
 9247SOL    HW239201   3.959   0.524   5.637  4.0756 -1.4122 -1.2465
 9248SOL     OW39202   4.601   0.213   5.736 -0.0861 -0.4263 -0.4831
 9248SOL    HW139203   4.534   0.238   5.673 -0.2058  1.8324  0.5648
 9248SOL    HW239204   4.632   0.128   5.704 -0.1084  0.3207 -2.4914
 9249SOL     OW39205   1.071   0.365   3.108 -0.0400 -0.0075  0.0673
 9249SOL    HW139206   0.996   0.326   3.062  0.1480 -0.9267  0.5214
 9249SOL    HW239207   1.117   0.288   3.141  0.5394  0.8630  1.2622
 9250SOL     OW39208   0.661   1.653   3.372 -0.1892 -0.3303 -0.0403
 9250SOL    HW139209   0.752   1.680   3.384 -0.1393  0.4145 -2.2047
 9250SOL    HW239210   0.654   1.698   3.288  0.3780  0.9159  0.5683
 9251SOL     OW39211   2.879   0.136   4.145 -0.1389 -0.5053 -0.2204
 9251SOL    HW139212   2.931   0.209   4.179 -1.3523  0.8193 -1.2191
 9251SOL    HW239213   2.838   0.095   4.222  0.3068  0.0312  0.2986
 9252SOL     OW39214   0.238   0.203  11.440 -0.0656  0.1415  0.3782
 9252SOL    HW139215   0.316   0.202  11.385 -0.1790  0.9595  0.2106
 9252SOL    HW239216   0.176   0.189  11.369 -0.0186 -0.3149  0.4258
 9253SOL     OW39217   2.473   0.027   2.515 -0.9220 -0.0691 -0.0210
 9253SOL    HW139218   2.552   0.007   2.565 -0.1574 -0.8959 -1.5407
 9253SOL    HW239219   2.397   4.701   2.543 -0.7174  0.3320  1.2462
 9254SOL     OW39220   0.775   1.878  17.487  0.0496 -0.2242  0.3152
 9254SOL    HW139221   0.744   1.896  17.576 -1.0359  0.2115 -0.1488
 9254SOL    HW239222   0.701   1.904  17.432 -1.4896 -0.9504  2.0453
 9255SOL     OW39223   3.063   4.044  11.805 -0.0809  0.0185  0.6379
 9255SOL    HW139224   3.009   3.971  11.835 -0.5232 -0.3451 -1.0077
 9255SOL    HW239225   3.131   3.992  11.761  1.1502  1.2464  1.1044
 9256SOL     OW39226   1.391   3.121   6.331  0.0424 -0.5076 -0.1081
 9256SOL    HW139227   1.303   3.156   6.314 -0.1825 -1.7647 -1.4455
 9256SOL    HW239228   1.436   3.204   6.345 -1.6968  0.4472 -0.1191
 9257SOL     OW39229   0.073   4.632   7.994 -0.0087 -0.0008 -0.5479
 9257SOL    HW139230   0.044   4.723   7.989 -2.2451 -0.6664  0.0654
 9257SOL    HW239231   4.711   4.591   7.984  1.4313 -2.9389 -1.0158
 9258SOL     OW39232   2.742   0.235  17.388  0.8352  0.2186 -0.0712
 9258SOL    HW139233   2.726   0.300  17.456 -0.5373 -0.7398  0.5311
 9258SOL    HW239234   2.828   0.215  17.425  0.9931 -3.8974 -2.6336
 9259SOL     OW39235   3.767   3.535  13.892  0.3947  0.5737 -0.0951
 9259SOL    HW139236   3.696   3.516  13.830 -0.2364  2.3190  0.0968
 9259SOL    HW239237   3.731   3.596  13.956 -0.4659  0.0097 -0.0405
 9260SOL     OW39238   4.059   0.452   0.429  0.2689  0.4556 -0.7519
 9260SOL    HW139239   4.057   0.522   0.494  0.3405  0.1472 -0.4160
 9260SOL    HW239240   4.010   0.484   0.353 -0.2338  0.5688 -0.3815
 9261SOL     OW39241   1.662   1.545   7.828  0.0069 -0.3787 -0.1047
 9261SOL    HW139242   1.631   1.540   7.738 -2.6697 -0.7174  0.8196
 9261SOL    HW239243   1.750   1.570   7.801  0.2715  0.3083  1.3544
 9262SOL     OW39244   2.715   0.604   4.556 -0.0885  0.3114  0.1068
 9262SOL    HW139245   2.759   0.629   4.637 -0.7185 -0.7876  0.7896
 9262SOL    HW239246   2.728   0.679   4.498  2.0598 -0.6014 -0.5780
 9263SOL     OW39247   4.048   2.110  14.512 -0.1038 -0.8140  0.5763
 9263SOL    HW139248   4.078   2.021  14.492  1.8631 -0.1647  0.6656
 9263SOL    HW239249   3.953   2.100  14.502 -0.0087  1.0332 -2.0518
 9264SOL     OW39250   3.438   2.454  11.439 -0.4610 -0.1552  0.1476
 9264SOL    HW139251   3.480   2.369  11.434  1.7201  0.9355 -0.1097
 9264SOL    HW239252   3.481   2.487  11.518  1.8830 -0.1882 -1.1162
 9265SOL     OW39253   3.777   0.129   5.799  0.1349  0.6477 -0.9477
 9265SOL    HW139254   3.753   0.221   5.794  1.1587  0.9597 -0.0997
 9265SOL    HW239255   3.787   0.109   5.706  0.0055 -1.0308 -0.6022
 9266SOL     OW39256   0.526   2.723   2.560  0.0971 -0.0351  0.4867
 9266SOL    HW139257   0.580   2.651   2.592 -0.2342 -1.5505 -2.2979
 9266SOL    HW239258   0.539   2.786   2.630  0.6374  0.7330 -0.2946
 9267SOL     OW39259   0.059   0.008  10.267  0.1416  0.5521 -0.1398
 9267SOL    HW139260   0.004   0.068  10.318  1.3269  0.6528  1.0330
 9267SOL    HW239261   0.112   4.688  10.333  0.5030  0.6955 -0.3307
 9268SOL     OW39262   0.814   4.520   6.530  0.1635  0.2235  0.8145
 9268SOL    HW139263   0.822   4.615   6.524  2.1976  0.0290  0.3534
 9268SOL    HW239264   0.864   4.493   6.453 -0.6431  0.3693  0.2408
 9269SOL     OW39265   3.545   2.820   3.194  0.1990 -0.1621 -0.4198
 9269SOL    HW139266   3.563   2.726   3.196  0.6350 -0.0361  2.3317
 9269SOL    HW239267   3.635   2.850   3.210 -0.9491  3.8617 -1.5958
 9270SOL     OW39268   1.958   4.111   7.320 -0.6063  0.0763 -0.6408
 9270SOL    HW139269   1.873   4.139   7.352 -1.3094 -0.6725 -1.8645
 9270SOL    HW239270   1.980   4.169   7.247  1.1569 -0.4296 -0.5234
 9271SOL     OW39271   3.348   0.452   6.951 -0.1551  0.8813  0.5222
 9271SOL    HW139272   3.384   0.373   6.911 -2.0221  0.6231 -0.6764
 9271SOL    HW239273   3.268   0.449   6.899  0.7407 -1.7557 -0.6614
 9272SOL     OW39274   0.211   4.155  10.465 -0.9016 -0.0479 -0.0291
 9272SOL    HW139275   0.229   4.108  10.384  0.3335 -0.5149  0.5063
 9272SOL    HW239276   0.120   4.128  10.482 -1.3729  1.1492 -0.6761
 9273SOL     OW39277   1.501   2.263   1.455  0.7018  1.1938  0.4523
 9273SOL    HW139278   1.494   2.312   1.537 -0.5123  0.8123  0.5824
 9273SOL    HW239279   1.419   2.296   1.417 -1.0029 -3.9461 -0.3466
 9274SOL     OW39280   2.075   0.643  15.923 -0.2840 -0.4306 -0.1907
 9274SOL    HW139281   2.148   0.589  15.952 -0.4336  0.6014  2.1215
 9274SOL    HW239282   2.005   0.578  15.921  1.3909 -2.2595  1.0853
 9275SOL     OW39283   2.707   4.472   7.214 -0.3100  0.1691 -0.0936
 9275SOL    HW139284   2.646   4.428   7.154 -0.0956  0.8163 -0.7915
 9275SOL    HW239285   2.751   4.395   7.248 -0.1520  0.6224  0.7233
 9276SOL     OW39286   3.237   0.902   7.455 -0.0805  0.2049 -0.2059
 9276SOL    HW139287   3.288   0.982   7.470  1.0703 -0.5297 -0.1562
 9276SOL    HW239288   3.154   0.949   7.455 -0.6488 -0.8054 -1.2950
 9277SOL     OW39289   2.004   1.167   7.557  0.5942  0.5114 -0.4196
 9277SOL    HW139290   1.939   1.154   7.626  1.8944 -0.4862  0.6382
 9277SOL    HW239291   1.971   1.246   7.516 -1.5968 -0.1610  0.0547
 9278SOL     OW39292   0.792   2.230   5.042  0.3020  0.5428  0.0856
 9278SOL    HW139293   0.792   2.176   4.963  0.8103  0.0335  0.4333
 9278SOL    HW239294   0.877   2.212   5.082 -0.2558  0.1097  1.0736
 9279SOL     OW39295   3.440   4.176   9.816 -0.0224  0.3063  0.1311
 9279SOL    HW139296   3.453   4.212   9.903 -1.7364  1.6221 -0.1676
 9279SOL    HW239297   3.522   4.189   9.768 -1.3113  0.7198 -1.9437
 9280SOL     OW39298   2.433   3.516   1.936  0.7056  0.3475  0.7292
 9280SOL    HW139299   2.457   3.465   1.858  0.2349 -2.0665  2.1644
 9280SOL    HW239300   2.428   3.599   1.889 -0.2378 -0.1462 -0.0475
 9281SOL     OW39301   1.402   3.586   4.600 -0.4471  0.1758 -0.1358
 9281SOL    HW139302   1.431   3.598   4.509  1.0280  0.2397  0.3511
 9281SOL    HW239303   1.386   3.675   4.631  0.7678 -0.6197  2.7139
 9282SOL     OW39304   0.619   2.181   3.530  0.2717  0.1950 -0.0604
 9282SOL    HW139305   0.685   2.116   3.508  1.0566  0.9606  0.0215
 9282SOL    HW239306   0.677   2.257   3.539  0.7680 -0.2618  0.6555
 9283SOL     OW39307   4.441   2.454   9.454  0.4595 -0.1303 -0.2874
 9283SOL    HW139308   4.475   2.401   9.526  0.5120 -0.0569 -0.2583
 9283SOL    HW239309   4.493   2.531   9.476 -2.3261  1.1519  1.8962
 9284SOL     OW39310   3.870   2.434  16.199  0.2197 -0.0204  0.2093
 9284SOL    HW139311   3.778   2.435  16.226  0.2295 -0.3051  0.2481
 9284SOL    HW239312   3.885   2.523  16.166  0.2315  0.2118  0.8377
 9285SOL     OW39313   1.387   1.214  15.221 -0.2823  0.2391  0.0662
 9285SOL    HW139314   1.315   1.250  15.273  0.4096 -1.3332  2.1176
 9285SOL    HW239315   1.412   1.294  15.174  0.9401  0.5465  1.2064
 9286SOL     OW39316   3.960   3.721   4.224  0.7446 -0.7690 -0.0898
 9286SOL    HW139317   4.025   3.737   4.292 -0.0310  2.2022 -0.0438
 9286SOL    HW239318   3.909   3.646   4.255 -2.9724  2.2454  1.0721
 9287SOL     OW39319   3.185   3.945  13.157  0.0464  0.0159 -0.0461
 9287SOL    HW139320   3.255   3.911  13.213  1.4880  1.0576 -1.2291
 9287SOL    HW239321   3.171   4.031  13.197 -0.0391  0.3830 -0.8681
 9288SOL     OW39322   1.651   1.096  14.750  0.9053  0.6317  0.1189
 9288SOL    HW139323   1.746   1.093  14.764  0.6856 -0.7758  1.3349
 9288SOL    HW239324   1.621   1.125  14.836  0.0082  0.6675 -0.2073
 9289SOL     OW39325   3.419   1.835   0.431  0.0210  0.2725  0.3053
 9289SOL    HW139326   3.405   1.740   0.433  1.7924  0.0745  2.1600
 9289SOL    HW239327   3.361   1.853   0.505  1.9977  1.0043  1.6612
 9290SOL     OW39328   1.155   0.603   6.812  0.6368 -0.1886 -0.1413
 9290SOL    HW139329   1.116   0.541   6.750  0.6400 -0.6794  0.3413
 9290SOL    HW239330   1.130   0.574   6.899  0.8129  0.7946  0.2380
 9291SOL     OW39331   0.227   0.206   5.958 -0.2577 -0.2838 -0.0881
 9291SOL    HW139332   0.210   0.258   6.036 -1.6802 -1.8094  0.6297
 9291SOL    HW239333   0.171   0.129   5.973  0.5326 -1.1375 -1.5665
 9292SOL     OW39334   0.984   1.163   2.838 -0.0485  0.2818  0.1546
 9292SOL    HW139335   0.944   1.094   2.890 -1.5080  0.5647 -0.5808
 9292SOL    HW239336   1.019   1.221   2.905  0.5697 -0.6710  0.6469
 9293SOL     OW39337   2.761   1.566   4.362  0.1132 -0.0497 -0.3711
 9293SOL    HW139338   2.838   1.545   4.415 -1.0310  0.9120  1.6829
 9293SOL    HW239339   2.786   1.624   4.290 -0.0005  1.7193  0.9973
 9294SOL     OW39340   4.131   2.471  16.235  0.2100 -0.2324  0.0396
 9294SOL    HW139341   4.039   2.444  16.236  0.1516 -0.0872 -1.1733
 9294SOL    HW239342   4.172   2.422  16.306  0.4977 -0.5787 -0.3644
 9295SOL     OW39343   4.693   1.386   4.705  0.3290 -0.0075  0.1934
 9295SOL    HW139344   4.681   1.481   4.709  1.2830  0.1376 -0.3475
 9295SOL    HW239345   4.711   1.359   4.795 -2.3400  1.2750  1.1164
 9296SOL     OW39346   3.842   2.373   3.322  0.2371  0.6467 -0.2696
 9296SOL    HW139347   3.852   2.349   3.414  2.5887  0.4034 -0.5699
 9296SOL    HW239348   3.879   2.295   3.279 -1.2827  0.1318 -0.6481
 9297SOL     OW39349   3.998   1.202   8.798  0.5590  0.0335 -0.1497
 9297SOL    HW139350   4.044   1.273   8.842 -0.4450 -0.0604  1.0515
 9297SOL    HW239351   4.078   1.171   8.755  1.2261 -0.2832  1.3324
 9298SOL     OW39352   2.124   1.957   4.501  0.4622  0.1034  0.4753
 9298SOL    HW139353   2.147   2.046   4.529  0.9202  0.5912 -1.4264
 9298SOL    HW239354   2.209   1.921   4.476  1.2633  1.4950  1.1852
 9299SOL     OW39355   2.552   2.743   6.294  0.2712 -0.3812 -0.1474
 9299SOL    HW139356   2.602   2.786   6.225  1.2885 -1.0806  0.1605
 9299SOL    HW239357   2.461   2.759   6.269 -0.5131  0.3035  3.1512
 9300SOL     OW39358   1.981   2.901  17.477  0.1811  0.3573 -0.1488
 9300SOL    HW139359   1.905   2.891  17.534 -0.2219  1.2040 -0.5386
 9300SOL    HW239360   1.957   2.988  17.444 -0.4429  0.1668 -0.1998
 9301SOL     OW39361   4.262   3.132   5.359  0.2992  0.1394  0.4771
 9301SOL    HW139362   4.304   3.217   5.371 -1.4011  1.3910 -2.4431
 9301SOL    HW239363   4.212   3.121   5.439  1.2509  2.5976  1.3877
 9302SOL     OW39364   0.830   0.920   3.745  0.0274 -0.0426  0.6967
 9302SOL    HW139365   0.820   0.978   3.820  0.3789 -0.3504  0.9767
 9302SOL    HW239366   0.893   0.856   3.779  0.0344  0.1131  0.9777
 9303SOL     OW39367   0.144   0.836  17.330 -0.8556 -0.8180 -0.0842
 9303SOL    HW139368   0.203   0.764  17.351  0.7275  1.5437  3.5754
 9303SOL    HW239369   0.100   0.837  17.414 -0.2681 -2.5842  0.2404
 9304SOL     OW39370   0.220   2.082  12.045  0.4500  0.2024 -0.2051
 9304SOL    HW139371   0.207   1.995  12.009  0.6242 -1.1253  2.9274
 9304SOL    HW239372   0.250   2.125  11.965 -1.0723  1.2919 -0.1806
 9305SOL     OW39373   2.936   2.632  13.508 -0.3903 -0.0922 -0.0860
 9305SOL    HW139374   2.855   2.647  13.460 -0.7069  0.9219  0.7707
 9305SOL    HW239375   2.932   2.702  13.573  1.7771 -0.4130  0.3919
 9306SOL     OW39376   3.461   0.658  10.529 -0.4706  0.0121  0.0920
 9306SOL    HW139377   3.474   0.588  10.465 -1.5988  0.1567 -0.3125
 9306SOL    HW239378   3.491   0.614  10.608 -0.1856  1.4393  0.7744
 9307SOL     OW39379   3.034   1.067   7.508 -0.2165  0.0928  0.2754
 9307SOL    HW139380   2.942   1.054   7.484  0.0071  0.0915 -0.5803
 9307SOL    HW239381   3.024   1.055   7.603  2.8851 -2.4469  0.2940
 9308SOL     OW39382   2.863   1.700   5.797 -0.5379  0.0761 -0.2299
 9308SOL    HW139383   2.828   1.650   5.723  0.4683  0.0378 -0.6791
 9308SOL    HW239384   2.828   1.788   5.789 -2.4013 -0.4075  2.3070
 9309SOL     OW39385   0.963   4.030  14.679  0.2692  0.4160  0.3220
 9309SOL    HW139386   1.002   3.964  14.621 -2.2416  0.7524 -1.7550
 9309SOL    HW239387   1.033   4.081  14.719  0.8850  0.2738 -0.5718
 9310SOL     OW39388   2.077   1.829  11.701  0.0909  0.6707 -0.1363
 9310SOL    HW139389   2.018   1.773  11.752 -0.5168 -0.3689 -1.9469
 9310SOL    HW239390   2.040   1.818  11.613 -1.6559 -0.0560  0.7008
 9311SOL     OW39391   0.980   3.285   8.725 -0.2882  0.2123  0.2521
 9311SOL    HW139392   0.986   3.191   8.740 -2.9053  0.1819  1.0612
 9311SOL    HW239393   1.006   3.335   8.803  0.4855  1.8241 -1.0301
 9312SOL     OW39394   4.723   4.552   1.176 -0.1825 -0.0497  0.0506
 9312SOL    HW139395   0.081   4.512   1.203 -1.4061  0.0756  4.0101
 9312SOL    HW239396   0.023   4.610   1.104 -0.2260 -1.4604 -1.1200
 9313SOL     OW39397   0.186   2.360   2.827  0.2068 -0.8537  0.7145
 9313SOL    HW139398   0.134   2.383   2.904  0.0631  0.4828  0.2108
 9313SOL    HW239399   0.113   2.321   2.779  1.2039 -1.0801 -0.6039
 9314SOL     OW39400   2.051   3.272  12.883 -0.1866  0.2209 -0.0561
 9314SOL    HW139401   2.132   3.236  12.919 -0.2672  1.8233  1.7158
 9314SOL    HW239402   2.066   3.366  12.884 -0.4557  0.2534  2.6455
 9315SOL     OW39403   1.316   1.283   7.566 -0.1477  0.0036 -0.3373
 9315SOL    HW139404   1.307   1.236   7.649  1.3510  1.1485  0.4707
 9315SOL    HW239405   1.227   1.299   7.536 -0.3648  1.4555  1.1052
 9316SOL     OW39406   3.260   0.751  10.117 -0.5410  0.6668 -0.1608
 9316SOL    HW139407   3.173   0.793  10.116  0.3751  2.6203  0.9906
 9316SOL    HW239408   3.306   0.816  10.170 -1.5696  0.5198  0.9061
 9317SOL     OW39409   0.083   2.707   8.281 -0.1899  0.0675  0.1945
 9317SOL    HW139410   0.004   2.666   8.246  0.0843 -0.6215  0.3724
 9317SOL    HW239411   0.063   2.799   8.262 -1.0448 -0.2853 -0.6527
 9318SOL     OW39412   0.137   3.512  13.630  0.2137  0.0150 -0.8360
 9318SOL    HW139413   0.204   3.462  13.582  0.1930 -0.6510 -0.1770
 9318SOL    HW239414   0.080   3.436  13.639  2.1883 -1.3991 -0.1393
 9319SOL     OW39415   0.495   0.405   4.025  0.6966 -0.4173 -0.2806
 9319SOL    HW139416   0.503   0.500   4.032  3.1084 -0.6093 -0.4500
 9319SOL    HW239417   0.438   0.400   4.102 -0.0725  0.9080 -0.7632
 9320SOL     OW39418   4.100   0.224   9.809  0.0619 -0.6428 -0.0292
 9320SOL    HW139419   4.152   0.277   9.869  1.5596 -1.6625 -0.4218
 9320SOL    HW239420   4.016   0.266   9.823 -0.1196 -0.3504 -2.0146
 9321SOL     OW39421   1.419   2.478   3.154  0.3390 -0.0049 -0.0159
 9321SOL    HW139422   1.463   2.432   3.225 -2.9153  0.6369  2.3768
 9321SOL    HW239423   1.465   2.443   3.077 -1.9063  0.8555 -1.7529
 9322SOL     OW39424   1.776   0.367  15.125  0.1915  0.0884 -0.4957
 9322SOL    HW139425   1.771   0.323  15.210  2.5615 -1.6688 -1.2688
 9322SOL    HW239426   1.699   0.423  15.135  0.1810  0.0406 -0.3062
 9323SOL     OW39427   3.244   3.359   7.965  0.0043  0.9193 -0.2176
 9323SOL    HW139428   3.178   3.291   7.950  1.3110 -0.2380 -0.7575
 9323SOL    HW239429   3.264   3.334   8.055 -0.8285  2.6980  0.4494
 9324SOL     OW39430   2.916   4.568   9.594 -0.1075 -0.2577  0.4947
 9324SOL    HW139431   2.825   4.543   9.606  0.0832 -0.0102  2.4222
 9324SOL    HW239432   2.954   4.577   9.681  1.1674 -0.6669 -0.0081
 9325SOL     OW39433   0.264   2.064   7.660  0.6863  0.0666 -0.4512
 9325SOL    HW139434   0.240   2.065   7.567 -1.3503 -0.3220  0.0828
 9325SOL    HW239435   0.276   2.158   7.672 -2.3686  0.1560  1.8171
 9326SOL     OW39436   2.844   3.345   7.612  0.1656  0.2628  0.1955
 9326SOL    HW139437   2.751   3.352   7.593 -0.0168  1.1142  1.3921
 9326SOL    HW239438   2.861   3.278   7.546 -3.1130  0.5319 -0.9049
 9327SOL     OW39439   3.168   3.161   1.500 -0.4880  0.0216 -0.2385
 9327SOL    HW139440   3.135   3.206   1.578  1.5371  0.9374  0.0931
 9327SOL    HW239441   3.218   3.090   1.540 -1.3770 -0.7628 -0.5072
 9328SOL     OW39442   2.875   2.381   5.727  0.2637 -0.6087 -0.1059
 9328SOL    HW139443   2.848   2.365   5.636  0.1369 -0.4638 -0.0947
 9328SOL    HW239444   2.907   2.471   5.714 -2.0871  0.1098 -0.7915
 9329SOL     OW39445   3.394   3.802   2.687  0.4166  0.2900  0.4358
 9329SOL    HW139446   3.484   3.801   2.653  0.2999  0.3088  0.1287
 9329SOL    HW239447   3.346   3.862   2.630 -0.6261 -1.5574 -0.6522
 9330SOL     OW39448   2.417   0.271   7.195 -0.3261  0.2194 -0.9487
 9330SOL    HW139449   2.324   0.275   7.174 -0.2655  1.4040 -1.0039
 9330SOL    HW239450   2.438   0.179   7.179  0.4523  0.0940  0.7619
 9331SOL     OW39451   3.996   4.589  16.318 -0.2940 -0.4150 -0.4210
 9331SOL    HW139452   4.083   4.630  16.309 -0.4269 -0.2112 -0.7746
 9331SOL    HW239453   4.029   4.503  16.344  1.2746 -0.0938 -1.3364
 9332SOL     OW39454   3.611   4.023  14.228 -0.2778  0.2217 -0.4720
 9332SOL    HW139455   3.519   4.011  14.252 -0.4262  0.8935 -0.6791
 9332SOL    HW239456   3.594   4.063  14.142 -2.5116 -0.4259 -0.3485
 9333SOL     OW39457   2.308   4.410  10.775 -0.0414  0.3504 -0.5763
 9333SOL    HW139458   2.262   4.341  10.822  1.6853 -3.1337 -4.0354
 9333SOL    HW239459   2.290   4.489  10.827  1.9621  0.5973 -0.2263
 9334SOL     OW39460   0.011   0.012  16.166 -0.1459  0.1449 -0.4814
 9334SOL    HW139461   4.663   4.701  16.114 -2.3628  0.3580  2.4282
 9334SOL    HW239462   4.702   0.102  16.168 -2.0072 -0.5470 -0.5883
 9335SOL     OW39463   1.116   0.299  14.481 -0.3730 -0.1029 -0.1822
 9335SOL    HW139464   1.040   0.357  14.491  0.9655  1.3299  1.6087
 9335SOL    HW239465   1.166   0.342  14.411  0.4380  0.4864  0.7613
 9336SOL     OW39466   0.659   2.762  17.022  0.0788 -0.4408  0.1210
 9336SOL    HW139467   0.579   2.737  16.975  0.9640 -2.0967 -0.4955
 9336SOL    HW239468   0.721   2.696  16.991  0.1580  0.3680 -1.4562
 9337SOL     OW39469   1.448   1.199   7.070  0.2482  0.6717 -0.4729
 9337SOL    HW139470   1.541   1.181   7.087  0.4011  0.0755 -1.9398
 9337SOL    HW239471   1.417   1.109   7.072 -2.0989  1.4658 -0.7797
 9338SOL     OW39472   2.923   0.994   4.868 -0.2953  0.0295 -0.4997
 9338SOL    HW139473   2.991   1.058   4.890 -0.0239 -0.5657  0.3929
 9338SOL    HW239474   2.960   0.906   4.861  0.4572  0.3161 -0.1835
 9339SOL     OW39475   1.629   1.092   3.672  0.1629 -0.5172 -0.2407
 9339SOL    HW139476   1.632   1.183   3.703 -0.0424 -0.6449  0.1528
 9339SOL    HW239477   1.667   1.052   3.751 -1.5087 -1.9280 -0.1547
 9340SOL     OW39478   2.729   1.480   5.138  0.3321 -0.1769  0.4550
 9340SOL    HW139479   2.800   1.437   5.186 -0.5775 -3.5503 -1.2241
 9340SOL    HW239480   2.745   1.563   5.183 -1.1074  0.9274 -1.0993
 9341SOL     OW39481   1.709   0.554   2.069  0.4484 -0.4272  0.2640
 9341SOL    HW139482   1.743   0.465   2.057  1.1117 -0.2449  0.8421
 9341SOL    HW239483   1.613   0.547   2.061  0.5113 -1.1954  0.1504
 9342SOL     OW39484   4.509   2.852   5.152 -0.2291  0.1829  0.0285
 9342SOL    HW139485   4.517   2.939   5.191 -1.0927  0.3323 -0.1260
 9342SOL    HW239486   4.601   2.824   5.152 -0.5277 -0.7345 -1.6161
 9343SOL     OW39487   1.325   2.588   6.240  0.3794 -0.4140 -0.3085
 9343SOL    HW139488   1.274   2.511   6.264 -1.9927  1.8150  1.7897
 9343SOL    HW239489   1.350   2.636   6.319  1.3645 -2.2561  0.5003
 9344SOL     OW39490   2.011   4.611   4.041 -0.1729  0.3796 -0.0223
 9344SOL    HW139491   2.062   4.546   3.994  0.3847  0.2365  0.7882
 9344SOL    HW239492   2.064   4.688   4.062 -0.4291  0.3770  0.6562
 9345SOL     OW39493   2.905   3.938   7.042  0.0702 -0.7086 -0.2337
 9345SOL    HW139494   2.859   4.021   7.056  0.0100 -0.4172 -2.2164
 9345SOL    HW239495   2.972   3.962   6.979  0.4961 -0.0414  0.4853
 9346SOL     OW39496   2.203   4.142   2.408  0.0418  0.1781 -0.2699
 9346SOL    HW139497   2.297   4.145   2.394  0.1110 -0.9095 -0.0679
 9346SOL    HW239498   2.201   4.166   2.501 -1.8143 -0.4954 -0.1247
 9347SOL     OW39499   3.939   0.761   8.809  0.0731 -0.2003 -0.8134
 9347SOL    HW139500   3.908   0.693   8.868 -1.8815  2.7606  1.5513
 9347SOL    HW239501   3.989   0.716   8.740  1.0201  0.4029 -0.5171
 9348SOL     OW39502   2.429   2.481   7.068  0.2842  1.1399 -0.4517
 9348SOL    HW139503   2.432   2.565   7.113 -2.4200 -0.3297  2.4116
 9348SOL    HW239504   2.459   2.429   7.142 -1.9580  1.9969  1.0476
 9349SOL     OW39505   3.500   0.857   7.334  0.7256  0.5499  0.2886
 9349SOL    HW139506   3.511   0.905   7.252 -0.9915 -0.1618 -0.3721
 9349SOL    HW239507   3.411   0.855   7.369  0.5607 -1.4962 -0.2313
 9350SOL     OW39508   3.871   3.616   6.073  0.0639 -0.1434 -0.2066
 9350SOL    HW139509   3.875   3.627   6.168  0.8453  2.0114 -0.4812
 9350SOL    HW239510   3.858   3.523   6.053 -0.3352 -0.3299  0.9260
 9351SOL     OW39511   0.711   4.433   2.476  0.5178 -0.1922 -0.5819
 9351SOL    HW139512   0.785   4.379   2.503  1.4852  0.9067 -1.0433
 9351SOL    HW239513   0.722   4.436   2.381  2.0711  0.5996 -0.3724
 9352SOL     OW39514   2.283   0.880   5.729  0.5855 -0.2297 -0.2352
 9352SOL    HW139515   2.332   0.823   5.670 -0.7666 -1.5771 -0.0799
 9352SOL    HW239516   2.342   0.952   5.750 -1.7546  0.8568  2.6943
 9353SOL     OW39517   4.550   3.086  10.848 -0.2224 -0.5266  0.2712
 9353SOL    HW139518   4.565   3.175  10.881 -1.1710 -0.5647  0.8250
 9353SOL    HW239519   4.505   3.050  10.925  0.3898 -0.2727  0.7444
 9354SOL     OW39520   4.352   2.648   6.711 -0.2727 -0.0804  0.1879
 9354SOL    HW139521   4.260   2.649   6.685  1.0298  1.2269 -4.3696
 9354SOL    HW239522   4.382   2.563   6.678  1.7603  0.7226 -0.0690
 9355SOL     OW39523   2.771   2.116  16.199 -0.0555  0.1469  0.4386
 9355SOL    HW139524   2.694   2.157  16.239 -1.0708  0.7211 -2.0890
 9355SOL    HW239525   2.798   2.193  16.149  1.0749  0.5721  1.7286
 9356SOL     OW39526   0.116   1.815   4.125 -0.4291  0.0377  0.1964
 9356SOL    HW139527   0.195   1.861   4.099 -0.9840 -0.4370 -2.3037
 9356SOL    HW239528   0.096   1.765   4.046  0.2163 -1.3242  0.8930
 9357SOL     OW39529   4.211   0.209   0.423  0.3964  0.1818 -0.7073
 9357SOL    HW139530   4.183   0.294   0.456  2.0236 -0.1327  1.4725
 9357SOL    HW239531   4.132   0.181   0.376  0.5716 -0.1370 -0.8169
 9358SOL     OW39532   2.746   0.504   3.398 -0.0819 -0.3914 -0.1062
 9358SOL    HW139533   2.814   0.448   3.436 -0.5130 -2.1273 -1.8648
 9358SOL    HW239534   2.773   0.577   3.454  2.5578 -1.2194 -0.2922
 9359SOL     OW39535   0.004   1.899  11.687 -0.3950 -0.1690  0.1224
 9359SOL    HW139536   0.040   1.904  11.598  3.4062  1.0566  1.7303
 9359SOL    HW239537   4.638   1.874  11.671  0.2360 -2.8481  0.7458
 9360SOL     OW39538   2.522   1.084   8.438 -0.3660  0.7169 -0.2671
 9360SOL    HW139539   2.534   0.989   8.438 -0.1476  0.7543  1.0313
 9360SOL    HW239540   2.450   1.095   8.500 -0.4535  1.1864 -0.4503
 9361SOL     OW39541   4.010   1.828   8.699 -0.9617 -0.7581 -0.0497
 9361SOL    HW139542   4.063   1.749   8.692  2.0841  1.3808 -1.5235
 9361SOL    HW239543   4.059   1.884   8.639 -1.2712 -1.0895 -0.6082
 9362SOL     OW39544   0.693   0.666   6.168 -0.1585 -0.5253 -0.2348
 9362SOL    HW139545   0.712   0.667   6.074 -0.8528  0.9840 -0.3573
 9362SOL    HW239546   0.741   0.589   6.199 -2.4655 -2.3475 -1.2286
 9363SOL     OW39547   2.823   3.856   4.978  0.3958 -0.3023 -0.1528
 9363SOL    HW139548   2.755   3.806   4.934 -1.1983  1.1875  0.6018
 9363SOL    HW239549   2.905   3.813   4.955  0.8536  0.6782 -0.3588
 9364SOL     OW39550   0.312   1.066   7.473 -0.4993 -0.0959 -0.2503
 9364SOL    HW139551   0.368   1.054   7.396  2.0350  3.2117  1.0615
 9364SOL    HW239552   0.260   0.987   7.486 -1.7583  0.5752 -1.2292
 9365SOL     OW39553   4.288   1.193   5.758 -0.3603  0.0170  0.1006
 9365SOL    HW139554   4.207   1.231   5.791 -0.3643 -1.0559  1.3536
 9365SOL    HW239555   4.343   1.271   5.761 -3.2393  2.0568 -0.0738
 9366SOL     OW39556   1.812   1.553   3.135  0.1672  0.3969  0.0402
 9366SOL    HW139557   1.782   1.530   3.223  0.2010 -1.3825 -0.4134
 9366SOL    HW239558   1.906   1.538   3.146 -0.3060 -1.8136  0.9132
 9367SOL     OW39559   0.410   3.403   6.806  0.1145 -0.1829 -0.9829
 9367SOL    HW139560   0.421   3.352   6.726 -1.5519 -0.3560 -1.0972
 9367SOL    HW239561   0.501   3.425   6.827 -0.3247  0.3610  0.3828
 9368SOL     OW39562   1.714   4.046   2.343  0.1994 -0.1942  0.4592
 9368SOL    HW139563   1.641   3.987   2.322  0.9161 -0.8866 -0.0948
 9368SOL    HW239564   1.704   4.118   2.279  0.4073  0.7953  1.5441
 9369SOL     OW39565   3.518   0.725   5.927  0.3383  0.4472 -0.0329
 9369SOL    HW139566   3.529   0.779   5.848  0.7892  0.5199  0.0798
 9369SOL    HW239567   3.496   0.790   5.994 -0.6273 -0.0592  0.1342
 9370SOL     OW39568   1.635   4.606  15.033  0.1370  0.0232  0.3011
 9370SOL    HW139569   1.558   4.600  14.976  2.3998 -0.5702 -2.7106
 9370SOL    HW239570   1.662   4.695  15.012  1.7070 -0.6606 -0.5666
 9371SOL     OW39571   0.670   4.551   8.007  0.1629  0.0727  0.5272
 9371SOL    HW139572   0.706   4.559   8.095 -0.1279 -0.6552  0.7180
 9371SOL    HW239573   0.594   4.495   8.025 -1.3535  1.4241 -1.6791
 9372SOL     OW39574   3.751   4.678   2.567 -0.0492 -0.2945 -0.3948
 9372SOL    HW139575   3.736   4.664   2.661  1.5478 -0.7869 -0.2096
 9372SOL    HW239576   3.818   0.022   2.565  0.3877 -0.7373 -1.0298
 9373SOL     OW39577   3.427   3.477  17.099  0.2074  0.0181  0.6027
 9373SOL    HW139578   3.432   3.523  17.183  0.8848  1.2142 -0.0921
 9373SOL    HW239579   3.334   3.458  17.091  0.6019 -0.5582 -2.4982
 9374SOL     OW39580   4.150   0.320   8.509  0.0878 -0.1106 -0.1851
 9374SOL    HW139581   4.134   0.353   8.420  0.2776  1.0166  0.1954
 9374SOL    HW239582   4.200   0.392   8.547  0.2251  1.5013 -3.4630
 9375SOL     OW39583   2.568   0.515  16.277  0.0009  0.3348  0.0702
 9375SOL    HW139584   2.584   0.602  16.313  0.3905  0.1082  0.4476
 9375SOL    HW239585   2.660   0.493  16.258 -0.9616 -3.1565 -0.6365
 9376SOL     OW39586   3.482   0.200  11.679 -0.3988  0.0764  0.4681
 9376SOL    HW139587   3.420   0.162  11.617  2.4768 -0.6910 -1.9581
 9376SOL    HW239588   3.480   0.295  11.663 -3.0560  0.1812  1.3532
 9377SOL     OW39589   1.167   1.913  16.383  0.2835 -0.1450  0.2071
 9377SOL    HW139590   1.151   1.897  16.290 -0.2961  1.3446  0.0461
 9377SOL    HW239591   1.262   1.899  16.391  0.3561 -1.2928 -2.7721
 9378SOL     OW39592   3.707   4.512  10.924 -0.0910 -0.5359 -0.7890
 9378SOL    HW139593   3.800   4.498  10.943 -0.5500 -2.3070  0.1765
 9378SOL    HW239594   3.720   4.571  10.850 -1.6636 -0.4043 -0.9556
 9379SOL     OW39595   3.990   1.036   6.639  0.5886  0.5337  0.6990
 9379SOL    HW139596   4.025   1.014   6.726  0.3345 -1.0876  0.3813
 9379SOL    HW239597   4.059   1.021   6.576 -0.7139  1.9861 -1.0935
 9380SOL     OW39598   3.133   1.209   5.391 -0.3408 -0.2449  0.8870
 9380SOL    HW139599   3.184   1.290   5.395  1.0741 -1.0972 -0.0905
 9380SOL    HW239600   3.139   1.184   5.299  2.3718  1.1106  0.7053
 9381SOL     OW39601   3.237   0.646   3.645 -0.4778 -0.2714  0.0745
 9381SOL    HW139602   3.255   0.634   3.552 -1.4796  0.8609 -0.2700
 9381SOL    HW239603   3.147   0.678   3.642 -1.1121 -2.1269 -0.7624
 9382SOL     OW39604   0.902   1.474   0.460  0.7221 -0.6440  0.7550
 9382SOL    HW139605   0.964   1.434   0.521 -0.2033 -0.6194  1.7130
 9382SOL    HW239606   0.936   1.563   0.453  3.4069 -1.6641  0.5414
 9383SOL     OW39607   4.673   1.274  15.192 -1.2583  0.2034  0.8359
 9383SOL    HW139608   4.674   1.197  15.136 -1.0852 -0.4886  1.7957
 9383SOL    HW239609   4.653   1.233  15.276 -0.9999  0.4263  1.0080
 9384SOL     OW39610   0.481   4.465   8.243 -0.0311  0.6299  0.0438
 9384SOL    HW139611   0.390   4.491   8.228 -0.0308  0.6624  0.0992
 9384SOL    HW239612   0.481   4.384   8.191 -1.0880  1.2395 -0.9090
 9385SOL     OW39613   2.709   4.511   7.562 -0.3679  0.2557 -0.2550
 9385SOL    HW139614   2.716   4.415   7.562 -0.7285  0.2371 -1.2898
 9385SOL    HW239615   2.713   4.534   7.470  3.3073 -0.5074 -0.2853
 9386SOL     OW39616   3.448   2.717   5.370  0.1009  0.3539 -0.6500
 9386SOL    HW139617   3.479   2.739   5.457  1.1053 -1.4187 -0.5560
 9386SOL    HW239618   3.496   2.778   5.314  0.4735  1.9905  1.5025
 9387SOL     OW39619   2.345   2.013  14.159  0.4171 -0.0768  0.0388
 9387SOL    HW139620   2.379   2.102  14.150 -1.6631  0.7964  0.6953
 9387SOL    HW239621   2.417   1.959  14.128  0.7661  1.1355 -1.2756
 9388SOL     OW39622   3.547   3.834  13.588 -0.3464 -0.1589 -0.3913
 9388SOL    HW139623   3.560   3.796  13.501 -1.9588 -1.5222 -0.0460
 9388SOL    HW239624   3.634   3.869  13.607 -0.1619  0.8554 -3.1462
 9389SOL     OW39625   2.768   0.344   9.010  0.2446  0.1371 -0.0238
 9389SOL    HW139626   2.761   0.434   9.041 -0.5033 -0.6237  2.0127
 9389SOL    HW239627   2.743   0.355   8.918  2.6075 -1.6935 -0.8722
 9390SOL     OW39628   1.973   2.965   8.760  0.5320  0.0361 -0.3077
 9390SOL    HW139629   2.011   2.988   8.845  0.8391 -3.1398  0.3948
 9390SOL    HW239630   1.958   3.057   8.736  1.2051  0.6392  1.5581
 9391SOL     OW39631   3.583   1.097   9.960  0.2263  0.4584  0.5904
 9391SOL    HW139632   3.546   1.009   9.961  1.1070  0.0931  1.5207
 9391SOL    HW239633   3.558   1.135   9.876 -1.3337  0.0597  0.8740
 9392SOL     OW39634   4.150   2.244   7.970 -0.0018 -0.0380 -0.4371
 9392SOL    HW139635   4.064   2.260   8.009 -0.0788 -0.0400 -0.6087
 9392SOL    HW239636   4.185   2.333   7.980 -2.4224  0.8732  0.0602
 9393SOL     OW39637   4.662   3.432   0.608  0.1317 -0.2096  0.4083
 9393SOL    HW139638   4.687   3.393   0.692 -1.0175  1.6984  1.6570
 9393SOL    HW239639   4.703   3.373   0.545 -0.6569  0.0779 -0.3804
 9394SOL     OW39640   4.156   4.080  14.423 -0.0600  0.2170 -0.4344
 9394SOL    HW139641   4.064   4.066  14.447  0.5645 -1.0157  1.2111
 9394SOL    HW239642   4.184   3.990  14.440  0.3094  0.1656 -1.2905
 9395SOL     OW39643   1.625   2.807   5.803  0.0749 -0.0636 -0.3612
 9395SOL    HW139644   1.617   2.899   5.779 -1.1353 -0.4085 -1.3188
 9395SOL    HW239645   1.580   2.761   5.732 -2.0878 -0.4015  1.2305
 9396SOL     OW39646   0.274   1.972   9.686 -0.2424 -0.1891  0.5080
 9396SOL    HW139647   0.335   1.912   9.730  1.1117  1.0320  0.2940
 9396SOL    HW239648   0.208   1.981   9.754  0.0664 -2.7122  1.1781
 9397SOL     OW39649   4.248   2.900  15.310  0.1821  0.4358  0.9403
 9397SOL    HW139650   4.153   2.911  15.301  0.1718  0.1709  0.7228
 9397SOL    HW239651   4.279   2.970  15.253 -1.1947 -0.1947 -0.5936
 9398SOL     OW39652   1.010   4.340  15.049 -0.1396  0.2496 -0.3088
 9398SOL    HW139653   1.000   4.353  15.143  1.5662  2.3645 -0.4251
 9398SOL    HW239654   1.049   4.252  15.049 -0.6687  0.0174 -1.4100
 9399SOL     OW39655   2.085   1.421   9.193  0.0339 -0.4169  0.3052
 9399SOL    HW139656   2.095   1.514   9.210 -1.5974 -0.5300  1.9207
 9399SOL    HW239657   2.040   1.400   9.275  1.2409 -2.4812  0.4620
 9400SOL     OW39658   0.842   3.689  10.874 -0.2787 -0.0689 -0.1011
 9400SOL    HW139659   0.800   3.624  10.817  2.1569 -1.1233 -0.7422
 9400SOL    HW239660   0.804   3.768  10.837 -2.8420 -0.5428  1.5389
 9401SOL     OW39661   0.284   2.634  16.388  0.5404 -0.1185 -0.5355
 9401SOL    HW139662   0.191   2.624  16.368 -0.1997  0.3567  2.6761
 9401SOL    HW239663   0.283   2.693  16.463  1.1513  0.3362 -0.8897
 9402SOL     OW39664   1.468   1.157   9.018 -0.2659 -0.4054  0.4961
 9402SOL    HW139665   1.465   1.140   9.112  1.6189 -0.2980  0.5773
 9402SOL    HW239666   1.381   1.197   9.010  0.2462  1.0702  2.1640
 9403SOL     OW39667   0.853   0.139   1.294 -0.2419 -0.3258 -0.0438
 9403SOL    HW139668   0.898   0.209   1.246 -1.5276  1.4947  1.3842
 9403SOL    HW239669   0.899   0.065   1.254 -0.4244 -0.4279 -0.0640
 9404SOL     OW39670   1.740   2.199   9.992  0.4688  0.4369 -0.0508
 9404SOL    HW139671   1.813   2.259   9.978  0.5829 -0.0912 -1.6888
 9404SOL    HW239672   1.685   2.249  10.053  0.0794 -0.1374  0.0750
 9405SOL     OW39673   3.701   4.607   3.759  0.0987 -0.0121 -0.2667
 9405SOL    HW139674   3.687   4.630   3.667  0.7447 -0.4949 -0.4865
 9405SOL    HW239675   3.611   4.579   3.778 -0.0194 -0.9649 -2.2051
 9406SOL     OW39676   1.699   2.328  15.481  0.0217 -0.0073  0.3107
 9406SOL    HW139677   1.690   2.291  15.393 -1.7947 -1.6498  1.1955
 9406SOL    HW239678   1.793   2.347  15.482  0.0797 -0.3384  1.1102
 9407SOL     OW39679   0.519   2.524   3.819  0.6534  0.3126 -0.0692
 9407SOL    HW139680   0.488   2.480   3.740  3.7985 -1.4945 -0.3007
 9407SOL    HW239681   0.545   2.608   3.781 -1.2066  1.5325  1.3691
 9408SOL     OW39682   0.414   1.485   8.402  0.0467  0.2266 -0.1910
 9408SOL    HW139683   0.421   1.507   8.494  1.0506 -1.0900  0.0426
 9408SOL    HW239684   0.488   1.424   8.399  1.9939  2.5424 -0.0220
 9409SOL     OW39685   2.903   4.128  11.547  0.1813 -0.1188 -0.0541
 9409SOL    HW139686   2.998   4.122  11.560 -0.0358 -0.5804  1.3169
 9409SOL    HW239687   2.891   4.216  11.512  1.4896  0.0669 -0.0545
 9410SOL     OW39688   0.910   2.740   8.990 -0.1852  0.4377  0.1252
 9410SOL    HW139689   0.912   2.758   8.895  1.9712  0.3623  0.1670
 9410SOL    HW239690   1.005   2.731   9.000  0.0697 -0.9306 -3.4641
 9411SOL     OW39691   0.494   2.524   2.215 -0.5613 -0.5698  0.6647
 9411SOL    HW139692   0.490   2.619   2.201 -0.9277 -0.3196  2.5591
 9411SOL    HW239693   0.586   2.499   2.202 -0.6050  0.2233 -1.2668
 9412SOL     OW39694   0.413   4.208   4.799 -0.4885  0.1621  0.2742
 9412SOL    HW139695   0.447   4.183   4.885  0.9024 -0.8958 -0.5705
 9412SOL    HW239696   0.327   4.168   4.795 -0.7102  0.5181  1.6821
 9413SOL     OW39697   2.964   0.161   9.080 -0.5533  0.0571  0.1614
 9413SOL    HW139698   2.919   0.245   9.074  2.7568  1.9468  1.8969
 9413SOL    HW239699   2.951   0.136   8.988 -1.6287 -0.4852  0.4550
 9414SOL     OW39700   1.050   0.390   6.667  0.3576  0.3343  0.4324
 9414SOL    HW139701   1.053   0.373   6.573  0.4434 -1.1041  0.6993
 9414SOL    HW239702   1.134   0.352   6.693 -1.6167 -2.2913  2.9426
 9415SOL     OW39703   1.995   0.698   8.130  0.0530 -0.5003 -0.9216
 9415SOL    HW139704   2.031   0.629   8.186  0.4074  0.2627 -0.2055
 9415SOL    HW239705   2.081   0.728   8.104  0.0261  0.4699  0.1108
 9416SOL     OW39706   1.338   3.557   0.271  0.1432  0.3149  0.4504
 9416SOL    HW139707   1.354   3.515   0.356 -3.1980  2.0367  1.9432
 9416SOL    HW239708   1.268   3.497   0.243  1.7255  0.3675 -3.6392
 9417SOL     OW39709   3.338   3.949   7.032 -0.2753  0.0159  0.2907
 9417SOL    HW139710   3.343   4.011   7.105  3.5879  1.5767 -1.2645
 9417SOL    HW239711   3.354   3.864   7.073 -1.4650 -0.1074  0.4962
 9418SOL     OW39712   2.834   0.845  16.176 -0.0554 -0.4264  0.9645
 9418SOL    HW139713   2.917   0.810  16.208  0.5287 -0.9078 -1.0838
 9418SOL    HW239714   2.836   0.817  16.084  0.1610 -1.4905  1.2913
 9419SOL     OW39715   3.262   4.685   6.667 -0.3032 -0.2506  0.2656
 9419SOL    HW139716   3.186   4.634   6.640 -2.0131  2.0554  0.6910
 9419SOL    HW239717   3.328   4.694   6.598  1.7936  0.7440  2.3949
 9420SOL     OW39718   3.123   0.743   0.873  0.3736  0.1688  0.3619
 9420SOL    HW139719   3.038   0.749   0.829  0.7550 -0.5004 -0.4499
 9420SOL    HW239720   3.185   0.734   0.801  0.4498  1.3243  0.2827
 9421SOL     OW39721   2.811   2.058   3.612  0.2069  0.1629 -0.1548
 9421SOL    HW139722   2.888   2.008   3.586  0.4289  0.9395 -0.9743
 9421SOL    HW239723   2.801   2.031   3.703  2.7296  2.5286  0.8272
 9422SOL     OW39724   4.476   1.076   1.787 -0.5917 -0.0043  0.4005
 9422SOL    HW139725   4.392   1.033   1.799 -1.3380  1.4292  0.2054
 9422SOL    HW239726   4.464   1.158   1.834  1.1642  0.5982 -0.1710
 9423SOL     OW39727   0.237   3.464   4.137 -0.2243 -0.0642  0.5033
 9423SOL    HW139728   0.194   3.535   4.089  1.0703  0.8839  0.7702
 9423SOL    HW239729   0.188   3.384   4.115  1.2588 -0.9308  0.3620
 9424SOL     OW39730   1.139   4.401   6.996 -0.0135  0.0378 -0.5659
 9424SOL    HW139731   1.120   4.311   6.971  1.3941 -0.6897  1.0356
 9424SOL    HW239732   1.075   4.427   7.062 -0.2138 -0.3818 -0.5973
 9425SOL     OW39733   2.961   1.129   8.064 -0.2021 -0.0341 -0.3187
 9425SOL    HW139734   3.055   1.110   8.059  0.1077  1.9541 -2.1107
 9425SOL    HW239735   2.962   1.209   8.117 -1.6985  0.1319 -0.5512
 9426SOL     OW39736   3.725   2.312   6.500  0.3340 -0.1212  0.4637
 9426SOL    HW139737   3.764   2.225   6.502 -0.9223 -0.7922 -4.5617
 9426SOL    HW239738   3.802   2.361   6.529  1.0439 -0.5390 -0.7041
 9427SOL     OW39739   2.989   1.535   0.942 -0.2464  0.3749  0.5897
 9427SOL    HW139740   2.978   1.491   1.026  2.0634 -1.3604 -0.0189
 9427SOL    HW239741   3.015   1.458   0.890 -2.6857  1.6047 -2.4792
 9428SOL     OW39742   0.952   2.391   6.126 -0.7392  0.1967  1.0184
 9428SOL    HW139743   0.974   2.439   6.046 -0.5109 -0.4758  0.6847
 9428SOL    HW239744   0.861   2.412   6.148 -0.8522  0.8579 -0.0713
 9429SOL     OW39745   2.524   3.268  16.779 -0.1874 -0.0482  0.5852
 9429SOL    HW139746   2.467   3.231  16.712  0.7010  1.7104 -1.1459
 9429SOL    HW239747   2.492   3.215  16.852  1.9205 -2.5189 -0.2578
 9430SOL     OW39748   2.980   1.060   2.843  0.0303 -0.0899 -0.4764
 9430SOL    HW139749   2.892   1.053   2.881  0.8208  3.3360  1.9562
 9430SOL    HW239750   3.008   0.968   2.838 -1.6002 -0.7626  2.5623
 9431SOL     OW39751   4.184   2.309   8.311 -0.3549  0.0873  0.2341
 9431SOL    HW139752   4.114   2.368   8.284  0.4849 -0.0954 -2.4205
 9431SOL    HW239753   4.180   2.237   8.247 -0.5436 -0.6817  1.1068
 9432SOL     OW39754   4.244   0.992   6.029  0.4484  0.5310 -0.2887
 9432SOL    HW139755   4.179   0.988   5.959  0.5926 -2.5268 -0.2402
 9432SOL    HW239756   4.220   1.078   6.063  0.2885  1.0901 -1.8538
 9433SOL     OW39757   3.754   4.631  10.675 -0.1394  0.6630 -0.1396
 9433SOL    HW139758   3.824   4.697  10.671  1.4523 -1.0036  0.4872
 9433SOL    HW239759   3.672   4.678  10.685  0.0793  0.9658  0.2453
 9434SOL     OW39760   1.397   2.901   9.926 -0.3002  0.1800  0.0363
 9434SOL    HW139761   1.428   2.912   9.836  1.4166  1.3882  0.7787
 9434SOL    HW239762   1.308   2.872   9.907 -0.8752  1.6646  0.4516
 9435SOL     OW39763   1.108   3.084   2.125 -0.0928  0.0796 -0.4434
 9435SOL    HW139764   1.116   3.126   2.210  1.4055 -0.7717 -0.1642
 9435SOL    HW239765   1.025   3.127   2.106 -0.6062 -2.0989 -3.1956
 9436SOL     OW39766   4.152   3.406   2.847  0.1602 -0.1331  0.3052
 9436SOL    HW139767   4.104   3.324   2.843  1.5023 -0.9689  1.3334
 9436SOL    HW239768   4.162   3.428   2.755 -2.3822 -0.5630 -0.0814
 9437SOL     OW39769   2.096   2.679  17.214 -0.0425  0.1487  1.0611
 9437SOL    HW139770   2.080   2.701  17.306 -0.1139 -0.9990  1.3163
 9437SOL    HW239771   2.134   2.592  17.225 -0.0224 -0.1633 -1.6465
 9438SOL     OW39772   2.726   1.051   4.680 -0.3718 -0.5358 -0.2173
 9438SOL    HW139773   2.714   1.145   4.684  2.3716 -0.2705  1.7217
 9438SOL    HW239774   2.804   1.045   4.735  0.1479 -0.6273 -0.9647
 9439SOL     OW39775   1.679   0.739   8.401 -0.1666 -0.1102 -0.5932
 9439SOL    HW139776   1.731   0.820   8.403 -0.4250  0.0591 -0.6727
 9439SOL    HW239777   1.681   0.722   8.307  2.0928 -1.3480 -0.3158
 9440SOL     OW39778   1.678   0.399  10.543 -0.1818  0.1822  0.4152
 9440SOL    HW139779   1.709   0.489  10.555  1.9249 -0.6679  1.3733
 9440SOL    HW239780   1.708   0.385  10.453  0.0463 -1.3800  0.7348
 9441SOL     OW39781   0.255   1.159   7.901 -0.1489  0.1431 -0.3869
 9441SOL    HW139782   0.214   1.213   7.968 -0.4223  0.7795 -1.0739
 9441SOL    HW239783   0.345   1.175   7.929 -0.4487  2.7686 -0.9608
 9442SOL     OW39784   0.558   2.186   2.620  0.0857 -0.1264  0.6673
 9442SOL    HW139785   0.541   2.248   2.549 -2.2325 -1.2664  0.2234
 9442SOL    HW239786   0.480   2.196   2.674 -0.0822 -1.0950  0.6043
 9443SOL     OW39787   1.133   2.632   2.760  0.4069 -0.4958  0.0251
 9443SOL    HW139788   1.120   2.608   2.852  0.1364 -0.5877 -0.0385
 9443SOL    HW239789   1.135   2.544   2.724 -0.3299 -0.6766  0.4368
 9444SOL     OW39790   1.712   2.228   6.172 -0.3478  0.4131  0.3834
 9444SOL    HW139791   1.703   2.323   6.185  0.4274  0.7271 -1.4422
 9444SOL    HW239792   1.619   2.208   6.186 -0.2570 -0.4885 -0.3225
 9445SOL     OW39793   2.817   4.721  17.045 -0.0473 -0.0002 -0.0023
 9445SOL    HW139794   2.784   4.666  17.116 -2.6480  0.7326 -0.6504
 9445SOL    HW239795   2.891   0.033  17.093  0.6016  2.3768 -2.7770
 9446SOL     OW39796   2.068   2.495   0.473 -0.9394 -0.5801  0.2816
 9446SOL    HW139797   2.044   2.533   0.388 -0.6829 -1.6286 -0.2520
 9446SOL    HW239798   2.074   2.580   0.518 -0.5050 -0.0408 -0.7960
 9447SOL     OW39799   2.467   2.266   1.740 -0.0168  0.1594  0.4439
 9447SOL    HW139800   2.525   2.250   1.665 -0.8757  0.1188 -0.2129
 9447SOL    HW239801   2.494   2.354   1.766  0.9855 -0.5965  1.9774
 9448SOL     OW39802   3.158   0.169   7.074  0.0845 -0.4219  0.9496
 9448SOL    HW139803   3.203   0.253   7.071  2.9010 -1.9589  0.8728
 9448SOL    HW239804   3.068   0.198   7.055  0.6637  0.8682  0.1550
 9449SOL     OW39805   3.310   4.423  11.559 -0.0122  0.2440  0.3641
 9449SOL    HW139806   3.397   4.415  11.520 -0.3319 -0.5258 -0.1805
 9449SOL    HW239807   3.266   4.458  11.482  0.4655  1.6641  0.7423
 9450SOL     OW39808   2.242   0.415  12.699  0.2545 -0.6897 -0.2825
 9450SOL    HW139809   2.179   0.487  12.693  2.2498  1.2357  2.0306
 9450SOL    HW239810   2.215   0.354  12.768  0.9638 -0.7703 -0.0773
 9451SOL     OW39811   0.588   0.001   6.654 -0.0735  0.1113 -0.5218
 9451SOL    HW139812   0.643   4.654   6.689 -1.1215 -0.0779  0.7208
 9451SOL    HW239813   0.509   4.721   6.708 -0.5370  0.9352 -1.1425
 9452SOL     OW39814   1.570   3.236   7.930 -0.0715 -0.1590  0.2157
 9452SOL    HW139815   1.488   3.190   7.914  0.6155 -1.3387  0.0653
 9452SOL    HW239816   1.552   3.274   8.017  2.7888  0.5509  0.5034
 9453SOL     OW39817   0.468   0.298   0.848  0.7635  0.0164 -0.0447
 9453SOL    HW139818   0.464   0.251   0.931 -0.3054 -0.3665 -0.3145
 9453SOL    HW239819   0.506   0.381   0.878 -3.3089  2.7317 -2.4143
 9454SOL     OW39820   4.724   2.648  16.376 -0.3000 -0.2376 -0.7948
 9454SOL    HW139821   4.634   2.647  16.343  0.2955 -0.5300 -2.3673
 9454SOL    HW239822   0.017   2.742  16.374 -0.1601 -0.2911 -2.0294
 9455SOL     OW39823   1.518   2.287   5.772 -0.0618  0.0635 -0.1258
 9455SOL    HW139824   1.520   2.363   5.714 -0.6812  0.0845 -0.1212
 9455SOL    HW239825   1.586   2.236   5.728 -0.4853 -1.3783  0.8768
 9456SOL     OW39826   4.612   0.598   6.524 -0.6648 -0.3582 -0.4601
 9456SOL    HW139827   4.592   0.691   6.519  1.0134 -0.0090 -0.6343
 9456SOL    HW239828   4.563   0.564   6.449 -0.6397  0.0510 -0.6599
 9457SOL     OW39829   4.702   3.318   0.345 -0.1235  0.1496  0.1731
 9457SOL    HW139830   0.041   3.371   0.296 -0.9272  0.6609 -0.3082
 9457SOL    HW239831   4.629   3.325   0.283 -1.7563 -0.8806  1.9926
 9458SOL     OW39832   3.021   2.396  16.813 -0.6264 -0.0647 -0.0797
 9458SOL    HW139833   3.081   2.469  16.830  0.5459 -0.8624 -0.7523
 9458SOL    HW239834   3.055   2.329  16.872 -1.5395 -0.5614 -0.1258
 9459SOL     OW39835   0.924   4.249   1.571 -0.5005  0.5523 -0.4335
 9459SOL    HW139836   1.002   4.249   1.515  0.1378  0.5139  0.4362
 9459SOL    HW239837   0.945   4.187   1.641 -0.0249 -0.0753 -1.1347
 9460SOL     OW39838   2.539   0.459   3.711 -0.4918 -0.4274  0.3870
 9460SOL    HW139839   2.480   0.411   3.654  0.4500 -1.4673  0.2888
 9460SOL    HW239840   2.615   0.404   3.693 -0.8881 -1.2675  1.2607
 9461SOL     OW39841   2.881   1.159  11.069  0.0208 -0.4750 -1.0859
 9461SOL    HW139842   2.952   1.102  11.099 -1.4726 -1.2695  0.9075
 9461SOL    HW239843   2.833   1.179  11.149 -1.7639  1.1810 -2.5648
 9462SOL     OW39844   0.329   3.142   7.856  0.1329  0.2764 -0.2447
 9462SOL    HW139845   0.355   3.203   7.787 -0.9255 -1.0094 -1.7890
 9462SOL    HW239846   0.270   3.084   7.807 -0.4797  0.2437  0.5322
 9463SOL     OW39847   1.259   2.531   4.222 -0.0128 -0.1253  0.3950
 9463SOL    HW139848   1.337   2.567   4.179 -0.3673  1.7791  1.2979
 9463SOL    HW239849   1.213   2.610   4.252  0.1358 -0.7475  2.2758
 9464SOL     OW39850   0.565   4.500  11.829 -0.6201 -0.2613  0.3248
 9464SOL    HW139851   0.484   4.449  11.828  0.2621 -1.6272 -1.0465
 9464SOL    HW239852   0.533   4.581  11.869  1.9757  0.2747  1.2736
 9465SOL     OW39853   4.511   3.040   1.908  0.1570  0.5688  0.0642
 9465SOL    HW139854   4.450   3.046   1.834 -1.2054 -0.0404  1.1538
 9465SOL    HW239855   4.458   3.041   1.987  3.3821 -1.0038  2.2472
 9466SOL     OW39856   1.602   1.116  15.854  0.0284  0.5432  0.6365
 9466SOL    HW139857   1.513   1.119  15.818  0.1530 -0.4483  0.2481
 9466SOL    HW239858   1.619   1.207  15.828  3.2758  0.0431  1.0972
 9467SOL     OW39859   1.423   3.296   9.183  0.2321  0.0232  0.6833
 9467SOL    HW139860   1.480   3.366   9.150 -3.2778  2.6157  0.1366
 9467SOL    HW239861   1.341   3.341   9.163  0.7617  1.1148  0.9469
 9468SOL     OW39862   3.920   2.365  10.102 -0.1452 -0.0051 -0.7059
 9468SOL    HW139863   3.931   2.357  10.197  0.4291  0.2431 -0.7542
 9468SOL    HW239864   3.958   2.286  10.064  1.2073 -0.1002  0.8505
 9469SOL     OW39865   0.760   2.872   4.906 -0.0194 -0.5641 -0.0400
 9469SOL    HW139866   0.771   2.946   4.965  0.3046 -0.3615 -0.3510
 9469SOL    HW239867   0.851   2.849   4.883  0.6419  0.9383  1.0535
 9470SOL     OW39868   2.394   2.843   3.434 -0.5083 -0.1104  0.4371
 9470SOL    HW139869   2.396   2.934   3.465  3.1151  0.2814 -0.8806
 9470SOL    HW239870   2.427   2.803   3.515 -1.2571  0.4486  1.0239
 9471SOL     OW39871   0.203   2.240   4.517 -0.3669 -0.1084  0.4676
 9471SOL    HW139872   0.188   2.155   4.475  0.0936  0.5540 -1.0278
 9471SOL    HW239873   0.181   2.221   4.609 -0.7735  0.0436  0.3991
 9472SOL     OW39874   1.819   4.473   3.777  0.5440  0.1521 -0.3587
 9472SOL    HW139875   1.876   4.463   3.700  0.2703  0.5576 -0.6193
 9472SOL    HW239876   1.774   4.555   3.753  0.7990  0.3265 -0.2414
 9473SOL     OW39877   3.048   4.423   3.941  0.3636  0.6411  0.4783
 9473SOL    HW139878   3.116   4.370   3.900 -0.2566  1.5009 -1.7051
 9473SOL    HW239879   2.970   4.368   3.947  0.9579 -0.1775  0.7065
 9474SOL     OW39880   4.653   1.325   3.079 -0.2286  0.7359 -0.1796
 9474SOL    HW139881   0.019   1.292   3.073 -1.0423 -1.3733 -1.1835
 9474SOL    HW239882   4.629   1.298   3.167  2.6098  0.5535  0.5354
 9475SOL     OW39883   2.865   2.461   7.883  0.1381  0.4370 -0.0756
 9475SOL    HW139884   2.797   2.406   7.920  2.3198 -2.0876  0.1497
 9475SOL    HW239885   2.818   2.543   7.898  0.8365  0.8160  0.0685
 9476SOL     OW39886   1.351   2.348   5.993 -0.0483  0.0475  0.1108
 9476SOL    HW139887   1.311   2.433   5.974 -0.1907 -0.1405 -0.4269
 9476SOL    HW239888   1.421   2.345   5.928  1.3824 -2.5629  1.8050
 9477SOL     OW39889   1.062   0.668  15.740 -0.2447 -0.6553  0.2509
 9477SOL    HW139890   1.158   0.671  15.742 -0.2744  1.5178 -1.8985
 9477SOL    HW239891   1.043   0.757  15.772  0.5572  0.0792 -1.3479
 9478SOL     OW39892   0.381   0.500  13.091  0.2332 -0.6995  0.3000
 9478SOL    HW139893   0.380   0.405  13.085  0.8453 -0.5695 -1.8650
 9478SOL    HW239894   0.289   0.524  13.100  0.6642  0.2485  2.1845
 9479SOL     OW39895   3.090   3.534   0.384  0.2260  0.1488  0.2648
 9479SOL    HW139896   3.026   3.598   0.354 -2.2032 -3.8678 -3.0224
 9479SOL    HW239897   3.135   3.503   0.305  0.8240  0.0193  0.6517
 9480SOL     OW39898   1.719   3.573  12.097  0.8470  0.0618  0.5813
 9480SOL    HW139899   1.648   3.520  12.063  0.5966  0.7136  0.0914
 9480SOL    HW239900   1.792   3.548  12.041 -0.9322  1.7459 -2.4472
 9481SOL     OW39901   1.274   1.239   7.852  0.0902  0.4085  0.1013
 9481SOL    HW139902   1.211   1.311   7.845  0.8143  1.3189  3.1155
 9481SOL    HW239903   1.343   1.277   7.906 -1.3166  2.5268  0.4016
 9482SOL     OW39904   2.025   0.828   4.116  0.3954 -0.3346 -0.0038
 9482SOL    HW139905   2.079   0.752   4.096 -0.5402 -1.2600  0.9618
 9482SOL    HW239906   1.942   0.805   4.074  1.7560 -2.5936 -1.4379
 9483SOL     OW39907   1.492   3.500  15.524  0.3985 -0.5045 -0.4420
 9483SOL    HW139908   1.523   3.591  15.526  1.2169 -0.7861 -0.1045
 9483SOL    HW239909   1.522   3.477  15.436  0.4893 -0.7042 -0.3595
 9484SOL     OW39910   4.115   2.580  10.100 -0.5008  0.7741 -0.4257
 9484SOL    HW139911   4.049   2.649  10.109  0.3416  1.4743  0.3952
 9484SOL    HW239912   4.050   2.513  10.123  0.3028  0.6871  1.5624
 9485SOL     OW39913   0.013   3.228   6.577  0.3031 -0.1466  0.2795
 9485SOL    HW139914   0.054   3.144   6.557 -1.0727 -0.7005 -0.2212
 9485SOL    HW239915   0.066   3.250   6.653 -0.2022 -0.1189  0.6230
 9486SOL     OW39916   2.765   2.388  13.476 -0.3433  0.1280 -0.9014
 9486SOL    HW139917   2.837   2.450  13.486 -0.1271 -0.3373  0.5218
 9486SOL    HW239918   2.809   2.306  13.451 -0.8570 -1.0276  1.9408
 9487SOL     OW39919   0.546   1.680   3.089 -0.2745  0.2728  0.7883
 9487SOL    HW139920   0.609   1.636   3.032 -2.4309 -3.0083  0.9550
 9487SOL    HW239921   0.483   1.692   3.018  0.7327  0.0010 -0.1699
 9488SOL     OW39922   2.552   1.870   2.595 -0.4117 -0.4090 -0.5570
 9488SOL    HW139923   2.564   1.945   2.653 -2.3973 -1.8489  1.7073
 9488SOL    HW239924   2.629   1.821   2.625 -1.1968 -0.8700  0.7393
 9489SOL     OW39925   4.680   4.230   9.388  0.2983  0.2664  0.4450
 9489SOL    HW139926   0.035   4.178   9.401 -0.6497 -1.2767  0.0645
 9489SOL    HW239927   4.681   4.289   9.464  0.7016 -0.4068  0.9652
 9490SOL     OW39928   3.883   3.969  11.423  0.0583 -0.4346  0.1625
 9490SOL    HW139929   3.963   4.007  11.387 -0.3156  0.5074  0.3278
 9490SOL    HW239930   3.861   3.904  11.357  2.8374  0.7107 -1.8863
 9491SOL     OW39931   2.379   2.663   3.237  0.1494 -0.1372 -0.2454
 9491SOL    HW139932   2.394   2.716   3.158 -2.6449  0.3622 -0.4371
 9491SOL    HW239933   2.365   2.732   3.301  2.2600  1.4647 -1.5135
 9492SOL     OW39934   3.810   1.695  12.088 -0.4272 -0.1173 -0.0678
 9492SOL    HW139935   3.849   1.782  12.094 -1.3453  0.2839  0.0133
 9492SOL    HW239936   3.716   1.712  12.096 -0.1120  2.4119 -1.9778
 9493SOL     OW39937   2.974   0.773  16.445  0.3076  0.1994  0.1037
 9493SOL    HW139938   2.936   0.824  16.516 -0.3193 -0.6131  0.3445
 9493SOL    HW239939   3.021   0.708  16.497 -2.3837 -2.1610 -0.4561
 9494SOL     OW39940   2.226   3.901   7.606 -0.0798  0.0061 -0.4928
 9494SOL    HW139941   2.207   3.908   7.700 -0.7283 -0.7854 -0.5666
 9494SOL    HW239942   2.234   3.805   7.603  0.2286 -0.0360  1.2514
 9495SOL     OW39943   4.571   0.858   6.395 -0.0372 -0.3161 -0.1520
 9495SOL    HW139944   4.629   0.857   6.318  1.3715 -2.0257  0.9267
 9495SOL    HW239945   4.484   0.873   6.358 -0.7002 -0.9915  1.1273
 9496SOL     OW39946   1.363   4.458   3.715 -0.0232 -0.5565 -0.3062
 9496SOL    HW139947   1.386   4.519   3.785 -0.1448 -2.9483  1.8387
 9496SOL    HW239948   1.333   4.382   3.766  1.8456  0.0870  1.7270
 9497SOL     OW39949   2.819   3.832   9.846  0.3505 -0.5065  0.1791
 9497SOL    HW139950   2.852   3.873   9.926  3.3828 -1.0735 -0.7653
 9497SOL    HW239951   2.751   3.777   9.883 -0.4468  1.0950  1.0554
 9498SOL     OW39952   4.673   2.486  13.682 -0.1751  0.2338  0.2667
 9498SOL    HW139953   4.605   2.461  13.619 -0.5349  2.1423 -0.1112
 9498SOL    HW239954   4.666   2.428  13.757 -0.4582 -1.0872 -0.7716
 9499SOL     OW39955   1.610   4.489   7.031  0.2939  0.0795 -0.0267
 9499SOL    HW139956   1.569   4.566   6.989 -1.5987  0.8975  3.3380
 9499SOL    HW239957   1.523   4.453   7.048  1.0312 -0.4009  2.6494
 9500SOL     OW39958   3.160   1.636  13.659  0.5916  0.1984  0.1328
 9500SOL    HW139959   3.212   1.615  13.581  1.0878  0.8980  0.2828
 9500SOL    HW239960   3.148   1.722  13.621 -0.5433  0.7388  1.7166
 9501SOL     OW39961   0.327   3.063  16.660  0.4765  0.3294 -0.0581
 9501SOL    HW139962   0.316   2.982  16.710 -0.6442 -0.0273 -0.8889
 9501SOL    HW239963   0.243   3.098  16.691  0.3619  1.1782 -1.3158
 9502SOL     OW39964   0.997   3.691  14.218 -0.5069  0.5520  0.2456
 9502SOL    HW139965   0.925   3.635  14.188  0.6728 -0.9676  0.2554
 9502SOL    HW239966   0.954   3.776  14.211  0.9763  1.4445  2.4212
 9503SOL     OW39967   0.928   1.881  10.879  0.0639 -0.4879  0.6182
 9503SOL    HW139968   0.878   1.945  10.828  1.5176 -1.3518 -1.8559
 9503SOL    HW239969   0.918   1.801  10.827  2.7615 -1.1752  1.1606
 9504SOL     OW39970   0.111   2.766   4.082 -0.7748 -0.3387 -0.4796
 9504SOL    HW139971   0.017   2.779   4.098 -0.4771  0.9707  0.1943
 9504SOL    HW239972   0.100   2.702   4.012  1.1858 -1.5850  0.3513
 9505SOL     OW39973   0.416   0.450  17.607 -0.1747 -0.2879  0.1702
 9505SOL    HW139974   0.378   0.367  17.636  1.4088 -0.6660  1.1702
 9505SOL    HW239975   0.497   0.420  17.565  0.4379  2.9087 -0.8976
 9506SOL     OW39976   4.484   0.235   4.006  0.4925 -0.0366 -0.3199
 9506SOL    HW139977   4.421   0.214   3.937 -2.6198  1.0208  2.2478
 9506SOL    HW239978   4.474   0.329   3.990  2.2330 -0.0749 -1.7424
 9507SOL     OW39979   3.116   2.593   8.481 -0.5427  0.1840  0.4990
 9507SOL    HW139980   3.039   2.538   8.467 -0.4349  0.0702  0.3572
 9507SOL    HW239981   3.149   2.553   8.561 -0.9229  0.1893  0.6581
 9508SOL     OW39982   3.812   3.687  12.805  0.0128  0.1440  0.1432
 9508SOL    HW139983   3.764   3.721  12.729 -0.6098  1.8253  1.3032
 9508SOL    HW239984   3.894   3.736  12.804  0.2846 -0.3416 -0.9262
 9509SOL     OW39985   0.781   0.853  13.915  0.1577 -0.0657 -0.0661
 9509SOL    HW139986   0.713   0.842  13.981  0.9732  2.3756  1.1870
 9509SOL    HW239987   0.722   0.831  13.843  0.0822 -0.1609  0.0253
 9510SOL     OW39988   2.205   1.436  12.667 -0.7968  0.0504  0.3529
 9510SOL    HW139989   2.144   1.482  12.725 -0.3104  0.1518  0.7894
 9510SOL    HW239990   2.285   1.462  12.712 -0.8623  1.0121 -0.0743
 9511SOL     OW39991   4.657   0.671  17.228  0.0660 -0.2555  0.2723
 9511SOL    HW139992   0.006   0.729  17.248  1.2978 -0.9825 -2.1289
 9511SOL    HW239993   4.640   0.695  17.137 -1.8463  0.7113  0.8816
 9512SOL     OW39994   1.953   2.426   5.992 -0.2855  0.2388  0.5963
 9512SOL    HW139995   1.905   2.509   5.992  0.4189  0.6486  1.1689
 9512SOL    HW239996   1.971   2.414   6.085 -2.0394 -0.0326  0.9040
 9513SOL     OW39997   1.783   0.941   3.881  0.2312  0.3427 -0.3481
 9513SOL    HW139998   1.803   1.023   3.926 -0.2727 -0.4676  1.3362
 9513SOL    HW239999   1.769   0.886   3.958 -0.3270  2.0262  0.7594
 9514SOL     OW40000   2.616   4.536   4.951  0.5406 -0.1742  0.0020
 9514SOL    HW140001   2.710   4.550   4.952  0.5158  0.0604 -1.6380
 9514SOL    HW240002   2.624   4.442   4.933  1.3962  0.6964 -3.9914
 9515SOL     OW40003   0.437   2.814   3.161  0.1871 -0.2333  0.2541
 9515SOL    HW140004   0.406   2.783   3.076 -0.5920 -1.3139  0.9211
 9515SOL    HW240005   0.356   2.847   3.201 -0.6513 -1.6423 -0.2887
 9516SOL     OW40006   0.782   4.135  11.747 -0.2794  0.0144  0.0790
 9516SOL    HW140007   0.777   4.063  11.684  0.6852 -0.4659  0.5478
 9516SOL    HW240008   0.784   4.205  11.682 -1.8265 -2.1770 -2.3404
 9517SOL     OW40009   0.061   3.318   0.845  0.4548  0.3687  0.5656
 9517SOL    HW140010   0.088   3.392   0.899 -0.5673  1.0546  0.1420
 9517SOL    HW240011   0.128   3.256   0.874 -1.2456 -2.5675 -1.8178
 9518SOL     OW40012   1.236   0.261   4.791  0.4829 -0.0858  0.5113
 9518SOL    HW140013   1.184   0.339   4.812  0.5787  0.4369 -1.1707
 9518SOL    HW240014   1.320   0.289   4.826 -0.3435  1.9758  0.8590
 9519SOL     OW40015   3.475   3.718   9.056  1.0078  0.2396  1.1520
 9519SOL    HW140016   3.570   3.727   9.061  1.1477  0.1304 -1.7500
 9519SOL    HW240017   3.458   3.801   9.012 -2.9800 -0.9261  0.4962
 9520SOL     OW40018   3.062   3.777   5.329 -0.7766  0.4756 -0.4340
 9520SOL    HW140019   2.985   3.724   5.350 -0.8392 -0.1164 -2.1730
 9520SOL    HW240020   3.044   3.808   5.240 -1.0880 -0.4281 -0.6828
 9521SOL     OW40021   1.611   0.232  10.088  0.3633  0.3784  0.3021
 9521SOL    HW140022   1.605   0.221   9.993 -2.0321  2.1641  0.2690
 9521SOL    HW240023   1.520   0.245  10.114  0.0450  0.3390 -0.7897
 9522SOL     OW40024   0.358   3.421  13.534  0.5199 -0.6596  0.1548
 9522SOL    HW140025   0.419   3.355  13.566  1.2476 -0.3018 -0.4936
 9522SOL    HW240026   0.346   3.394  13.443  1.0631 -1.3295  0.2861
 9523SOL     OW40027   1.309   3.242   2.274 -0.8100 -0.6652  0.1115
 9523SOL    HW140028   1.225   3.284   2.290 -0.8408 -0.5868 -0.2679
 9523SOL    HW240029   1.322   3.274   2.185 -0.1687  0.9954  0.8014
 9524SOL     OW40030   4.294   4.383   6.111 -0.9436 -0.5573 -0.4019
 9524SOL    HW140031   4.295   4.477   6.093  2.7567 -0.1303  1.9685
 9524SOL    HW240032   4.238   4.386   6.189 -0.5983 -2.1822 -0.0924
 9525SOL     OW40033   3.245   4.211   3.396 -0.0905  0.2457 -0.3193
 9525SOL    HW140034   3.202   4.274   3.339 -2.4634 -1.2726 -0.1907
 9525SOL    HW240035   3.194   4.130   3.399 -1.4007  1.0604 -0.5790
 9526SOL     OW40036   0.835   4.261   6.680  0.0656  0.1986 -0.1293
 9526SOL    HW140037   0.863   4.350   6.658 -2.1001  0.5938 -1.1947
 9526SOL    HW240038   0.758   4.242   6.627 -0.1313  1.5833 -0.3390
 9527SOL     OW40039   2.540   2.140   6.971  0.3689  0.6350  0.4463
 9527SOL    HW140040   2.601   2.072   6.944 -1.0928 -0.3012 -0.5567
 9527SOL    HW240041   2.605   2.209   6.985  1.0433  0.6194 -2.5146
 9528SOL     OW40042   1.735   2.121   1.554  0.2926 -0.1176 -0.0737
 9528SOL    HW140043   1.774   2.089   1.473  0.4647  0.3203 -0.1627
 9528SOL    HW240044   1.646   2.129   1.520 -0.3908 -2.6496  1.0302
 9529SOL     OW40045   1.724   0.120  14.991  0.1336 -0.1845  0.1856
 9529SOL    HW140046   1.732   0.201  15.042  0.1136 -1.1309  1.6738
 9529SOL    HW240047   1.783   0.134  14.917  0.0483  0.4834  0.2456
 9530SOL     OW40048   0.477   3.299   7.092  0.0124  0.0345  0.8844
 9530SOL    HW140049   0.531   3.321   7.167  1.9074 -0.5057 -0.3338
 9530SOL    HW240050   0.475   3.384   7.049  3.1733  0.8922  2.4954
 9531SOL     OW40051   4.475   4.085   0.043 -1.0405  0.5541 -0.0591
 9531SOL    HW140052   4.459   4.059   0.134  1.9691  0.5245  0.4598
 9531SOL    HW240053   4.387   4.106   0.011 -1.3137 -0.0859  0.2815
 9532SOL     OW40054   2.783   1.739   4.123  0.1360 -0.5663  0.4218
 9532SOL    HW140055   2.863   1.749   4.072  0.9304 -1.7701  1.4208
 9532SOL    HW240056   2.742   1.663   4.081 -1.4652 -1.1224  2.9582
 9533SOL     OW40057   1.247   1.278   3.754 -0.0003 -0.4024  0.1465
 9533SOL    HW140058   1.247   1.204   3.694 -0.9580 -0.6020  0.3871
 9533SOL    HW240059   1.226   1.350   3.695  1.0412 -0.4331 -0.2697
 9534SOL     OW40060   2.896   2.964   1.140 -0.1293  0.6078  0.7661
 9534SOL    HW140061   2.871   3.051   1.109 -0.9238  0.3127  0.5515
 9534SOL    HW240062   2.830   2.911   1.094  0.5802  3.3872 -3.4321
 9535SOL     OW40063   2.234   2.378   4.364 -0.1840  0.6132  0.0230
 9535SOL    HW140064   2.171   2.449   4.378 -0.4063 -0.4319  4.2118
 9535SOL    HW240065   2.234   2.366   4.269 -0.3962  1.4474 -0.0867
 9536SOL     OW40066   4.059   0.919  12.204 -0.2472 -0.1309  0.0737
 9536SOL    HW140067   4.020   0.999  12.239 -1.1687 -0.8994  0.8212
 9536SOL    HW240068   4.123   0.946  12.139 -0.5528 -1.4483 -0.7802
 9537SOL     OW40069   1.292   1.768   5.556 -0.0117 -0.3206 -0.2781
 9537SOL    HW140070   1.383   1.741   5.545  0.8044  0.9930  3.1556
 9537SOL    HW240071   1.300   1.863   5.549 -1.9198 -0.0096  1.6550
 9538SOL     OW40072   1.606   0.945  10.196 -0.5001 -0.0173  0.4371
 9538SOL    HW140073   1.607   0.855  10.228 -0.7458  0.6600  2.3374
 9538SOL    HW240074   1.516   0.971  10.176 -0.6713 -0.7328  0.2820
 9539SOL     OW40075   0.260   3.433  16.594  0.3226  0.0262  0.3475
 9539SOL    HW140076   0.173   3.420  16.631 -0.1336  1.9036 -0.0449
 9539SOL    HW240077   0.253   3.510  16.536 -0.2687  0.1266  0.5529
 9540SOL     OW40078   1.803   3.151  10.671 -0.0622 -0.0002  0.1293
 9540SOL    HW140079   1.751   3.167  10.750 -0.5899  0.9673 -0.4317
 9540SOL    HW240080   1.784   3.223  10.613 -1.2762 -0.3546  0.0987
 9541SOL     OW40081   3.083   1.344   5.067  0.3149  0.6727 -0.4073
 9541SOL    HW140082   3.014   1.309   5.124  0.3695 -0.1646 -0.8484
 9541SOL    HW240083   3.076   1.281   4.995  1.2467  0.6499 -0.4757
 9542SOL     OW40084   2.339   0.765   2.325 -0.2946 -0.1730  0.4176
 9542SOL    HW140085   2.281   0.718   2.385  0.3275 -0.8441  0.4938
 9542SOL    HW240086   2.411   0.702   2.328  0.3650  0.5075 -0.8235
 9543SOL     OW40087   0.193   1.324  17.599  0.0235 -0.2946 -0.3330
 9543SOL    HW140088   0.244   1.325  17.518  1.3279  1.8170  0.5084
 9543SOL    HW240089   0.181   1.231  17.617  0.1049  0.1272  1.8184
 9544SOL     OW40090   1.318   0.312   3.770 -0.6614  0.2068 -0.3696
 9544SOL    HW140091   1.348   0.310   3.680 -1.6086 -2.3722 -0.6491
 9544SOL    HW240092   1.240   0.368   3.773 -0.8196 -0.0600  0.7300
 9545SOL     OW40093   2.512   2.408   4.238  0.2941  0.2526 -0.2092
 9545SOL    HW140094   2.435   2.407   4.294  0.2408  0.9615 -0.2687
 9545SOL    HW240095   2.585   2.417   4.299  2.0151 -3.9621 -1.6284
 9546SOL     OW40096   2.011   0.218   7.709  0.2305  0.0038  0.2353
 9546SOL    HW140097   1.942   0.213   7.776  0.4259 -1.5562  0.3037
 9546SOL    HW240098   2.092   0.225   7.760 -0.1747  0.7938  0.7878
 9547SOL     OW40099   4.441   0.264  10.077 -0.8966  0.0246  0.0879
 9547SOL    HW140100   4.420   0.208  10.152 -0.7455 -2.3758 -1.6525
 9547SOL    HW240101   4.510   0.215  10.033  0.3332  1.9064 -0.0538
 9548SOL     OW40102   0.637   2.547   2.773  0.9109  0.4666  0.2198
 9548SOL    HW140103   0.701   2.617   2.783  0.1069  1.4534 -1.6338
 9548SOL    HW240104   0.587   2.550   2.855 -1.0048  2.3379 -1.0316
 9549SOL     OW40105   0.791   2.971  12.463  0.9076 -0.1602 -0.2630
 9549SOL    HW140106   0.763   3.057  12.493  1.3841  0.7668 -2.4923
 9549SOL    HW240107   0.705   2.928  12.458 -0.2676  2.2060 -0.1303
 9550SOL     OW40108   4.572   4.494   1.492 -0.2209  0.9161 -0.0889
 9550SOL    HW140109   4.665   4.483   1.470 -0.6839  0.9488 -2.0384
 9550SOL    HW240110   4.570   4.482   1.587  4.6414  3.8713  0.4218
 9551SOL     OW40111   3.409   0.071   4.776 -0.3092 -0.2860 -0.9312
 9551SOL    HW140112   3.451   0.037   4.855  0.1932 -2.1923 -2.0346
 9551SOL    HW240113   3.334   0.012   4.777  0.8025 -1.6929  0.3692
 9552SOL     OW40114   1.753   3.640   6.463  0.6702  0.1042 -0.2626
 9552SOL    HW140115   1.730   3.662   6.553 -1.0321 -1.2648 -0.3710
 9552SOL    HW240116   1.701   3.561   6.451  0.1885  0.2696  0.7265
 9553SOL     OW40117   4.621   4.143  14.975 -0.6594  0.1437  0.0254
 9553SOL    HW140118   4.695   4.140  14.915  0.5319 -0.8573  1.5473
 9553SOL    HW240119   4.543   4.149  14.920 -0.3578 -0.4474 -0.4632
 9554SOL     OW40120   2.625   4.465  14.384  0.1951  0.1546  0.6942
 9554SOL    HW140121   2.680   4.526  14.434 -0.4568  1.6874 -0.4688
 9554SOL    HW240122   2.644   4.380  14.425 -1.4353 -1.5499 -2.1513
 9555SOL     OW40123   0.360   1.149   4.555 -0.1618 -0.4579 -0.6015
 9555SOL    HW140124   0.346   1.057   4.534 -1.8303 -0.3601  0.0368
 9555SOL    HW240125   0.345   1.195   4.472  0.4504  0.1257 -0.3834
 9556SOL     OW40126   2.196   4.530  16.266 -0.1316 -0.4425 -0.6710
 9556SOL    HW140127   2.229   4.581  16.193  1.9828  0.9997  1.3084
 9556SOL    HW240128   2.268   4.467  16.274  1.9574  2.0239 -0.3978
 9557SOL     OW40129   2.978   0.066   8.835 -0.2795  0.5480  0.1190
 9557SOL    HW140130   2.982   0.107   8.749 -1.2936  0.0359 -0.1753
 9557SOL    HW240131   2.930   4.710   8.816 -0.5184  0.0730  2.6184
 9558SOL     OW40132   1.026   3.693   4.112 -0.1530 -0.3768 -0.1239
 9558SOL    HW140133   1.040   3.693   4.018 -3.0958  0.5420 -0.5509
 9558SOL    HW240134   1.041   3.786   4.125  0.9805 -0.4808 -0.7126
 9559SOL     OW40135   3.145   2.894  17.074 -0.4239  0.4860 -0.3083
 9559SOL    HW140136   3.130   2.916  17.166  1.3088  0.2673  0.0438
 9559SOL    HW240137   3.111   2.966  17.020  0.0728 -0.1631 -1.4727
 9560SOL     OW40138   3.833   4.573   2.321  0.0529  0.1381 -0.8256
 9560SOL    HW140139   3.819   4.609   2.408  0.0831  0.8088 -1.0995
 9560SOL    HW240140   3.768   4.505   2.302 -0.5655 -0.3574  3.0995
 9561SOL     OW40141   1.736   2.715   7.411 -0.8172  0.4182 -0.1857
 9561SOL    HW140142   1.722   2.626   7.441  1.0394  0.2241  0.1271
 9561SOL    HW240143   1.768   2.752   7.493 -0.0819 -1.0620  0.1773
 9562SOL     OW40144   2.324   0.400  14.995 -0.2233 -0.2292 -0.3178
 9562SOL    HW140145   2.318   0.425  14.902 -0.5319  1.0644  0.0583
 9562SOL    HW240146   2.369   0.476  15.032 -0.4008 -0.6804  0.8211
 9563SOL     OW40147   0.659   0.928   4.130 -0.0172 -0.6444 -0.0942
 9563SOL    HW140148   0.748   0.923   4.165  0.5199 -0.0913 -1.4115
 9563SOL    HW240149   0.619   0.970   4.206 -0.6031 -1.0660 -0.1666
 9564SOL     OW40150   2.228   1.230   8.887  0.0359  0.4022  0.3361
 9564SOL    HW140151   2.223   1.137   8.864 -1.9855  0.9768 -1.4685
 9564SOL    HW240152   2.323   1.235   8.899  0.0029 -0.6900  1.0539
 9565SOL     OW40153   3.973   2.419   8.851  0.1168 -0.8501 -0.9754
 9565SOL    HW140154   3.973   2.487   8.784  2.2145 -1.9671 -2.1154
 9565SOL    HW240155   3.934   2.466   8.925 -1.0745 -1.4819 -1.1996
   4.72444   4.72444  17.69930
