Membrane in water
40155
    1TCq1    O1    1   4.333   0.129  11.333  0.0080  0.0712  0.2766
    1TCq1    C1    2   4.292   0.181  11.216 -0.6075  0.6354 -0.2285
    1TCq1    O2    3   4.299   0.132  11.105 -0.1819  0.0122 -0.1243
    1TCq1    C2    4   4.313   0.317  11.239 -0.9546 -0.1561  0.0802
    1TCq1    C3    5   4.367   0.395  11.141  1.0434  0.3751 -0.1157
    1TCq1    C4    6   4.369   0.530  11.145 -0.2196 -0.1489 -0.5106
    1TCq1    C5    7   4.322   0.591  11.255 -0.2009  0.5386 -0.0151
    1TCq1    C6    8   4.277   0.513  11.352  0.3025 -0.0481 -0.0336
    1TCq1    C7    9   4.266   0.377  11.350 -0.0965 -0.0537  0.7547
    1TCq1    C8   10   4.259   0.579  11.479 -0.3931  0.2953  0.5133
    1TCq1    O4   11   4.239   0.697  11.472  0.4493  0.4026 -0.2261
    1TCq1    C9   12   4.406   0.610  11.023  0.2149  0.0541  0.4087
    1TCq1    O5   13   4.433   0.732  11.045 -0.7797 -0.1181 -0.0928
    1TCq1    O6   14   4.382   0.574  10.907 -0.1241  0.4431  0.8241
    1TCq1    H1   15   4.346   0.196  11.404  1.9979 -1.7226  1.5889
    1TCq1    H2   16   4.410   0.346  11.054 -3.0959 -0.8615 -1.4729
    1TCq1    H3   17   4.330   0.698  11.270  1.4172  0.4967 -0.5000
    1TCq1    H4   18   4.210   0.325  11.427 -2.0048 -1.4510 -1.5819
    2MPD2     C   19   4.118   0.576  11.967  0.0442 -0.2240 -0.3815
    2MPD2    C1   20   4.134   0.680  11.882  0.0042 -0.3881  0.3293
    2MPD2    C2   21   4.192   0.653  11.761 -0.1411  0.5527 -0.1812
    2MPD2    C3   22   4.223   0.526  11.715 -0.0921 -0.0326 -0.2361
    2MPD2    C4   23   4.205   0.421  11.799 -0.4488 -0.7648 -0.1891
    2MPD2    C5   24   4.157   0.448  11.925  0.2426 -0.3208 -0.2773
    2MPD2     H   25   4.198   0.735  11.689  3.2892  0.4095 -0.0546
    2MPD2    H1   26   4.220   0.315  11.783 -1.7403 -1.1626  1.2656
    2MPD2    H2   27   4.094   0.588  12.072 -0.0453  0.4751 -0.4881
    2MPD2    H3   28   4.143   0.365  11.993  3.2176  0.4476  1.2796
    2MPD2     N   29   4.260   0.494  11.580  0.4649 -0.3140 -0.0233
    2MPD2    H5   30   4.300   0.403  11.560  1.7685 -0.1553  1.8185
    2MPD2    N1   31   4.093   0.810  11.911 -0.0859  0.3472  0.0960
    2MPD2    H7   32   4.077   0.874  11.834 -1.5631  0.0123  0.1210
    3TCq1    O1   33   4.202   3.131  10.795  0.1054 -0.0622 -0.3076
    3TCq1    C1   34   4.074   3.138  10.768 -0.8100  0.0238 -0.0667
    3TCq1    O2   35   4.000   3.233  10.787 -0.1735 -0.3093  0.1730
    3TCq1    C2   36   4.028   2.999  10.731  0.8237  0.4210 -0.2401
    3TCq1    C3   37   4.063   2.943  10.614 -0.3217 -0.5764  0.3937
    3TCq1    C4   38   4.001   2.829  10.566 -0.0321 -0.2690 -0.8497
    3TCq1    C5   39   3.896   2.769  10.630 -0.6222 -0.0274 -1.1291
    3TCq1    C6   40   3.855   2.842  10.738  0.7909 -0.6124  0.2001
    3TCq1    C7   41   3.924   2.949  10.798  0.0206  0.0564  0.2656
    3TCq1    C8   42   3.716   2.817  10.761  0.0117  0.0295 -0.2670
    3TCq1    O4   43   3.667   2.722  10.703  0.1151  0.0970 -0.0748
    3TCq1    C9   44   4.030   2.785  10.433 -0.0719  0.6847  0.7517
    3TCq1    O5   45   4.126   2.838  10.371 -0.4119  0.5176 -0.0630
    3TCq1    O6   46   3.954   2.706  10.376 -0.5403 -0.2503  0.2026
    3TCq1    H1   47   4.253   3.047  10.792 -2.9364 -1.8783 -0.8498
    3TCq1    H2   48   4.144   2.986  10.556 -2.3255  1.0441 -1.1919
    3TCq1    H3   49   3.837   2.689  10.585 -0.0328 -0.2794 -1.4542
    3TCq1    H4   50   3.900   2.977  10.900  0.6855 -0.6649  0.6223
    4MPD2     C   51   3.243   2.981  10.811 -0.2193 -0.3212 -0.1157
    4MPD2    C1   52   3.324   3.090  10.836 -0.0640 -0.4148 -0.3195
    4MPD2    C2   53   3.460   3.067  10.845  0.2881  0.1393  0.7283
    4MPD2    C3   54   3.516   2.942  10.821  0.5273 -0.4861 -0.3593
    4MPD2    C4   55   3.434   2.837  10.802 -0.3304 -0.3622  1.1549
    4MPD2    C5   56   3.298   2.858  10.798  0.6573 -0.0534  0.2929
    4MPD2     H   57   3.534   3.145  10.857  0.6993 -0.3130  1.0671
    4MPD2    H1   58   3.457   2.731  10.804  1.6965  0.0748  0.5754
    4MPD2    H2   59   3.136   2.989  10.797 -0.8966 -4.6809  2.4946
    4MPD2    H3   60   3.232   2.773  10.781  1.9701 -0.9347 -0.3931
    4MPD2     N   61   3.655   2.932  10.806 -0.4227  0.4063 -0.6299
    4MPD2    H5   62   3.715   3.007  10.840  1.9338 -2.0961  0.7460
    4MPD2    N1   63   3.289   3.226  10.842  0.0376  0.3474  0.3657
    4MPD2    H7   64   3.362   3.291  10.868  0.4697 -0.9363  2.3565
    5TCq1    O1   65   3.722   4.639  11.416 -0.4562  0.9059  0.2429
    5TCq1    C1   66   3.761   4.641  11.545  0.1210  0.1700 -1.0582
    5TCq1    O2   67   3.727   4.718  11.635  0.0612 -0.2129  0.2101
    5TCq1    C2   68   3.819   4.508  11.580 -0.8563  0.5995 -0.0607
    5TCq1    C3   69   3.819   4.479  11.713  0.0076 -0.5345  0.3678
    5TCq1    C4   70   3.914   4.395  11.771 -0.4176 -0.9519 -0.2256
    5TCq1    C5   71   4.014   4.341  11.685  0.1705  0.0807  0.8188
    5TCq1    C6   72   4.013   4.376  11.547  0.2888  0.3052 -0.7632
    5TCq1    C7   73   3.906   4.449  11.494  0.3986 -0.0472  0.3154
    5TCq1    C8   74   4.116   4.331  11.452 -0.2800 -0.1738  0.0254
    5TCq1    O4   75   4.176   4.231  11.481 -0.0740 -0.3153 -0.1750
    5TCq1    C9   76   3.895   4.356  11.911  0.4490  0.1773  0.1441
    5TCq1    O5   77   3.960   4.260  11.955  0.5185 -0.8354  0.2013
    5TCq1    O6   78   3.806   4.418  11.977  0.5099 -0.5583 -0.0603
    5TCq1    H1   79   3.735   4.551  11.375 -0.7354  1.3042 -0.6948
    5TCq1    H2   80   3.733   4.510  11.771  0.5867  1.4240  0.1622
    5TCq1    H3   81   4.091   4.280  11.732  0.9816  0.0207 -0.5930
    5TCq1    H4   82   3.901   4.476  11.389  0.8931 -2.2470 -0.2749
    6MPD2     C   83   4.250   4.519  11.167  0.0008  1.2904 -0.5255
    6MPD2    C1   84   4.229   4.409  11.244  0.2886 -0.1724  0.1086
    6MPD2    C2   85   4.301   4.295  11.212 -0.5010 -0.5687  0.0621
    6MPD2    C3   86   4.392   4.295  11.108  0.1881 -0.3188 -0.4773
    6MPD2    C4   87   4.407   4.414  11.030  0.2110  0.0745 -0.3680
    6MPD2    C5   88   4.336   4.523  11.064  0.0810 -0.4953 -0.4633
    6MPD2     H   89   4.298   4.209  11.279  2.5575 -0.3582  0.4444
    6MPD2    H1   90   4.485   4.415  10.955 -0.2437  0.4771 -0.8334
    6MPD2    H2   91   4.209   4.615  11.198  0.6646  0.7565  2.0323
    6MPD2    H3   92   4.354   4.611  11.003  0.1945 -0.4099 -0.3078
    6MPD2     N   93   4.471   4.182  11.091  1.0919 -0.2896 -0.0819
    6MPD2    H5   94   4.463   4.112  11.164 -0.5441 -1.9324 -1.8768
    6MPD2    N1   95   4.143   4.429  11.354 -0.1926 -0.3808  0.1937
    6MPD2    H7   96   4.109   4.525  11.359  1.5981  0.3522 -1.6258
    7TCq1    O1   97   1.440   4.024  13.771 -0.6077 -0.0313  0.0357
    7TCq1    C1   98   1.439   3.892  13.767  0.6726  0.3793  0.1462
    7TCq1    O2   99   1.340   3.827  13.799 -0.0108 -0.0281 -0.4371
    7TCq1    C2  100   1.562   3.833  13.723  0.8128 -0.1117 -0.0535
    7TCq1    C3  101   1.639   3.897  13.632  0.4733 -0.8139  0.1247
    7TCq1    C4  102   1.734   3.823  13.565 -0.0768  0.1816 -0.3617
    7TCq1    C5  103   1.753   3.694  13.596 -0.6369 -0.1334 -0.1524
    7TCq1    C6  104   1.675   3.630  13.689 -0.0730  0.3564 -0.5358
    7TCq1    C7  105   1.575   3.696  13.745  0.0322 -0.0517  0.8052
    7TCq1    C8  106   1.668   3.483  13.683 -1.0199  1.0745  0.4728
    7TCq1    O4  107   1.564   3.430  13.733 -0.4253  0.2946 -0.0403
    7TCq1    C9  108   1.796   3.874  13.442  0.3687  0.0499 -0.1631
    7TCq1    O5  109   1.858   3.796  13.370  0.6187  0.5922 -0.2952
    7TCq1    O6  110   1.782   3.994  13.427  0.3654 -0.0087 -0.6040
    7TCq1    H1  111   1.536   4.042  13.763 -0.2697 -1.0498  1.6909
    7TCq1    H2  112   1.619   3.998  13.600  0.8397 -0.8904 -0.3540
    7TCq1    H3  113   1.831   3.650  13.534 -0.2948  1.7784 -1.0731
    7TCq1    H4  114   1.512   3.649  13.818 -0.9339 -0.8085 -0.5180
    8MPD2     C  115   1.792   3.030  13.461  0.0249  0.3600 -0.5687
    8MPD2    C1  116   1.670   3.079  13.506  0.3295  0.1492  0.4472
    8MPD2    C2  117   1.656   3.207  13.564 -0.2129 -0.0683 -0.7261
    8MPD2    C3  118   1.774   3.290  13.571  0.8982 -0.1808 -0.1215
    8MPD2    C4  119   1.887   3.243  13.509 -0.1366 -0.4098  0.1800
    8MPD2    C5  120   1.896   3.117  13.456  0.4087 -0.4631 -1.0845
    8MPD2     H  121   1.567   3.240  13.617  0.0258  1.1344 -1.0851
    8MPD2    H1  122   1.978   3.303  13.511 -0.2875 -0.0813 -2.4057
    8MPD2    H2  123   1.809   2.934  13.414  2.2832  1.0791 -1.1978
    8MPD2    H3  124   1.987   3.083  13.408  0.0370  0.2225 -2.2874
    8MPD2     N  125   1.772   3.425  13.611 -0.4496 -0.0897 -0.2246
    8MPD2    H5  126   1.858   3.477  13.596 -1.4654  1.8601  0.6743
    8MPD2    N1  127   1.558   2.992  13.501 -0.8203 -0.2564  0.8886
    8MPD2    H7  128   1.581   2.898  13.470 -0.1908  0.4288 -0.7436
    9TCq1    O1  129   4.076   1.856   9.716  0.0900 -0.0348  0.0550
    9TCq1    C1  130   3.971   1.780   9.754  0.3384 -0.3694 -0.3630
    9TCq1    O2  131   3.859   1.793   9.704  0.5799 -0.3457  0.2138
    9TCq1    C2  132   3.997   1.732   9.886 -0.5039  0.0570  0.0553
    9TCq1    C3  133   4.117   1.701   9.933 -0.1501 -0.0411 -0.1969
    9TCq1    C4  134   4.125   1.650  10.062  0.0656  0.6008 -0.0180
    9TCq1    C5  135   4.015   1.635  10.145 -0.1472 -0.1191 -0.6099
    9TCq1    C6  136   3.899   1.668  10.091 -0.1864 -0.4479  0.0067
    9TCq1    C7  137   3.883   1.718   9.964  0.2638  0.4982  0.2943
    9TCq1    C8  138   3.773   1.643  10.158  0.3552  0.4614 -0.1200
    9TCq1    O4  139   3.666   1.633  10.101  0.0970 -0.0321 -0.1720
    9TCq1    C9  140   4.256   1.630  10.118  0.5564  0.0118 -0.2583
    9TCq1    O5  141   4.357   1.676  10.055  0.0422 -0.2951  0.1215
    9TCq1    O6  142   4.264   1.554  10.219 -0.4397 -0.3686  0.4374
    9TCq1    H1  143   4.151   1.852   9.778 -2.3059  1.2249  3.0541
    9TCq1    H2  144   4.202   1.717   9.868  1.2299  0.2386  1.6824
    9TCq1    H3  145   4.025   1.594  10.245 -0.5599  1.7740  0.2087
    9TCq1    H4  146   3.784   1.734   9.925 -1.0655 -1.4564  2.8278
   10MPD2     C  147   3.566   1.552  10.356 -0.4151 -0.0376  0.6017
   10MPD2    C1  148   3.695   1.605  10.382  0.1781 -0.3586  0.0828
   10MPD2    C2  149   3.737   1.618  10.516 -0.0738  0.2188  0.0120
   10MPD2    C3  150   3.667   1.570  10.626 -0.3271 -0.4293 -0.5913
   10MPD2    C4  151   3.545   1.508  10.598  1.2859 -0.0915  0.4311
   10MPD2    C5  152   3.496   1.510  10.467  0.8867  0.3849  0.5589
   10MPD2     H  153   3.832   1.669  10.528  0.0857 -0.2817  0.8681
   10MPD2    H1  154   3.480   1.470  10.676  2.9785 -1.5463  1.1223
   10MPD2    H2  155   3.533   1.528  10.256  1.3679  0.9262 -0.2154
   10MPD2    H3  156   3.397   1.470  10.450  1.0716  0.5316 -0.8973
   10MPD2     N  157   3.703   1.569  10.766 -0.3107 -0.2179 -0.1606
   10MPD2    H5  158   3.655   1.507  10.829  0.2688 -1.2786 -0.7689
   10MPD2    N1  159   3.795   1.639  10.291  0.6906  0.2666 -0.1198
   10MPD2    H7  160   3.884   1.676  10.323  0.5042  1.4734 -0.9769
   11TCq1    O1  161   0.727   1.526  14.383 -0.5997 -0.1627 -0.0259
   11TCq1    C1  162   0.615   1.523  14.309  0.1796 -0.7155 -0.6849
   11TCq1    O2  163   0.569   1.432  14.240 -0.0629 -0.7619 -0.1676
   11TCq1    C2  164   0.539   1.650  14.348  0.3243 -0.0140  0.2270
   11TCq1    C3  165   0.602   1.755  14.400  0.0744 -0.0742  0.8338
   11TCq1    C4  166   0.530   1.865  14.422  0.5191 -0.7089  0.1649
   11TCq1    C5  167   0.393   1.859  14.418 -1.0156  0.4150  0.1528
   11TCq1    C6  168   0.330   1.747  14.381  0.2212 -0.2128  0.1370
   11TCq1    C7  169   0.402   1.643  14.326 -0.3713 -0.1665  0.0578
   11TCq1    C8  170   0.188   1.750  14.388 -0.0669 -0.4028  0.6960
   11TCq1    O4  171   0.133   1.818  14.477  0.0304  0.1130  0.2668
   11TCq1    C9  172   0.587   2.000  14.462 -0.1015 -0.8360 -0.5732
   11TCq1    O5  173   0.519   2.108  14.444 -0.4674  0.1882  0.2547
   11TCq1    O6  174   0.700   2.003  14.514 -0.0288 -0.6758 -0.0311
   11TCq1    H1  175   0.745   1.611  14.429  0.1055 -0.5357  0.3888
   11TCq1    H2  176   0.709   1.756  14.418  0.0640  0.9656  0.8444
   11TCq1    H3  177   0.330   1.942  14.447 -0.9805 -0.1520  1.8866
   11TCq1    H4  178   0.346   1.560  14.285  0.6398  0.1442 -1.9566
   12MPD2     C  179   4.652   1.817  14.260  0.7502 -0.3119 -0.6048
   12MPD2    C1  180   0.007   1.713  14.215 -0.0044  0.1052  1.0149
   12MPD2    C2  181   4.682   1.638  14.113 -0.7157 -0.0930  0.6611
   12MPD2    C3  182   4.555   1.646  14.063  0.2146  0.2460  0.3797
   12MPD2    C4  183   4.470   1.743  14.113  0.1651  0.8802  0.1285
   12MPD2    C5  184   4.526   1.831  14.209 -0.0869  0.7253 -0.3352
   12MPD2     H  185   0.036   1.566  14.079  0.0394 -0.1128  2.2880
   12MPD2    H1  186   4.364   1.756  14.096 -0.0449  1.2353  1.7278
   12MPD2    H2  187   4.695   1.888  14.330 -0.4510 -2.2804  2.1459
   12MPD2    H3  188   4.463   1.913  14.243 -0.0559  0.3909  0.5204
   12MPD2     N  189   4.496   1.554  13.971 -0.0559  0.0570  0.5686
   12MPD2    H5  190   4.400   1.576  13.948 -1.1075 -6.2137 -1.0288
   12MPD2    N1  191   0.132   1.685  14.276 -0.2225 -0.4210 -0.1683
   12MPD2    H7  192   0.190   1.637  14.208 -2.0308 -3.0258  0.1344
   13TCq1    O1  193   4.320   2.702  10.262  0.1544 -0.2342  0.2973
   13TCq1    C1  194   4.334   2.585  10.327  0.4281 -0.4045 -0.2778
   13TCq1    O2  195   4.374   2.481  10.274  0.4849 -0.2187  0.1532
   13TCq1    C2  196   4.327   2.605  10.465 -0.3506  0.2060 -0.0503
   13TCq1    C3  197   4.373   2.718  10.513 -0.8407  0.1300 -0.5816
   13TCq1    C4  198   4.349   2.751  10.641  0.2607 -0.4302  0.7098
   13TCq1    C5  199   4.272   2.675  10.718 -0.1819  0.2443 -0.1438
   13TCq1    C6  200   4.231   2.554  10.669  0.4092 -0.1935 -0.4582
   13TCq1    C7  201   4.258   2.514  10.541 -0.1534  0.5897 -0.1385
   13TCq1    C8  202   4.109   2.498  10.725  0.2679 -0.1861 -0.0810
   13TCq1    O4  203   4.077   2.534  10.841 -0.3241 -0.5001  0.0565
   13TCq1    C9  204   4.383   2.885  10.683 -0.1961 -0.4535 -0.9356
   13TCq1    O5  205   4.333   2.922  10.792 -0.4788  0.7377 -0.1650
   13TCq1    O6  206   4.421   2.964  10.590 -0.3331 -0.1022 -0.3152
   13TCq1    H1  207   4.266   2.771  10.307  0.9887  0.3818  0.3479
   13TCq1    H2  208   4.417   2.791  10.447  1.0262 -0.3555  0.1443
   13TCq1    H3  209   4.222   2.726  10.799  1.0079 -0.3341  0.9614
   13TCq1    H4  210   4.234   2.414  10.505 -1.6954  0.4246  1.3437
   14MPD2     C  211   3.831   2.337  10.556  0.0220 -0.4832  0.7835
   14MPD2    C1  212   3.905   2.378  10.658 -0.3191  0.3231  0.2684
   14MPD2    C2  213   3.865   2.355  10.788  0.2436  0.3903 -0.2141
   14MPD2    C3  214   3.740   2.293  10.816  0.0636  0.3674 -0.2643
   14MPD2    C4  215   3.652   2.265  10.705  0.8559 -1.1889  0.0337
   14MPD2    C5  216   3.703   2.281  10.576 -0.0670  0.3829  0.4120
   14MPD2     H  217   3.932   2.374  10.871 -1.5457 -0.9882  1.5333
   14MPD2    H1  218   3.552   2.227  10.724  1.2440 -3.2272 -2.0471
   14MPD2    H2  219   3.871   2.352  10.457  0.2872  0.4514  1.0378
   14MPD2    H3  220   3.638   2.256  10.493  1.0975  0.8417 -0.6299
   14MPD2     N  221   3.716   2.270  10.959 -0.5464 -0.3041  0.7775
   14MPD2    H5  222   3.806   2.258  11.006  0.9202  0.3475 -1.8716
   14MPD2    N1  223   4.031   2.435  10.630  0.2444 -0.3333  0.0577
   14MPD2    H7  224   4.057   2.436  10.532 -2.2801  3.4667 -0.5624
   15TCq1    O1  225   0.371   1.196   1.530  0.3627 -0.4164 -0.4765
   15TCq1    C1  226   0.469   1.197   1.438  0.5348  1.0256  0.6323
   15TCq1    O2  227   0.452   1.235   1.321 -0.6198 -0.3798  0.3878
   15TCq1    C2  228   0.597   1.151   1.493 -0.0529 -0.4279  0.2357
   15TCq1    C3  229   0.646   1.191   1.617  0.3993  0.9834 -0.2415
   15TCq1    C4  230   0.767   1.136   1.656 -0.1399 -0.4210  0.0507
   15TCq1    C5  231   0.834   1.049   1.576  0.3572  0.4658 -0.4442
   15TCq1    C6  232   0.784   1.017   1.454 -0.4021  0.1429 -0.7066
   15TCq1    C7  233   0.666   1.071   1.406  0.5073  0.2176 -1.1437
   15TCq1    C8  234   0.860   0.924   1.379  0.4773 -0.0077  0.3365
   15TCq1    O4  235   0.953   0.864   1.428 -0.1190 -0.0536 -0.4046
   15TCq1    C9  236   0.829   1.161   1.784 -0.6056  0.9158 -0.0497
   15TCq1    O5  237   0.915   1.081   1.827 -0.3974 -0.1573  0.4501
   15TCq1    O6  238   0.795   1.274   1.837 -0.8360  0.1440  0.8356
   15TCq1    H1  239   0.390   1.170   1.623 -1.5879 -0.3711 -0.0601
   15TCq1    H2  240   0.591   1.258   1.682  1.0015 -0.3769  1.6396
   15TCq1    H3  241   0.929   1.014   1.614 -0.8885  0.6332  2.8136
   15TCq1    H4  242   0.619   1.034   1.316  1.7861 -0.4173 -1.5539
   16MPD2     C  243   0.790   0.820   1.036  0.4527 -0.1636 -0.3876
   16MPD2    C1  244   0.861   0.828   1.154  0.0798  0.0401  0.2193
   16MPD2    C2  245   0.976   0.746   1.175 -0.4631 -0.3411 -0.5674
   16MPD2    C3  246   1.006   0.647   1.082 -0.6951  0.0929  0.5337
   16MPD2    C4  247   0.925   0.628   0.970 -0.1167 -0.6533 -0.3337
   16MPD2    C5  248   0.816   0.713   0.951  0.1775  1.1810 -0.0052
   16MPD2     H  249   1.034   0.757   1.266 -1.6835 -1.1616  0.2959
   16MPD2    H1  250   0.923   0.544   0.902  1.4481 -1.0281  0.0714
   16MPD2    H2  251   0.697   0.874   1.026  0.0051 -1.0567 -1.0802
   16MPD2    H3  252   0.758   0.694   0.861 -1.3109  2.5173  0.6841
   16MPD2     N  253   1.122   0.564   1.104  0.3925  0.0550 -0.5027
   16MPD2    H5  254   1.176   0.588   1.187 -0.1948 -2.5644  0.6244
   16MPD2    N1  255   0.819   0.916   1.252 -1.0190  0.1795 -1.0776
   16MPD2    H7  256   0.741   0.975   1.225 -1.2420  0.0326 -0.7572
   17TCq1    O1  257   3.529   1.168  10.322 -0.1582  0.2421 -0.1391
   17TCq1    C1  258   3.560   1.256  10.229  0.0088  0.0545 -0.0751
   17TCq1    O2  259   3.485   1.313  10.150 -0.0234  0.2944  0.1613
   17TCq1    C2  260   3.705   1.255  10.212  0.5849 -0.5175  0.6885
   17TCq1    C3  261   3.785   1.259  10.324 -0.1286 -0.1819  0.7146
   17TCq1    C4  262   3.920   1.290  10.311 -0.6948 -0.1196  0.4890
   17TCq1    C5  263   3.975   1.310  10.191 -0.3306  0.2298  0.4508
   17TCq1    C6  264   3.892   1.304  10.081  0.1924  0.2500 -0.5348
   17TCq1    C7  265   3.758   1.271  10.089 -0.1413  0.5454  0.5773
   17TCq1    C8  266   3.942   1.335   9.944  0.3132  0.3133 -0.1830
   17TCq1    O4  267   3.861   1.376   9.862  0.2909  0.3402  0.5098
   17TCq1    C9  268   4.006   1.297  10.432  0.0998 -0.1514  0.3818
   17TCq1    O5  269   4.126   1.317  10.414 -0.1976 -0.2612 -0.0996
   17TCq1    O6  270   3.954   1.264  10.538 -0.5244  0.3168 -0.1632
   17TCq1    H1  271   3.602   1.138  10.381 -1.0539  2.5467  2.1531
   17TCq1    H2  272   3.749   1.249  10.426 -0.5723 -1.3548  0.4470
   17TCq1    H3  273   4.080   1.335  10.188 -0.2099 -0.1118  2.0117
   17TCq1    H4  274   3.689   1.283  10.007 -1.0366 -2.6746  0.8591
   18MPD2     C  275   4.128   1.438   9.737  1.3383  0.0632  0.0826
   18MPD2    C1  276   4.165   1.352   9.836  0.0521  0.4130  0.0556
   18MPD2    C2  277   4.296   1.320   9.843  0.2158  0.4228 -0.0403
   18MPD2    C3  278   4.386   1.372   9.753  0.7973 -0.5013  0.4804
   18MPD2    C4  279   4.347   1.453   9.647  0.8302  0.4282 -0.7403
   18MPD2    C5  280   4.219   1.486   9.648 -0.3771 -0.3654 -0.2373
   18MPD2     H  281   4.330   1.251   9.920 -1.3573 -0.7864 -0.4425
   18MPD2    H1  282   4.412   1.490   9.569  0.3476  1.1365 -0.8014
   18MPD2    H2  283   4.022   1.456   9.721  1.0410 -0.1500  1.7687
   18MPD2    H3  284   4.179   1.555   9.575  1.7097  0.1782 -0.8781
   18MPD2     N  285   4.527   1.353   9.769  0.5868 -0.0976 -0.3116
   18MPD2    H5  286   4.584   1.412   9.708 -1.0289 -2.7490 -4.3885
   18MPD2    N1  287   4.075   1.299   9.936 -0.0039  0.0388  0.2637
   18MPD2    H7  288   4.123   1.255  10.013  0.5081  1.4728  0.7566
   19TMC2    C1  289   0.675   1.246  13.370 -0.1710  0.4239 -0.0699
   19TMC2    C2  290   0.666   1.259  13.235 -0.0368 -0.1335 -0.0597
   19TMC2    C3  291   0.699   1.147  13.162 -0.8955 -0.8094 -0.2262
   19TMC2    C4  292   0.701   1.126  13.426  0.2201 -0.4538 -0.5310
   19TMC2    C5  293   0.725   1.018  13.343  0.5263 -0.3570 -0.8455
   19TMC2    C6  294   0.730   1.025  13.211  1.1273  0.7397 -0.0535
   19TMC2     C  295   0.665   1.364  13.455  0.0606 -0.0441  0.3201
   19TMC2     O  296   0.641   1.471  13.400 -0.0876  0.0053  0.0886
   19TMC2     H  297   0.615   1.349  13.201  0.0863 -0.2577 -0.5747
   19TMC2    H1  298   0.717   1.105  13.532 -3.0351  2.9742  0.6307
   19TMC2    H2  299   0.756   0.939  13.150 -0.8362  0.5737 -0.6589
   19TMC2    C7  300   0.779   0.901  13.412 -0.8104  0.0920 -0.4416
   19TMC2    C8  301   0.682   1.142  13.018 -0.4968  0.3493  0.8637
   19TMC2    O1  302   0.878   0.844  13.361  0.2617  0.0352 -0.3667
   19TMC2    O2  303   0.685   1.036  12.958 -0.1364 -0.3419 -0.0092
   19TMC2    O5  304   0.698   1.268  12.966  0.0149  0.1979  0.1186
   19TMC2    H5  305   0.697   1.340  13.033 -1.9290  1.1948 -0.9738
   20MPD2     C  306   0.661   1.565  13.673  0.3364  0.0810 -0.0222
   20MPD2    C1  307   0.692   1.431  13.696  0.4414 -0.5232  0.3701
   20MPD2    C2  308   0.731   1.385  13.820  0.3451 -0.0332 -0.3059
   20MPD2    C3  309   0.752   1.480  13.930 -0.4637 -0.8198  0.5367
   20MPD2    C4  310   0.719   1.610  13.901  0.5422 -0.3170 -0.4770
   20MPD2    C5  311   0.684   1.655  13.772  0.5091  0.4537 -0.1929
   20MPD2     H  312   0.765   1.283  13.830 -2.0546 -0.7791  0.1855
   20MPD2    H1  313   0.740   1.685  13.977 -1.0592 -1.7129  1.3364
   20MPD2    H2  314   0.626   1.613  13.583  1.7724  1.7003  0.2813
   20MPD2    H3  315   0.662   1.760  13.763 -0.5289  0.3034  0.6563
   20MPD2     N  316   0.809   1.448  14.056 -0.1140 -0.1981  0.2275
   20MPD2    H5  317   0.819   1.525  14.122 -0.2077 -0.5067  0.6007
   20MPD2    N1  318   0.682   1.334  13.588  0.3227  0.2040  0.4324
   20MPD2    H7  319   0.698   1.237  13.612  0.2387 -0.6707 -3.0349
   21MPD2     C  320   3.222   2.095  14.310 -0.1648  0.1705 -0.0489
   21MPD2    C1  321   3.182   1.960  14.303 -0.0758  1.0761  0.3080
   21MPD2    C2  322   3.059   1.919  14.357  0.5966  0.2429  0.4857
   21MPD2    C3  323   2.975   2.020  14.414 -0.2798  0.3061 -0.0852
   21MPD2    C4  324   3.024   2.147  14.421  0.0822  0.0565 -0.2878
   21MPD2    C5  325   3.140   2.186  14.365 -0.6162 -0.2279 -0.5225
   21MPD2     H  326   3.025   1.821  14.326  1.7148 -0.6924  2.2270
   21MPD2    H1  327   2.969   2.221  14.476  0.3231  1.5286 -2.0221
   21MPD2    H2  328   3.319   2.133  14.281  0.1301 -0.8901 -0.4459
   21MPD2    H3  329   3.171   2.290  14.362  1.0962 -0.6727  1.8481
   21MPD2     N  330   2.850   1.988  14.467 -0.5070  0.2642  0.3217
   21MPD2    H5  331   2.797   2.067  14.502 -2.3485 -1.0901  0.6066
   21MPD2    N1  332   3.273   1.868  14.240 -0.1442 -0.3385  0.1706
   21MPD2    H7  333   3.360   1.907  14.207 -0.2556 -0.1749  0.0691
   22TCq2    C1  334   2.796   1.866  14.492 -0.3689  0.1117 -0.6156
   22TCq2    O2  335   2.856   1.756  14.481  0.9116  0.5392  0.3783
   22TCq2    C2  336   2.683   1.870  14.590 -0.2298  0.0263 -0.2620
   22TCq2    C3  337   2.694   1.772  14.684 -0.3418  0.0851 -0.0324
   22TCq2    C4  338   2.620   1.783  14.795  0.2650  0.1681  0.2457
   22TCq2    C5  339   2.530   1.887  14.807  0.0868 -0.1562  0.8877
   22TCq2    C6  340   2.517   1.977  14.706 -0.2432 -0.4847 -0.4709
   22TCq2    C7  341   2.599   1.973  14.596  0.4091  0.0101  0.1912
   22TCq2    C8  342   2.389   2.047  14.696 -0.0961 -0.0383  0.1404
   22TCq2    O4  343   2.304   2.029  14.783 -0.5266 -0.0502  0.0760
   22TCq2    C9  344   2.646   1.691  14.902 -1.3624  0.4741 -0.3620
   22TCq2    O5  345   2.609   1.732  15.017 -0.1020 -0.0143  0.3480
   22TCq2    O6  346   2.715   1.592  14.877 -0.1472 -0.1710 -0.0216
   22TCq2    H2  347   2.762   1.689  14.692  3.1773  2.7924 -2.0360
   22TCq2    H3  348   2.471   1.891  14.899  1.8268 -4.0336  2.1496
   22TCq2    H4  349   2.591   2.052  14.523 -1.4529  1.3747  1.8726
   23MPD2     C  350   0.044   2.969  14.331  0.0190 -0.5148  0.4462
   23MPD2    C1  351   4.678   2.892  14.401 -0.9652 -0.3109  0.0842
   23MPD2    C2  352   4.565   2.836  14.341 -0.2479 -0.3723 -0.0267
   23MPD2    C3  353   4.541   2.868  14.206 -0.2649 -0.0620 -0.1968
   23MPD2    C4  354   4.626   2.946  14.140  0.6831 -0.3310 -0.1320
   23MPD2    C5  355   0.025   2.990  14.198  0.0733 -0.3410 -0.0813
   23MPD2     H  356   4.494   2.784  14.405 -0.3817  0.3300  0.3927
   23MPD2    H1  357   4.603   2.975  14.038 -2.1256 -3.1299 -0.3072
   23MPD2    H2  358   0.135   3.013  14.370 -0.0015  0.9365 -1.1472
   23MPD2    H3  359   0.085   3.058  14.138  0.2483 -0.0238  0.4521
   23MPD2     N  360   4.422   2.835  14.139  0.1423  0.2563  0.2317
   23MPD2    H5  361   4.403   2.892  14.057 -3.5401 -0.0965  0.8714
   23MPD2    N1  362   4.689   2.866  14.538  0.0473 -0.3306  0.5789
   23MPD2    H7  363   4.622   2.808  14.588 -1.1793  0.3130 -0.3089
   24TCq2    C1  364   4.330   2.751  14.187 -0.3681  0.0031  0.1648
   24TCq2    O2  365   4.323   2.675  14.282  0.5591 -0.9202 -0.5499
   24TCq2    C2  366   4.214   2.772  14.101 -0.4861  0.2001  0.0968
   24TCq2    C3  367   4.176   2.900  14.076 -0.5833  0.1647  0.1565
   24TCq2    C4  368   4.049   2.924  14.036 -0.5214  0.3463 -0.5782
   24TCq2    C5  369   3.953   2.832  14.025 -0.1446  0.3842  0.3632
   24TCq2    C6  370   3.994   2.704  14.064  0.0837 -0.3499  0.6738
   24TCq2    C7  371   4.124   2.677  14.092  0.2013 -0.5990 -0.4708
   24TCq2    C8  372   3.892   2.601  14.105 -0.3076  0.2885 -0.9009
   24TCq2    O4  373   3.937   2.509  14.170  0.2155  0.1805 -0.3301
   24TCq2    C9  374   4.009   3.057  14.018  0.7962 -0.3125  0.3806
   24TCq2    O5  375   4.093   3.143  14.035  0.8650 -0.4792 -0.1390
   24TCq2    O6  376   3.892   3.082  13.983 -0.0093 -0.4872 -0.0427
   24TCq2    H2  377   4.236   2.988  14.095  0.3524 -1.0752  2.8975
   24TCq2    H3  378   3.855   2.860  13.987 -1.0638 -2.2405  0.7303
   24TCq2    H4  379   4.159   2.576  14.113  0.8852 -0.0342  1.1285
   25TMC2    C1  380   3.106   1.005  11.433 -0.3761 -0.1357  0.6018
   25TMC2    C2  381   3.118   1.139  11.418 -0.3429 -0.1596  0.4625
   25TMC2    C3  382   3.033   1.218  11.489  0.6059  0.2069 -0.1267
   25TMC2    C4  383   3.013   0.947  11.517 -0.0586  0.1458  0.8239
   25TMC2    C5  384   2.939   1.035  11.593 -0.6149  0.4254  0.5421
   25TMC2    C6  385   2.942   1.173  11.580 -0.7166 -0.5140 -0.1969
   25TMC2     C  386   3.217   0.929  11.385 -0.4121  0.2778  0.2896
   25TMC2     O  387   3.316   0.994  11.347 -0.0167  1.0257  0.1991
   25TMC2     H  388   3.193   1.185  11.354  0.1796 -2.4966 -0.6248
   25TMC2    H1  389   3.012   0.841  11.539 -3.2298 -0.2116 -1.0926
   25TMC2    H2  390   2.889   1.244  11.642 -1.3333 -0.4922 -0.7441
   25TMC2    C7  391   2.852   0.976  11.699 -0.0989  0.1322  0.5169
   25TMC2    C8  392   3.040   1.363  11.479  0.1686 -0.5920  0.0283
   25TMC2    O1  393   2.875   0.866  11.741 -0.6245  0.5608 -0.1225
   25TMC2    O2  394   2.978   1.431  11.561 -0.8194  0.0890  0.2123
   25TMC2    O5  395   3.136   1.409  11.395 -0.3299  0.5246  0.0037
   25TMC2    H5  396   3.184   1.341  11.343 -1.7208 -1.0270  0.7723
   26MPD2     C  397   3.475   0.505  11.283 -0.7762 -0.2102  0.1036
   26MPD2    C1  398   3.346   0.473  11.295  0.7626  0.6627  0.0892
   26MPD2    C2  399   3.257   0.572  11.332  0.3470 -0.1955  0.3883
   26MPD2    C3  400   3.292   0.702  11.345 -0.3159 -0.1814  0.5941
   26MPD2    C4  401   3.426   0.730  11.343  0.0721  0.1669  0.3555
   26MPD2    C5  402   3.519   0.631  11.316  0.2223 -0.2841  0.5520
   26MPD2     H  403   3.149   0.556  11.329  0.6063 -1.5927 -1.4028
   26MPD2    H1  404   3.467   0.823  11.382  2.7986  1.1005 -4.7754
   26MPD2    H2  405   3.543   0.430  11.245 -0.6348  0.5943 -1.2243
   26MPD2    H3  406   3.626   0.646  11.315  0.0424  0.9994  0.5985
   26MPD2     N  407   3.195   0.796  11.376 -0.1435  0.3655  0.2646
   26MPD2    H5  408   3.100   0.760  11.383  0.0242  0.0100  0.7076
   26MPD2    N1  409   3.309   0.341  11.262 -0.4335 -0.2353  0.1349
   26MPD2    H7  410   3.381   0.271  11.244  2.1856  2.8337 -1.3415
   27TMC2    C1  411   2.391   2.492  12.047 -0.2042 -0.2267 -0.2645
   27TMC2    C2  412   2.312   2.543  11.948  0.4379 -0.1553 -0.5584
   27TMC2    C3  413   2.294   2.678  11.951  0.6819  0.0831  0.3559
   27TMC2    C4  414   2.442   2.579  12.144  0.2668 -0.1093 -0.3241
   27TMC2    C5  415   2.430   2.719  12.139 -0.6329  0.9004 -0.3348
   27TMC2    C6  416   2.347   2.768  12.041 -0.1295 -0.4410 -0.4251
   27TMC2     C  417   2.350   2.377  12.118  0.0838 -0.4999 -0.4110
   27TMC2     O  418   2.375   2.267  12.082  0.3469  0.4918 -0.2990
   27TMC2     H  419   2.254   2.481  11.881 -0.2298 -1.1601  0.9363
   27TMC2    H1  420   2.496   2.532  12.226 -0.0640 -1.8574 -1.1024
   27TMC2    H2  421   2.320   2.873  12.035  1.0173 -0.0347  1.4603
   27TMC2    C7  422   2.457   2.782  12.265  0.0258 -0.6820  0.1686
   27TMC2    C8  423   2.223   2.742  11.842  0.9911  0.1960 -0.6729
   27TMC2    O1  424   2.506   2.711  12.353  0.2891  0.5852 -0.7971
   27TMC2    O2  425   2.192   2.861  11.841  0.5408 -0.5017  0.0262
   27TMC2    O5  426   2.288   2.683  11.739  0.1703  0.1039 -0.2543
   27TMC2    H5  427   2.306   2.587  11.742  0.2722  0.2238  2.3522
   28MPD2     C  428   2.164   2.150  12.541  0.6431 -0.5177  0.0356
   28MPD2    C1  429   2.107   2.276  12.532 -1.0729  0.1676  0.2768
   28MPD2    C2  430   2.151   2.372  12.433 -0.0307 -0.1987 -0.5752
   28MPD2    C3  431   2.241   2.331  12.338  0.8005  0.1067 -0.7845
   28MPD2    C4  432   2.300   2.206  12.349  0.3217  0.2688 -0.8154
   28MPD2    C5  433   2.254   2.120  12.445 -0.1216  0.3635  0.4197
   28MPD2     H  434   2.118   2.475  12.430 -0.6501 -0.3948 -0.5294
   28MPD2    H1  435   2.382   2.178  12.284  1.5340  1.3636  0.2529
   28MPD2    H2  436   2.128   2.075  12.610  0.6520  0.4068  1.0419
   28MPD2    H3  437   2.302   2.023  12.455 -3.2892 -1.2058  0.1931
   28MPD2     N  438   2.280   2.413  12.230 -0.1249 -0.2441  0.1349
   28MPD2    H5  439   2.237   2.505  12.229  0.5015  0.0509  0.8649
   28MPD2    N1  440   2.022   2.306  12.637  0.3181  0.1950  0.0936
   28MPD2    H7  441   2.014   2.229  12.703 -1.6302 -0.0848 -0.4929
   29MPD2     C  442   2.185   0.024  13.898  0.0280 -1.0126  0.1114
   29MPD2    C1  443   2.060   4.687  13.923  0.0954 -0.4600 -0.7288
   29MPD2    C2  444   1.966   0.040  13.983 -0.3678  0.2134  0.0458
   29MPD2    C3  445   1.991   0.172  14.024  0.0634  0.6650 -0.4007
   29MPD2    C4  446   2.117   0.224  14.001  0.2118 -0.0298 -0.1068
   29MPD2    C5  447   2.212   0.150  13.938  0.8293 -0.4424  0.4056
   29MPD2     H  448   1.870   4.713  14.001  0.3105  0.4153  4.3244
   29MPD2    H1  449   2.138   0.327  14.027 -3.5336  0.1636  2.1932
   29MPD2    H2  450   2.269   4.695  13.849  1.0575 -1.6102  2.4704
   29MPD2    H3  451   2.309   0.195  13.924  0.4568  0.5554  1.0751
   29MPD2     N  452   1.896   0.252  14.092 -0.8452 -0.1800  0.0328
   29MPD2    H5  453   1.939   0.332  14.137  0.1212  0.3886 -1.8893
   29MPD2    N1  454   2.048   4.553  13.895  0.5734 -0.3216  0.1648
   29MPD2    H7  455   2.124   4.505  13.847  2.5148  2.3121  0.5831
   30TCq2    C1  456   1.759   0.223  14.099 -0.1726  0.0703  0.3580
   30TCq2    O2  457   1.694   0.151  14.023 -0.4439  0.3774 -0.7097
   30TCq2    C2  458   1.693   0.289  14.207  0.5730 -0.3763  0.0036
   30TCq2    C3  459   1.560   0.312  14.188  0.6956 -0.1900  0.6626
   30TCq2    C4  460   1.497   0.405  14.268 -0.8490 -0.5393  0.7728
   30TCq2    C5  461   1.561   0.446  14.381 -0.2814  0.2827 -0.0014
   30TCq2    C6  462   1.689   0.416  14.398  0.7128  0.7586 -0.5358
   30TCq2    C7  463   1.765   0.352  14.300  0.6566  0.2352 -0.3180
   30TCq2    C8  464   1.751   0.449  14.527  0.4093  0.0266  0.2489
   30TCq2    O4  465   1.691   0.438  14.634  0.0143 -0.1738 -0.2104
   30TCq2    C9  466   1.357   0.435  14.253 -0.1789  0.6965 -0.8089
   30TCq2    O5  467   1.288   0.456  14.359  0.3488  0.5599 -0.2608
   30TCq2    O6  468   1.309   0.402  14.147 -0.0234  0.3720  0.3478
   30TCq2    H2  469   1.497   0.279  14.107 -0.2250  1.1064  0.8416
   30TCq2    H3  470   1.500   0.501  14.452  0.6463  1.1160  0.1520
   30TCq2    H4  471   1.868   0.328  14.321  0.4609 -0.3783 -0.0595
   31MPD2     C  472   0.238   3.714  14.602 -0.0124  0.6498  0.2080
   31MPD2    C1  473   0.130   3.674  14.535 -0.0797  0.0945 -0.1591
   31MPD2    C2  474   0.035   3.584  14.588 -0.5524 -1.0301  0.3220
   31MPD2    C3  475   0.054   3.532  14.713  1.3598  0.7751 -0.3140
   31MPD2    C4  476   0.152   3.584  14.783 -0.0297 -0.8889  0.3259
   31MPD2    C5  477   0.242   3.672  14.726  0.5962 -0.1060 -0.3433
   31MPD2     H  478   4.656   3.575  14.542 -0.2206  1.7852 -0.9434
   31MPD2    H1  479   0.173   3.553  14.885  0.2009  2.3128  1.2355
   31MPD2    H2  480   0.316   3.775  14.558  1.2165 -1.2380 -0.2700
   31MPD2    H3  481   0.333   3.703  14.776 -0.4390 -0.4989  1.7845
   31MPD2     N  482   4.679   3.446  14.783  0.3553  0.0619 -0.0922
   31MPD2    H5  483   0.002   3.423  14.873 -1.0703  2.0441  1.0774
   31MPD2    N1  484   0.117   3.712  14.397 -0.0571  0.1504  0.0720
   31MPD2    H7  485   0.173   3.795  14.380 -0.1056  0.4455  1.3328
   32TCq2    C1  486   4.563   3.387  14.723 -0.5033 -0.3237 -0.5773
   32TCq2    O2  487   4.510   3.416  14.618 -0.3216  0.4820 -0.1361
   32TCq2    C2  488   4.510   3.288  14.818  0.3184  0.4853 -0.1238
   32TCq2    C3  489   4.417   3.199  14.767 -0.1585  1.0508 -0.2476
   32TCq2    C4  490   4.344   3.120  14.861 -0.3310  0.1289  0.2042
   32TCq2    C5  491   4.359   3.151  14.995 -0.0786  0.1012  0.1239
   32TCq2    C6  492   4.442   3.251  15.036 -0.3642  0.4280  0.1811
   32TCq2    C7  493   4.522   3.316  14.952  0.7114  1.1596  0.1493
   32TCq2    C8  494   4.449   3.275  15.180 -0.3972 -0.2293  0.0436
   32TCq2    O4  495   4.387   3.198  15.252  0.0774  0.4586 -0.0334
   32TCq2    C9  496   4.268   3.011  14.815  0.0949  0.8460  0.0171
   32TCq2    O5  497   4.298   2.973  14.699 -0.4247 -0.2720 -0.4412
   32TCq2    O6  498   4.222   2.935  14.900  0.2462 -0.0158 -0.3092
   32TCq2    H2  499   4.417   3.174  14.662  2.7680  0.0721 -0.0192
   32TCq2    H3  500   4.308   3.090  15.068 -1.4653  1.0713 -0.0349
   32TCq2    H4  501   4.592   3.388  14.994  0.6640  1.1372  0.2661
   33MPD2     C  502   0.071   1.793  10.094  0.6424  0.1346 -0.2599
   33MPD2    C1  503   0.176   1.720  10.059 -0.2469 -0.9695 -0.1768
   33MPD2    C2  504   0.304   1.771  10.077  0.5913  0.6064  0.3701
   33MPD2    C3  505   0.323   1.901  10.116  0.4403  0.0273  0.0647
   33MPD2    C4  506   0.212   1.978  10.158 -0.3902 -0.4783 -0.2172
   33MPD2    C5  507   0.090   1.915  10.140 -0.0537  1.5216 -0.2681
   33MPD2     H  508   0.387   1.704  10.061 -0.0421 -0.4510  1.5132
   33MPD2    H1  509   0.219   2.075  10.206  1.0908  0.8828 -3.2117
   33MPD2    H2  510   4.689   1.754  10.078  0.9440 -0.1735 -1.4080
   33MPD2    H3  511   4.715   1.965  10.164 -1.0352 -1.1727  1.5327
   33MPD2     N  512   0.458   1.958  10.123  0.1425  0.3611  0.6464
   33MPD2    H5  513   0.468   2.043  10.178 -0.0120  0.7258  0.1138
   33MPD2    N1  514   0.151   1.599  10.004  0.0247 -0.4576 -0.1627
   33MPD2    H7  515   0.053   1.570  10.005  0.0730 -0.5384  1.6727
   34TCq2    C1  516   0.570   1.914  10.052  1.3734 -0.0132  0.4758
   34TCq2    O2  517   0.576   1.836   9.960 -0.0041 -0.1886 -0.6022
   34TCq2    C2  518   0.687   1.993  10.070  0.1310 -0.0847  0.1664
   34TCq2    C3  519   0.705   2.049  10.194 -0.4760  0.1156  0.6711
   34TCq2    C4  520   0.787   2.151  10.211  0.0194 -0.1625 -0.1267
   34TCq2    C5  521   0.855   2.201  10.105 -0.4448  0.8343 -0.3770
   34TCq2    C6  522   0.823   2.158   9.974  0.1733  0.1329  0.0808
   34TCq2    C7  523   0.738   2.050   9.960 -0.1451  0.6710 -0.2850
   34TCq2    C8  524   0.899   2.220   9.865  0.1026 -0.5987  0.0404
   34TCq2    O4  525   0.984   2.303   9.897  0.1989  0.2796 -0.0824
   34TCq2    C9  526   0.813   2.202  10.345  0.2254  0.3591 -0.4677
   34TCq2    O5  527   0.752   2.139  10.431 -0.1829  0.2062 -0.2136
   34TCq2    O6  528   0.913   2.281  10.361 -0.7984  0.2128 -0.2450
   34TCq2    H2  529   0.652   2.012  10.280 -1.3164  1.0557  0.5540
   34TCq2    H3  530   0.919   2.287  10.119  0.6989 -0.0265 -0.3553
   34TCq2    H4  531   0.712   2.009   9.864  1.0292 -1.5246  0.3291
   35MPD2     C  532   1.808   3.486  11.494 -0.0700  0.0969  0.4054
   35MPD2    C1  533   1.780   3.379  11.569  0.3426  0.4804  0.9543
   35MPD2    C2  534   1.704   3.273  11.522 -0.3767  0.2815  0.2570
   35MPD2    C3  535   1.659   3.283  11.391 -0.1475 -0.0403  0.6780
   35MPD2    C4  536   1.695   3.389  11.307 -0.1079 -0.8831 -0.5094
   35MPD2    C5  537   1.762   3.497  11.362 -0.2764  0.1728 -0.3612
   35MPD2     H  538   1.681   3.188  11.586  3.0746  1.1511  2.6209
   35MPD2    H1  539   1.661   3.397  11.204 -0.0709  1.9026 -0.3078
   35MPD2    H2  540   1.872   3.566  11.530 -0.2217 -0.1918  1.3133
   35MPD2    H3  541   1.783   3.576  11.291 -3.1944 -0.9839 -2.4776
   35MPD2     N  542   1.574   3.184  11.349  0.5004 -0.3075  0.0967
   35MPD2    H5  543   1.552   3.117  11.422 -0.1723  3.9129  3.8067
   35MPD2    N1  544   1.818   3.380  11.703  0.7178 -0.1696 -0.9093
   35MPD2    H7  545   1.826   3.474  11.740 -1.3200 -0.9002  1.3309
   36TCq2    C1  546   1.513   3.165  11.228 -0.2002 -0.0771  0.2194
   36TCq2    O2  547   1.513   3.237  11.128 -0.3516 -0.3257  0.1982
   36TCq2    C2  548   1.440   3.041  11.223  0.1631 -0.2811  0.2874
   36TCq2    C3  549   1.331   3.041  11.142 -0.2753 -0.5418  0.4595
   36TCq2    C4  550   1.263   2.926  11.125 -0.7207  0.0052 -0.0183
   36TCq2    C5  551   1.307   2.810  11.186  0.5495 -0.6068  0.4891
   36TCq2    C6  552   1.421   2.814  11.264 -0.4373 -0.2617  0.1129
   36TCq2    C7  553   1.495   2.929  11.282 -0.0825  0.6010  0.2308
   36TCq2    C8  554   1.463   2.692  11.331  0.4669 -0.4345  0.1987
   36TCq2    O4  555   1.435   2.591  11.273 -0.2702 -0.8943  0.1395
   36TCq2    C9  556   1.146   2.924  11.050  0.5870 -0.4789  0.5725
   36TCq2    O5  557   1.092   2.811  11.026 -0.2887  0.5457  0.4016
   36TCq2    O6  558   1.097   3.028  11.003  0.4252  0.1738  0.4861
   36TCq2    H2  559   1.286   3.129  11.096 -1.1430 -1.2235  0.0068
   36TCq2    H3  560   1.242   2.724  11.185  0.0431 -0.2302  0.8090
   36TCq2    H4  561   1.587   2.937  11.339  0.8964 -2.6459 -0.8733
   37TMC2    C1  562   3.518   3.496  11.326 -0.0770 -0.3935 -0.5304
   37TMC2    C2  563   3.511   3.627  11.288  0.4564 -0.4489 -0.0713
   37TMC2    C3  564   3.635   3.692  11.272 -0.5535  0.2134  0.3591
   37TMC2    C4  565   3.643   3.432  11.334  0.7857 -0.0362 -0.2878
   37TMC2    C5  566   3.763   3.503  11.321  0.3985  0.5279 -0.0514
   37TMC2    C6  567   3.759   3.627  11.277 -0.4077 -0.1116  0.0619
   37TMC2     C  568   3.401   3.435  11.383  0.1851  0.2178  0.2074
   37TMC2     O  569   3.294   3.492  11.358  0.3265 -0.5177 -0.0322
   37TMC2     H  570   3.416   3.679  11.289 -0.7481 -2.7044  1.1343
   37TMC2    H1  571   3.642   3.330  11.370  0.9686  0.4707  1.1252
   37TMC2    H2  572   3.843   3.684  11.237  0.5894 -1.3721  0.3442
   37TMC2    C7  573   3.887   3.428  11.326  0.1548  0.1856 -0.7493
   37TMC2    C8  574   3.644   3.838  11.273 -0.9201  0.3721 -0.9556
   37TMC2    O1  575   3.882   3.307  11.315  0.1245  0.1352 -0.2301
   37TMC2    O2  576   3.695   3.905  11.358 -0.0090 -0.4735  0.5336
   37TMC2    O5  577   3.519   3.879  11.235  0.4222 -0.4925 -0.0809
   37TMC2    H5  578   3.479   3.836  11.156 -0.9871  1.5413 -0.4785
   38MPD2     C  579   3.165   3.146  11.735 -0.1154 -0.3939  0.7196
   38MPD2    C1  580   3.292   3.089  11.725  0.0768 -0.9168 -0.3174
   38MPD2    C2  581   3.375   3.157  11.640 -0.0999  0.3302  0.1741
   38MPD2    C3  582   3.339   3.272  11.567 -0.2233  0.1880 -0.4330
   38MPD2    C4  583   3.213   3.325  11.584  0.0244  0.7562  0.5499
   38MPD2    C5  584   3.124   3.260  11.667  0.1549 -0.2658 -0.0229
   38MPD2     H  585   3.468   3.109  11.612 -1.9576 -1.3169 -3.2264
   38MPD2    H1  586   3.171   3.412  11.534 -2.8205 -1.7793 -1.5139
   38MPD2    H2  587   3.093   3.099  11.802 -2.6204  2.3625 -0.0267
   38MPD2    H3  588   3.020   3.288  11.682 -0.4501 -2.0155 -0.9440
   38MPD2     N  589   3.431   3.337  11.476 -0.3327 -0.0435  0.0056
   38MPD2    H5  590   3.526   3.304  11.490 -1.0543 -1.3146  1.9335
   38MPD2    N1  591   3.338   2.971  11.782 -0.3854 -0.4375  0.3322
   38MPD2    H7  592   3.437   2.952  11.768 -0.0406 -0.2662  2.4797
   39MPD2     C  593   1.647   4.686   1.234  0.5796  0.2966 -0.4493
   39MPD2    C1  594   1.574   0.079   1.271 -0.5354 -0.2680 -0.9640
   39MPD2    C2  595   1.448   0.103   1.228 -0.3916 -0.3613 -0.2352
   39MPD2    C3  596   1.388   0.011   1.137  0.5903 -0.7216 -0.3502
   39MPD2    C4  597   1.461   4.619   1.098 -0.1323 -0.5947  0.1181
   39MPD2    C5  598   1.586   4.593   1.147 -0.2479 -0.0111 -0.0179
   39MPD2     H  599   1.399   0.190   1.269 -2.7862 -1.9744  0.3076
   39MPD2    H1  600   1.412   4.539   1.045 -0.3413  0.2587 -0.9767
   39MPD2    H2  601   1.741   4.653   1.277 -1.4085 -2.1989  2.0014
   39MPD2    H3  602   1.643   4.502   1.130 -1.5463 -0.6891 -0.7274
   39MPD2     N  603   1.263   0.029   1.080 -0.6377  0.0322 -0.1761
   39MPD2    H5  604   1.233   4.665   1.031  2.7180 -0.6403 -1.1389
   39MPD2    N1  605   1.650   0.158   1.368 -0.1240  0.4699  0.6780
   39MPD2    H7  606   1.747   0.127   1.376  0.3396  2.0380  1.0606
   40TCq2    C1  607   1.604   0.268   1.435 -0.4842  0.3684  0.5069
   40TCq2    O2  608   1.489   0.304   1.458  0.1898 -0.4249 -0.6472
   40TCq2    C2  609   1.716   0.346   1.499 -0.6880  0.0692 -0.3524
   40TCq2    C3  610   1.676   0.441   1.594  0.4514  0.3068 -0.0303
   40TCq2    C4  611   1.771   0.508   1.663 -0.1685 -0.0954  0.5604
   40TCq2    C5  612   1.902   0.481   1.641  0.2336  0.1047 -0.0466
   40TCq2    C6  613   1.946   0.396   1.542 -0.2093 -0.5964  0.5136
   40TCq2    C7  614   1.855   0.317   1.474  0.9265 -0.4424  0.7911
   40TCq2    C8  615   2.088   0.395   1.502 -0.2336 -0.2939 -0.1541
   40TCq2    O4  616   2.126   0.317   1.419 -0.6450  0.1719  0.1716
   40TCq2    C9  617   1.738   0.605   1.768  0.2991  0.0829 -0.1428
   40TCq2    O5  618   1.822   0.705   1.789  0.2265  0.4609  0.0520
   40TCq2    O6  619   1.623   0.596   1.814 -0.4879  0.2646 -0.0006
   40TCq2    H2  620   1.572   0.465   1.613  0.0740  0.0334 -1.7251
   40TCq2    H3  621   1.968   0.533   1.708  0.9265  0.7573 -1.2339
   40TCq2    H4  622   1.890   0.256   1.391 -0.8344  0.8894 -0.9391
   41TMC2    C1  623   0.422   2.908  14.413 -0.3952  0.0551  0.7843
   41TMC2    C2  624   0.409   3.041  14.369 -0.2642 -0.5430 -0.4529
   41TMC2    C3  625   0.386   3.064  14.230 -0.4681 -0.3439 -0.3768
   41TMC2    C4  626   0.407   2.805  14.320 -0.1222 -0.2310 -0.1554
   41TMC2    C5  627   0.395   2.837  14.191  0.6206 -0.7345  0.5101
   41TMC2    C6  628   0.391   2.962  14.137  0.7625 -0.3530  0.3390
   41TMC2     C  629   0.438   2.872  14.554 -0.0402  0.2716 -0.3258
   41TMC2     O  630   0.437   2.752  14.586 -0.4765  0.2617  0.0965
   41TMC2     H  631   0.417   3.124  14.437  2.4014 -1.6592  0.5927
   41TMC2    H1  632   0.423   2.707  14.362 -1.8062 -0.2332  0.4673
   41TMC2    H2  633   0.353   2.979  14.037  2.3554  1.6386  0.0568
   41TMC2    C7  634   0.389   2.726  14.091  0.1210 -0.0824 -0.4502
   41TMC2    C8  635   0.371   3.202  14.194 -0.1859  0.5144  0.2193
   41TMC2    O1  636   0.358   2.612  14.129  0.7080 -0.2442 -0.0934
   41TMC2    O2  637   0.329   3.274  14.284 -0.0815  0.3884 -0.0248
   41TMC2    O5  638   0.454   3.242  14.092 -0.0142  0.1117  0.2749
   41TMC2    H5  639   0.480   3.164  14.038 -0.8237  0.8681 -1.2074
   42MPD2     C  640   0.387   2.858  14.846 -0.0853 -0.8019  0.4131
   42MPD2    C1  641   0.435   2.974  14.781  0.1453 -0.5059  0.3966
   42MPD2    C2  642   0.483   3.077  14.870 -0.5944 -0.1433 -0.2737
   42MPD2    C3  643   0.470   3.070  15.010  0.0247  1.2732  0.1419
   42MPD2    C4  644   0.415   2.955  15.064 -0.5563  0.1942  0.1313
   42MPD2    C5  645   0.375   2.852  14.980  0.2820 -0.3089  0.3445
   42MPD2     H  646   0.520   3.170  14.828  0.9076 -0.6448 -0.0769
   42MPD2    H1  647   0.409   2.934  15.170  4.2327 -2.2966 -0.1167
   42MPD2    H2  648   0.369   2.764  14.795 -2.5661 -1.1003  1.8750
   42MPD2    H3  649   0.331   2.765  15.028 -1.5446  0.4810  0.0667
   42MPD2     N  650   0.527   3.163  15.099  0.2876  0.4082 -0.0818
   42MPD2    H5  651   0.545   3.135  15.195  2.1174  0.2962 -0.4593
   42MPD2    N1  652   0.447   2.978  14.640 -0.4989  0.1855 -0.3659
   42MPD2    H7  653   0.472   3.071  14.607  1.4687  0.3970  1.7296
   43MPD2     C  654   1.603   1.178   0.305 -0.5272  0.5998 -0.1173
   43MPD2    C1  655   1.705   1.169   0.405  0.2902  0.2455  0.4331
   43MPD2    C2  656   1.675   1.189   0.538 -0.5400  0.6898 -1.6336
   43MPD2    C3  657   1.541   1.216   0.570  0.1828  0.5630  0.4707
   43MPD2    C4  658   1.440   1.215   0.478 -0.6030  0.2020 -0.0690
   43MPD2    C5  659   1.475   1.204   0.342 -0.1964 -0.6076 -0.0791
   43MPD2     H  660   1.744   1.187   0.622 -1.3012  3.1582 -0.9373
   43MPD2    H1  661   1.338   1.237   0.509 -0.7408  1.3824 -1.3813
   43MPD2    H2  662   1.630   1.181   0.200  0.8926 -1.6245  0.2064
   43MPD2    H3  663   1.398   1.221   0.267 -2.0317 -1.3938  1.6098
   43MPD2     N  664   1.521   1.243   0.708 -0.2169  0.3118  0.6066
   43MPD2    H5  665   1.608   1.254   0.760 -0.3037 -0.1923  0.8582
   43MPD2    N1  666   1.837   1.144   0.373 -0.7623  0.5624 -0.1860
   43MPD2    H7  667   1.906   1.125   0.445 -2.9838 -1.5005  1.4171
   44TCq2    C1  668   1.609   1.547   1.089 -0.7091 -0.2037 -0.4055
   44TCq2    O2  669   1.701   1.573   1.007 -0.2845 -0.4781 -0.0993
   44TCq2    C2  670   1.497   1.449   1.060 -0.0804  0.5426  0.2222
   44TCq2    C3  671   1.443   1.379   1.168 -0.3256  0.3434  0.3819
   44TCq2    C4  672   1.362   1.268   1.143 -0.2994  0.1950 -0.0229
   44TCq2    C5  673   1.346   1.217   1.019  0.3370 -0.2148  0.2095
   44TCq2    C6  674   1.403   1.286   0.914 -0.2576  0.5850 -0.5382
   44TCq2    C7  675   1.481   1.395   0.937  0.1157  0.5286  1.2977
   44TCq2    C8  676   1.397   1.233   0.777 -0.7306  0.1218  0.1241
   44TCq2    O4  677   1.304   1.162   0.738  0.5768 -0.1405  0.0130
   44TCq2    C9  678   1.298   1.199   1.258  0.6527 -0.2157 -0.5937
   44TCq2    O5  679   1.347   1.223   1.373 -0.1036  0.0896  0.1836
   44TCq2    O6  680   1.206   1.113   1.238  0.2741  0.2369 -0.1158
   44TCq2    H2  681   1.463   1.411   1.270  2.8344 -0.2590 -0.0602
   44TCq2    H3  682   1.283   1.133   0.991  0.9398 -0.9378  1.0581
   44TCq2    H4  683   1.511   1.455   0.852  2.0109 -2.2058  0.0490
   45TMC2    C1  684   3.176   2.833   9.728 -0.4648  0.0389  0.8054
   45TMC2    C2  685   3.071   2.826   9.820 -0.0566 -0.5893 -0.1269
   45TMC2    C3  686   3.075   2.908   9.929 -0.2969  0.1275  0.5798
   45TMC2    C4  687   3.274   2.924   9.737 -0.2456 -0.1241 -0.3442
   45TMC2    C5  688   3.266   3.013   9.841 -0.5588 -0.8839 -0.3189
   45TMC2    C6  689   3.174   3.001   9.944  0.0514  0.3916 -0.3867
   45TMC2     C  690   3.132   2.787   9.595 -0.5980 -0.0052 -0.1567
   45TMC2     O  691   3.221   2.765   9.517  0.4798  0.0097  0.0567
   45TMC2     H  692   2.991   2.753   9.818 -1.4508  0.9364  0.0519
   45TMC2    H1  693   3.352   2.923   9.661 -1.5263  1.2638 -1.6763
   45TMC2    H2  694   3.199   3.024  10.047  0.5305 -0.8523 -0.2207
   45TMC2    C7  695   3.375   3.109   9.848 -0.4852  0.1782 -0.0352
   45TMC2    C8  696   2.972   2.897  10.028 -0.2778 -0.4259 -0.5986
   45TMC2    O1  697   3.463   3.092   9.762  0.0147  0.4078  0.2887
   45TMC2    O2  698   2.887   2.806  10.021 -0.1290 -0.0242 -0.5121
   45TMC2    O5  699   2.940   3.029  10.037  0.1388 -0.1440  0.7329
   45TMC2    H5  700   3.013   3.093  10.049  1.6659 -1.4347 -1.5929
   46MPD2     C  701   2.993   2.626   9.393 -0.2942 -0.1073 -0.0126
   46MPD2    C1  702   2.931   2.699   9.486  0.4334  0.1640  0.3298
   46MPD2    C2  703   2.795   2.691   9.502 -0.0544 -0.2299  0.0054
   46MPD2    C3  704   2.718   2.614   9.420 -0.6682  0.2717 -0.2332
   46MPD2    C4  705   2.775   2.536   9.327  0.6422 -0.1000 -0.0626
   46MPD2    C5  706   2.910   2.548   9.314 -0.5945 -0.3489  0.6296
   46MPD2     H  707   2.741   2.743   9.580  0.1236  0.6404 -0.4559
   46MPD2    H1  708   2.723   2.473   9.256  0.0198 -0.3204  0.5863
   46MPD2    H2  709   3.100   2.632   9.375 -0.4954  0.2865 -1.0776
   46MPD2    H3  710   2.955   2.494   9.232  0.6338  0.9064  0.4685
   46MPD2     N  711   2.579   2.618   9.441  0.0005  0.0034 -0.2850
   46MPD2    H5  712   2.552   2.693   9.504 -0.2475 -1.7546  1.7205
   46MPD2    N1  713   3.002   2.772   9.580 -0.1528 -0.8462  0.5086
   46MPD2    H7  714   2.944   2.812   9.654  0.9627  2.2708 -0.3268
   47TMC2    C1  715   4.459   3.617   9.201  0.2870  0.0880  0.4558
   47TMC2    C2  716   4.487   3.487   9.159 -0.0837  0.3721 -0.1417
   47TMC2    C3  717   4.380   3.402   9.166  0.6723 -0.2267 -0.8753
   47TMC2    C4  718   4.340   3.663   9.247 -0.5548  0.2110 -0.2094
   47TMC2    C5  719   4.244   3.564   9.260 -0.3254  0.3256  0.3405
   47TMC2    C6  720   4.256   3.438   9.218 -0.9220  0.1420  0.1899
   47TMC2     C  721   4.554   3.727   9.173 -0.2101  0.3425  0.7048
   47TMC2     O  722   4.507   3.838   9.183  0.5971 -0.4683 -0.3954
   47TMC2     H  723   4.582   3.457   9.117  0.4263 -0.8283  1.8840
   47TMC2    H1  724   4.316   3.768   9.262  1.6483  0.2896  2.6241
   47TMC2    H2  725   4.185   3.358   9.234 -1.4017  0.8457  1.5160
   47TMC2    C7  726   4.122   3.587   9.353  0.2971 -0.1734  0.7415
   47TMC2    C8  727   4.390   3.277   9.096  0.3695  0.0215  0.0497
   47TMC2    O1  728   4.026   3.513   9.339 -0.0168 -0.6442  0.0057
   47TMC2    O2  729   4.298   3.192   9.112  1.1867 -0.8265  0.3875
   47TMC2    O5  730   4.457   3.305   8.978  0.1303  0.0506  0.2926
   47TMC2    H5  731   4.505   3.390   8.975  1.3551 -0.4936  3.5468
   48MPD2     C  732   0.048   3.893   9.039  0.2342  0.5477  0.1382
   48MPD2    C1  733   0.069   3.770   9.100 -0.4521  0.3028 -0.1790
   48MPD2    C2  734   0.198   3.720   9.099  0.0019  0.4502  0.2489
   48MPD2    C3  735   0.307   3.791   9.046 -0.0350 -0.8692  0.0408
   48MPD2    C4  736   0.277   3.918   8.995 -0.1488  0.2006  0.7292
   48MPD2    C5  737   0.150   3.957   8.975 -0.2429  0.4091 -0.2088
   48MPD2     H  738   0.223   3.626   9.148  0.6763  2.0096  2.9227
   48MPD2    H1  739   0.351   3.965   8.932 -0.3551  0.8444  0.9720
   48MPD2    H2  740   4.662   3.920   9.030  0.2451  1.2333  2.0785
   48MPD2    H3  741   0.140   4.052   8.924  1.4538 -0.0521 -1.3963
   48MPD2     N  742   0.435   3.725   9.024  0.0944  0.4566  0.1397
   48MPD2    H5  743   0.445   3.626   9.043  0.3200  0.1652 -1.4882
   48MPD2    N1  744   4.683   3.688   9.148 -0.2646  0.1083  0.4009
   48MPD2    H7  745   4.705   3.590   9.159 -3.3365 -0.6049  0.1772
   49MPD2     C  746   3.088   1.010   9.919 -0.4737 -0.7215  0.6150
   49MPD2    C1  747   3.008   0.961  10.019 -0.2489 -0.1749 -0.6575
   49MPD2    C2  748   3.050   0.975  10.150 -0.3898  0.4804  0.1281
   49MPD2    C3  749   3.173   1.030  10.179  0.2640  0.0417 -1.0425
   49MPD2    C4  750   3.254   1.072  10.077  0.8519 -0.8099 -0.3858
   49MPD2    C5  751   3.211   1.066   9.952 -0.4307 -0.2562  0.3613
   49MPD2     H  752   2.980   0.938  10.224 -0.6786 -0.1741 -0.4782
   49MPD2    H1  753   3.359   1.093  10.086  0.7884 -0.5216 -0.3346
   49MPD2    H2  754   3.065   1.008   9.814  1.3349 -3.5828  0.2683
   49MPD2    H3  755   3.276   1.096   9.871 -0.9298  1.7061  0.6832
   49MPD2     N  756   3.232   1.033  10.307 -0.7847 -0.0119  0.1497
   49MPD2    H5  757   3.317   1.087  10.321 -0.4647 -0.1721 -1.0933
   49MPD2    N1  758   2.886   0.894   9.996 -0.3321 -0.0685  0.1602
   49MPD2    H7  759   2.853   0.850  10.081  2.4575 -0.6286  0.9626
   50TCq2    C1  760   2.819   0.863   9.878  0.3233  0.7487  0.1275
   50TCq2    O2  761   2.841   0.908   9.767  0.8750  0.3047 -0.3308
   50TCq2    C2  762   2.714   0.771   9.893 -0.0819  0.5717  0.0117
   50TCq2    C3  763   2.644   0.743   9.780 -0.4716 -0.4017 -0.4565
   50TCq2    C4  764   2.549   0.643   9.784 -0.3573  0.5688  0.1244
   50TCq2    C5  765   2.527   0.567   9.894 -0.5723  0.4046  0.1473
   50TCq2    C6  766   2.607   0.590  10.005 -0.9983 -0.2703  0.4535
   50TCq2    C7  767   2.703   0.686  10.004 -0.4889 -0.2134 -0.3669
   50TCq2    C8  768   2.577   0.520  10.135 -0.4944  0.5656 -0.8393
   50TCq2    O4  769   2.665   0.516  10.218  0.0542  0.4586  0.1113
   50TCq2    C9  770   2.470   0.629   9.659 -1.0391 -0.0178 -0.5230
   50TCq2    O5  771   2.378   0.539   9.656 -0.1290 -0.1951 -0.0224
   50TCq2    O6  772   2.496   0.706   9.560  0.3352 -0.8322  0.3634
   50TCq2    H2  773   2.671   0.795   9.689 -0.5176  0.4628  0.0214
   50TCq2    H3  774   2.465   0.478   9.887 -0.9025  0.7589 -1.5353
   50TCq2    H4  775   2.770   0.693  10.089 -1.9808  0.1905  0.7739
   51MPD2     C  776   0.257   3.491   1.032 -0.6331  0.0419  0.2355
   51MPD2    C1  777   0.138   3.479   1.101 -0.6679 -0.1082  0.4467
   51MPD2    C2  778   0.131   3.565   1.214  0.1761 -0.6013 -0.6768
   51MPD2    C3  779   0.235   3.638   1.266 -0.0969  0.6736 -0.5961
   51MPD2    C4  780   0.350   3.623   1.205  0.2679 -0.0797 -0.3884
   51MPD2    C5  781   0.370   3.549   1.089 -0.2090  0.4346  0.1811
   51MPD2     H  782   0.037   3.556   1.266  1.1624 -0.8061  1.0491
   51MPD2    H1  783   0.437   3.684   1.232 -1.1654  1.7005  0.2169
   51MPD2    H2  784   0.285   3.433   0.944 -0.1519  0.3499  0.1886
   51MPD2    H3  785   0.463   3.532   1.036  0.2898 -0.2205  1.2794
   51MPD2     N  786   0.216   3.743   1.361  0.5105  0.7609 -0.3346
   51MPD2    H5  787   0.291   3.790   1.411 -0.0540  0.0990  1.1294
   51MPD2    N1  788   0.030   3.396   1.074  0.0697  0.0484 -0.2921
   51MPD2    H7  789   4.671   3.399   1.138  0.3293  0.5739 -0.0013
   52TCq2    C1  790   0.097   3.794   1.393  0.8111  0.3734 -0.0042
   52TCq2    O2  791   4.708   3.757   1.363  0.1399 -0.4643 -0.3831
   52TCq2    C2  792   0.102   3.882   1.509  0.2255  0.0000 -0.0012
   52TCq2    C3  793   0.160   3.831   1.623  0.7805 -0.1545  0.3363
   52TCq2    C4  794   0.143   3.893   1.745 -0.2306 -0.5205 -0.5354
   52TCq2    C5  795   0.047   3.985   1.760 -0.9449 -1.0320 -0.4267
   52TCq2    C6  796   4.687   4.017   1.650  0.1041  0.0488 -0.1853
   52TCq2    C7  797   4.717   3.971   1.523 -0.1255  0.2556 -0.0796
   52TCq2    C8  798   4.570   4.088   1.672 -0.0473  0.6879 -0.1457
   52TCq2    O4  799   4.511   4.111   1.571  0.4163 -0.2852 -0.1788
   52TCq2    C9  800   0.207   3.847   1.867 -0.0451  0.2107  0.2078
   52TCq2    O5  801   0.293   3.756   1.847 -0.1814 -0.6814  0.1226
   52TCq2    O6  802   0.138   3.859   1.971  1.0013  0.7014  0.0342
   52TCq2    H2  803   0.229   3.748   1.616  0.4486 -0.3975 -0.0701
   52TCq2    H3  804   0.037   4.035   1.856  0.1305 -1.3113 -0.1738
   52TCq2    H4  805   4.681   4.005   1.427 -0.2216 -2.3667 -0.9941
   53TMC2    C1  806   4.310   2.985  11.790  0.2955 -0.0355  0.1696
   53TMC2    C2  807   4.406   2.919  11.856  0.5779 -0.5519 -0.8856
   53TMC2    C3  808   4.366   2.838  11.956  0.3787 -0.4883  1.4260
   53TMC2    C4  809   4.183   2.981  11.841 -1.0259  0.3794  0.3789
   53TMC2    C5  810   4.155   2.907  11.948 -0.6159 -0.1353  0.3586
   53TMC2    C6  811   4.235   2.822  12.010 -0.0726 -0.4809  0.4377
   53TMC2     C  812   4.341   3.106  11.715  0.7099  0.1660  0.1966
   53TMC2     O  813   4.460   3.138  11.724 -0.3482 -0.2128  0.9022
   53TMC2     H  814   4.508   2.905  11.823  0.5060 -3.2207 -0.0005
   53TMC2    H1  815   4.107   3.053  11.813 -1.3624 -0.3614 -0.6002
   53TMC2    H2  816   4.212   2.742  12.079 -0.1094 -2.3275 -1.7385
   53TMC2    C7  817   4.019   2.910  11.991  0.3002  0.2579 -1.5707
   53TMC2    C8  818   4.476   2.766  12.015 -0.4263 -0.2361  0.7266
   53TMC2    O1  819   3.939   2.972  11.919  0.3490 -0.2534  0.7117
   53TMC2    O2  820   4.585   2.759  11.960 -0.1385  0.1611  0.2777
   53TMC2    O5  821   4.460   2.757  12.147  0.4847  0.7013 -0.0071
   53TMC2    H5  822   4.380   2.769  12.201  1.6675  0.4318  1.8053
   54MPD2     C  823   4.329   3.379  11.606 -0.2032 -0.1068 -0.1154
   54MPD2    C1  824   4.227   3.286  11.592 -0.3680  0.2733 -0.1634
   54MPD2    C2  825   4.109   3.325  11.518  0.7675  0.0364 -0.3463
   54MPD2    C3  826   4.102   3.446  11.455  0.1515  0.5827  0.4128
   54MPD2    C4  827   4.216   3.522  11.462  0.1223  0.6851  0.6287
   54MPD2    C5  828   4.328   3.489  11.529 -0.0191 -0.4361 -0.2660
   54MPD2     H  829   4.033   3.252  11.491  0.8339 -0.4664  0.8322
   54MPD2    H1  830   4.223   3.622  11.421  0.7803  0.0353 -0.8428
   54MPD2    H2  831   4.421   3.360  11.660 -0.2459 -0.3755 -0.1387
   54MPD2    H3  832   4.417   3.551  11.524 -1.7698  2.0332 -0.8829
   54MPD2     N  833   3.995   3.501  11.376  0.2492  0.1630 -0.5818
   54MPD2    H5  834   4.000   3.601  11.357  1.1862  0.2547  0.1110
   54MPD2    N1  835   4.231   3.157  11.651 -0.0436 -0.6766  0.6815
   54MPD2    H7  836   4.151   3.099  11.632 -0.0011 -0.3527 -0.4936
   55MPD2     C  837   4.500   0.818   0.543  0.7049  0.3125 -0.4701
   55MPD2    C1  838   4.386   0.772   0.595 -0.3661 -0.0850 -0.0701
   55MPD2    C2  839   4.290   0.867   0.611  0.1154  0.4210  0.0760
   55MPD2    C3  840   4.305   1.009   0.589  0.2562 -0.6696  0.5565
   55MPD2    C4  841   4.423   1.044   0.527  0.3281  0.5934 -0.2722
   55MPD2    C5  842   4.513   0.949   0.500  0.3914 -0.0617 -0.0443
   55MPD2     H  843   4.190   0.841   0.641 -0.4530 -0.0785 -2.2701
   55MPD2    H1  844   4.448   1.146   0.503  0.0073  1.0170  1.2292
   55MPD2    H2  845   4.582   0.750   0.524  0.9906  0.3490  0.6098
   55MPD2    H3  846   4.603   0.992   0.458 -0.1725 -1.8556 -3.1053
   55MPD2     N  847   4.195   1.101   0.601 -0.0014 -0.2508 -0.3228
   55MPD2    H5  848   4.115   1.069   0.654  0.4598  1.1528  1.2290
   55MPD2    N1  849   4.375   0.635   0.635 -0.3212 -0.5617  0.1147
   55MPD2    H7  850   4.453   0.581   0.599 -1.6874 -0.4129 -3.0633
   56TCq2    C1  851   4.254   0.592   0.691 -0.4690  0.4527  0.5583
   56TCq2    O2  852   4.152   0.653   0.733  0.1687  0.2173  0.3350
   56TCq2    C2  853   4.246   0.446   0.687  0.6045  0.3919  0.1991
   56TCq2    C3  854   4.307   0.387   0.577  0.0488 -0.3396  0.2177
   56TCq2    C4  855   4.278   0.248   0.576  0.4895  0.4445 -0.3288
   56TCq2    C5  856   4.193   0.190   0.661 -0.0360 -0.4005  0.0466
   56TCq2    C6  857   4.133   0.256   0.763  1.0569  0.2149 -0.0879
   56TCq2    C7  858   4.158   0.393   0.778 -0.3569  0.1313  0.5268
   56TCq2    C8  859   4.046   0.189   0.857  0.3794  0.2847 -1.0996
   56TCq2    O4  860   4.061   0.068   0.854  0.1171 -0.2190  0.0799
   56TCq2    C9  861   4.335   0.159   0.479 -0.5081 -0.3021  0.1073
   56TCq2    O5  862   4.313   0.039   0.502  0.0927  0.4434  0.2338
   56TCq2    O6  863   4.395   0.195   0.376 -0.3870  0.7668 -0.2818
   56TCq2    H2  864   4.370   0.435   0.504 -1.1225  0.6450 -0.1583
   56TCq2    H3  865   4.168   0.085   0.652 -1.5389 -0.1702  1.3970
   56TCq2    H4  866   4.108   0.461   0.845  0.1045  0.4830  0.5212
   57TMC2    C1  867   3.841   1.798  13.731 -0.1613  0.0961  0.5278
   57TMC2    C2  868   3.924   1.713  13.801 -0.3139 -0.2685 -0.0629
   57TMC2    C3  869   4.058   1.728  13.780  0.2680 -1.1442 -0.4271
   57TMC2    C4  870   3.882   1.853  13.610  0.4071 -0.0325 -0.5195
   57TMC2    C5  871   4.017   1.840  13.577  0.2587 -0.0536  0.2422
   57TMC2    C6  872   4.111   1.775  13.661  0.6353  0.0124 -0.1469
   57TMC2     C  873   3.705   1.820  13.788  0.3905 -0.1944  0.1201
   57TMC2     O  874   3.697   1.827  13.913 -0.1289  0.5939 -0.6888
   57TMC2     H  875   3.876   1.682  13.893  0.2837 -0.6436  0.1228
   57TMC2    H1  876   3.818   1.914  13.548  1.0968  0.9527 -0.2631
   57TMC2    H2  877   4.215   1.756  13.638  0.2051 -2.4143 -0.0712
   57TMC2    C7  878   4.055   1.854  13.442  0.4763  0.6403 -0.5442
   57TMC2    C8  879   4.157   1.672  13.869 -0.3952 -0.4471 -0.1267
   57TMC2    O1  880   3.962   1.896  13.374 -0.0586  0.2340 -0.5872
   57TMC2    O2  881   4.276   1.694  13.870 -0.1807  0.2702 -0.9757
   57TMC2    O5  882   4.099   1.563  13.900  0.4692  0.2516  0.3015
   57TMC2    H5  883   4.002   1.555  13.886  0.2312  2.2972  0.8751
   58MPD2     C  884   3.216   1.777  13.779 -0.3762  0.7748 -0.5229
   58MPD2    C1  885   3.291   1.867  13.852  0.6914  0.5219 -0.0756
   58MPD2    C2  886   3.426   1.863  13.830  0.5397 -0.1737  0.0843
   58MPD2    C3  887   3.481   1.788  13.729  0.6131  0.0909 -0.4077
   58MPD2    C4  888   3.402   1.707  13.655  0.3478  0.3800 -0.1675
   58MPD2    C5  889   3.268   1.699  13.679 -0.8585 -0.2402  0.8106
   58MPD2     H  890   3.486   1.935  13.884  1.8958 -0.3389 -1.2182
   58MPD2    H1  891   3.436   1.644  13.573 -1.1490  1.1636 -1.3790
   58MPD2    H2  892   3.108   1.771  13.783 -0.1973 -2.3578  0.2230
   58MPD2    H3  893   3.193   1.639  13.627  0.1310 -0.8317  0.0715
   58MPD2     N  894   3.616   1.786  13.695  0.0429  0.7546 -0.5300
   58MPD2    H5  895   3.658   1.757  13.608 -0.7593 -0.7149 -0.4225
   58MPD2    N1  896   3.234   1.969  13.934  0.4479 -0.1211 -0.2883
   58MPD2    H7  897   3.291   2.045  13.972 -1.3604  1.0090  0.1769
   59MPD2     C  898   2.001   1.797  12.653 -0.8341 -0.5914  0.0416
   59MPD2    C1  899   1.926   1.896  12.711 -0.1765  0.1450  0.0945
   59MPD2    C2  900   1.952   1.929  12.844 -0.4608  0.0234 -0.2088
   59MPD2    C3  901   2.057   1.870  12.913 -0.2806  0.1926  0.1282
   59MPD2    C4  902   2.139   1.777  12.847  0.0222  0.4867 -0.8789
   59MPD2    C5  903   2.104   1.735  12.720 -0.2537  0.0352 -0.0569
   59MPD2     H  904   1.889   2.005  12.888 -0.6880 -0.8783  1.0240
   59MPD2    H1  905   2.232   1.745  12.892 -0.3516  0.0294 -0.4421
   59MPD2    H2  906   1.984   1.761  12.552 -1.1055 -0.2431 -0.0325
   59MPD2    H3  907   2.165   1.659  12.673 -2.8195 -2.5647  0.8324
   59MPD2     N  908   2.099   1.918  13.040 -0.7563 -0.6221  0.5469
   59MPD2    H5  909   2.188   1.881  13.075 -0.7451 -1.8915 -0.8504
   59MPD2    N1  910   1.829   1.974  12.648  0.5311  0.1135 -0.0631
   59MPD2    H7  911   1.764   2.022  12.710 -2.2266 -2.5372 -0.9414
   60TCq2    C1  912   1.826   2.011  12.515 -0.0254  0.0370  0.0388
   60TCq2    O2  913   1.908   1.984  12.431 -0.4316  0.7014  0.7510
   60TCq2    C2  914   1.747   2.130  12.478 -0.6939 -0.0176  0.4790
   60TCq2    C3  915   1.643   2.188  12.544  0.5717  0.8896 -0.0914
   60TCq2    C4  916   1.585   2.301  12.492  0.1461  0.0380 -0.2568
   60TCq2    C5  917   1.640   2.364  12.384  0.5149  0.2968 -0.7330
   60TCq2    C6  918   1.741   2.309  12.315  0.2435 -0.1965 -0.1083
   60TCq2    C7  919   1.786   2.186  12.356 -0.1578 -0.2871 -0.7092
   60TCq2    C8  920   1.795   2.379  12.195 -0.4814 -0.0283 -0.2937
   60TCq2    O4  921   1.856   2.307  12.114 -0.0191  0.5957 -0.4327
   60TCq2    C9  922   1.481   2.362  12.566 -0.5228  0.1555 -0.3073
   60TCq2    O5  923   1.453   2.481  12.536 -0.1099  0.5562 -0.2784
   60TCq2    O6  924   1.453   2.313  12.680 -0.2386 -0.3735  0.0543
   60TCq2    H2  925   1.607   2.139  12.634  0.3273  0.5311 -0.3860
   60TCq2    H3  926   1.602   2.463  12.363 -0.2507  0.1996  0.1957
   60TCq2    H4  927   1.873   2.143  12.309  0.7820 -1.6032  2.2396
   61MPD2     C  928   0.901   3.404  14.709  0.2524 -0.6786 -0.0257
   61MPD2    C1  929   1.007   3.461  14.761 -0.2918 -0.0195 -0.6413
   61MPD2    C2  930   1.070   3.559  14.691 -0.0287 -0.4066 -0.2604
   61MPD2    C3  931   1.019   3.609  14.571 -0.6250  0.2961  0.4659
   61MPD2    C4  932   0.905   3.551  14.526 -0.1854 -0.1885 -0.5402
   61MPD2    C5  933   0.848   3.448  14.593 -0.3514  0.1928  0.0758
   61MPD2     H  934   1.150   3.606  14.748  0.7030  0.5593 -2.0630
   61MPD2    H1  935   0.863   3.586  14.432  3.2048  0.7756 -1.7080
   61MPD2    H2  936   0.843   3.328  14.761  0.9616 -1.0639  0.2122
   61MPD2    H3  937   0.759   3.399  14.555 -1.2172  2.9706 -1.5222
   61MPD2     N  938   1.070   3.722  14.498 -0.3750 -0.5768 -0.0161
   61MPD2    H5  939   1.014   3.768  14.427 -1.7316 -0.3135  1.2114
   61MPD2    N1  940   1.052   3.439  14.898 -1.1456  0.1796  0.3060
   61MPD2    H7  941   1.124   3.504  14.929  0.5318 -1.3593 -0.3653
   62TCq2    C1  942   1.005   3.344  14.980 -0.8196 -0.0479  0.3833
   62TCq2    O2  943   0.936   3.248  14.950  0.3107 -0.4472 -0.2979
   62TCq2    C2  944   1.041   3.370  15.119  0.3362 -0.1450  0.1732
   62TCq2    C3  945   1.068   3.259  15.194  0.2992  0.1866 -0.3421
   62TCq2    C4  946   1.119   3.288  15.323 -0.0700  0.1294  0.1847
   62TCq2    C5  947   1.139   3.414  15.370  0.2987 -0.2471 -0.0702
   62TCq2    C6  948   1.119   3.516  15.283 -0.2100 -0.3279 -0.1698
   62TCq2    C7  949   1.062   3.500  15.164 -0.4143 -0.8407 -0.3758
   62TCq2    C8  950   1.091   3.642  15.345  0.6008 -0.1060 -0.2320
   62TCq2    O4  951   1.115   3.737  15.273 -0.1529 -0.7501  0.2260
   62TCq2    C9  952   1.143   3.170  15.409 -0.2546  0.9284 -0.2067
   62TCq2    O5  953   1.139   3.190  15.537 -0.2933  0.2512 -0.0628
   62TCq2    O6  954   1.125   3.056  15.360  0.9801 -0.0297 -0.4713
   62TCq2    H2  955   1.041   3.160  15.158 -0.4235  1.5447 -3.6021
   62TCq2    H3  956   1.187   3.422  15.468 -0.4661  0.9886  0.1979
   62TCq2    H4  957   1.033   3.580  15.097  1.5167 -0.5880 -0.8992
   63TMC2    C1  958   1.215   3.713  10.653  0.0629 -0.6633 -0.9296
   63TMC2    C2  959   1.227   3.837  10.694 -0.3641 -0.1519 -0.1095
   63TMC2    C3  960   1.269   3.936  10.602  0.3965 -0.7278 -0.3337
   63TMC2    C4  961   1.235   3.675  10.528  0.2202  0.2157 -0.2532
   63TMC2    C5  962   1.266   3.778  10.435 -0.6167 -0.0887  0.0638
   63TMC2    C6  963   1.291   3.914  10.472  0.3534  0.4630  0.3002
   63TMC2     C  964   1.134   3.634  10.738  0.2963 -0.0723  0.4233
   63TMC2     O  965   1.123   3.664  10.856 -0.0082  0.3503  0.2130
   63TMC2     H  966   1.195   3.864  10.794  1.5963  0.2006  0.4325
   63TMC2    H1  967   1.239   3.574  10.490 -2.2674  0.6284 -1.5944
   63TMC2    H2  968   1.296   3.999  10.405 -0.9796  1.9294  2.0617
   63TMC2    C7  969   1.201   3.757  10.308 -0.1417 -0.2835 -0.4895
   63TMC2    C8  970   1.257   4.068  10.655 -0.5070  0.2176 -0.6202
   63TMC2    O1  971   1.138   3.656  10.302 -0.4963 -0.6401  0.1113
   63TMC2    O2  972   1.164   4.100  10.726  0.0236 -0.1293 -0.1453
   63TMC2    O5  973   1.347   4.147  10.596  0.2271 -0.2804 -0.5353
   63TMC2    H5  974   1.419   4.101  10.547  0.1646 -0.3775 -0.5373
   64MPD2     C  975   0.804   3.239  10.756 -0.7799  0.3113  0.7454
   64MPD2    C1  976   0.877   3.237  10.641 -0.7263 -0.5643 -0.5431
   64MPD2    C2  977   0.962   3.338  10.611  0.0625 -0.4188  0.5543
   64MPD2    C3  978   0.978   3.444  10.699 -0.6206 -0.0723  0.0064
   64MPD2    C4  979   0.899   3.453  10.813  0.4785  0.0813 -0.2613
   64MPD2    C5  980   0.813   3.352  10.840  0.5924 -0.1111 -0.5155
   64MPD2     H  981   1.026   3.334  10.524 -2.1198  1.4791 -1.1308
   64MPD2    H1  982   0.906   3.531  10.888  2.1058 -0.8884  0.5929
   64MPD2    H2  983   0.738   3.164  10.798  1.5943 -2.4914 -0.5336
   64MPD2    H3  984   0.746   3.359  10.925 -0.5851  0.3417 -1.4831
   64MPD2     N  985   1.079   3.537  10.663 -0.4060  0.3110  0.1021
   64MPD2    H5  986   1.105   3.529  10.565 -3.0098 -1.4837 -0.4458
   64MPD2    N1  987   0.868   3.129  10.548 -0.5298  0.0814 -0.0341
   64MPD2    H7  988   0.938   3.130  10.475 -0.9219  2.1716 -0.3842
   65MPD2     C  989   1.403   3.031  15.922 -0.2641 -0.1643 -0.4824
   65MPD2    C1  990   1.373   3.043  15.784 -0.3171  0.2124 -0.5736
   65MPD2    C2  991   1.317   2.936  15.728  0.6796  0.2544 -0.3834
   65MPD2    C3  992   1.303   2.818  15.793  0.2976 -0.4391 -0.4136
   65MPD2    C4  993   1.322   2.809  15.930 -0.1256 -0.5551  0.6118
   65MPD2    C5  994   1.371   2.916  15.990  0.5818  0.2064  0.1791
   65MPD2     H  995   1.283   2.951  15.626 -1.1455  0.6899  0.2821
   65MPD2    H1  996   1.302   2.715  15.981 -0.7229 -0.9426 -0.3155
   65MPD2    H2  997   1.447   3.114  15.976 -3.2389  0.1372  1.5296
   65MPD2    H3  998   1.397   2.921  16.095 -1.6505  1.8224  0.6557
   65MPD2     N  999   1.260   2.701  15.728 -0.4707  0.4854  0.5153
   65MPD2    H5 1000   1.233   2.624  15.789  0.0983 -1.7985 -2.0801
   65MPD2    N1 1001   1.404   3.157  15.702  0.4420  0.3901 -0.3626
   65MPD2    H7 1002   1.389   3.159  15.602 -0.7525 -2.0864 -0.2289
   66TCq2    C1 1003   1.460   3.280  15.739 -0.5912 -1.1592  0.2744
   66TCq2    O2 1004   1.513   3.319  15.846  0.4323 -0.2598  0.1892
   66TCq2    C2 1005   1.454   3.383  15.632  0.3023 -0.4183 -0.3433
   66TCq2    C3 1006   1.474   3.350  15.501  0.1057 -0.4342  0.2840
   66TCq2    C4 1007   1.485   3.444  15.404  0.4020 -0.3057  0.1115
   66TCq2    C5 1008   1.480   3.574  15.447  0.2020 -0.4096 -0.2559
   66TCq2    C6 1009   1.455   3.612  15.579  0.1250 -0.3599  0.3747
   66TCq2    C7 1010   1.438   3.517  15.675 -0.2756  0.4035 -0.2681
   66TCq2    C8 1011   1.427   3.755  15.622  0.4795 -0.0151  0.0520
   66TCq2    O4 1012   1.485   3.833  15.544  0.0928  0.0227  0.6107
   66TCq2    C9 1013   1.511   3.409  15.263 -0.1365 -0.7399 -0.2414
   66TCq2    O5 1014   1.531   3.291  15.233  0.1082 -0.2184 -0.1674
   66TCq2    O6 1015   1.535   3.502  15.181 -0.7618 -0.2318  0.8626
   66TCq2    H2 1016   1.487   3.247  15.470 -1.1428 -0.4335 -0.2323
   66TCq2    H3 1017   1.479   3.648  15.368 -0.9987 -0.7127 -0.5297
   66TCq2    H4 1018   1.446   3.545  15.779  2.5779 -1.8348  0.1248
   67MPD2     C 1019   1.516   2.444  14.105 -0.5867 -1.1732  1.4535
   67MPD2    C1 1020   1.437   2.515  14.191  1.0986 -0.7659 -0.1075
   67MPD2    C2 1021   1.307   2.526  14.167  0.3078  0.5198  1.0627
   67MPD2    C3 1022   1.253   2.461  14.055 -0.5594 -1.0654 -0.5656
   67MPD2    C4 1023   1.327   2.379  13.976 -0.1044  0.1280 -0.3414
   67MPD2    C5 1024   1.462   2.382  13.996  0.6266  0.0784  0.4867
   67MPD2     H 1025   1.251   2.591  14.233  0.9118  2.4828 -0.3756
   67MPD2    H1 1026   1.289   2.330  13.887 -1.2353  1.8607 -0.8043
   67MPD2    H2 1027   1.621   2.424  14.122 -0.2759 -0.5154  0.3287
   67MPD2    H3 1028   1.530   2.335  13.925 -0.0030  0.9382 -0.6919
   67MPD2     N 1029   1.111   2.460  14.037  0.0087  0.2012  0.5220
   67MPD2    H5 1030   1.079   2.421  13.949 -0.0919 -0.2071  0.7390
   67MPD2    N1 1031   1.483   2.579  14.309 -0.0331 -0.5177  0.1668
   67MPD2    H7 1032   1.413   2.625  14.367  0.8507 -0.4083  1.1539
   68TCq2    C1 1033   1.616   2.565  14.363  0.3348  0.5195  0.4168
   68TCq2    O2 1034   1.696   2.477  14.332 -0.4819  1.0222  0.4504
   68TCq2    C2 1035   1.629   2.639  14.482 -0.3259 -0.5091  0.1038
   68TCq2    C3 1036   1.548   2.746  14.503  0.2399  0.0589  0.0536
   68TCq2    C4 1037   1.527   2.783  14.635  0.4405 -1.7280 -0.0956
   68TCq2    C5 1038   1.547   2.703  14.744  0.7142  0.0520 -1.0158
   68TCq2    C6 1039   1.625   2.591  14.720 -0.1000  0.0456 -0.8322
   68TCq2    C7 1040   1.677   2.567  14.591  0.4287 -0.1860 -0.0009
   68TCq2    C8 1041   1.673   2.514  14.835 -0.0466  0.6078  0.3527
   68TCq2    O4 1042   1.627   2.543  14.943 -0.2110 -0.2879  0.0216
   68TCq2    C9 1043   1.439   2.898  14.662  0.1298 -0.1195  0.2457
   68TCq2    O5 1044   1.427   2.978  14.567  0.2358  0.1120  0.2150
   68TCq2    O6 1045   1.417   2.921  14.781 -0.1717  0.1853 -0.2643
   68TCq2    H2 1046   1.508   2.802  14.419  1.4881 -0.8658 -1.1620
   68TCq2    H3 1047   1.503   2.728  14.840  0.7140 -1.8994 -0.5025
   68TCq2    H4 1048   1.742   2.483  14.570 -0.8475 -1.2362  0.3018
   69TMC2    C1 1049   3.104   3.840  12.121  0.5433  0.2635 -0.7009
   69TMC2    C2 1050   3.012   3.845  12.018  0.0147 -0.3405 -0.3768
   69TMC2    C3 1051   3.036   3.938  11.922 -0.4163 -0.5489  0.2225
   69TMC2    C4 1052   3.212   3.923  12.116 -0.1337  0.2285 -0.4977
   69TMC2    C5 1053   3.238   4.003  12.006 -0.6748 -0.2022 -0.0463
   69TMC2    C6 1054   3.145   4.015  11.909 -0.1249  0.2395 -0.2465
   69TMC2     C 1055   3.149   3.706  12.160  0.4338  0.2487 -0.1262
   69TMC2     O 1056   3.065   3.630  12.211 -0.3970 -0.2203  0.2903
   69TMC2     H 1057   2.932   3.772  12.015  1.0471 -1.5340  1.0451
   69TMC2    H1 1058   3.291   3.925  12.190  0.5464 -2.0073 -1.1756
   69TMC2    H2 1059   3.158   4.077  11.822 -1.3304  1.0656  0.1543
   69TMC2    C7 1060   3.372   3.976  11.956 -0.8636  0.2792  0.2776
   69TMC2    C8 1061   2.944   3.949  11.811 -0.2266 -0.6683 -0.0754
   69TMC2    O1 1062   3.439   3.885  12.009  0.0010  0.1531 -0.2380
   69TMC2    O2 1063   2.979   3.990  11.703 -0.1560 -0.3301  0.0435
   69TMC2    O5 1064   2.817   3.947  11.857  0.0286  0.3325  0.1433
   69TMC2    H5 1065   2.814   3.918  11.951  4.0592  0.1747  0.2362
   70MPD2     C 1066   3.502   3.589  12.172 -0.2501 -0.1638 -0.0725
   70MPD2    C1 1067   3.367   3.595  12.210 -0.0673 -0.0506  0.4448
   70MPD2    C2 1068   3.314   3.500  12.297  0.7568 -0.5797 -0.1497
   70MPD2    C3 1069   3.398   3.402  12.349  0.1197  0.5081 -0.5230
   70MPD2    C4 1070   3.529   3.404  12.313  0.1437 -0.5243  0.2425
   70MPD2    C5 1071   3.585   3.497  12.225 -0.6724 -0.8318  0.0705
   70MPD2     H 1072   3.212   3.503  12.333  1.0741  1.0167  0.6272
   70MPD2    H1 1073   3.595   3.326  12.348  2.2247  1.3500  0.4605
   70MPD2    H2 1074   3.558   3.661  12.113 -1.9087  0.7890 -0.4758
   70MPD2    H3 1075   3.688   3.500  12.192 -1.1593  1.3923 -1.2357
   70MPD2     N 1076   3.354   3.318  12.455 -0.0497 -0.3903 -0.1323
   70MPD2    H5 1077   3.426   3.260  12.497  0.4102 -0.5066 -1.0934
   70MPD2    N1 1078   3.289   3.700  12.156 -0.6403  0.2682  0.2171
   70MPD2    H7 1079   3.337   3.767  12.098 -2.3687  2.4953  1.3218
   71TMC2    C1 1080   1.860   3.788   1.716  0.0232 -0.0144 -0.0326
   71TMC2    C2 1081   1.943   3.789   1.824 -0.0854  0.9454 -0.2169
   71TMC2    C3 1082   1.935   3.685   1.912 -0.6879  0.8965 -0.3496
   71TMC2    C4 1083   1.750   3.695   1.712 -0.1001  0.2203  0.2231
   71TMC2    C5 1084   1.739   3.600   1.810  0.4173 -0.3312  0.0717
   71TMC2    C6 1085   1.838   3.589   1.902  0.1745 -0.0093 -0.0814
   71TMC2     C 1086   1.867   3.893   1.623 -0.2413 -0.1709 -0.2181
   71TMC2     O 1087   1.802   3.877   1.520 -0.7817 -0.0708  0.1236
   71TMC2     H 1088   2.042   3.831   1.809 -1.4179  3.1978 -2.7505
   71TMC2    H1 1089   1.693   3.686   1.620 -1.5267  1.4043  0.9809
   71TMC2    H2 1090   1.827   3.520   1.984 -2.7838 -0.1999 -0.6439
   71TMC2    C7 1091   1.643   3.489   1.789  0.2514  0.6446  0.4858
   71TMC2    C8 1092   2.036   3.642   2.005 -0.2208  0.3761  0.1622
   71TMC2    O1 1093   1.645   3.392   1.864  0.1920 -0.4649 -0.1209
   71TMC2    O2 1094   2.062   3.523   2.023  0.2297 -0.3439 -0.1946
   71TMC2    O5 1095   2.124   3.746   2.014  0.1264 -0.1550 -0.0574
   71TMC2    H5 1096   2.082   3.834   1.999  1.6607  0.6173  0.2103
   72MPD2     C 1097   2.057   4.339   1.441  0.4088  0.1159  0.6422
   72MPD2    C1 1098   2.002   4.230   1.377 -0.9539 -0.1537 -0.0438
   72MPD2    C2 1099   1.964   4.118   1.454 -0.0547  1.2141 -0.3833
   72MPD2    C3 1100   1.980   4.112   1.593 -0.4647  0.8202 -0.4671
   72MPD2    C4 1101   2.045   4.214   1.652 -0.2576  0.3248 -0.0302
   72MPD2    C5 1102   2.080   4.327   1.579 -0.2662 -0.0777 -0.3555
   72MPD2     H 1103   1.919   4.034   1.403  2.1461  0.3808 -0.9368
   72MPD2    H1 1104   2.058   4.209   1.759 -0.3405 -1.9276 -0.1365
   72MPD2    H2 1105   2.084   4.430   1.390 -1.6460  1.0933  1.2734
   72MPD2    H3 1106   2.128   4.411   1.627  1.8692 -1.3402 -0.2788
   72MPD2     N 1107   1.937   3.999   1.667  0.3129 -0.2283  0.1586
   72MPD2    H5 1108   1.954   4.005   1.767 -2.9187  1.0829  0.6298
   72MPD2    N1 1109   1.974   4.245   1.241 -0.3472  1.0523 -0.5582
   72MPD2    H7 1110   2.012   4.330   1.201  0.8148  1.9422  2.4558
   73TMC2    C1 1111   1.198   0.707  13.284 -0.1045  0.2943  0.0777
   73TMC2    C2 1112   1.292   0.612  13.260 -0.1269 -0.4469 -0.5450
   73TMC2    C3 1113   1.363   0.565  13.368  1.0362  0.4673 -0.4184
   73TMC2    C4 1114   1.172   0.751  13.412  0.3976 -0.4470  0.6594
   73TMC2    C5 1115   1.248   0.708  13.517 -0.0496 -0.3844  0.3190
   73TMC2    C6 1116   1.351   0.616  13.500  0.0420 -0.2166 -0.1809
   73TMC2     C 1117   1.172   0.796  13.174  0.2518 -0.3764 -0.8801
   73TMC2     O 1118   1.205   0.764  13.057  0.2811 -0.7266 -0.3610
   73TMC2     H 1119   1.319   0.594  13.157  0.4954 -1.4355 -0.2068
   73TMC2    H1 1120   1.080   0.802  13.439  0.9124  0.8262 -0.0009
   73TMC2    H2 1121   1.398   0.583  13.592 -1.8445 -1.7505  0.2366
   73TMC2    C7 1122   1.240   0.780  13.643  0.1709  0.4195 -0.3571
   73TMC2    C8 1123   1.487   0.492  13.331  0.2878  0.3821  0.5039
   73TMC2    O1 1124   1.217   0.715  13.744 -0.4080  0.0265 -0.3689
   73TMC2    O2 1125   1.524   0.484  13.215 -0.1534  0.5331  0.4945
   73TMC2    O5 1126   1.514   0.399  13.428  0.1645 -0.1075  0.7801
   73TMC2    H5 1127   1.452   0.415  13.502 -1.3875  0.6094 -0.6634
   74MPD2     C 1128   1.030   1.273  13.008 -0.0773  0.0714  0.2542
   74MPD2    C1 1129   1.046   1.275  13.144  0.0419 -0.0545 -0.5350
   74MPD2    C2 1130   1.086   1.151  13.203 -0.6215 -0.5429 -0.8559
   74MPD2    C3 1131   1.090   1.030  13.139 -0.5103  0.0420  0.1594
   74MPD2    C4 1132   1.075   1.035  13.000 -0.4453  0.0962 -0.4033
   74MPD2    C5 1133   1.038   1.154  12.937  0.0349  0.4610  0.1479
   74MPD2     H 1134   1.123   1.155  13.304  0.9665  0.1983 -1.4608
   74MPD2    H1 1135   1.096   0.943  12.946  0.7723  0.1006  0.0716
   74MPD2    H2 1136   1.002   1.357  12.947 -2.2155 -1.8224 -1.3395
   74MPD2    H3 1137   1.033   1.154  12.829  0.0324 -3.2566  0.1265
   74MPD2     N 1138   1.120   0.914  13.218 -0.2692  0.2660  0.0148
   74MPD2    H5 1139   1.119   0.922  13.320 -1.2308 -0.1882  0.0418
   74MPD2    N1 1140   1.032   1.393  13.216  0.2446  0.0192  0.0108
   74MPD2    H7 1141   1.038   1.486  13.175  0.7206 -0.0700 -0.1092
   75TCq2    C1 1142   1.021   2.482  14.133  0.1267 -0.1138  0.1380
   75TCq2    O2 1143   1.034   2.510  14.253 -0.1838 -0.0546 -0.0871
   75TCq2    C2 1144   0.884   2.473  14.071 -0.4353 -0.1598  0.8689
   75TCq2    C3 1145   0.779   2.452  14.154 -0.1498 -0.1210  0.7911
   75TCq2    C4 1146   0.658   2.422  14.097  0.2826 -0.4086  0.3049
   75TCq2    C5 1147   0.636   2.417  13.963 -0.2622 -0.3136 -0.0982
   75TCq2    C6 1148   0.747   2.447  13.888 -0.0936 -0.4161  0.2043
   75TCq2    C7 1149   0.870   2.478  13.937 -0.3955  0.5571 -0.4414
   75TCq2    C8 1150   0.719   2.448  13.747 -0.1639  0.3615 -0.7168
   75TCq2    O4 1151   0.656   2.353  13.698 -0.4945  0.0015  0.2524
   75TCq2    C9 1152   0.564   2.361  14.186 -0.4246 -0.5121  0.6449
   75TCq2    O5 1153   0.476   2.283  14.134 -0.6502  0.0168 -0.0396
   75TCq2    O6 1154   0.594   2.348  14.310 -0.7553  0.0933  0.3038
   75TCq2    H2 1155   0.801   2.448  14.261  0.3739 -0.3664  0.6749
   75TCq2    H3 1156   0.544   2.377  13.922 -0.1725 -0.1568 -0.4573
   75TCq2    H4 1157   0.948   2.497  13.865 -0.6135 -1.1844 -1.1390
   76MPD2     C 1158   4.172   3.235  12.122  0.4841  0.5837 -0.2403
   76MPD2    C1 1159   4.277   3.281  12.039  0.2994 -0.5756  0.2798
   76MPD2    C2 1160   4.406   3.231  12.063  0.7397  0.1821 -0.5796
   76MPD2    C3 1161   4.422   3.135  12.166  0.1658  0.1374 -0.4907
   76MPD2    C4 1162   4.315   3.098  12.246  0.2234  0.2096 -0.4184
   76MPD2    C5 1163   4.191   3.142  12.224  0.6179 -0.3489  0.8211
   76MPD2     H 1164   4.488   3.264  12.000  2.0382 -0.5851  0.7159
   76MPD2    H1 1165   4.343   3.031  12.326  0.4258  0.7033 -0.0807
   76MPD2    H2 1166   4.071   3.274  12.117  0.2425  0.0884  0.8801
   76MPD2    H3 1167   4.104   3.116  12.284  0.4421 -1.3126  0.1395
   76MPD2     N 1168   4.550   3.069  12.191 -0.4794 -0.1583 -0.3748
   76MPD2    H5 1169   4.546   3.010  12.273 -0.3164 -0.2547 -0.4355
   76MPD2    N1 1170   4.247   3.385  11.941  0.3347 -0.0556  0.4190
   76MPD2    H7 1171   4.329   3.418  11.892  0.5577 -3.0683 -1.2655
   77TCq2    C1 1172   4.673   3.093  12.129 -0.5241 -0.3716  0.3525
   77TCq2    O2 1173   4.707   3.182  12.052 -0.5885  0.0188  0.2088
   77TCq2    C2 1174   0.053   2.996  12.155 -0.1327  0.5295  0.4063
   77TCq2    C3 1175   0.174   3.028  12.104 -0.3113 -0.4356  0.1921
   77TCq2    C4 1176   0.283   2.965  12.172 -0.3372  0.3175 -0.7287
   77TCq2    C5 1177   0.269   2.866  12.260 -0.3108  0.1714  0.2158
   77TCq2    C6 1178   0.142   2.840  12.302  1.0633 -0.0786 -0.1145
   77TCq2    C7 1179   0.030   2.906  12.255  0.3674  0.4205 -0.4675
   77TCq2    C8 1180   0.121   2.756  12.414  0.7234  0.6771 -0.2509
   77TCq2    O4 1181   0.028   2.677  12.398  0.1213  0.0137 -0.2957
   77TCq2    C9 1182   0.413   3.010  12.144 -0.1290 -1.1556 -0.5208
   77TCq2    O5 1183   0.428   3.092  12.049 -0.5096 -0.4016 -0.3869
   77TCq2    O6 1184   0.509   2.976  12.223  0.0637  0.1232  0.2974
   77TCq2    H2 1185   0.189   3.103  12.027 -0.6276 -1.2024 -0.6152
   77TCq2    H3 1186   0.354   2.817  12.306  1.0005  0.2767 -2.0780
   77TCq2    H4 1187   4.648   2.874  12.277  0.9307 -0.2724  1.1600
   78MPD1     C 1188   0.084   3.973   1.008  0.1844 -0.1113  0.5429
   78MPD1    C1 1189   0.089   4.074   1.104  0.2305  0.9645  0.2671
   78MPD1    C2 1190   0.204   4.096   1.174  0.5649  0.4895 -0.2507
   78MPD1    C3 1191   0.310   4.014   1.155  0.5816 -0.5611 -0.0021
   78MPD1    C4 1192   0.309   3.912   1.060 -1.3232  0.5744 -0.4781
   78MPD1    C5 1193   0.195   3.894   0.984  0.4667 -0.3859 -0.4191
   78MPD1     H 1194   0.208   4.173   1.250 -1.4308 -0.8874  1.2405
   78MPD1    H1 1195   0.396   3.849   1.046 -1.6591 -0.1784  0.8404
   78MPD1    H2 1196   4.709   3.969   0.953  1.0524  1.4666 -1.0630
   78MPD1    H3 1197   0.193   3.828   0.898 -1.4361 -0.1181 -0.5897
   78MPD1     N 1198   0.437   4.034   1.220 -0.4137 -0.7777 -0.5409
   78MPD1    H5 1199   0.511   3.970   1.196  0.0945 -0.3562 -0.0900
   78MPD1    N1 1200   4.698   4.159   1.118  0.7932  0.5908 -0.3156
   78MPD1    H6 1201   0.001   4.245   1.167 -1.8694  1.9295 -1.4673
   78MPD1    H7 1202   4.632   4.166   1.041 -0.9095 -0.1753  1.0599
   79TCq2    C1 1203   0.465   4.135   1.311  0.5727 -0.8134 -0.0501
   79TCq2    O2 1204   0.395   4.205   1.386  0.7053 -0.2208  0.1600
   79TCq2    C2 1205   0.601   4.140   1.350 -0.3186  0.3267  0.7885
   79TCq2    C3 1206   0.622   4.210   1.467  0.4567  0.1201 -0.1866
   79TCq2    C4 1207   0.746   4.200   1.512  0.2609 -0.4883 -0.5520
   79TCq2    C5 1208   0.837   4.112   1.459 -0.3601 -0.7793 -0.0020
   79TCq2    C6 1209   0.810   4.035   1.351 -0.2245 -0.0512  0.1981
   79TCq2    C7 1210   0.687   4.056   1.295  0.1010 -0.1983 -0.0492
   79TCq2    C8 1211   0.905   3.950   1.291 -0.5822 -0.1029 -0.5170
   79TCq2    O4 1212   0.996   3.902   1.360 -0.1963 -0.3346  0.3104
   79TCq2    C9 1213   0.777   4.277   1.630 -0.2717  0.5748  0.0461
   79TCq2    O5 1214   0.707   4.377   1.648 -0.6942  0.2495  0.1848
   79TCq2    O6 1215   0.897   4.261   1.674 -0.5786  0.2643  0.1869
   79TCq2    H2 1216   0.549   4.275   1.515 -0.9615 -3.1754  2.0808
   79TCq2    H3 1217   0.935   4.109   1.504 -1.4643  4.0407  2.8193
   79TCq2    H4 1218   0.668   4.012   1.197  0.3991 -0.9964  0.2543
   80MPD2     C 1219   4.132   2.486  12.076  0.2968 -0.5368  1.6206
   80MPD2    C1 1220   4.074   2.488  11.955 -0.6066 -0.1565 -0.2244
   80MPD2    C2 1221   3.947   2.543  11.949 -0.3834 -0.2232 -0.0357
   80MPD2    C3 1222   3.870   2.552  12.075 -0.3940 -0.5060  0.0070
   80MPD2    C4 1223   3.931   2.526  12.187 -0.8715  0.6458  0.4628
   80MPD2    C5 1224   4.062   2.494  12.189 -0.4147  0.7462 -0.3934
   80MPD2     H 1225   3.898   2.546  11.852  0.1358 -2.3067 -0.3515
   80MPD2    H1 1226   3.877   2.523  12.281 -1.4537  0.6847  0.1342
   80MPD2    H2 1227   4.237   2.460  12.088  0.3956 -1.2939 -0.8641
   80MPD2    H3 1228   4.113   2.484  12.284 -2.6068 -1.3942  0.5689
   80MPD2     N 1229   3.735   2.604  12.087  0.4942 -0.1612  0.2924
   80MPD2    H5 1230   3.699   2.608  12.182  0.6110  1.5706  0.2687
   80MPD2    N1 1231   4.145   2.461  11.834  0.0849 -0.1714  0.0388
   80MPD2    H7 1232   4.091   2.468  11.748 -0.2437  2.3041  0.4591
   81TCq2    C1 1233   4.282   2.442  11.815 -0.9182 -0.1751 -0.4741
   81TCq2    O2 1234   4.375   2.453  11.893 -0.4585  1.2254 -0.1725
   81TCq2    C2 1235   4.298   2.408  11.673  0.5961  0.2356  0.3495
   81TCq2    C3 1236   4.402   2.451  11.603 -0.1207  0.2422  0.3509
   81TCq2    C4 1237   4.414   2.426  11.473  0.3708 -0.3254 -0.0343
   81TCq2    C5 1238   4.320   2.334  11.419 -0.5136  0.2353 -0.2742
   81TCq2    C6 1239   4.211   2.294  11.492 -0.9068 -0.0946 -0.0227
   81TCq2    C7 1240   4.208   2.313  11.625  0.4744 -0.2188 -0.2231
   81TCq2    C8 1241   4.113   2.211  11.422  0.3802 -0.2598  1.1835
   81TCq2    O4 1242   4.126   2.186  11.300  0.3878  0.3822  0.3567
   81TCq2    C9 1243   4.532   2.479  11.400  0.1976 -0.0609 -0.1318
   81TCq2    O5 1244   4.550   2.445  11.279  0.0275 -0.7370 -0.1705
   81TCq2    O6 1245   4.625   2.524  11.472  0.3353  0.3588  0.2031
   81TCq2    H2 1246   4.462   2.533  11.642  1.6010 -1.7122  1.8468
   81TCq2    H3 1247   4.321   2.322  11.311  1.2781 -0.5334 -0.1757
   81TCq2    H4 1248   4.127   2.281  11.690 -0.9756  2.6859 -0.5901
   82MPD2     C 1249   2.464   2.638  10.621 -0.0711  0.5327 -0.4691
   82MPD2    C1 1250   2.349   2.568  10.647  0.8922  0.5443  0.4484
   82MPD2    C2 1251   2.348   2.501  10.766 -0.1559  0.5129  0.3861
   82MPD2    C3 1252   2.467   2.479  10.838  0.7409 -0.0421  0.2202
   82MPD2    C4 1253   2.574   2.555  10.806  0.4248 -0.3071 -0.3653
   82MPD2    C5 1254   2.575   2.639  10.701  0.7001 -0.1207 -0.1695
   82MPD2     H 1255   2.255   2.452  10.793 -0.6954  1.0071 -0.5789
   82MPD2    H1 1256   2.672   2.552  10.852 -0.3189 -0.6064  1.1923
   82MPD2    H2 1257   2.464   2.701  10.533  0.0447  0.1436 -0.7496
   82MPD2    H3 1258   2.664   2.699  10.687  1.4751 -0.5260  3.1630
   82MPD2     N 1259   2.482   2.391  10.943 -0.1019  0.4628 -0.5907
   82MPD2    H5 1260   2.577   2.376  10.977 -0.5671 -0.9212  0.0916
   82MPD2    N1 1261   2.240   2.572  10.555  0.1067 -0.7227 -0.7458
   82MPD2    H7 1262   2.237   2.646  10.486 -1.6713 -0.2422 -0.1498
   83TCq2    C1 1263   2.383   2.323  11.012 -0.4791 -0.6175  0.1369
   83TCq2    O2 1264   2.260   2.343  11.016  0.0828  0.9583  0.8887
   83TCq2    C2 1265   2.446   2.208  11.091  0.1300 -0.1907  0.5434
   83TCq2    C3 1266   2.576   2.221  11.143 -0.0132 -0.0962  0.2167
   83TCq2    C4 1267   2.640   2.119  11.213  0.1439 -0.1500  0.4736
   83TCq2    C5 1268   2.581   1.990  11.212  0.4340  0.3315  0.4685
   83TCq2    C6 1269   2.455   1.979  11.161  1.2959 -0.4316  0.1487
   83TCq2    C7 1270   2.383   2.087  11.103  0.1688 -0.4321 -1.7482
   83TCq2    C8 1271   2.388   1.851  11.169 -0.0549  0.0069  0.4036
   83TCq2    O4 1272   2.403   1.777  11.270  0.1405  0.2243 -0.6298
   83TCq2    C9 1273   2.773   2.135  11.264 -0.5952 -0.6960 -0.1804
   83TCq2    O5 1274   2.815   2.040  11.335  0.0587 -1.2063  0.0546
   83TCq2    O6 1275   2.839   2.230  11.215  0.3240  0.4882 -0.3469
   83TCq2    H2 1276   2.634   2.310  11.122 -2.1099  0.8323 -1.6189
   83TCq2    H3 1277   2.628   1.897  11.241  2.3048  1.1703  0.0915
   83TCq2    H4 1278   2.278   2.082  11.076  0.2034 -0.2840 -1.9097
   84TCq2    C1 1279   3.188   0.969  10.414 -0.3600 -0.4503 -1.1078
   84TCq2    O2 1280   3.095   0.891  10.420 -0.3695  0.7570 -0.1451
   84TCq2    C2 1281   3.262   0.994  10.533 -0.4700  0.5201  0.0605
   84TCq2    C3 1282   3.403   1.006  10.543  0.4327  0.3212 -0.5334
   84TCq2    C4 1283   3.450   1.039  10.666 -0.0882 -0.5232 -0.0221
   84TCq2    C5 1284   3.376   1.053  10.776  0.4411  0.1620 -0.3613
   84TCq2    C6 1285   3.243   1.035  10.769 -0.1618 -0.4224 -0.2626
   84TCq2    C7 1286   3.185   1.008  10.645  0.4346 -0.1352 -0.1375
   84TCq2    C8 1287   3.158   1.076  10.883 -0.1975 -0.1639  0.2443
   84TCq2    O4 1288   3.206   1.161  10.956  0.2549 -0.2053  0.0171
   84TCq2    C9 1289   3.591   1.065  10.672  0.2378 -0.6609 -0.3709
   84TCq2    O5 1290   3.638   1.075  10.788 -0.8329  0.4326  0.4246
   84TCq2    O6 1291   3.659   1.086  10.570  0.1100 -0.1711  0.6837
   84TCq2    H2 1292   3.476   0.979  10.468  0.5831  1.1805 -0.6994
   84TCq2    H3 1293   3.413   1.090  10.871 -1.8263  0.0410  0.5657
   84TCq2    H4 1294   3.077   1.011  10.636  0.6657  1.6438 -2.0326
   85MPD2     C 1295   3.570   3.690  16.243 -1.2184  0.8336  0.0713
   85MPD2    C1 1296   3.470   3.713  16.150  0.5175 -0.1963 -0.6747
   85MPD2    C2 1297   3.481   3.809  16.055  0.3301 -0.0365  0.0831
   85MPD2    C3 1298   3.603   3.879  16.042 -0.6537 -0.6049 -0.4154
   85MPD2    C4 1299   3.702   3.859  16.133  0.0155  0.5734  0.2820
   85MPD2    C5 1300   3.684   3.769  16.235  0.1060 -0.5190  0.3284
   85MPD2     H 1301   3.403   3.823  15.981  1.8399 -1.6550 -1.8322
   85MPD2    H1 1302   3.803   3.896  16.123 -0.3323  1.3861 -0.1994
   85MPD2    H2 1303   3.565   3.616  16.322  2.2207  2.6627  2.0346
   85MPD2    H3 1304   3.759   3.750  16.312  2.4536 -0.7700 -2.0192
   85MPD2     N 1305   3.635   3.954  15.922 -0.4249 -0.0563  0.6974
   85MPD2    H5 1306   3.562   3.961  15.851 -0.5355 -2.7581  0.5631
   85MPD2    N1 1307   3.361   3.619  16.135 -0.3041 -0.2792 -0.0998
   85MPD2    H7 1308   3.296   3.627  16.058 -1.0099  1.3896  0.6575
   86TCq2    C1 1309   3.753   4.015  15.889  0.2359 -0.5114 -0.7299
   86TCq2    O2 1310   3.866   4.001  15.942 -0.0183  0.5304  0.5557
   86TCq2    C2 1311   3.745   4.097  15.768 -0.0863 -0.0374  0.7081
   86TCq2    C3 1312   3.627   4.121  15.705  0.4956  0.1683  0.1266
   86TCq2    C4 1313   3.632   4.182  15.581  0.7247 -0.0803 -0.0263
   86TCq2    C5 1314   3.750   4.213  15.522  1.1977 -0.5084  0.5992
   86TCq2    C6 1315   3.867   4.206  15.589 -0.7580  0.0680 -0.5416
   86TCq2    C7 1316   3.865   4.138  15.709  0.6875  0.2029 -1.0310
   86TCq2    C8 1317   3.996   4.222  15.529  0.1961 -0.2549  0.8849
   86TCq2    O4 1318   4.089   4.204  15.609 -0.3482  0.0296  0.2308
   86TCq2    C9 1319   3.505   4.192  15.514 -0.3951 -0.1929  0.2692
   86TCq2    O5 1320   3.407   4.150  15.582  0.7065 -0.9192 -0.0073
   86TCq2    O6 1321   3.512   4.218  15.387  0.3070 -0.1041  0.6160
   86TCq2    H2 1322   3.537   4.087  15.755  0.2744  0.5909  0.0124
   86TCq2    H3 1323   3.738   4.272  15.432  0.3698 -1.8228 -0.1576
   86TCq2    H4 1324   3.954   4.135  15.771 -0.0721 -1.0352 -0.0061
   87MPD2     C 1325   0.909   3.227   1.790  0.1090  0.4524 -0.2143
   87MPD2    C1 1326   0.930   3.156   1.672 -0.1864  0.2883  0.4679
   87MPD2    C2 1327   0.839   3.163   1.572 -0.9504  0.3406  1.1628
   87MPD2    C3 1328   0.725   3.250   1.583  0.4472  0.0637 -0.7271
   87MPD2    C4 1329   0.695   3.309   1.706 -0.4600  0.0614 -0.2114
   87MPD2    C5 1330   0.788   3.303   1.806  0.6619  0.4074  0.1921
   87MPD2     H 1331   0.861   3.107   1.482  2.5960  0.8704  1.6937
   87MPD2    H1 1332   0.616   3.382   1.719  0.0615  0.4226  0.9838
   87MPD2    H2 1333   0.980   3.215   1.871  0.2209  1.6272 -0.1401
   87MPD2    H3 1334   0.781   3.357   1.900 -0.7404 -0.0068  0.3277
   87MPD2     N 1335   0.629   3.273   1.482 -0.3126 -0.2997 -0.6149
   87MPD2    H5 1336   0.554   3.340   1.497  1.0174  0.8152  0.9199
   87MPD2    N1 1337   1.045   3.070   1.658 -0.1950 -0.2550  0.1544
   87MPD2    H7 1338   1.109   3.071   1.737 -1.2508  4.3573  0.9956
   88TCq2    C1 1339   1.092   2.997   1.551  0.6004 -0.2661  0.1719
   88TCq2    O2 1340   1.055   2.992   1.433 -0.0248 -0.1322  0.5185
   88TCq2    C2 1341   1.196   2.899   1.589  0.8332  0.6997 -0.0671
   88TCq2    C3 1342   1.206   2.854   1.719 -0.2458 -0.1357 -0.5048
   88TCq2    C4 1343   1.295   2.760   1.747  0.0634  0.1491 -0.2409
   88TCq2    C5 1344   1.376   2.703   1.656  0.1380 -0.1720  0.2582
   88TCq2    C6 1345   1.369   2.745   1.522  0.5954 -0.8881 -0.0578
   88TCq2    C7 1346   1.278   2.844   1.490  0.6934 -1.2518 -0.5237
   88TCq2    C8 1347   1.438   2.675   1.425 -0.4049  0.1562  0.0566
   88TCq2    O4 1348   1.401   2.681   1.310 -0.1963 -0.5766 -0.0664
   88TCq2    C9 1349   1.309   2.706   1.883  0.3879 -0.1717  0.3546
   88TCq2    O5 1350   1.217   2.733   1.963 -0.0091 -0.3491  0.0274
   88TCq2    O6 1351   1.431   2.664   1.902  0.2623 -0.0340 -0.3844
   88TCq2    H2 1352   1.144   2.888   1.801  0.7421  0.5477 -0.0415
   88TCq2    H3 1353   1.438   2.620   1.687 -0.8575 -1.0286 -0.0358
   88TCq2    H4 1354   1.280   2.894   1.394  1.0971 -2.7507 -1.3023
   89MPD2     C 1355   2.389   0.448   1.494 -0.3882  0.2055 -0.4453
   89MPD2    C1 1356   2.299   0.516   1.572 -0.6667 -0.3646 -0.5410
   89MPD2    C2 1357   2.348   0.616   1.661 -0.0892 -0.2367  0.5386
   89MPD2    C3 1358   2.483   0.652   1.660  0.0945  0.7178 -0.1710
   89MPD2    C4 1359   2.571   0.587   1.580 -0.2282 -0.4416  0.1300
   89MPD2    C5 1360   2.525   0.487   1.499  0.6756 -1.1239  0.4842
   89MPD2     H 1361   2.284   0.668   1.732  0.5556  1.1581  0.0988
   89MPD2    H1 1362   2.673   0.626   1.584  1.5299 -4.7499 -2.0909
   89MPD2    H2 1363   2.364   0.380   1.413  0.9945 -1.4646  0.5236
   89MPD2    H3 1364   2.592   0.442   1.427  2.3694 -2.0343  2.6662
   89MPD2     N 1365   2.521   0.764   1.739 -0.6959 -0.4960 -0.3614
   89MPD2    H5 1366   2.446   0.798   1.799  0.2059  0.4163  0.2429
   89MPD2    N1 1367   2.160   0.481   1.578  0.3114 -0.4880  0.4310
   89MPD2    H7 1368   2.110   0.544   1.641  0.9417  0.2559  0.1860
   90TCq2    C1 1369   2.648   0.819   1.764 -0.1290 -0.1830 -0.2535
   90TCq2    O2 1370   2.750   0.813   1.697 -0.0834 -0.2435 -0.0602
   90TCq2    C2 1371   2.634   0.925   1.865 -0.0588  0.0753 -0.5968
   90TCq2    C3 1372   2.549   0.911   1.974 -0.2630  0.3079  0.1724
   90TCq2    C4 1373   2.542   1.002   2.071 -0.5829  0.1786  0.2209
   90TCq2    C5 1374   2.640   1.104   2.074 -0.5642  0.1622 -0.2775
   90TCq2    C6 1375   2.726   1.119   1.961 -0.2868 -0.5386 -0.6371
   90TCq2    C7 1376   2.726   1.033   1.853 -0.3930 -0.5169 -0.1519
   90TCq2    C8 1377   2.767   1.251   1.946  0.0323  0.1502 -0.6513
   90TCq2    O4 1378   2.726   1.335   2.023  0.3523  0.0154  0.1142
   90TCq2    C9 1379   2.464   0.986   2.187  0.4811 -0.5465  0.2077
   90TCq2    O5 1380   2.476   1.080   2.274  0.0322  0.0482 -0.2477
   90TCq2    O6 1381   2.388   0.885   2.196 -0.2559 -0.1425  0.3670
   90TCq2    H2 1382   2.490   0.822   1.994 -0.5261  0.1571 -1.2674
   90TCq2    H3 1383   2.645   1.172   2.158  1.4064 -1.4955  0.9856
   90TCq2    H4 1384   2.772   1.053   1.756  2.7174 -1.0404  1.2186
   91TMC2    C1 1385   3.797   0.111  16.146  0.8187 -0.2933  0.4361
   91TMC2    C2 1386   3.832   0.133  16.015  0.5460  0.0391  0.7433
   91TMC2    C3 1387   3.728   0.139  15.930  0.3232 -0.1056 -0.9578
   91TMC2    C4 1388   3.662   0.091  16.178 -0.6760 -0.3842  0.0559
   91TMC2    C5 1389   3.560   0.097  16.089 -0.1520 -0.0664 -0.0458
   91TMC2    C6 1390   3.593   0.121  15.958  0.2776 -0.9007 -0.4341
   91TMC2     C 1391   3.896   0.090  16.251 -0.7877 -0.4012  0.1743
   91TMC2     O 1392   3.851   0.034  16.353  0.2348 -0.3061 -0.1962
   91TMC2     H 1393   3.936   0.149  15.986 -0.5499  2.2629 -1.9610
   91TMC2    H1 1394   3.652   0.062  16.282 -0.6039 -0.1682  0.1223
   91TMC2    H2 1395   3.521   0.123  15.877  0.8424  1.7896 -0.8773
   91TMC2    C7 1396   3.439   0.032  16.134  0.7504  0.2400  0.8520
   91TMC2    C8 1397   3.767   0.182  15.799 -0.2976 -0.9645  0.0740
   91TMC2    O1 1398   3.409   0.035  16.257 -0.1379  0.2570  0.2567
   91TMC2    O2 1399   3.726   0.282  15.739 -0.1935  0.7947 -0.1479
   91TMC2    O5 1400   3.795   0.067  15.733  0.3881 -0.0430 -0.2691
   91TMC2    H5 1401   3.815   4.710  15.792 -0.7166  0.5178  0.8313
   92MPD2     C 1402   4.137   4.713  16.379  0.6635 -0.3565  0.3214
   92MPD2    C1 1403   4.142   0.105  16.299  0.1161  0.3740  0.3916
   92MPD2    C2 1404   4.256   0.177  16.283 -0.3713  0.4286  0.4939
   92MPD2    C3 1405   4.373   0.143  16.357 -0.3943  0.0760  0.0396
   92MPD2    C4 1406   4.364   0.031  16.443  0.3861  0.5585 -0.2535
   92MPD2    C5 1407   4.244   4.682  16.454  0.0706 -0.2976 -0.5332
   92MPD2     H 1408   4.256   0.252  16.205  1.7853 -0.3905 -0.2822
   92MPD2    H1 1409   4.444   4.714  16.507 -1.4313 -0.7640  1.2550
   92MPD2    H2 1410   4.052   4.646  16.389  0.0665 -0.0367 -2.5540
   92MPD2    H3 1411   4.238   4.599  16.523  0.0328  1.4255  1.5332
   92MPD2     N 1412   4.495   0.212  16.334  0.2068 -0.3807  0.4400
   92MPD2    H5 1413   4.497   0.293  16.272 -0.3845 -1.7267 -1.3415
   92MPD2    N1 1414   4.023   0.143  16.225 -0.2287  0.2763  0.4542
   92MPD2    H7 1415   4.033   0.212  16.151  1.8442  0.0248  0.4920
   93MPD2     C 1416   0.693   0.313  13.310 -0.4373 -0.9837  0.1529
   93MPD2    C1 1417   0.660   0.290  13.442  0.5018 -0.0887  0.9379
   93MPD2    C2 1418   0.521   0.281  13.474  0.2255  0.0563 -0.0245
   93MPD2    C3 1419   0.419   0.294  13.386  0.3211 -0.4775 -0.1402
   93MPD2    C4 1420   0.454   0.311  13.251  0.1576  0.3406  0.4511
   93MPD2    C5 1421   0.592   0.319  13.214 -0.0563 -0.9981  0.2585
   93MPD2     H 1422   0.503   0.265  13.580  1.5195 -1.1244  0.0216
   93MPD2    H1 1423   0.387   0.315  13.166  0.0614 -0.4661  0.4886
   93MPD2    H2 1424   0.792   0.320  13.268 -0.8453  0.1374 -0.6240
   93MPD2    H3 1425   0.617   0.337  13.110 -0.6895  1.3718  0.5156
   93MPD2     N 1426   0.280   0.274  13.415  0.2378 -0.6875  0.2823
   93MPD2    H5 1427   0.214   0.286  13.339 -1.7103 -0.8632  1.9661
   93MPD2    N1 1428   0.761   0.261  13.541 -0.1979 -0.2924  0.1363
   93MPD2    H7 1429   0.730   0.210  13.623 -0.6770  1.3476  0.9638
   94TCq2    C1 1430   0.893   0.297  13.527  0.3856 -0.1114  0.1357
   94TCq2    O2 1431   0.942   0.369  13.442  0.1227 -0.4685 -0.2349
   94TCq2    C2 1432   0.975   0.274  13.650  0.3300 -0.7945  0.4315
   94TCq2    C3 1433   0.917   0.249  13.772 -0.9685 -0.6535 -0.2446
   94TCq2    C4 1434   0.989   0.266  13.888 -0.5195 -0.4544 -0.9270
   94TCq2    C5 1435   1.115   0.305  13.886 -0.7818  0.8244 -0.1804
   94TCq2    C6 1436   1.177   0.329  13.768 -0.0516 -0.1234 -0.4088
   94TCq2    C7 1437   1.108   0.305  13.652 -0.5362 -0.1482 -0.3118
   94TCq2    C8 1438   1.315   0.360  13.755 -0.6772  0.3546  0.1184
   94TCq2    O4 1439   1.363   0.351  13.643  0.5501 -0.4820  0.4799
   94TCq2    C9 1440   0.923   0.256  14.014  0.2353 -0.4301  0.7358
   94TCq2    O5 1441   0.807   0.214  14.022  0.5410  0.4840  0.4576
   94TCq2    O6 1442   0.972   0.333  14.101  0.4314  0.4255  0.5522
   94TCq2    H2 1443   0.815   0.215  13.777 -0.9377 -1.2360 -3.3460
   94TCq2    H3 1444   1.161   0.315  13.984 -0.5600  1.5515 -0.3548
   94TCq2    H4 1445   1.153   0.322  13.555  1.1280 -1.5790  0.2096
   95TMC2    C1 1446   0.369   2.342  16.039  0.4632 -0.6644  0.3559
   95TMC2    C2 1447   0.298   2.225  16.052  0.4085  0.0072  0.7274
   95TMC2    C3 1448   0.200   2.212  16.148 -0.4342 -0.7944  0.2727
   95TMC2    C4 1449   0.367   2.428  16.142 -1.0810  0.1291  0.3931
   95TMC2    C5 1450   0.285   2.397  16.247  0.2754  0.7809 -0.5455
   95TMC2    C6 1451   0.194   2.298  16.253  0.1779 -0.2838  0.0294
   95TMC2     C 1452   0.438   2.382  15.922 -0.5911 -0.3334  0.0499
   95TMC2     O 1453   0.516   2.476  15.920  0.0435 -0.2215 -0.6294
   95TMC2     H 1454   0.315   2.156  15.971  2.3702  0.4266  0.7826
   95TMC2    H1 1455   0.435   2.513  16.138  0.2523 -0.9907 -0.8516
   95TMC2    H2 1456   0.122   2.269  16.329  1.4658 -2.5273  0.3786
   95TMC2    C7 1457   0.271   2.502  16.346 -0.1987 -0.4235  0.0616
   95TMC2    C8 1458   0.105   2.103  16.138 -0.5006  0.4025 -0.3586
   95TMC2    O1 1459   0.339   2.601  16.325 -0.3268 -0.3721 -0.2947
   95TMC2    O2 1460   0.044   2.063  16.239  0.0342  0.3112  0.0581
   95TMC2    O5 1461   0.125   2.023  16.029  0.2742 -0.0628  0.0719
   95TMC2    H5 1462   0.179   2.061  15.957  1.8665 -2.5187 -0.0209
   96MPD2     C 1463   0.575   2.295  15.439 -0.0209  0.3131 -0.0786
   96MPD2    C1 1464   0.653   2.344  15.539 -0.1056 -0.1949  0.5056
   96MPD2    C2 1465   0.595   2.344  15.666 -0.1340  0.0362 -0.5641
   96MPD2    C3 1466   0.468   2.287  15.687 -0.1577 -0.4830  0.2994
   96MPD2    C4 1467   0.395   2.236  15.581 -0.0613 -0.3355  0.8684
   96MPD2    C5 1468   0.446   2.244  15.455 -0.6208 -0.1726  0.2006
   96MPD2     H 1469   0.644   2.381  15.755  1.5264 -1.4584 -0.8303
   96MPD2    H1 1470   0.292   2.202  15.585 -0.2472  0.0261 -0.7541
   96MPD2    H2 1471   0.601   2.327  15.338  1.7858 -0.5312  0.1276
   96MPD2    H3 1472   0.384   2.216  15.371 -1.0194  1.5198 -0.0798
   96MPD2     N 1473   0.401   2.303  15.812  0.0156 -0.0001  0.0486
   96MPD2    H5 1474   0.317   2.245  15.816 -0.3873  0.5974  0.2593
   96MPD2    N1 1475   0.786   2.397  15.507 -0.2345  0.4735 -0.3885
   96MPD2    H7 1476   0.819   2.407  15.411  2.0614 -3.2004  0.0682
   97MPD2     C 1477   2.379   4.183   0.091 -0.2721 -0.0811  0.2176
   97MPD2    C1 1478   2.464   4.265   0.156 -0.0892  0.4471 -0.6404
   97MPD2    C2 1479   2.585   4.309   0.095 -0.2395 -0.0433 -0.2039
   97MPD2    C3 1480   2.616   4.268  17.644 -0.2868  0.4289  0.6873
   97MPD2    C4 1481   2.525   4.187  17.574  0.2497 -0.4327  0.8016
   97MPD2    C5 1482   2.407   4.141  17.640  0.1954  0.2834 -0.1218
   97MPD2     H 1483   2.656   4.368   0.153 -0.8042 -0.6948  1.1426
   97MPD2    H1 1484   2.548   4.164  17.471  0.9052  2.4462  0.3252
   97MPD2    H2 1485   2.290   4.156   0.147 -0.0212 -1.0522  0.1403
   97MPD2    H3 1486   2.336   4.087  17.578 -0.0679  0.3600  0.1148
   97MPD2     N 1487   2.735   4.310  17.574  0.1333  0.2058 -0.1125
   97MPD2    H5 1488   2.715   4.316  17.474 -0.6322 -1.5971 -0.0656
   97MPD2    N1 1489   2.411   4.319   0.278  0.0324 -0.1176 -0.4826
   97MPD2    H7 1490   2.322   4.279   0.309  0.8431 -0.5729  1.2670
   98TCq2    C1 1491   2.847   4.362  17.635  0.2939  0.2210  0.2417
   98TCq2    O2 1492   2.869   4.382   0.073  0.2463 -0.1876  0.9335
   98TCq2    C2 1493   2.946   4.400  17.534  0.3648 -0.2863 -0.7069
   98TCq2    C3 1494   2.939   4.346  17.412  0.1151  0.2724  0.0778
   98TCq2    C4 1495   3.021   4.391  17.317  1.0131  0.3846 -0.1048
   98TCq2    C5 1496   3.102   4.506  17.334  0.5179  0.6318 -0.3170
   98TCq2    C6 1497   3.087   4.566  17.455 -0.1200  0.4983 -0.1212
   98TCq2    C7 1498   3.017   4.513  17.560  0.0023 -0.2408  0.3137
   98TCq2    C8 1499   3.148   4.698  17.468  0.8145 -0.3220 -0.0704
   98TCq2    O4 1500   3.160   0.025  17.581 -0.6026  0.3255  0.3968
   98TCq2    C9 1501   3.020   4.320  17.194 -0.1579 -0.2118  0.3685
   98TCq2    O5 1502   2.917   4.267  17.144 -0.1450  0.3408  0.0525
   98TCq2    O6 1503   3.133   4.320  17.143  0.2734  0.3598  0.2685
   98TCq2    H2 1504   2.894   4.251  17.389 -1.2892  0.4266  2.1597
   98TCq2    H3 1505   3.172   4.527  17.254  1.7226 -2.4749 -0.0686
   98TCq2    H4 1506   3.010   4.566  17.654  0.8215  0.0006  0.2381
   99MPD2     C 1507   1.894   1.833   1.420  0.7607  0.1322 -0.7345
   99MPD2    C1 1508   1.772   1.801   1.483 -0.4302  0.4962 -0.4805
   99MPD2    C2 1509   1.669   1.747   1.406 -0.6309  0.1957 -0.6232
   99MPD2    C3 1510   1.696   1.694   1.275 -0.2207  0.4872  0.3026
   99MPD2    C4 1511   1.819   1.721   1.218 -0.4475  0.4405 -0.3039
   99MPD2    C5 1512   1.917   1.787   1.291 -0.4477  0.1747 -0.3415
   99MPD2     H 1513   1.576   1.716   1.452 -0.1034 -1.0551 -0.3790
   99MPD2    H1 1514   1.841   1.692   1.116 -0.8823 -1.2432  0.0761
   99MPD2    H2 1515   1.972   1.892   1.467 -0.4326  0.3288  0.9929
   99MPD2    H3 1516   2.013   1.798   1.241  0.2329 -0.5075  0.8446
   99MPD2     N 1517   1.594   1.615   1.209 -0.0430  0.1137 -0.0124
   99MPD2    H5 1518   1.507   1.600   1.258  1.0574 -2.7308  1.0884
   99MPD2    N1 1519   1.737   1.845   1.613 -0.3163  0.1224 -0.0070
   99MPD2    H7 1520   1.646   1.814   1.645  0.1186 -0.2231  0.9132
  100TCq2    C1 1521   1.820   1.913   1.706  0.2960  0.0209 -0.2426
  100TCq2    O2 1522   1.930   1.967   1.690 -0.0278 -0.0111 -0.2235
  100TCq2    C2 1523   1.750   1.944   1.833  0.2144 -0.2889  0.0661
  100TCq2    C3 1524   1.793   2.054   1.916  0.2091  0.3554  0.1180
  100TCq2    C4 1525   1.727   2.089   2.030  0.3623  0.5940  0.5442
  100TCq2    C5 1526   1.617   2.023   2.069  1.0125 -0.3474  0.1993
  100TCq2    C6 1527   1.579   1.920   1.993  0.3330 -0.3962 -0.6953
  100TCq2    C7 1528   1.638   1.876   1.875 -0.3927  0.1786  0.5748
  100TCq2    C8 1529   1.459   1.849   2.037 -0.7723  0.4276  0.3461
  100TCq2    O4 1530   1.440   1.857   2.157  0.0058 -0.2273  0.1678
  100TCq2    C9 1531   1.762   2.216   2.098  0.4432 -0.6929  0.0957
  100TCq2    O5 1532   1.684   2.235   2.196  0.1290  0.1411 -0.1117
  100TCq2    O6 1533   1.866   2.286   2.072 -0.1038  0.2836 -0.2275
  100TCq2    H2 1534   1.880   2.112   1.890  0.5958 -0.3430 -0.1550
  100TCq2    H3 1535   1.556   2.059   2.151 -3.4698 -3.9297 -1.5182
  100TCq2    H4 1536   1.619   1.778   1.834 -1.3783  1.5656 -2.3111
  101MPD2     C 1537   2.758   2.556  12.905  0.4146  0.1310  0.4316
  101MPD2    C1 1538   2.655   2.622  12.968 -0.2205  0.4491 -0.2764
  101MPD2    C2 1539   2.571   2.557  13.054  0.1178 -0.4409 -0.0131
  101MPD2    C3 1540   2.583   2.420  13.081 -0.1402  0.3903 -0.0422
  101MPD2    C4 1541   2.698   2.357  13.032 -0.0696  0.3805 -1.0745
  101MPD2    C5 1542   2.782   2.428  12.944 -0.1487 -0.0102 -0.5809
  101MPD2     H 1543   2.487   2.607  13.101  2.1307  1.1381  1.8934
  101MPD2    H1 1544   2.722   2.255  13.060  0.6890  0.2608 -2.1674
  101MPD2    H2 1545   2.814   2.603  12.825  1.0532 -0.4852  0.5138
  101MPD2    H3 1546   2.866   2.378  12.898  1.1207 -0.5598  2.2895
  101MPD2     N 1547   2.478   2.361  13.155 -0.2742  0.7768 -0.4764
  101MPD2    H5 1548   2.412   2.417  13.207  1.3225  1.4412  0.8415
  101MPD2    N1 1549   2.631   2.757  12.931  0.2611 -0.4072 -0.3315
  101MPD2    H7 1550   2.707   2.807  12.886  1.6151 -1.4369  0.8016
  102TCq2    C1 1551   2.652   3.117  12.598  0.5407 -0.0996  1.1008
  102TCq2    O2 1552   2.738   3.038  12.567 -0.4444  0.7025  0.6800
  102TCq2    C2 1553   2.601   3.108  12.734 -0.1750  0.0991 -0.0763
  102TCq2    C3 1554   2.518   3.206  12.786  0.0307 -0.0622  0.0388
  102TCq2    C4 1555   2.445   3.177  12.906  0.4162  1.0703  0.3516
  102TCq2    C5 1556   2.451   3.053  12.954  0.8131 -0.2555  0.4223
  102TCq2    C6 1557   2.538   2.962  12.906  0.8894  0.7322  0.2785
  102TCq2    C7 1558   2.613   2.985  12.798 -0.8907 -0.4377 -0.0965
  102TCq2    C8 1559   2.524   2.835  12.966 -0.4238 -0.1454 -0.2517
  102TCq2    O4 1560   2.420   2.805  13.020 -0.9583  0.0200  0.1309
  102TCq2    C9 1561   2.351   3.279  12.951 -0.1189  0.4582 -0.4630
  102TCq2    O5 1562   2.341   3.385  12.881 -0.3218 -0.7036  0.1532
  102TCq2    O6 1563   2.260   3.238  13.026 -0.5485 -0.0289  0.0374
  102TCq2    H2 1564   2.529   3.304  12.742 -0.2582 -0.2859 -0.5302
  102TCq2    H3 1565   2.389   3.029  13.040  0.0206  0.1709 -0.0220
  102TCq2    H4 1566   2.676   2.911  12.751 -1.9342 -1.2265 -0.2710
  103TMC2    C1 1567   0.571   2.802  13.070  0.2356 -0.1208  0.4763
  103TMC2    C2 1568   0.654   2.910  13.052  0.0458  0.5178  0.5080
  103TMC2    C3 1569   0.667   2.978  13.171 -0.1145 -0.7597 -0.1809
  103TMC2    C4 1570   0.519   2.762  13.194  0.5484  0.3315  0.1716
  103TMC2    C5 1571   0.525   2.840  13.305 -1.0569  0.0450  0.5804
  103TMC2    C6 1572   0.604   2.948  13.287  0.6169  0.5472 -0.6841
  103TMC2     C 1573   0.508   2.759  12.945  0.0826 -0.2699  0.3399
  103TMC2     O 1574   0.565   2.798  12.844 -0.5980  0.1196  0.0398
  103TMC2     H 1575   0.668   2.954  12.954 -1.2849 -0.4494 -0.1133
  103TMC2    H1 1576   0.464   2.670  13.205  0.4909  0.1798 -1.3357
  103TMC2    H2 1577   0.631   3.010  13.372  1.0288 -0.2082 -0.2611
  103TMC2    C7 1578   0.501   2.807  13.450  0.0995  0.2134  0.3385
  103TMC2    C8 1579   0.749   3.100  13.176 -0.1896  0.5597 -0.7181
  103TMC2    O1 1580   0.567   2.870  13.532  0.2140  0.3319 -0.0806
  103TMC2    O2 1581   0.734   3.200  13.242  0.3641  0.0595  0.5749
  103TMC2    O5 1582   0.837   3.094  13.074  0.4770 -0.3041  0.6967
  103TMC2    H5 1583   0.852   3.004  13.040 -1.4560 -0.0932 -0.7204
  104MPD2     C 1584   0.176   2.597  12.895 -0.1997 -0.8162 -0.7228
  104MPD2    C1 1585   0.297   2.664  12.859 -0.2612  0.3676  0.0721
  104MPD2    C2 1586   0.310   2.713  12.731 -0.8113  0.1273 -0.7191
  104MPD2    C3 1587   0.212   2.696  12.641  0.0182 -0.2056 -0.3758
  104MPD2    C4 1588   0.101   2.624  12.675  0.3604  0.3844  0.0692
  104MPD2    C5 1589   0.083   2.577  12.801  0.0865  0.1254  0.4628
  104MPD2     H 1590   0.392   2.777  12.699 -0.5484 -0.0313 -0.3696
  104MPD2    H1 1591   0.012   2.615  12.615  1.3468  1.1800 -1.5020
  104MPD2    H2 1592   0.173   2.550  12.993  0.3866  0.1145 -0.2533
  104MPD2    H3 1593   4.702   2.540  12.821 -0.4543  0.5659 -1.4746
  104MPD2     N 1594   0.224   2.754  12.513  0.3082  0.2819 -0.1543
  104MPD2    H5 1595   0.298   2.821  12.497 -0.9439  1.8889  0.8795
  104MPD2    N1 1596   0.393   2.680  12.964 -0.4619  0.1911  0.2351
  104MPD2    H7 1597   0.361   2.649  13.055 -0.1406  1.2471  0.7076
  105MPD2     C 1598   2.326   2.201   0.136  0.8178  0.2401  0.2870
  105MPD2    C1 1599   2.195   2.220   0.106  0.0040  0.2493 -0.0939
  105MPD2    C2 1600   2.116   2.294   0.191 -0.7663 -0.1182  0.3004
  105MPD2    C3 1601   2.168   2.351   0.306  0.2581  0.3149  0.4625
  105MPD2    C4 1602   2.302   2.334   0.334 -0.4165  0.0832  0.5559
  105MPD2    C5 1603   2.389   2.272   0.245 -0.5694  0.2891  0.2804
  105MPD2     H 1604   2.008   2.296   0.176 -0.4797  0.4362 -1.6689
  105MPD2    H1 1605   2.346   2.366   0.428  1.7679 -2.5727  0.4416
  105MPD2    H2 1606   2.388   2.154   0.061  2.9059  1.7097  1.1140
  105MPD2    H3 1607   2.496   2.271   0.267 -0.9787  3.3869  2.3809
  105MPD2     N 1608   2.078   2.416   0.393  0.0847  0.6963 -0.0273
  105MPD2    H5 1609   1.981   2.432   0.370 -0.3220 -2.4218 -0.5442
  105MPD2    N1 1610   2.134   2.178  17.662 -0.1214 -0.9248  0.7175
  105MPD2    H7 1611   2.040   2.215  17.647 -0.8078 -1.9802  2.4113
  106TCq2    C1 1612   2.104   2.421   0.531 -0.2680 -0.5693  0.5366
  106TCq2    O2 1613   2.205   2.401   0.595 -0.0544 -0.3697 -0.8058
  106TCq2    C2 1614   1.986   2.446   0.615  0.8022 -0.0801  0.3759
  106TCq2    C3 1615   1.862   2.456   0.557  0.0294  0.3449  0.2588
  106TCq2    C4 1616   1.758   2.498   0.637 -1.4484 -0.3527  0.4358
  106TCq2    C5 1617   1.764   2.515   0.772  0.5364 -0.2524  0.1279
  106TCq2    C6 1618   1.883   2.482   0.831 -0.0750  0.5033  0.0056
  106TCq2    C7 1619   1.995   2.460   0.752  0.0283 -0.0003  0.1043
  106TCq2    C8 1620   1.909   2.547   0.963  0.2945 -0.4753 -0.6210
  106TCq2    O4 1621   2.022   2.594   0.983  0.1313 -0.1257 -0.1785
  106TCq2    C9 1622   1.630   2.518   0.580  0.3396 -0.1715  0.1439
  106TCq2    O5 1623   1.624   2.472   0.462 -0.1849  0.1158 -0.1247
  106TCq2    O6 1624   1.557   2.608   0.630 -0.5247  0.1613 -0.0339
  106TCq2    H2 1625   1.844   2.436   0.453  0.3138 -0.6829  0.4114
  106TCq2    H3 1626   1.674   2.554   0.818 -0.3845  0.5820 -2.4111
  106TCq2    H4 1627   2.085   2.442   0.809  0.8000 -2.5279 -1.9237
  107TMC2    C1 1628   2.769   1.706  11.481  0.2910 -0.0632 -0.1997
  107TMC2    C2 1629   2.872   1.782  11.430  0.2848 -0.5433 -0.2534
  107TMC2    C3 1630   2.934   1.728  11.319 -0.9851  0.1825 -0.5355
  107TMC2    C4 1631   2.727   1.588  11.425 -0.5199  0.2413 -0.2204
  107TMC2    C5 1632   2.796   1.541  11.317 -1.0688 -0.3903 -0.4096
  107TMC2    C6 1633   2.896   1.612  11.261 -0.9562  0.7138 -0.3671
  107TMC2     C 1634   2.684   1.773  11.572  0.3169 -0.3811  0.1330
  107TMC2     O 1635   2.608   1.710  11.646  0.2016 -0.4821 -0.2425
  107TMC2     H 1636   2.913   1.869  11.481 -0.6690  0.2065 -0.7714
  107TMC2    H1 1637   2.642   1.533  11.463 -1.1466  0.0241 -1.9030
  107TMC2    H2 1638   2.954   1.576  11.176 -2.0476  0.1294 -0.8676
  107TMC2    C7 1639   2.761   1.407  11.273  0.2011 -0.1716 -0.1179
  107TMC2    C8 1640   3.046   1.797  11.263  0.1990 -0.1050 -0.8312
  107TMC2    O1 1641   2.666   1.348  11.330 -0.2985  0.3293 -0.5455
  107TMC2    O2 1642   3.128   1.736  11.200 -0.1341 -0.3337 -0.3559
  107TMC2    O5 1643   3.028   1.933  11.268 -0.3191  0.4321 -0.5424
  107TMC2    H5 1644   2.943   1.960  11.307  0.0850 -1.3617  1.5797
  108MPD2     C 1645   2.682   2.136  11.642 -0.2603 -0.4359  0.3367
  108MPD2    C1 1646   2.663   2.002  11.664 -0.1909  0.5625  0.1157
  108MPD2    C2 1647   2.606   1.964  11.784 -0.4130  0.3130  0.0037
  108MPD2    C3 1648   2.577   2.058  11.880  0.4180  0.2503  0.6464
  108MPD2    C4 1649   2.598   2.192  11.859  0.0309 -0.3595 -0.3888
  108MPD2    C5 1650   2.643   2.226  11.736 -0.3686 -0.1948 -0.0741
  108MPD2     H 1651   2.585   1.859  11.796 -0.1006  0.3775  1.1664
  108MPD2    H1 1652   2.563   2.269  11.927  1.9421  1.3745 -1.3696
  108MPD2    H2 1653   2.727   2.172  11.550 -1.1200  2.4577  1.0511
  108MPD2    H3 1654   2.654   2.330  11.707 -0.7198 -0.9009 -2.7821
  108MPD2     N 1655   2.512   2.017  12.002 -0.2248 -0.2611  0.2759
  108MPD2    H5 1656   2.462   2.088  12.054  1.1494  1.1472 -0.3348
  108MPD2    N1 1657   2.700   1.909  11.563 -0.4797 -0.6178 -0.1334
  108MPD2    H7 1658   2.737   1.944  11.475  0.0501 -1.2109 -0.1475
  109MPD2     C 1659   1.914   3.301   1.596 -0.0907  0.0374  0.2178
  109MPD2    C1 1660   1.870   3.397   1.504  0.7650 -0.5046 -0.0994
  109MPD2    C2 1661   1.939   3.511   1.486 -0.3201  0.0449  0.0676
  109MPD2    C3 1662   2.056   3.536   1.561  0.1021 -0.6329  0.3794
  109MPD2    C4 1663   2.081   3.454   1.663 -0.1407  0.4376 -0.8105
  109MPD2    C5 1664   2.020   3.337   1.685 -0.4027 -0.4622  0.2226
  109MPD2     H 1665   1.932   3.563   1.392 -0.0105 -2.0605 -1.1038
  109MPD2    H1 1666   2.149   3.484   1.742 -1.7536 -0.5989  0.9672
  109MPD2    H2 1667   1.856   3.211   1.611 -0.6011  0.2012 -0.7710
  109MPD2    H3 1668   2.036   3.266   1.765  0.8187 -0.5712 -0.1147
  109MPD2     N 1669   2.128   3.650   1.531 -0.2451 -0.3114  0.0886
  109MPD2    H5 1670   2.099   3.706   1.451 -2.4790 -0.1710  0.9934
  109MPD2    N1 1671   1.760   3.357   1.423  0.4112 -0.0482 -0.1967
  109MPD2    H7 1672   1.729   3.260   1.426  0.3348 -0.0576 -1.2049
  110TCq2    C1 1673   2.226   3.706   1.612 -0.1677 -0.0948 -0.3007
  110TCq2    O2 1674   2.266   3.676   1.725 -0.6015  0.0606 -0.9838
  110TCq2    C2 1675   2.270   3.828   1.555  0.0220 -0.4680 -0.2921
  110TCq2    C3 1676   2.328   3.923   1.637  0.3243 -0.0903 -0.2792
  110TCq2    C4 1677   2.353   4.051   1.600 -0.1948  0.6818  0.0183
  110TCq2    C5 1678   2.328   4.077   1.470  0.0074  0.1989  0.0172
  110TCq2    C6 1679   2.267   3.985   1.381 -0.4602  0.1879 -0.2385
  110TCq2    C7 1680   2.240   3.857   1.423 -0.5440 -0.8242  0.1024
  110TCq2    C8 1681   2.265   4.016   1.243 -0.1387 -0.6610  0.2436
  110TCq2    O4 1682   2.290   4.131   1.208  0.1177  0.6353 -0.1661
  110TCq2    C9 1683   2.413   4.156   1.684  0.6259 -0.0823 -0.7612
  110TCq2    O5 1684   2.434   4.136   1.810  0.0165 -0.5875  0.0147
  110TCq2    O6 1685   2.461   4.254   1.615  0.8022  0.1554 -0.9518
  110TCq2    H2 1686   2.346   3.914   1.743  0.7971 -0.0149 -0.3497
  110TCq2    H3 1687   2.333   4.176   1.427  1.2511 -0.4944 -1.4311
  110TCq2    H4 1688   2.197   3.787   1.352 -2.3409  1.3694 -0.9757
  111TMC2    C1 1689   3.140   4.047  11.370 -0.8207 -0.1691  0.7727
  111TMC2    C2 1690   3.233   4.129  11.314  0.3921 -0.4214 -0.4669
  111TMC2    C3 1691   3.360   4.105  11.351 -0.1559 -0.0365 -0.0880
  111TMC2    C4 1692   3.172   3.946  11.455 -0.5117  0.6767 -0.0143
  111TMC2    C5 1693   3.299   3.935  11.493 -0.1468  0.7976  1.2258
  111TMC2    C6 1694   3.398   4.019  11.450  0.7817 -0.1548 -0.5615
  111TMC2     C 1695   3.009   4.085  11.331 -0.2319  0.5526  0.2164
  111TMC2     O 1696   2.992   4.132  11.219 -0.2172  0.3234  0.1571
  111TMC2     H 1697   3.215   4.215  11.250  0.9930 -0.7918 -1.1299
  111TMC2    H1 1698   3.096   3.876  11.489 -0.3354  1.0661  1.1597
  111TMC2    H2 1699   3.502   4.011  11.476  0.8538  3.0809  0.1135
  111TMC2    C7 1700   3.328   3.809  11.556  0.0950  0.1120 -0.5827
  111TMC2    C8 1701   3.456   4.193  11.284 -0.1907  0.3802 -0.5338
  111TMC2    O1 1702   3.236   3.732  11.588 -0.0772  0.0392 -0.0384
  111TMC2    O2 1703   3.555   4.248  11.333 -0.6736 -0.2043 -0.4356
  111TMC2    O5 1704   3.426   4.172  11.153  0.0061  0.1947  0.1417
  111TMC2    H5 1705   3.348   4.114  11.140  0.7036 -0.7077 -0.0249
  112MPD2     C 1706   2.491   4.079  11.411  0.5599  0.3389 -0.5559
  112MPD2    C1 1707   2.570   4.095  11.297  0.2927  0.6118  0.1558
  112MPD2    C2 1708   2.712   4.092  11.308  0.8916  0.0488 -0.7239
  112MPD2    C3 1709   2.775   4.072  11.429 -0.0040  0.3440  0.2626
  112MPD2    C4 1710   2.694   4.071  11.541  1.0815 -0.0327 -0.1978
  112MPD2    C5 1711   2.560   4.077  11.526  0.3472 -0.6728  0.5796
  112MPD2     H 1712   2.775   4.084  11.220  1.9658  1.3131 -0.0696
  112MPD2    H1 1713   2.741   4.065  11.639 -1.1508 -0.5574  0.8207
  112MPD2    H2 1714   2.383   4.085  11.409  0.5972  0.6414 -2.0256
  112MPD2    H3 1715   2.497   4.071  11.613 -1.5982  0.2466 -0.7730
  112MPD2     N 1716   2.919   4.067  11.434  0.0078 -0.1102 -0.0491
  112MPD2    H5 1717   2.957   4.044  11.525 -0.4400 -1.1938 -0.1281
  112MPD2    N1 1718   2.523   4.097  11.165 -0.2536 -0.4732 -0.0933
  112MPD2    H7 1719   2.588   4.074  11.091 -0.9823  0.2485 -0.9486
  113MPD2     C 1720   0.881   1.888   1.186  0.2713 -0.0279 -0.6952
  113MPD2    C1 1721   0.766   1.858   1.250 -0.1074 -0.0556  0.6438
  113MPD2    C2 1722   0.646   1.860   1.175  0.1774 -0.2067  0.4624
  113MPD2    C3 1723   0.647   1.880   1.036 -0.3879 -0.5260 -0.2176
  113MPD2    C4 1724   0.765   1.905   0.976 -0.1290 -0.3063  0.4856
  113MPD2    C5 1725   0.879   1.912   1.048  0.1304 -0.2936  0.0349
  113MPD2     H 1726   0.555   1.836   1.228 -0.1312 -0.7124 -0.2855
  113MPD2    H1 1727   0.767   1.933   0.871 -1.0676  0.6760  0.7399
  113MPD2    H2 1728   0.975   1.899   1.240  0.1865 -0.9915 -0.3471
  113MPD2    H3 1729   0.968   1.941   0.993  0.6606  0.2453  1.1778
  113MPD2     N 1730   0.533   1.898   0.959 -0.0389  0.0174 -0.2863
  113MPD2    H5 1731   0.536   1.944   0.868 -1.3176  2.1840  0.7777
  113MPD2    N1 1732   0.759   1.844   1.390  0.2657  0.0708  0.2793
  113MPD2    H7 1733   0.662   1.854   1.419  0.2169  0.0153  0.1391
  114TCq2    C1 1734   0.405   1.869   0.996 -0.1089  0.1778 -0.0350
  114TCq2    O2 1735   0.368   1.807   1.095  0.6615  0.2866  0.2457
  114TCq2    C2 1736   0.311   1.907   0.899  0.6584  0.1145 -0.1156
  114TCq2    C3 1737   0.337   1.997   0.794 -0.5349  0.3830  0.1207
  114TCq2    C4 1738   0.246   2.028   0.703  0.3058  0.0078 -0.3352
  114TCq2    C5 1739   0.127   1.959   0.701  0.5179 -0.1303 -0.3674
  114TCq2    C6 1740   0.104   1.867   0.797 -0.4271 -0.3038  0.1357
  114TCq2    C7 1741   0.190   1.844   0.901 -0.2940 -0.1469  0.2978
  114TCq2    C8 1742   0.006   1.768   0.764 -1.1033 -0.1544  0.2688
  114TCq2    O4 1743   4.643   1.792   0.679  0.4077 -0.3620 -0.3080
  114TCq2    C9 1744   0.275   2.136   0.609 -0.4275  0.3060  0.4246
  114TCq2    O5 1745   0.174   2.174   0.546 -0.0335 -0.3359 -0.2413
  114TCq2    O6 1746   0.391   2.183   0.601  0.1827  0.2697 -0.2521
  114TCq2    H2 1747   0.432   2.047   0.776 -0.1103 -0.9361 -1.3187
  114TCq2    H3 1748   0.058   1.962   0.618 -0.5053 -0.3036  0.4721
  114TCq2    H4 1749   0.173   1.784   0.989 -0.9894  0.0242  0.2765
  115TMC2    C1 1750   1.471   4.190   0.030  0.2700  0.2129  0.0363
  115TMC2    C2 1751   1.389   4.236  17.613 -0.0808  0.9201  0.6172
  115TMC2    C3 1752   1.423   4.356  17.555  0.2312 -0.0028  0.3009
  115TMC2    C4 1753   1.563   4.269   0.088  0.1223 -0.4387 -0.2175
  115TMC2    C5 1754   1.599   4.381   0.023  0.3811  0.3339  0.6102
  115TMC2    C6 1755   1.533   4.429  17.593  0.5392 -0.0913  0.3967
  115TMC2     C 1756   1.436   4.059   0.080 -0.3531 -0.0704  0.6761
  115TMC2     O 1757   1.377   3.982   0.007  0.4233 -0.2548  0.0768
  115TMC2     H 1758   1.298   4.186  17.580  1.5619 -0.3294 -2.0665
  115TMC2    H1 1759   1.626   4.227   0.166 -1.1204 -2.3902 -0.2616
  115TMC2    H2 1760   1.555   4.525  17.546  1.5314 -1.1457 -1.2907
  115TMC2    C7 1761   1.677   4.478   0.095 -0.1369 -0.2291  0.1381
  115TMC2    C8 1762   1.331   4.425  17.450  0.3034  0.1960  1.3747
  115TMC2    O1 1763   1.675   4.471   0.219 -0.2894 -0.2615  0.0360
  115TMC2    O2 1764   1.382   4.499  17.365  0.0701 -0.1081  0.1323
  115TMC2    O5 1765   1.200   4.397  17.470  0.6187  0.3751  0.4825
  115TMC2    H5 1766   1.186   4.356  17.558  0.0717 -2.1249 -0.7747
  116MPD2     C 1767   1.220   3.778   0.437 -0.0119  0.1323  0.2502
  116MPD2    C1 1768   1.257   3.747   0.308 -0.7979  0.2565 -0.3064
  116MPD2    C2 1769   1.345   3.827   0.242  0.6501 -0.4092 -0.1813
  116MPD2    C3 1770   1.397   3.945   0.295 -0.0499  0.2026  0.1767
  116MPD2    C4 1771   1.374   3.966   0.433  0.4103  0.0500  0.8001
  116MPD2    C5 1772   1.284   3.884   0.500  0.1148 -0.0475  0.3428
  116MPD2     H 1773   1.374   3.794   0.142  0.1578 -0.6361 -0.2504
  116MPD2    H1 1774   1.413   4.050   0.489  0.1971 -0.0489  1.1062
  116MPD2    H2 1775   1.133   3.738   0.488  0.1196 -2.3420 -1.4757
  116MPD2    H3 1776   1.254   3.890   0.604 -1.6946  2.5060 -0.3192
  116MPD2     N 1777   1.462   4.040   0.212  0.1083  0.2779  0.2738
  116MPD2    H5 1778   1.513   4.115   0.258  0.6741 -0.3799  0.7224
  116MPD2    N1 1779   1.196   3.651   0.227  0.2229 -0.0628  0.2032
  116MPD2    H7 1780   1.229   3.642   0.131 -0.1887 -0.1249  0.0667
  117TMC2    C1 1781   0.072   0.376  13.894  0.2002 -0.3150 -0.2177
  117TMC2    C2 1782   0.118   0.288  13.994 -0.5689 -0.4931 -0.0647
  117TMC2    C3 1783   0.248   0.307  14.028  0.4958  0.3470  0.3744
  117TMC2    C4 1784   0.151   0.463  13.825  0.2267 -0.1171 -0.0763
  117TMC2    C5 1785   0.283   0.458  13.855 -0.4859  0.8985 -0.3873
  117TMC2    C6 1786   0.329   0.394  13.965  0.1345  0.7878  0.0714
  117TMC2     C 1787   4.651   0.405  13.898 -0.0195 -0.1327 -0.2728
  117TMC2     O 1788   4.582   0.307  13.915 -0.3545 -0.1069  0.2108
  117TMC2     H 1789   0.066   0.207  14.044  0.6390 -1.3469 -0.1882
  117TMC2    H1 1790   0.122   0.516  13.735 -0.8039 -1.9386 -0.8175
  117TMC2    H2 1791   0.428   0.403  14.009 -0.3174  0.6052  1.1323
  117TMC2    C7 1792   0.372   0.538  13.782 -0.1233  0.0153 -0.3862
  117TMC2    C8 1793   0.300   0.220  14.130  0.3919  0.3424 -0.0837
  117TMC2    O1 1794   0.318   0.608  13.702  0.6196 -0.4067 -0.4703
  117TMC2    O2 1795   0.242   0.173  14.223 -0.6477 -0.9843 -0.0016
  117TMC2    O5 1796   0.435   0.207  14.121 -0.2340  0.6031  0.5667
  117TMC2    H5 1797   0.479   0.239  14.039 -0.9334  0.0125 -0.0363
  118MPD2     C 1798   0.739   0.549  13.789 -0.4051 -0.0503  0.4177
  118MPD2    C1 1799   0.612   0.584  13.758 -0.4419  0.7981 -0.1715
  118MPD2    C2 1800   0.601   0.683  13.660  0.4156  0.1271  0.4185
  118MPD2    C3 1801   0.717   0.744  13.601  0.4694  0.0415 -0.0788
  118MPD2    C4 1802   0.842   0.703  13.630  0.0307 -0.2681  0.1038
  118MPD2    C5 1803   0.844   0.607  13.726  0.3406 -0.1903 -0.8825
  118MPD2     H 1804   0.505   0.724  13.630  0.0478 -1.9270 -1.2424
  118MPD2    H1 1805   0.929   0.763  13.605 -0.9901  0.4230 -1.8032
  118MPD2    H2 1806   0.765   0.480  13.869 -1.2342  0.3251  1.0143
  118MPD2    H3 1807   0.941   0.581  13.767  0.2665 -0.0762 -0.6337
  118MPD2     N 1808   0.696   0.852  13.511  0.0395 -0.6903  0.4856
  118MPD2    H5 1809   0.612   0.909  13.522  0.1098  0.0419 -2.5751
  118MPD2    N1 1810   0.506   0.517  13.812  0.8138  0.3270  0.1218
  118MPD2    H7 1811   0.529   0.438  13.872  1.6354  1.1425  0.8842
  119MPD2     C 1812   3.384   2.549  13.805 -0.2847 -0.2344  0.2531
  119MPD2    C1 1813   3.276   2.491  13.865 -0.1924 -0.2323 -0.4637
  119MPD2    C2 1814   3.170   2.448  13.787  0.5168 -0.1234 -0.7163
  119MPD2    C3 1815   3.173   2.456  13.645  0.5902  0.1865 -0.0753
  119MPD2    C4 1816   3.285   2.519  13.591  0.2270  0.3796 -0.1643
  119MPD2    C5 1817   3.384   2.567  13.669 -0.7684  0.0267  0.2190
  119MPD2     H 1818   3.077   2.425  13.838  0.9384 -0.8861 -0.3032
  119MPD2    H1 1819   3.297   2.521  13.484  1.0403 -1.3064 -0.1078
  119MPD2    H2 1820   3.472   2.582  13.861 -1.4226 -0.3563  2.1022
  119MPD2    H3 1821   3.468   2.612  13.618  0.3755 -1.0144  1.1745
  119MPD2     N 1822   3.082   2.394  13.561 -0.1998 -0.2122 -0.1174
  119MPD2    H5 1823   3.104   2.410  13.463 -0.4778  3.6546  0.4652
  119MPD2    N1 1824   3.272   2.482  14.007 -0.2009 -0.5658 -0.2025
  119MPD2    H7 1825   3.340   2.539  14.056 -0.4512 -1.9997  1.7783
  120TCq2    C1 1826   2.967   2.326  13.594 -0.6270  0.3151  0.3445
  120TCq2    O2 1827   2.917   2.318  13.702 -0.1536 -0.2484 -0.0247
  120TCq2    C2 1828   2.903   2.260  13.492  0.4512  0.1999  0.0609
  120TCq2    C3 1829   2.959   2.244  13.366  0.1409  0.8649 -0.1936
  120TCq2    C4 1830   2.906   2.150  13.279 -0.4908 -0.2230  0.2836
  120TCq2    C5 1831   2.787   2.084  13.316  0.0204 -0.8197 -0.5396
  120TCq2    C6 1832   2.739   2.099  13.446 -0.3870 -0.1319 -0.7429
  120TCq2    C7 1833   2.796   2.182  13.532 -0.1470  1.0896  0.8443
  120TCq2    C8 1834   2.633   2.015  13.486 -0.3269  0.0221 -0.2962
  120TCq2    O4 1835   2.566   1.963  13.391  0.0068 -0.5262 -0.1262
  120TCq2    C9 1836   2.965   2.116  13.155 -0.5976 -0.2295  0.0007
  120TCq2    O5 1837   2.902   2.024  13.086  0.7264 -0.3663  0.0317
  120TCq2    O6 1838   3.073   2.177  13.123  0.3531  0.0587 -0.0518
  120TCq2    H2 1839   3.058   2.278  13.336 -0.3727  1.7776 -0.8687
  120TCq2    H3 1840   2.725   2.023  13.252  1.3423 -2.5646 -0.1668
  120TCq2    H4 1841   2.746   2.199  13.627  0.4921  3.3948  0.7790
  121TMC2    C1 1842   0.217   3.648  13.805  0.8230 -1.0429 -0.1053
  121TMC2    C2 1843   0.195   3.550  13.900 -0.1396  0.6211  0.0531
  121TMC2    C3 1844   0.067   3.502  13.925  0.9786  0.8191 -0.4916
  121TMC2    C4 1845   0.110   3.702  13.739 -0.7700 -0.1192  0.8295
  121TMC2    C5 1846   4.703   3.653  13.774  0.3256 -0.5516  0.2770
  121TMC2    C6 1847   4.678   3.566  13.881  0.3000 -0.3722  0.1871
  121TMC2     C 1848   0.350   3.687  13.779  1.1859  0.4794 -0.6866
  121TMC2     O 1849   0.422   3.700  13.877 -0.0130  0.4567  0.6511
  121TMC2     H 1850   0.285   3.516  13.950 -0.7235 -0.8292  0.1078
  121TMC2    H1 1851   0.132   3.774  13.661 -1.1637 -1.1918 -0.2646
  121TMC2    H2 1852   4.582   3.518  13.898 -0.7451  0.9230 -1.9605
  121TMC2    C7 1853   4.602   3.698  13.679 -0.4726  0.0040 -0.0099
  121TMC2    C8 1854   0.051   3.380  14.011  0.3316 -0.2432  0.3505
  121TMC2    O1 1855   4.631   3.776  13.591  0.8164  0.0733 -0.1573
  121TMC2    O2 1856   4.680   3.370  14.098  0.4638  0.2718 -0.3132
  121TMC2    O5 1857   0.151   3.295  13.982 -0.1217  0.6406  0.6652
  121TMC2    H5 1858   0.202   3.323  13.902  1.3848 -0.9672  1.0551
  122MPD2     C 1859   0.582   3.843  13.668  0.0393  0.4670  0.3314
  122MPD2    C1 1860   0.476   3.798  13.592 -0.5491 -0.2195 -0.4322
  122MPD2    C2 1861   0.457   3.850  13.467 -0.3408 -0.7795 -0.0141
  122MPD2    C3 1862   0.554   3.936  13.406  0.0256  0.2636  0.7236
  122MPD2    C4 1863   0.661   3.976  13.485  0.1381  0.1058  0.2773
  122MPD2    C5 1864   0.676   3.933  13.614 -0.3116  0.1774 -0.3085
  122MPD2     H 1865   0.373   3.818  13.406  0.0608  1.5035 -1.7806
  122MPD2    H1 1866   0.749   4.018  13.439 -0.8262  0.9109 -0.8427
  122MPD2    H2 1867   0.602   3.805  13.767  2.4275 -1.5881 -0.9240
  122MPD2    H3 1868   0.762   3.965  13.671 -1.3718 -0.4809  1.6854
  122MPD2     N 1869   0.526   4.000  13.285  0.6778 -0.1183  0.6275
  122MPD2    H5 1870   0.578   4.085  13.266 -1.1392  0.9046  0.1738
  122MPD2    N1 1871   0.374   3.716  13.644  0.1480  0.0947  0.0611
  122MPD2    H7 1872   0.298   3.707  13.577  0.8964  0.6312 -0.8561
  123MPD2     C 1873   3.314   1.839  10.916  0.0619 -0.1276 -0.1136
  123MPD2    C1 1874   3.339   1.817  10.788  0.2120 -0.5670 -0.1121
  123MPD2    C2 1875   3.475   1.842  10.761  0.1594  0.3119 -0.0599
  123MPD2    C3 1876   3.558   1.906  10.849  0.3707  0.3522 -0.1564
  123MPD2    C4 1877   3.523   1.918  10.977  0.2814 -0.6658 -0.2326
  123MPD2    C5 1878   3.399   1.879  11.012  0.1988  0.0574  0.6951
  123MPD2     H 1879   3.519   1.833  10.662  0.7157 -0.8066  0.2866
  123MPD2    H1 1880   3.596   1.941  11.054 -1.3487 -1.2893  1.5113
  123MPD2    H2 1881   3.215   1.817  10.954 -0.2534 -1.1717 -1.5486
  123MPD2    H3 1882   3.363   1.880  11.115  0.7001  0.4265  0.8624
  123MPD2     N 1883   3.684   1.951  10.802 -0.1225 -0.3965 -0.3561
  123MPD2    H5 1884   3.697   1.959  10.702 -0.4833 -4.4544 -0.7234
  123MPD2    N1 1885   3.240   1.770  10.695 -0.1843  0.8897  0.0158
  123MPD2    H7 1886   3.150   1.750  10.737  0.6749 -1.8198  0.5363
  124TCq2    C1 1887   3.798   1.967  10.874  0.1673 -0.1353  0.2901
  124TCq2    O2 1888   3.826   1.952  10.991  0.3160 -0.1245  0.5618
  124TCq2    C2 1889   3.911   1.995  10.786  0.3287 -0.0281 -0.0674
  124TCq2    C3 1890   4.024   2.048  10.845  0.0823  0.2348 -0.5816
  124TCq2    C4 1891   4.122   2.095  10.763  0.3061  0.1554  0.8300
  124TCq2    C5 1892   4.111   2.078  10.627 -0.1215 -0.5041 -0.2206
  124TCq2    C6 1893   4.000   2.008  10.574  0.3276  0.3526 -0.7472
  124TCq2    C7 1894   3.896   1.967  10.654 -0.3177 -0.0559  0.0518
  124TCq2    C8 1895   3.987   1.972  10.434 -0.3652  0.3542  0.1349
  124TCq2    O4 1896   3.907   1.889  10.392 -0.1051 -0.3332  0.2194
  124TCq2    C9 1897   4.223   2.179  10.812 -0.1745  0.0802  0.0228
  124TCq2    O5 1898   4.201   2.230  10.925 -0.3092  0.2734 -0.1509
  124TCq2    O6 1899   4.320   2.207  10.733 -0.1710 -0.4329 -0.0486
  124TCq2    H2 1900   4.028   2.061  10.952 -0.3652 -1.6205 -0.3382
  124TCq2    H3 1901   4.194   2.116  10.568 -0.3350  1.9328  1.0400
  124TCq2    H4 1902   3.813   1.914  10.607  1.4584 -1.3238 -1.6656
  125TMC2    C1 1903   3.267   3.583   9.827  0.2543  1.2903 -0.1725
  125TMC2    C2 1904   3.229   3.505   9.726  0.2105 -1.2776 -0.3965
  125TMC2    C3 1905   3.323   3.467   9.629  0.4545 -0.5206  0.6168
  125TMC2    C4 1906   3.388   3.647   9.827  0.4455 -0.4648 -0.0200
  125TMC2    C5 1907   3.472   3.621   9.721 -0.1004  0.4010 -0.8058
  125TMC2    C6 1908   3.448   3.531   9.618 -0.0165  0.9696 -0.1623
  125TMC2     C 1909   3.190   3.573   9.950  0.0064  0.4541  0.3134
  125TMC2     O 1910   3.103   3.487   9.940  0.5461 -0.5166 -0.0322
  125TMC2     H 1911   3.140   3.442   9.729  0.4359 -1.5101  1.1949
  125TMC2    H1 1912   3.419   3.708   9.912  0.1415  0.0747 -0.2965
  125TMC2    H2 1913   3.520   3.509   9.540 -0.8770  1.5442 -1.1166
  125TMC2    C7 1914   3.582   3.715   9.703  0.6487  0.0805 -0.1409
  125TMC2    C8 1915   3.279   3.386   9.526 -0.0669  0.5343  0.2313
  125TMC2    O1 1916   3.585   3.800   9.793 -0.7389  0.1459  0.3633
  125TMC2    O2 1917   3.218   3.281   9.551 -0.0854  0.4984 -0.0307
  125TMC2    O5 1918   3.348   3.408   9.419 -0.0334  0.4179 -0.0769
  125TMC2    H5 1919   3.392   3.495   9.426 -0.6237  0.6039  1.5010
  126MPD1     C 1920   2.978   3.764  10.371  0.1946  0.3106  0.2386
  126MPD1    C1 1921   3.086   3.846  10.344 -0.0463  0.3384 -0.5791
  126MPD1    C2 1922   3.160   3.808  10.229 -0.3276 -0.0873  0.3982
  126MPD1    C3 1923   3.124   3.704  10.146  0.0212 -0.3226  0.2107
  126MPD1    C4 1924   3.022   3.613  10.183  0.4969  0.2229 -1.1873
  126MPD1    C5 1925   2.943   3.658  10.287 -0.0246  0.5326  0.5990
  126MPD1     H 1926   3.239   3.872  10.191 -0.0960 -0.2767  0.5607
  126MPD1    H1 1927   2.995   3.522  10.131 -0.8860 -0.7038  1.1792
  126MPD1    H2 1928   2.917   3.785  10.457  1.1023 -0.4699  1.0723
  126MPD1    H3 1929   2.854   3.599  10.304  0.0970 -0.4062 -2.0147
  126MPD1     N 1930   3.215   3.669  10.045 -0.7781  0.0703 -0.1290
  126MPD1    H5 1931   3.299   3.726  10.041 -0.9359  0.4724  1.9507
  126MPD1    N1 1932   3.102   3.975  10.403  0.6640 -0.0382  0.5069
  126MPD1    H6 1933   3.194   4.017  10.385  1.1576 -0.6017  1.7507
  126MPD1    H7 1934   3.088   3.980  10.504  0.0481  1.8534  0.3311
  127MPD2     C 1935   0.896   2.851   9.008  0.5066  0.4850 -0.3926
  127MPD2    C1 1936   0.986   2.928   9.080 -0.0919 -0.0763 -0.3907
  127MPD2    C2 1937   0.972   3.067   9.074 -0.3333 -0.5908  0.3955
  127MPD2    C3 1938   0.862   3.127   9.013  0.4819 -0.0325  0.4957
  127MPD2    C4 1939   0.766   3.041   8.951 -0.4892 -0.2856  0.0936
  127MPD2    C5 1940   0.789   2.908   8.938  0.5215  0.4170  0.1645
  127MPD2     H 1941   1.040   3.125   9.135 -1.0974  0.6743  0.0486
  127MPD2    H1 1942   0.683   3.069   8.888 -0.0943  0.4169 -0.1231
  127MPD2    H2 1943   0.905   2.743   9.011 -0.6084  0.4204  0.5678
  127MPD2    H3 1944   0.717   2.841   8.894  0.0271  2.2372 -1.7641
  127MPD2     N 1945   0.844   3.268   9.009  0.5389  0.8810 -0.7121
  127MPD2    H5 1946   0.922   3.318   9.052  1.9144  0.5165 -2.8055
  127MPD2    N1 1947   1.087   2.858   9.154 -0.0009  0.0287 -0.2971
  127MPD2    H7 1948   1.082   2.757   9.162  1.1495  0.1471  1.7152
  128TCq2    C1 1949   1.179   2.922   9.235  0.2918  0.5096 -0.5896
  128TCq2    O2 1950   1.182   3.038   9.275 -0.4059  0.1459  0.1936
  128TCq2    C2 1951   1.267   2.830   9.306  0.7612  0.0741  0.0618
  128TCq2    C3 1952   1.307   2.878   9.429 -1.0555  0.8413 -0.2813
  128TCq2    C4 1953   1.342   2.784   9.525 -0.1326 -0.1275 -0.7944
  128TCq2    C5 1954   1.344   2.653   9.498  0.4671 -0.8561 -0.0718
  128TCq2    C6 1955   1.305   2.608   9.375 -0.6317 -0.0631  0.3708
  128TCq2    C7 1956   1.276   2.696   9.271  0.1279  0.3003 -0.2340
  128TCq2    C8 1957   1.251   2.477   9.365  0.3637  0.0349  1.0129
  128TCq2    O4 1958   1.233   2.435   9.248 -0.2213 -0.0517  0.1522
  128TCq2    C9 1959   1.402   2.835   9.642 -0.6989 -0.6255  0.4227
  128TCq2    O5 1960   1.439   2.756   9.734 -0.4856 -0.3120  0.1400
  128TCq2    O6 1961   1.414   2.959   9.652 -0.3653  0.3939 -0.3715
  128TCq2    H2 1962   1.308   2.983   9.454  2.3750  0.3902  1.5053
  128TCq2    H3 1963   1.376   2.577   9.569  0.8650 -1.4773 -0.9090
  128TCq2    H4 1964   1.231   2.655   9.181 -2.5623  0.9114  0.8247
  129MPD2     C 1965   3.811   3.592   1.131  0.5120 -0.1705  0.1199
  129MPD2    C1 1966   3.810   3.467   1.080 -0.7226 -0.3480  0.1097
  129MPD2    C2 1967   3.922   3.405   1.036 -0.1204 -0.1770  0.2551
  129MPD2    C3 1968   4.044   3.478   1.032 -0.5375 -0.0576  0.3833
  129MPD2    C4 1969   4.048   3.608   1.078  0.5679  0.4995 -0.2990
  129MPD2    C5 1970   3.931   3.665   1.130  0.6376  0.0990  1.0496
  129MPD2     H 1971   3.917   3.309   0.987  1.3480 -0.8137  1.3482
  129MPD2    H1 1972   4.142   3.660   1.071  0.8912  0.3871  3.4303
  129MPD2    H2 1973   3.725   3.645   1.171  1.3297  1.7238 -0.6232
  129MPD2    H3 1974   3.928   3.769   1.162  0.7135  0.4524 -0.0869
  129MPD2     N 1975   4.155   3.420   0.964 -0.0793 -0.3782  0.4942
  129MPD2    H5 1976   4.142   3.351   0.891  0.2646 -0.4343  0.4870
  129MPD2    N1 1977   3.692   3.391   1.071 -0.2772 -0.9677 -0.0387
  129MPD2    H7 1978   3.701   3.301   1.025  0.1391 -3.6485  5.1831
  130TCq2    C1 1979   3.565   3.427   1.120 -0.6606  0.4059  0.0715
  130TCq2    O2 1980   3.532   3.515   1.202  0.6423  0.1668 -0.1571
  130TCq2    C2 1981   3.457   3.341   1.077 -0.8104 -0.4509 -0.1897
  130TCq2    C3 1982   3.463   3.271   0.960  0.4551  0.9967  0.3238
  130TCq2    C4 1983   3.353   3.193   0.920  0.0761 -0.1975 -0.1111
  130TCq2    C5 1984   3.242   3.182   0.994 -0.0158 -0.7379 -0.6368
  130TCq2    C6 1985   3.236   3.261   1.102  0.0825  0.5507  0.1630
  130TCq2    C7 1986   3.341   3.334   1.150 -0.1210 -0.0022  0.5773
  130TCq2    C8 1987   3.105   3.278   1.162  0.4806  0.4039 -0.5190
  130TCq2    O4 1988   3.021   3.187   1.135  0.2207 -0.5296 -0.1029
  130TCq2    C9 1989   3.363   3.115   0.796  0.4090 -0.0535  0.6516
  130TCq2    O5 1990   3.462   3.135   0.716  0.6020  0.1664  0.1259
  130TCq2    O6 1991   3.264   3.038   0.778  0.0807  0.6657  0.2993
  130TCq2    H2 1992   3.557   3.260   0.906 -0.8311 -0.8103 -1.4998
  130TCq2    H3 1993   3.172   3.103   0.965 -0.6336 -0.2209 -0.5472
  130TCq2    H4 1994   3.331   3.368   1.252 -3.6238  3.3703 -0.8647
  131MPD2     C 1995   2.985   2.022   9.785  0.2521 -0.4884  0.0862
  131MPD2    C1 1996   3.103   2.029   9.861  0.7617 -0.4063 -0.1834
  131MPD2    C2 1997   3.115   1.964   9.978  0.3152  0.1792  0.2832
  131MPD2    C3 1998   3.010   1.889  10.023 -0.0967 -0.3757  0.6188
  131MPD2    C4 1999   2.881   1.891   9.959  0.3883 -0.6618  0.1780
  131MPD2    C5 2000   2.877   1.959   9.842 -0.0847  0.6439 -0.0652
  131MPD2     H 2001   3.211   1.972  10.029  1.0963 -0.3301 -1.1152
  131MPD2    H1 2002   2.799   1.822   9.979  0.2511 -0.4979  0.1795
  131MPD2    H2 2003   2.967   2.064   9.687  3.1579  0.7351  0.0612
  131MPD2    H3 2004   2.780   1.953   9.794 -0.7288 -1.4530  1.4696
  131MPD2     N 2005   3.032   1.815  10.141 -0.5776 -0.1353 -0.3821
  131MPD2    H5 2006   3.122   1.832  10.183 -0.8280 -1.1546  0.5679
  131MPD2    N1 2007   3.195   2.133   9.821  0.6997  0.2636  0.1924
  131MPD2    H7 2008   3.175   2.172   9.730 -0.8515 -1.4893 -0.2071
  132TCq2    C1 2009   3.452   2.578   9.941  0.0178  0.8518 -1.3117
  132TCq2    O2 2010   3.340   2.568  10.005  0.9261 -0.2930  0.1724
  132TCq2    C2 2011   3.483   2.478   9.841 -0.2206  0.5525  0.1088
  132TCq2    C3 2012   3.477   2.503   9.707 -0.5920 -0.0034 -0.3027
  132TCq2    C4 2013   3.431   2.403   9.628 -0.1383 -0.5768  0.0483
  132TCq2    C5 2014   3.373   2.290   9.680  0.1385 -0.1695  0.2372
  132TCq2    C6 2015   3.379   2.267   9.817 -0.1097 -0.1160  0.0010
  132TCq2    C7 2016   3.436   2.361   9.896 -0.0301 -0.0541 -0.3163
  132TCq2    C8 2017   3.300   2.173   9.893 -0.3790 -0.1576  0.2684
  132TCq2    O4 2018   3.313   2.165  10.013 -0.1461 -0.2647  0.5241
  132TCq2    C9 2019   3.416   2.416   9.487  0.3395 -0.4276 -0.6702
  132TCq2    O5 2020   3.487   2.507   9.441  0.0280  0.0997 -0.0788
  132TCq2    O6 2021   3.339   2.336   9.434 -0.5809  0.1700 -0.2428
  132TCq2    H2 2022   3.503   2.602   9.671 -1.4501 -0.0008 -0.9167
  132TCq2    H3 2023   3.328   2.212   9.620 -0.9507 -0.0601  0.9033
  132TCq2    H4 2024   3.439   2.355  10.005  0.6837 -0.6924 -0.3707
  133MPD2     C 2025   1.570   2.206   9.260 -0.1551 -0.5944 -0.1415
  133MPD2    C1 2026   1.680   2.197   9.179  0.1156  0.3145 -0.0437
  133MPD2    C2 2027   1.785   2.281   9.213  0.8553 -0.0709  0.2426
  133MPD2    C3 2028   1.776   2.368   9.327 -0.0929  0.5653 -0.2811
  133MPD2    C4 2029   1.660   2.378   9.393  0.0741 -0.2205  0.3497
  133MPD2    C5 2030   1.559   2.293   9.359  0.6956  0.0156 -0.4387
  133MPD2     H 2031   1.879   2.265   9.162  0.0825 -1.6795 -0.6945
  133MPD2    H1 2032   1.641   2.455   9.467 -1.0873  0.3690 -0.5793
  133MPD2    H2 2033   1.484   2.141   9.245 -0.6244 -0.4438  1.9067
  133MPD2    H3 2034   1.465   2.305   9.412 -0.0085 -1.9661 -1.2199
  133MPD2     N 2035   1.885   2.452   9.369  0.5213 -0.5976  0.6094
  133MPD2    H5 2036   1.867   2.528   9.435  0.8407 -1.0133  1.1801
  133MPD2    N1 2037   1.680   2.109   9.073 -0.4897  0.6538 -0.1894
  133MPD2    H7 2038   1.594   2.059   9.054 -0.3434  0.3763 -0.1257
  134TCq2    C1 2039   1.797   2.075   9.004 -0.0432 -0.5315  0.1953
  134TCq2    O2 2040   1.915   2.104   9.022  0.2739  0.3100  0.2397
  134TCq2    C2 2041   1.774   1.965   8.909 -0.7110 -0.4097  0.1382
  134TCq2    C3 2042   1.879   1.881   8.904 -0.0252  0.6291  0.1797
  134TCq2    C4 2043   1.854   1.758   8.846 -0.2378  0.0136 -0.3289
  134TCq2    C5 2044   1.732   1.724   8.804 -0.4059  0.4897 -0.9117
  134TCq2    C6 2045   1.632   1.812   8.807  0.1620 -0.8392  0.7889
  134TCq2    C7 2046   1.650   1.938   8.856  0.2941  0.1230 -0.3830
  134TCq2    C8 2047   1.507   1.787   8.733 -0.4273  0.2252 -0.3946
  134TCq2    O4 2048   1.406   1.850   8.752  0.0631 -0.3274  0.1894
  134TCq2    C9 2049   1.959   1.659   8.852  0.5117  0.3364  0.2851
  134TCq2    O5 2050   2.075   1.713   8.848 -0.3674  0.5028  0.2093
  134TCq2    O6 2051   1.937   1.535   8.832 -0.0818 -0.2396  0.3704
  134TCq2    H2 2052   1.971   1.895   8.960  1.0799  1.1440 -1.7690
  134TCq2    H3 2053   1.721   1.621   8.772  2.3248 -0.6438  1.8294
  134TCq2    H4 2054   1.565   2.002   8.879 -0.7416 -0.7264 -1.8970
  135MPD2     C 2055   0.279   4.390   9.148 -0.1306  0.1659  0.7096
  135MPD2    C1 2056   0.343   4.270   9.173  0.3091  0.6157  0.3280
  135MPD2    C2 2057   0.477   4.254   9.148  0.0167  1.2161 -0.7717
  135MPD2    C3 2058   0.551   4.358   9.099 -0.4869 -0.0670 -0.1501
  135MPD2    C4 2059   0.485   4.478   9.088 -0.2173  0.8193  0.0328
  135MPD2    C5 2060   0.356   4.498   9.111  0.6509  0.2252  0.0043
  135MPD2     H 2061   0.515   4.152   9.141 -3.1270 -0.0572  0.9196
  135MPD2    H1 2062   0.541   4.565   9.056  1.9805 -0.4723  0.3427
  135MPD2    H2 2063   0.173   4.409   9.162 -0.4331 -1.2973  0.2989
  135MPD2    H3 2064   0.298   4.587   9.089  0.2755  0.1098  0.5288
  135MPD2     N 2065   0.686   4.336   9.062  0.1741  0.1849  0.3340
  135MPD2    H5 2066   0.722   4.407   8.999  0.2788 -1.5296 -1.5608
  135MPD2    N1 2067   0.287   4.156   9.230 -0.5790  0.5482  0.5446
  135MPD2    H7 2068   0.343   4.077   9.259 -0.7336 -0.0064 -0.6866
  136TCq2    C1 2069   0.155   4.149   9.272  0.1006  0.4273 -0.2575
  136TCq2    O2 2070   0.060   4.214   9.238 -0.0316  0.7557 -0.1708
  136TCq2    C2 2071   0.132   4.028   9.354 -0.4626 -1.0989  0.1604
  136TCq2    C3 2072   0.024   4.031   9.435 -0.6132 -0.7906 -0.3525
  136TCq2    C4 2073   0.019   3.937   9.533  0.7977 -0.5412  1.0357
  136TCq2    C5 2074   0.112   3.832   9.550 -0.2855  0.1932  0.7496
  136TCq2    C6 2075   0.215   3.830   9.462  0.0308  0.3060 -0.4202
  136TCq2    C7 2076   0.224   3.926   9.362  0.0228 -0.1272 -0.4385
  136TCq2    C8 2077   0.317   3.734   9.483  0.2463  0.3535 -0.3920
  136TCq2    O4 2078   0.422   3.749   9.429 -0.1195  0.0623 -0.1031
  136TCq2    C9 2079   4.635   3.948   9.630 -0.2021 -0.2688  0.0333
  136TCq2    O5 2080   4.655   3.893   9.742 -0.0079 -0.0819 -0.0174
  136TCq2    O6 2081   4.539   4.018   9.601 -0.1930 -0.1055  0.1915
  136TCq2    H2 2082   4.685   4.121   9.449  0.3047  0.0544 -2.1215
  136TCq2    H3 2083   0.109   3.765   9.635  0.9964  0.0353  0.6597
  136TCq2    H4 2084   0.312   3.923   9.299  0.4239 -0.3266  0.1312
  137MPD2     C 2085   0.457   2.537   9.485  0.4782  1.3623  0.4983
  137MPD2    C1 2086   0.415   2.642   9.559  0.1263  0.3968  0.6517
  137MPD2    C2 2087   0.451   2.656   9.690 -0.2226  0.5541  0.5982
  137MPD2    C3 2088   0.513   2.554   9.757 -0.6344  0.4494 -0.3991
  137MPD2    C4 2089   0.564   2.447   9.681 -0.7006  0.2940  0.4923
  137MPD2    C5 2090   0.536   2.443   9.548 -0.2563 -0.1571  0.7244
  137MPD2     H 2091   0.412   2.734   9.755 -0.2628 -0.4940  1.8170
  137MPD2    H1 2092   0.630   2.371   9.723 -0.3298 -0.3595 -1.2808
  137MPD2    H2 2093   0.432   2.527   9.380 -0.8258 -0.3831  0.9816
  137MPD2    H3 2094   0.575   2.352   9.505  0.1621  0.4796 -0.2653
  137MPD2     N 2095   0.548   2.563   9.895  0.2223  0.3491 -0.5394
  137MPD2    H5 2096   0.516   2.647   9.943  0.0501 -1.1401  1.9899
  137MPD2    N1 2097   0.347   2.736   9.481 -0.2838  0.2746 -0.4510
  137MPD2    H7 2098   0.331   2.708   9.385  1.3207 -0.2088 -0.5677
  138TCq2    C1 2099   0.329   2.868   9.519 -0.4399  0.3507  0.4124
  138TCq2    O2 2100   0.332   2.915   9.633  0.1215  0.3125 -0.0659
  138TCq2    C2 2101   0.250   2.943   9.419 -0.3707 -0.1350  0.1367
  138TCq2    C3 2102   0.175   2.861   9.341  0.3049 -0.1205  0.1779
  138TCq2    C4 2103   0.046   2.900   9.316  0.5170  0.3092  0.2085
  138TCq2    C5 2104   4.711   3.021   9.341  0.3201 -0.1348  0.5115
  138TCq2    C6 2105   0.066   3.100   9.426  0.3706  0.0845 -0.3832
  138TCq2    C7 2106   0.192   3.058   9.465  0.4091 -0.0413 -0.3312
  138TCq2    C8 2107   0.033   3.236   9.444 -0.1762 -0.0823 -0.3572
  138TCq2    O4 2108   0.127   3.311   9.423  0.0894  0.0769  0.2145
  138TCq2    C9 2109   4.684   2.808   9.238 -0.3153 -0.5647 -0.4852
  138TCq2    O5 2110   4.556   2.817   9.251  0.1519 -0.1929  0.3412
  138TCq2    O6 2111   0.018   2.713   9.176  0.3520  0.4194  0.6391
  138TCq2    H2 2112   0.198   2.761   9.304 -1.6084  0.2097 -1.8975
  138TCq2    H3 2113   4.622   3.053   9.288  1.0627  2.5837  0.8906
  138TCq2    H4 2114   0.247   3.129   9.526  0.8580  0.0094 -0.7859
  139TMC2    C1 2115   0.001   1.766  13.102  0.0345  0.3294 -0.3674
  139TMC2    C2 2116   4.690   1.819  12.981  0.0507 -0.3209  0.2254
  139TMC2    C3 2117   4.613   1.934  12.980 -0.3551 -0.1924 -0.0020
  139TMC2    C4 2118   4.675   1.814  13.221  0.0983  0.0039  0.3985
  139TMC2    C5 2119   4.610   1.935  13.217 -0.5790  0.0841 -0.4509
  139TMC2    C6 2120   4.571   1.986  13.100  0.2919  0.0137  0.1610
  139TMC2     C 2121   0.046   1.630  13.095 -1.0582 -0.7941  0.4144
  139TMC2     O 2122   0.050   1.571  12.985 -0.1151  0.2059 -0.2455
  139TMC2     H 2123   4.706   1.772  12.884 -0.6043  1.7369 -0.8854
  139TMC2    H1 2124   4.683   1.754  13.310 -0.5977 -0.7489 -0.0505
  139TMC2    H2 2125   4.508   2.073  13.091  1.8467  0.9724 -1.4449
  139TMC2    C7 2126   4.546   1.990  13.332  0.8066 -0.0332  1.0698
  139TMC2    C8 2127   4.550   1.985  12.860 -0.6929 -0.3849 -0.6320
  139TMC2    O1 2128   4.471   2.088  13.320 -0.4033 -0.0399 -0.7930
  139TMC2    O2 2129   4.457   2.065  12.866  0.2844 -0.2226 -0.0732
  139TMC2    O5 2130   4.654   1.990  12.778  0.0372  0.0885 -0.3762
  139TMC2    H5 2131   0.016   1.938  12.796  1.4063  2.1255 -0.6812
  140MPD2     C 2132   0.226   1.437  13.357  0.3421 -0.4916 -0.0092
  140MPD2    C1 2133   0.166   1.461  13.235 -0.2574  0.5244  0.6443
  140MPD2    C2 2134   0.181   1.360  13.143  0.1673  0.1425 -0.2784
  140MPD2    C3 2135   0.242   1.242  13.172 -0.6127  0.3198 -0.2223
  140MPD2    C4 2136   0.299   1.216  13.291 -0.7305 -0.2731 -0.4717
  140MPD2    C5 2137   0.292   1.316  13.382 -0.2459  0.4741  0.2571
  140MPD2     H 2138   0.138   1.370  13.044  1.2294 -1.8600 -0.9446
  140MPD2    H1 2139   0.337   1.119  13.324  1.2442  1.7103  3.0994
  140MPD2    H2 2140   0.229   1.514  13.434 -0.7982 -2.0751  1.6216
  140MPD2    H3 2141   0.341   1.296  13.476  0.8033  1.6117 -0.0391
  140MPD2     N 2142   0.231   1.148  13.065  0.1542  0.5161 -1.0180
  140MPD2    H5 2143   0.173   1.178  12.988  1.2391  0.0044 -2.0492
  140MPD2    N1 2144   0.100   1.583  13.216  0.3779 -0.6705  0.4278
  140MPD2    H7 2145   0.114   1.649  13.292 -0.3244  0.8085 -0.7517
  141TCq2    C1 2146   0.564   3.292  15.069  0.0135 -0.5573  0.4525
  141TCq2    O2 2147   0.514   3.351  14.976 -0.3083 -0.3004 -0.0742
  141TCq2    C2 2148   0.637   3.363  15.170  0.1106 -0.0610 -0.8365
  141TCq2    C3 2149   0.671   3.293  15.281 -0.2095  0.5428 -0.4015
  141TCq2    C4 2150   0.709   3.364  15.392  0.9081 -0.1840 -0.7616
  141TCq2    C5 2151   0.713   3.506  15.384 -0.0082  0.1643 -0.2943
  141TCq2    C6 2152   0.672   3.565  15.270  0.2469 -0.4429 -0.2838
  141TCq2    C7 2153   0.633   3.499  15.154 -0.1007 -0.7068  0.0233
  141TCq2    C8 2154   0.671   3.709  15.261  0.6040 -0.1189 -0.1880
  141TCq2    O4 2155   0.648   3.775  15.361  0.0923  0.1162  0.4714
  141TCq2    C9 2156   0.778   3.300  15.498  0.1998 -0.3062 -0.0760
  141TCq2    O5 2157   0.832   3.377  15.583  0.5211  0.7252  0.5395
  141TCq2    O6 2158   0.803   3.178  15.478 -0.6713  0.4883 -0.2468
  141TCq2    H2 2159   0.691   3.187  15.278  0.4309  0.6401  0.4025
  141TCq2    H3 2160   0.735   3.567  15.471  0.7495 -0.2479 -0.1931
  141TCq2    H4 2161   0.597   3.548  15.065  1.1257 -0.5577 -0.3921
  142MPD2     C 2162   3.095   1.368  10.129 -0.6213  0.4572  0.2626
  142MPD2    C1 2163   3.066   1.419   9.999 -0.1683 -0.3244  0.0532
  142MPD2    C2 2164   3.134   1.528   9.943 -0.9186  0.4501 -0.1218
  142MPD2    C3 2165   3.240   1.584  10.012 -0.8251 -0.3328 -0.0506
  142MPD2    C4 2166   3.265   1.535  10.139  0.1719  0.5478  0.2923
  142MPD2    C5 2167   3.193   1.432  10.200 -0.4063 -0.3567  0.5603
  142MPD2     H 2168   3.110   1.572   9.847 -2.0847  0.3483  0.1166
  142MPD2    H1 2169   3.332   1.588  10.206  3.6479 -3.8250  0.2786
  142MPD2    H2 2170   3.029   1.300  10.182 -1.5120  1.2478  0.1813
  142MPD2    H3 2171   3.212   1.419  10.306 -2.0241 -4.4198  0.3421
  142MPD2     N 2172   3.322   1.682   9.949  0.5957  0.0085 -0.0882
  142MPD2    H5 2173   3.390   1.722  10.014  2.2836 -0.6611 -1.4433
  142MPD2    N1 2174   2.944   1.356   9.946 -0.0967  0.2591  0.5848
  142MPD2    H7 2175   2.913   1.271   9.991  2.1432 -0.2114  1.2221
  143TCq2    C1 2176   3.306   1.736   9.826 -1.1366 -0.0891 -1.0395
  143TCq2    O2 2177   3.236   1.687   9.736  0.0328 -0.3204  0.0652
  143TCq2    C2 2178   3.396   1.851   9.802 -0.1887 -0.1840  0.3331
  143TCq2    C3 2179   3.420   1.881   9.671 -0.3106 -0.1335  0.1002
  143TCq2    C4 2180   3.522   1.973   9.637 -0.3733  0.3768 -0.1013
  143TCq2    C5 2181   3.613   2.016   9.742 -0.1200 -0.2592 -0.5581
  143TCq2    C6 2182   3.590   1.969   9.868  0.2047  0.4895 -0.3173
  143TCq2    C7 2183   3.484   1.890   9.902 -0.3449 -0.7712  0.2242
  143TCq2    C8 2184   3.680   1.993   9.982 -0.2151  0.3673  0.0244
  143TCq2    O4 2185   3.641   1.967  10.095 -0.4134  0.1659 -0.6257
  143TCq2    C9 2186   3.548   2.020   9.504 -0.2691 -0.0506 -0.1466
  143TCq2    O5 2187   3.646   2.102   9.484 -0.4848  0.2952 -0.2457
  143TCq2    O6 2188   3.457   2.003   9.417 -0.0070  0.7688 -0.0249
  143TCq2    H2 2189   3.361   1.831   9.595 -2.1843  1.2954  0.6157
  143TCq2    H3 2190   3.676   2.101   9.719 -0.8098  0.3706 -0.1331
  143TCq2    H4 2191   3.458   1.881  10.007 -0.2072  0.5389  0.3655
  144MPD2     C 2192   0.498   0.896   0.785 -0.0739  0.1035 -0.2414
  144MPD2    C1 2193   0.519   0.858   0.651  0.1839  0.6222  0.1591
  144MPD2    C2 2194   0.613   0.931   0.576 -0.4261  0.3266  0.4558
  144MPD2    C3 2195   0.693   1.028   0.629  0.1569  0.0324 -0.6102
  144MPD2    C4 2196   0.670   1.068   0.761  0.3265 -0.0692 -0.0305
  144MPD2    C5 2197   0.571   1.002   0.834  0.0579  0.3812  0.3463
  144MPD2     H 2198   0.618   0.912   0.470 -0.9598  1.7878  0.1744
  144MPD2    H1 2199   0.727   1.145   0.811  3.4268 -1.2237 -1.7750
  144MPD2    H2 2200   0.425   0.852   0.852 -0.2827  1.1628  0.2312
  144MPD2    H3 2201   0.549   1.042   0.932 -0.2764  0.9391  0.0451
  144MPD2     N 2202   0.783   1.108   0.561 -0.3983 -0.6018  0.3273
  144MPD2    H5 2203   0.843   1.169   0.616 -3.7384  0.2850  2.9237
  144MPD2    N1 2204   0.444   0.756   0.580  0.8703  0.3498 -0.5415
  144MPD2    H7 2205   0.475   0.739   0.485 -0.5653  0.3724 -1.0092
  145TCq2    C1 2206   0.809   1.113   0.432  0.3421  0.0777 -0.0917
  145TCq2    O2 2207   0.761   1.049   0.339  0.0326 -0.1270  0.2520
  145TCq2    C2 2208   0.917   1.205   0.392  0.1935  0.4855  0.2526
  145TCq2    C3 2209   0.964   1.200   0.265  0.6417 -0.0112 -0.0352
  145TCq2    C4 2210   1.059   1.289   0.229  0.0881 -0.1811  0.3590
  145TCq2    C5 2211   1.119   1.376   0.316  0.5855 -0.0719  0.1283
  145TCq2    C6 2212   1.076   1.373   0.451  0.2326 -0.3841  0.0082
  145TCq2    C7 2213   0.971   1.290   0.487  0.1193 -0.2734 -0.7673
  145TCq2    C8 2214   1.135   1.468   0.542  0.3200  0.3809 -0.3434
  145TCq2    O4 2215   1.238   1.530   0.508 -0.4033  0.4379 -0.1380
  145TCq2    C9 2216   1.116   1.294   0.094  0.1113  0.8930 -0.9120
  145TCq2    O5 2217   1.217   1.364   0.082 -0.2323  0.5929 -0.4635
  145TCq2    O6 2218   1.048   1.248  17.678  0.4375  0.5087 -0.1968
  145TCq2    H2 2219   0.923   1.134   0.190  0.0061  0.8542 -0.4471
  145TCq2    H3 2220   1.188   1.452   0.282  0.5250 -0.5685 -1.0942
  145TCq2    H4 2221   0.941   1.289   0.591 -1.2061 -0.4879 -1.1453
  146TMC2    C1 2222   2.013   4.399  12.810  0.6061 -0.2477 -0.2357
  146TMC2    C2 2223   1.896   4.408  12.748  1.0343  0.1248  0.7665
  146TMC2    C3 2224   1.886   4.342  12.628  0.5021 -0.5083  0.9009
  146TMC2    C4 2225   2.119   4.333  12.756 -0.4730 -0.0256 -0.3684
  146TMC2    C5 2226   2.098   4.272  12.633  0.5078  0.4893 -0.4550
  146TMC2    C6 2227   1.982   4.268  12.570 -1.1629 -0.5727  0.0252
  146TMC2     C 2228   2.026   4.438  12.951  0.5882 -0.0876 -0.1434
  146TMC2     O 2229   1.949   4.526  12.979  0.4690 -0.2948  0.3367
  146TMC2     H 2230   1.810   4.465  12.781 -0.6893 -2.6165  0.9369
  146TMC2    H1 2231   2.219   4.330  12.795 -0.9029 -2.2219  0.5081
  146TMC2    H2 2232   1.961   4.217  12.477 -2.6740 -0.2269  0.1779
  146TMC2    C7 2233   2.211   4.215  12.568 -0.5278 -0.7268 -0.5693
  146TMC2    C8 2234   1.761   4.365  12.562  0.6227  0.4154 -0.3626
  146TMC2    O1 2235   2.208   4.227  12.446  0.5444 -0.2038  0.4264
  146TMC2    O2 2236   1.694   4.469  12.577  0.2419 -0.2797  0.2896
  146TMC2    O5 2237   1.715   4.243  12.521 -0.3091 -0.1744  0.4125
  146TMC2    H5 2238   1.769   4.163  12.542 -0.5952 -0.0043  1.7820
  147MPD2     C 2239   2.642   3.949  12.530 -0.0234 -0.3664 -0.4338
  147MPD2    C1 2240   2.623   3.970  12.661  0.3480 -0.2798 -0.7062
  147MPD2    C2 2241   2.513   4.048  12.701 -0.3832 -0.3723  0.2659
  147MPD2    C3 2242   2.425   4.098  12.602  0.7794 -0.0786 -0.5821
  147MPD2    C4 2243   2.449   4.075  12.469  0.7299  0.6168  0.3748
  147MPD2    C5 2244   2.557   4.001  12.436  0.4942 -0.3374  0.3445
  147MPD2     H 2245   2.497   4.080  12.803 -0.1500 -0.9388  0.4799
  147MPD2    H1 2246   2.388   4.106  12.384 -0.6045 -1.3079  0.6203
  147MPD2    H2 2247   2.722   3.889  12.488 -1.7922 -3.2101  0.2411
  147MPD2    H3 2248   2.580   3.981  12.332 -2.2096 -2.9769  0.2449
  147MPD2     N 2249   2.303   4.163  12.650  0.9293 -0.3072 -0.4094
  147MPD2    H5 2250   2.271   4.161  12.746 -2.4761  1.1439 -1.5302
  147MPD2    N1 2251   2.718   3.917  12.751  0.1305  0.5142  0.4912
  147MPD2    H7 2252   2.801   3.876  12.709 -2.7476 -3.1157 -1.6688
  148MPD2     C 2253   3.125   3.295  10.424  0.0096 -0.6575  0.5438
  148MPD2    C1 2254   3.158   3.166  10.424  0.0368  0.2368 -0.1871
  148MPD2    C2 2255   3.072   3.065  10.389 -0.4564  0.4202  0.8292
  148MPD2    C3 2256   2.945   3.098  10.344  0.4644  0.1566 -0.7237
  148MPD2    C4 2257   2.905   3.227  10.355  0.2106 -0.6406 -0.1668
  148MPD2    C5 2258   2.995   3.318  10.395  0.4360  0.2593 -1.5008
  148MPD2     H 2259   3.098   2.960  10.388  1.4155  0.8664  2.3258
  148MPD2    H1 2260   2.805   3.253  10.324 -0.7912 -2.3088  1.6779
  148MPD2    H2 2261   3.186   3.383  10.438  1.0251 -1.4231  0.9162
  148MPD2    H3 2262   2.953   3.418  10.402 -0.8320 -0.3252 -0.8459
  148MPD2     N 2263   2.847   3.006  10.314 -0.1238  0.1360 -0.2884
  148MPD2    H5 2264   2.762   3.045  10.272 -1.1098 -0.7875  0.8574
  148MPD2    N1 2265   3.284   3.116  10.458 -0.1102  0.1928 -0.7509
  148MPD2    H7 2266   3.285   3.016  10.475 -1.1395  0.2034 -0.6110
  149TCq2    C1 2267   3.393   3.191  10.496  0.1240  0.7381  0.4966
  149TCq2    O2 2268   3.413   3.308  10.463 -0.1243 -0.5833 -0.1300
  149TCq2    C2 2269   3.509   3.107  10.494  0.5482  0.0294 -0.0254
  149TCq2    C3 2270   3.623   3.161  10.465 -0.0739  0.0196 -0.5184
  149TCq2    C4 2271   3.733   3.085  10.432  0.0406 -0.2079  0.8261
  149TCq2    C5 2272   3.713   2.953  10.404  0.3187  0.6390 -0.0014
  149TCq2    C6 2273   3.600   2.895  10.454  0.5284  0.0890  0.2697
  149TCq2    C7 2274   3.497   2.971  10.501 -0.5046 -0.4798 -0.1092
  149TCq2    C8 2275   3.549   2.764  10.419  1.0458 -0.3719 -0.0612
  149TCq2    O4 2276   3.427   2.750  10.429 -0.1812  0.2088 -0.3681
  149TCq2    C9 2277   3.852   3.143  10.370 -0.8286  0.4772 -0.3876
  149TCq2    O5 2278   3.852   3.265  10.358  0.5276 -0.4925 -0.3864
  149TCq2    O6 2279   3.928   3.063  10.309  0.4589 -0.5728  0.1435
  149TCq2    H2 2280   3.634   3.269  10.473 -0.6447 -0.1859  2.8023
  149TCq2    H3 2281   3.785   2.898  10.344 -0.3392 -0.2772  0.0541
  149TCq2    H4 2282   3.419   2.925  10.560 -0.1639 -0.8545  0.0479
  150MPD2     C 2283   4.075   1.809  11.597 -0.4707  0.2478  0.5724
  150MPD2    C1 2284   4.116   1.806  11.462  0.5111 -0.2538  0.8653
  150MPD2    C2 2285   4.229   1.873  11.428  0.1341  0.2014 -0.0185
  150MPD2    C3 2286   4.300   1.942  11.529 -0.8846  0.3642  0.4570
  150MPD2    C4 2287   4.251   1.941  11.661  0.7124 -0.2724  0.7342
  150MPD2    C5 2288   4.142   1.875  11.698  0.6811 -0.8470  0.5734
  150MPD2     H 2289   4.258   1.880  11.324 -2.3965 -1.5382 -0.8361
  150MPD2    H1 2290   4.310   1.991  11.736 -1.5733  0.9037  1.7219
  150MPD2    H2 2291   3.981   1.759  11.619  0.0909 -1.1837 -0.2490
  150MPD2    H3 2292   4.114   1.875  11.802 -0.3885  1.0354  0.2753
  150MPD2     N 2293   4.412   2.014  11.482 -0.1710 -0.2539  0.8486
  150MPD2    H5 2294   4.443   2.001  11.386  1.3862 -1.8411  1.5613
  150MPD2    N1 2295   4.030   1.735  11.367  0.6792  0.0689  0.4603
  150MPD2    H7 2296   3.952   1.684  11.406  0.1113  0.5223 -0.0784
  151TCq2    C1 2297   4.497   2.092  11.561  0.7319 -0.5142 -0.8685
  151TCq2    O2 2298   4.477   2.128  11.674 -0.5844  0.0886 -0.1014
  151TCq2    C2 2299   4.620   2.120  11.489 -0.5920 -0.6833 -0.2487
  151TCq2    C3 2300   4.619   2.118  11.350  0.3000  0.2789  1.0548
  151TCq2    C4 2301   0.010   2.144  11.279  0.3564 -0.2231  0.5100
  151TCq2    C5 2302   0.124   2.189  11.356  0.5462  0.2625 -0.0093
  151TCq2    C6 2303   0.114   2.201  11.491 -0.5140  0.5440 -0.7288
  151TCq2    C7 2304   4.718   2.176  11.558  0.5980  0.2734  0.5563
  151TCq2    C8 2305   0.219   2.276  11.555 -0.3400 -0.2329 -0.2524
  151TCq2    O4 2306   0.291   2.354  11.490 -0.1846  0.2927 -0.1550
  151TCq2    C9 2307   0.003   2.161  11.138  0.7513 -0.1333  0.4251
  151TCq2    O5 2308   0.100   2.216  11.080 -0.2665  0.1531 -0.0619
  151TCq2    O6 2309   4.610   2.142  11.086 -0.1144 -0.1746  0.6080
  151TCq2    H2 2310   4.536   2.078  11.292  1.4871 -0.4627 -0.1429
  151TCq2    H3 2311   0.209   2.236  11.306  0.0551  1.7045  0.5069
  151TCq2    H4 2312   4.703   2.204  11.662  3.1696  1.5926  0.5494
  152MPD2     C 2313   4.038   1.593  12.539  0.7518 -0.0764 -1.4118
  152MPD2    C1 2314   4.098   1.657  12.427  0.2743  0.1812  0.0026
  152MPD2    C2 2315   4.014   1.701  12.326  0.5647 -0.3494 -0.3740
  152MPD2    C3 2316   3.878   1.670  12.334  0.2295 -0.3894 -0.4434
  152MPD2    C4 2317   3.828   1.611  12.448  0.2875 -0.6095  0.3777
  152MPD2    C5 2318   3.906   1.579  12.551  0.6501  0.2121  0.3657
  152MPD2     H 2319   4.049   1.752  12.237  0.0662 -0.5917 -0.7040
  152MPD2    H1 2320   3.722   1.590  12.454 -0.0097  0.6722 -0.5334
  152MPD2    H2 2321   4.092   1.563  12.628 -1.9778  1.7441  0.8472
  152MPD2    H3 2322   3.859   1.545  12.643  0.7152 -0.9064 -0.0087
  152MPD2     N 2323   3.793   1.707  12.229  0.1738 -0.7162  0.2831
  152MPD2    H5 2324   3.833   1.768  12.158 -0.5529  0.9082  1.2723
  152MPD2    N1 2325   4.240   1.673  12.423 -0.8306  0.2587 -0.3686
  152MPD2    H7 2326   4.297   1.616  12.485 -0.5498  1.4336  0.4489
  153TCq2    C1 2327   4.304   1.747  12.330 -0.3764 -0.5511 -0.1697
  153TCq2    O2 2328   4.266   1.835  12.252 -0.2339  0.0215 -0.0290
  153TCq2    C2 2329   4.440   1.745  12.366  0.0807  0.5964 -0.6099
  153TCq2    C3 2330   4.485   1.642  12.436  0.3074  0.2968 -0.1496
  153TCq2    C4 2331   4.588   1.668  12.520  0.3269  0.4585  0.7635
  153TCq2    C5 2332   4.662   1.784  12.524 -0.2396 -0.5629 -0.3823
  153TCq2    C6 2333   4.623   1.879  12.436  0.6885  0.2016 -0.1137
  153TCq2    C7 2334   4.518   1.858  12.352  0.7977 -0.0406 -0.0596
  153TCq2    C8 2335   4.693   2.010  12.423  0.1944  0.2582  0.2155
  153TCq2    O4 2336   4.631   2.101  12.370 -0.1009  0.6429  0.1126
  153TCq2    C9 2337   4.617   1.571  12.621  0.0093  0.1746 -0.3493
  153TCq2    O5 2338   4.553   1.465  12.611 -0.2030  1.0515  0.5296
  153TCq2    O6 2339   4.703   1.607  12.708 -0.9421 -0.0085 -0.6811
  153TCq2    H2 2340   4.435   1.546  12.437  0.1641  0.3626 -1.3011
  153TCq2    H3 2341   0.015   1.789  12.605 -2.7984  2.1342  1.7314
  153TCq2    H4 2342   4.489   1.932  12.278 -0.9433 -0.2087  0.4751
  154MPD2     C 2343   0.582   2.282   1.029  0.2524 -0.3254 -0.0464
  154MPD2    C1 2344   0.546   2.231   1.153 -0.1403  0.2106  0.1616
  154MPD2    C2 2345   0.421   2.180   1.170 -0.4593  0.0139 -0.1534
  154MPD2    C3 2346   0.324   2.205   1.078  0.1622  0.0605  1.0218
  154MPD2    C4 2347   0.363   2.256   0.958  0.4631  0.5131 -0.5551
  154MPD2    C5 2348   0.489   2.298   0.938  0.5458  0.2814 -0.6539
  154MPD2     H 2349   0.400   2.123   1.260  1.2661 -2.2849 -1.2029
  154MPD2    H1 2350   0.297   2.281   0.876 -0.2530 -0.6207 -0.3193
  154MPD2    H2 2351   0.677   2.333   1.022 -1.0743  2.7935  4.0190
  154MPD2    H3 2352   0.505   2.369   0.858  1.9089 -0.0863 -0.6961
  154MPD2     N 2353   0.192   2.181   1.117 -0.0616 -0.4610 -0.2581
  154MPD2    H5 2354   0.182   2.135   1.207  1.2751  1.7104  0.9898
  154MPD2    N1 2355   0.642   2.223   1.255 -0.5930  0.6729 -0.2127
  154MPD2    H7 2356   0.740   2.231   1.230 -1.3863  0.1083 -3.5032
  155TCq2    C1 2357   0.613   2.172   1.384 -0.5153 -0.2084 -0.1280
  155TCq2    O2 2358   0.506   2.161   1.442 -0.2318 -0.3777 -0.3090
  155TCq2    C2 2359   0.734   2.193   1.465 -0.7593 -0.1039 -0.0785
  155TCq2    C3 2360   0.731   2.232   1.595  0.4580  0.1303 -0.0985
  155TCq2    C4 2361   0.851   2.260   1.661 -0.1057 -0.6785 -0.3140
  155TCq2    C5 2362   0.971   2.233   1.605 -0.1811  0.6978  0.3472
  155TCq2    C6 2363   0.973   2.197   1.473  0.5982  0.4036 -0.6183
  155TCq2    C7 2364   0.860   2.170   1.403  0.0691 -0.0966  0.4208
  155TCq2    C8 2365   1.103   2.168   1.415 -0.4882  0.1350 -0.1250
  155TCq2    O4 2366   1.183   2.119   1.500  0.3205  0.2120 -0.1681
  155TCq2    C9 2367   0.851   2.346   1.772  0.4284 -0.0463 -0.3002
  155TCq2    O5 2368   0.735   2.372   1.818 -0.2257 -0.4761  0.0395
  155TCq2    O6 2369   0.963   2.366   1.822 -0.0848 -0.2719 -0.3919
  155TCq2    H2 2370   0.640   2.276   1.635  0.1353 -1.6186  1.0814
  155TCq2    H3 2371   1.064   2.265   1.651  1.9560 -0.8490 -2.8379
  155TCq2    H4 2372   0.868   2.128   1.303 -1.1208  1.1021 -0.1786
  156MPD2     C 2373   4.581   3.888  12.238 -0.0076 -0.7271  0.2797
  156MPD2    C1 2374   4.580   3.996  12.153 -0.1632 -0.1600  0.1728
  156MPD2    C2 2375   4.475   4.093  12.160  0.7756  0.3370 -0.2216
  156MPD2    C3 2376   4.385   4.086  12.262  0.3292  0.3630 -0.2968
  156MPD2    C4 2377   4.388   3.975  12.346  0.4411 -0.4116  0.5108
  156MPD2    C5 2378   4.487   3.881  12.337  0.0802  0.2645  0.4827
  156MPD2     H 2379   4.478   4.181  12.097  1.9206  0.2754 -0.2377
  156MPD2    H1 2380   4.336   3.958  12.440 -1.1290  1.7511  0.0194
  156MPD2    H2 2381   4.657   3.811  12.233  0.7339  0.0548 -0.6019
  156MPD2    H3 2382   4.494   3.806  12.415  1.0721  0.3817  0.4973
  156MPD2     N 2383   4.296   4.181  12.276  0.2478  0.1251  0.2077
  156MPD2    H5 2384   4.315   4.271  12.234 -2.9908  1.0028  0.6489
  156MPD2    N1 2385   4.673   3.982  12.045 -0.1569  1.2517  0.0458
  156MPD2    H7 2386   0.015   3.901  12.051  1.2591  2.3382  0.4833
  157TCq2    C1 2387   4.682   4.071  11.937 -0.3314  0.2731 -0.0817
  157TCq2    O2 2388   4.619   4.176  11.919  0.3559 -0.4875 -0.5676
  157TCq2    C2 2389   0.066   4.047  11.840  0.2415 -0.2910 -0.3478
  157TCq2    C3 2390   0.168   3.968  11.873  0.7068 -0.2028  0.3933
  157TCq2    C4 2391   0.276   3.966  11.791  0.1743 -0.6212 -0.7980
  157TCq2    C5 2392   0.277   4.045  11.672 -0.3122 -0.2681  0.0627
  157TCq2    C6 2393   0.169   4.126  11.643 -0.2736  0.0929  0.5526
  157TCq2    C7 2394   0.062   4.125  11.722 -0.5646 -0.2187 -0.2583
  157TCq2    C8 2395   0.154   4.208  11.523  0.1112 -0.3186 -0.4322
  157TCq2    O4 2396   0.082   4.310  11.535  0.6749 -0.0390 -0.0615
  157TCq2    C9 2397   0.391   3.888  11.832 -0.2585  0.7214  0.1947
  157TCq2    O5 2398   0.375   3.802  11.927 -0.5132  0.1869  0.0047
  157TCq2    O6 2399   0.501   3.933  11.794  0.3433  0.4459 -0.6355
  157TCq2    H2 2400   0.177   3.930  11.975  0.7324  0.4148  0.6167
  157TCq2    H3 2401   0.364   4.048  11.608 -1.1537  1.2311 -1.0104
  157TCq2    H4 2402   4.692   4.185  11.705 -0.9942 -0.8845 -0.4062
  158TMC2    C1 2403   4.601   3.169  13.256  0.1380 -0.1018  0.7040
  158TMC2    C2 2404   4.648   3.239  13.147  0.5684 -0.5688  0.7099
  158TMC2    C3 2405   4.555   3.265  13.047 -0.1418 -0.2797 -0.6775
  158TMC2    C4 2406   4.475   3.126  13.270 -0.2679 -0.0116  0.1081
  158TMC2    C5 2407   4.382   3.151  13.173  1.2751 -0.3929 -0.4435
  158TMC2    C6 2408   4.421   3.222  13.059 -0.1077 -0.6181 -0.2538
  158TMC2     C 2409   4.706   3.146  13.354 -0.9572  0.6869  1.1160
  158TMC2     O 2410   0.083   3.220  13.357  0.2124  0.3076 -0.3760
  158TMC2     H 2411   0.032   3.272  13.144  0.7597 -1.1922  0.5047
  158TMC2    H1 2412   4.436   3.091  13.365 -0.7931 -3.4643 -1.3554
  158TMC2    H2 2413   4.352   3.246  12.978 -0.2340 -0.7022 -0.1702
  158TMC2    C7 2414   4.252   3.093  13.170  0.0152 -0.2668  0.4628
  158TMC2    C8 2415   4.603   3.314  12.918 -0.8455  0.3819 -0.1368
  158TMC2    O1 2416   4.168   3.134  13.095  0.7167 -0.7661 -0.1897
  158TMC2    O2 2417   4.520   3.338  12.832  0.3055  0.5205 -0.1476
  158TMC2    O5 2418   0.006   3.269  12.906  0.2405  0.1963 -0.1806
  158TMC2    H5 2419   0.054   3.226  12.980 -0.7014 -0.8515 -0.1819
  159MPD2     C 2420   0.122   2.901  13.766 -0.4702 -0.7018  1.1303
  159MPD2    C1 2421   0.020   2.832  13.722  0.3922 -0.8490 -0.4095
  159MPD2    C2 2422   4.674   2.891  13.614  0.6892 -0.1375 -0.0521
  159MPD2    C3 2423   0.009   2.992  13.542 -0.5870  0.1964 -0.3298
  159MPD2    C4 2424   0.120   3.051  13.590 -0.3144 -0.8195 -0.8119
  159MPD2    C5 2425   0.178   3.004  13.700  0.9515 -0.3185  0.0342
  159MPD2     H 2426   4.589   2.843  13.568  0.9544  0.3873 -1.0917
  159MPD2    H1 2427   0.176   3.133  13.546 -0.2039 -0.9284 -0.8751
  159MPD2    H2 2428   0.165   2.877  13.863 -1.2547  1.7736  2.1040
  159MPD2    H3 2429   0.255   3.063  13.748  0.2940 -1.2380  2.2245
  159MPD2     N 2430   4.664   3.043  13.434 -0.3308 -0.0288  0.7585
  159MPD2    H5 2431   4.579   2.990  13.411 -2.4232  2.6422  2.4036
  159MPD2    N1 2432   4.690   2.725  13.804 -0.4113 -0.2631  0.0085
  159MPD2    H7 2433   0.031   2.700  13.882 -1.5810 -0.4411  0.8337
  160TMC2    C1 2434   3.863   0.931   1.452  0.1722 -0.3639  0.4190
  160TMC2    C2 2435   3.790   0.819   1.404 -0.0423 -0.2065  0.2631
  160TMC2    C3 2436   3.849   0.749   1.303 -0.2296 -0.2784  0.2835
  160TMC2    C4 2437   3.975   0.973   1.387  0.3556 -0.0121  0.3969
  160TMC2    C5 2438   4.027   0.901   1.281 -0.0021 -0.2152 -0.0216
  160TMC2    C6 2439   3.967   0.779   1.246  0.4808 -0.0471 -0.0518
  160TMC2     C 2440   3.789   1.009   1.546  0.6452  0.3309 -0.4494
  160TMC2     O 2441   3.676   0.973   1.566 -0.2257  0.0644  0.1823
  160TMC2     H 2442   3.691   0.788   1.434 -0.6328  1.2995 -0.1333
  160TMC2    H1 2443   4.014   1.069   1.417 -0.1410  1.2070 -2.8585
  160TMC2    H2 2444   3.987   0.730   1.151  2.7341 -1.5253  1.1973
  160TMC2    C7 2445   4.087   0.975   1.170  0.3648  0.2488 -0.0532
  160TMC2    C8 2446   3.775   0.648   1.238 -0.2540 -0.7884 -0.3955
  160TMC2    O1 2447   4.075   0.924   1.057 -0.2278 -0.2493 -0.2924
  160TMC2    O2 2448   3.735   0.659   1.125 -0.1862 -0.2478 -0.2819
  160TMC2    O5 2449   3.739   0.553   1.334  0.3917  0.3850  0.8804
  160TMC2    H5 2450   3.758   0.567   1.429  0.8933  0.3136  0.7912
  161MPD2     C 2451   3.645   1.238   1.682 -0.4483 -0.7918  0.5968
  161MPD2    C1 2452   3.768   1.246   1.618  1.1395 -0.3879 -0.1280
  161MPD2    C2 2453   3.821   1.374   1.606  0.1689  0.1849 -0.2331
  161MPD2    C3 2454   3.748   1.482   1.649 -0.1538  0.1649 -0.1544
  161MPD2    C4 2455   3.622   1.476   1.713 -0.3875 -0.4727 -0.2326
  161MPD2    C5 2456   3.569   1.355   1.723 -0.4105 -0.6156  0.0757
  161MPD2     H 2457   3.921   1.373   1.565  0.1978 -1.6330 -0.1398
  161MPD2    H1 2458   3.558   1.559   1.744  0.4307 -0.3723  1.1753
  161MPD2    H2 2459   3.595   1.143   1.699 -0.6196 -0.8904 -0.4931
  161MPD2    H3 2460   3.473   1.344   1.771 -0.5401 -2.9447 -0.7054
  161MPD2     N 2461   3.791   1.616   1.619 -0.5698  0.0060 -0.5333
  161MPD2    H5 2462   3.746   1.699   1.656 -0.3496 -0.3250  0.4719
  161MPD2    N1 2463   3.838   1.136   1.564 -0.2322 -0.7260  0.0282
  161MPD2    H7 2464   3.924   1.158   1.514 -0.7918  1.7142  0.1573
  162TMC2    C1 2465   1.880   2.845   0.665  0.6695 -0.4994 -0.2372
  162TMC2    C2 2466   1.793   2.845   0.563  0.2774  0.3786  0.4335
  162TMC2    C3 2467   1.664   2.869   0.597 -0.7992  0.3277 -0.5797
  162TMC2    C4 2468   1.835   2.867   0.795  0.4287  0.1568 -0.4587
  162TMC2    C5 2469   1.698   2.903   0.819 -0.2703 -0.5882  0.4517
  162TMC2    C6 2470   1.612   2.897   0.718  0.0683  0.6374  0.2453
  162TMC2     C 2471   2.022   2.828   0.632 -0.3838  0.0638 -0.0084
  162TMC2     O 2472   2.057   2.871   0.518  0.5306  0.3567 -0.7651
  162TMC2     H 2473   1.822   2.844   0.459  1.1915 -0.4687  0.6967
  162TMC2    H1 2474   1.904   2.846   0.876  1.9430  0.7612 -1.6050
  162TMC2    H2 2475   1.505   2.903   0.735  0.1953 -0.8113  1.5369
  162TMC2    C7 2476   1.658   2.939   0.950  0.6147  0.3837 -0.0485
  162TMC2    C8 2477   1.576   2.909   0.488 -0.2408 -0.1702  0.0235
  162TMC2    O1 2478   1.538   2.939   0.971  0.1343 -0.6483 -0.1382
  162TMC2    O2 2479   1.606   2.971   0.390  0.2265  0.0620  0.1791
  162TMC2    O5 2480   1.504   2.801   0.478  0.7885 -0.0666 -0.1094
  162TMC2    H5 2481   1.512   2.734   0.549 -0.7500  2.7432  2.6683
  163MPD2     C 2482   2.513   2.715   0.734 -0.1549 -0.1193 -0.1113
  163MPD2    C1 2483   2.458   2.762   0.621  0.4200 -0.7384 -0.7031
  163MPD2    C2 2484   2.319   2.778   0.619 -0.7289  0.0498 -0.2073
  163MPD2    C3 2485   2.237   2.746   0.730 -0.1408 -0.6484  0.5407
  163MPD2    C4 2486   2.298   2.709   0.842  0.0128 -0.1608  0.4019
  163MPD2    C5 2487   2.435   2.693   0.843 -0.3921  0.4356  0.4488
  163MPD2     H 2488   2.268   2.802   0.526  1.1209  0.2955 -1.1604
  163MPD2    H1 2489   2.232   2.694   0.927 -0.9085 -1.1972 -0.5004
  163MPD2    H2 2490   2.618   2.688   0.745  0.1747  1.2845  0.2411
  163MPD2    H3 2491   2.482   2.664   0.936  2.5970  0.3606 -1.0902
  163MPD2     N 2492   2.098   2.775   0.734  0.5124 -0.0720 -0.5987
  163MPD2    H5 2493   2.051   2.751   0.820 -0.8622  0.7238 -1.1256
  163MPD2    N1 2494   2.542   2.773   0.505  0.1624  0.2604  0.1316
  163MPD2    H7 2495   2.639   2.758   0.532  0.1499  0.6735  0.4154
  164TCq2    C1 2496   3.159   3.277  10.832  0.5069  0.0644 -0.1221
  164TCq2    O2 2497   3.050   3.215  10.831 -0.1136 -0.0082 -0.4813
  164TCq2    C2 2498   3.160   3.413  10.878  0.3875  0.8990 -0.6012
  164TCq2    C3 2499   3.278   3.483  10.878 -0.4103  0.4722  0.1065
  164TCq2    C4 2500   3.292   3.586  10.974  0.2710 -0.8118 -0.1293
  164TCq2    C5 2501   3.200   3.611  11.069  0.2528  0.7911 -0.2436
  164TCq2    C6 2502   3.088   3.546  11.047 -1.0044 -0.4645 -0.6796
  164TCq2    C7 2503   3.057   3.448  10.960 -0.9198 -0.1944  0.8710
  164TCq2    C8 2504   2.974   3.598  11.113 -0.5133 -0.4884 -0.2674
  164TCq2    O4 2505   2.877   3.623  11.040 -0.3216 -0.0984  0.5902
  164TCq2    C9 2506   3.417   3.651  10.990 -0.5529 -0.2200 -1.2693
  164TCq2    O5 2507   3.522   3.580  10.976  0.4158  0.1251 -0.0805
  164TCq2    O6 2508   3.420   3.769  11.031 -0.5963  0.1347  0.3406
  164TCq2    H2 2509   3.355   3.462  10.805 -1.4023  0.7056 -1.0011
  164TCq2    H3 2510   3.217   3.684  11.148 -1.3301  0.7882  0.0966
  164TCq2    H4 2511   2.958   3.404  10.949 -0.9337  0.7112 -2.5360
  165MPD2     C 2512   4.426   4.234   1.972 -0.7342 -0.2875  0.2501
  165MPD2    C1 2513   4.446   4.214   1.838 -0.2334  0.3421 -0.4789
  165MPD2    C2 2514   4.386   4.301   1.744  0.0054  0.1642 -0.1715
  165MPD2    C3 2515   4.322   4.417   1.791 -0.5250  0.3081  0.5267
  165MPD2    C4 2516   4.307   4.432   1.929  0.0068 -0.0438 -0.5461
  165MPD2    C5 2517   4.362   4.345   2.013 -0.8160  0.1199 -1.2881
  165MPD2     H 2518   4.390   4.277   1.639 -0.0529 -1.0457  0.1022
  165MPD2    H1 2519   4.273   4.523   1.976  1.5259 -0.1364  0.7557
  165MPD2    H2 2520   4.484   4.171   2.038 -2.0072 -1.1783  0.4978
  165MPD2    H3 2521   4.362   4.367   2.119 -1.2781  0.6916 -1.4136
  165MPD2     N 2522   4.279   4.523   1.707 -0.1677  0.2846  0.3792
  165MPD2    H5 2523   4.229   4.596   1.756  1.7817  1.1946  1.0121
  165MPD2    N1 2524   4.538   4.113   1.804 -0.0808 -0.4613 -0.0473
  165MPD2    H7 2525   4.584   4.058   1.875  0.8270  3.4270  2.3914
  166TCq2    C1 2526   4.320   4.542   1.575  0.2807 -1.0080  0.2828
  166TCq2    O2 2527   4.398   4.473   1.504 -0.5003  0.3444 -0.3506
  166TCq2    C2 2528   4.275   4.668   1.513 -0.0502 -0.2148 -0.0778
  166TCq2    C3 2529   4.200   0.022   1.601 -0.4955 -0.3950 -0.4416
  166TCq2    C4 2530   4.222   0.155   1.614 -0.3390  0.6785  0.6815
  166TCq2    C5 2531   4.321   0.218   1.554 -0.1170  0.0554  0.5733
  166TCq2    C6 2532   4.399   0.150   1.463 -0.6283  0.0346 -0.1989
  166TCq2    C7 2533   4.373   0.018   1.445 -0.3137 -0.0603  0.9459
  166TCq2    C8 2534   4.477   0.228   1.376  0.1002  0.0989  0.1064
  166TCq2    O4 2535   4.529   0.327   1.427  0.1617 -0.1768 -0.5573
  166TCq2    C9 2536   4.134   0.232   1.701  0.9994 -0.1010  0.2985
  166TCq2    O5 2537   4.047   0.171   1.771  0.2582 -0.3709  0.0468
  166TCq2    O6 2538   4.162   0.354   1.722 -0.5040  0.4628 -0.2844
  166TCq2    H2 2539   4.114   4.704   1.655 -0.6738 -0.0283 -0.4726
  166TCq2    H3 2540   4.337   0.324   1.574 -2.0779  0.2985  0.9125
  166TCq2    H4 2541   4.444   4.680   1.386  1.0483  0.9629  1.5824
  167TMC2    C1 2542   2.143   2.720  12.892  0.0664 -0.3144  0.3956
  167TMC2    C2 2543   2.086   2.730  13.012 -0.2901 -0.2512 -0.2681
  167TMC2    C3 2544   2.078   2.615  13.087 -0.0427 -0.2869  0.5464
  167TMC2    C4 2545   2.203   2.601  12.844  0.2138  0.4163  0.8699
  167TMC2    C5 2546   2.184   2.489  12.928 -0.4422  0.0291  0.8989
  167TMC2    C6 2547   2.128   2.493  13.053 -0.7686 -0.6365  0.6437
  167TMC2     C 2548   2.146   2.842  12.811  1.1426 -0.6357 -0.0767
  167TMC2     O 2549   2.068   2.935  12.833  0.6128 -0.0160 -0.6022
  167TMC2     H 2550   2.043   2.826  13.038 -0.7680 -0.4357 -0.3804
  167TMC2    H1 2551   2.249   2.598  12.746 -1.2476  2.3431  0.1153
  167TMC2    H2 2552   2.120   2.407  13.118 -0.5354 -1.2475 -0.1327
  167TMC2    C7 2553   2.229   2.355  12.884  0.4714 -0.1043 -0.1450
  167TMC2    C8 2554   2.017   2.622  13.223 -0.4629 -0.1395  0.2182
  167TMC2    O1 2555   2.160   2.261  12.928  0.6503 -0.2773  0.0293
  167TMC2    O2 2556   1.987   2.520  13.285  0.3703 -0.0136  0.1518
  167TMC2    O5 2557   2.044   2.739  13.285  0.4082  0.2527 -0.2164
  167TMC2    H5 2558   2.100   2.791  13.223  0.1660 -0.7053 -1.2387
  168MPD2     C 2559   2.209   3.058  12.608 -0.1914 -0.4350  0.3906
  168MPD2    C1 2560   2.272   2.932  12.613  0.3578  0.2059  0.6181
  168MPD2    C2 2561   2.340   2.891  12.502  0.3450 -0.0267 -0.3311
  168MPD2    C3 2562   2.332   2.961  12.382  0.3832 -0.1269  0.7740
  168MPD2    C4 2563   2.263   3.081  12.381 -0.0532  0.0049 -0.2937
  168MPD2    C5 2564   2.207   3.140  12.495 -0.5128 -0.2403  0.3969
  168MPD2     H 2565   2.375   2.790  12.519 -0.3077 -0.2120 -0.0857
  168MPD2    H1 2566   2.240   3.131  12.287  2.2335  1.0184 -0.2979
  168MPD2    H2 2567   2.146   3.083  12.693  0.3619  2.5047 -0.0649
  168MPD2    H3 2568   2.141   3.225  12.485  1.8477  1.6494  1.0016
  168MPD2     N 2569   2.384   2.898  12.267 -0.3258  0.0833  0.0623
  168MPD2    H5 2570   2.363   2.942  12.178  0.5570  0.2284 -0.0803
  168MPD2    N1 2571   2.239   2.837  12.708  0.0930 -0.9672  0.6429
  168MPD2    H7 2572   2.288   2.748  12.699 -0.0630 -0.7501 -2.3580
  169MPD1     C 2573   0.936   0.611   9.305  0.0526  0.1314 -0.7339
  169MPD1    C1 2574   0.823   0.694   9.280  0.1096  0.3084 -0.3970
  169MPD1    C2 2575   0.842   0.802   9.198  0.0274 -0.8863  0.4954
  169MPD1    C3 2576   0.967   0.841   9.152 -0.6500  0.1814  0.2873
  169MPD1    C4 2577   1.073   0.759   9.172 -0.7288  0.2214  0.5545
  169MPD1    C5 2578   1.056   0.646   9.250 -0.8246  0.6349  0.4425
  169MPD1     H 2579   0.753   0.856   9.169  0.4861  0.4775  1.5921
  169MPD1    H1 2580   1.168   0.791   9.131 -0.7690 -1.0703 -0.5381
  169MPD1    H2 2581   0.935   0.519   9.362 -0.1314  0.2923 -0.4795
  169MPD1    H3 2582   1.146   0.588   9.266  1.0018  3.2478 -0.3182
  169MPD1     N 2583   0.976   0.960   9.081  0.3499  0.1286 -0.2886
  169MPD1    H5 2584   0.892   1.009   9.054  0.4560 -0.5238 -1.8728
  169MPD1    N1 2585   0.698   0.670   9.346  0.4428 -0.8467 -0.3920
  169MPD1    H6 2586   0.614   0.676   9.290  0.4071 -2.4924 -0.4895
  169MPD1    H7 2587   0.692   0.582   9.397  3.5152 -2.1561 -2.2794
  170MPD1     C 2588   3.057   4.596  12.792  0.0127  0.1292  0.5363
  170MPD1    C1 2589   3.050   0.010  12.754 -0.2515 -0.0413 -0.1816
  170MPD1    C2 2590   3.057   0.106  12.856  0.6910  0.4032  0.2109
  170MPD1    C3 2591   3.112   0.073  12.980  0.5372  0.5898 -0.6528
  170MPD1    C4 2592   3.146   4.662  13.011 -0.9988  0.2376 -0.0679
  170MPD1    C5 2593   3.104   4.568  12.917  0.0998 -0.1699 -0.4251
  170MPD1     H 2594   3.037   0.209  12.827  1.7298  0.1061 -1.5526
  170MPD1    H1 2595   3.187   4.627  13.106 -0.6131  0.7681 -0.0385
  170MPD1    H2 2596   3.053   4.520  12.715 -0.1391  0.0223  0.6513
  170MPD1    H3 2597   3.124   4.465  12.944  1.3988 -0.3277 -2.0370
  170MPD1     N 2598   3.139   0.169  13.078  0.1570  0.4382 -0.1702
  170MPD1    H5 2599   3.195   0.139  13.157  2.4076  0.7460 -1.6526
  170MPD1    N1 2600   2.990   0.043  12.627 -0.4557 -0.9271 -0.0984
  170MPD1    H6 2601   3.002   0.142  12.605  0.4647 -0.6574  1.6492
  170MPD1    H7 2602   3.016   4.698  12.552 -2.3841 -2.0216  0.1577
  171MPD1     C 2603   2.449   1.540  15.434  0.9631  0.2925 -0.4220
  171MPD1    C1 2604   2.337   1.490  15.382 -0.0144  0.0659  0.3228
  171MPD1    C2 2605   2.286   1.376  15.429  0.4008 -0.2668  1.1497
  171MPD1    C3 2606   2.352   1.293  15.518 -0.6896  0.1605  0.2655
  171MPD1    C4 2607   2.482   1.339  15.550  0.1746 -0.1311  0.0855
  171MPD1    C5 2608   2.527   1.459  15.512 -0.2419 -0.2325  0.3744
  171MPD1     H 2609   2.186   1.348  15.400  0.9433 -1.3578  0.3162
  171MPD1    H1 2610   2.545   1.285  15.620  0.7865  2.5570  1.6292
  171MPD1    H2 2611   2.489   1.639  15.414  0.4603  0.6363  0.2926
  171MPD1    H3 2612   2.623   1.489  15.552  1.0739 -2.8661 -0.8102
  171MPD1     N 2613   2.291   1.175  15.581 -0.5218  0.7058  0.3577
  171MPD1    H5 2614   2.350   1.128  15.649 -0.9591 -1.3051 -0.6813
  171MPD1    N1 2615   2.257   1.571  15.300  0.3238  0.2304 -0.2951
  171MPD1    H6 2616   2.306   1.647  15.254  0.0047  0.4978 -0.1915
  171MPD1    H7 2617   2.199   1.522  15.233  0.6638 -0.9850  0.2993
  172MPD1     C 2618   0.842   0.391   0.712  0.0732 -0.8101 -0.3310
  172MPD1    C1 2619   0.738   0.474   0.685  0.7561  0.3031  0.3994
  172MPD1    C2 2620   0.752   0.558   0.577 -0.1529  0.0585 -0.1236
  172MPD1    C3 2621   0.854   0.544   0.484  0.3568  0.7953 -0.0594
  172MPD1    C4 2622   0.953   0.453   0.512 -0.0485  0.1784 -0.5947
  172MPD1    C5 2623   0.941   0.377   0.625  0.1338  0.0929  0.2851
  172MPD1     H 2624   0.675   0.631   0.556  0.4915  0.1941 -1.9598
  172MPD1    H1 2625   1.037   0.428   0.449 -0.7631 -2.1251 -0.6394
  172MPD1    H2 2626   0.844   0.320   0.794  0.8343  0.1206  0.4656
  172MPD1    H3 2627   1.003   0.292   0.652 -1.7080 -1.1827  0.4761
  172MPD1     N 2628   0.861   0.626   0.374 -0.3287  0.0832  0.1369
  172MPD1    H5 2629   0.952   0.625   0.330  0.3614  1.1152  1.5667
  172MPD1    N1 2630   0.620   0.459   0.763 -0.1172 -0.5726 -0.0423
  172MPD1    H6 2631   0.633   0.434   0.861  1.7893 -3.0101 -0.9145
  172MPD1    H7 2632   0.559   0.540   0.757  0.8221  0.2447  1.2695
  173MPD1     C 2633   2.806   0.224  13.209  0.0451  0.4934  0.6449
  173MPD1    C1 2634   2.855   0.113  13.263  0.1778  0.1742  0.2980
  173MPD1    C2 2635   2.855   0.099  13.404 -0.4584 -0.4576 -0.1350
  173MPD1    C3 2636   2.823   0.198  13.490  0.0735 -0.4121  0.0519
  173MPD1    C4 2637   2.795   0.318  13.438 -0.7513  0.1165  0.1474
  173MPD1    C5 2638   2.788   0.334  13.295 -0.3972 -0.6319 -0.0706
  173MPD1     H 2639   2.873   4.717  13.440 -0.0588 -0.4116 -0.1968
  173MPD1    H1 2640   2.793   0.404  13.504 -1.0321  0.8931 -0.8665
  173MPD1    H2 2641   2.809   0.241  13.102  0.8744 -0.8128  0.4525
  173MPD1    H3 2642   2.773   0.434  13.257 -0.8015 -0.5306  0.3597
  173MPD1     N 2643   2.832   0.166  13.630  0.8112  0.0894 -0.3521
  173MPD1    H5 2644   2.878   0.077  13.646 -0.6365 -0.6220 -0.0880
  173MPD1    N1 2645   2.885   0.000  13.189 -0.0827  0.2425  0.1121
  173MPD1    H6 2646   2.941   4.640  13.220 -1.3196  0.0657  1.9198
  173MPD1    H7 2647   2.922   0.028  13.098 -3.1324  2.0827 -0.5673
  174MPD1     C 2648   3.262   4.271  14.028 -0.3378 -0.1068 -0.1724
  174MPD1    C1 2649   3.160   4.279  14.114  0.6446  0.0765  0.2878
  174MPD1    C2 2650   3.069   4.382  14.093  0.0493  0.5308  0.1318
  174MPD1    C3 2651   3.081   4.471  13.991  0.2553  0.3197 -0.1257
  174MPD1    C4 2652   3.179   4.457  13.898  0.2264 -0.0309 -0.4608
  174MPD1    C5 2653   3.267   4.349  13.914 -0.1621 -0.4839 -0.0526
  174MPD1     H 2654   2.983   4.386  14.160  0.6462 -0.7388  0.9859
  174MPD1    H1 2655   3.177   4.517  13.808 -2.7312  0.8796  0.1777
  174MPD1    H2 2656   3.338   4.194  14.034  0.0710  0.3615  0.7651
  174MPD1    H3 2657   3.347   4.332  13.843  0.2963  1.3633  0.0102
  174MPD1     N 2658   2.992   4.576  13.972  0.2696 -0.3545  0.2859
  174MPD1    H5 2659   2.993   4.629  13.885 -1.9876 -0.6159  0.0945
  174MPD1    N1 2660   3.162   4.206  14.232  0.0338  0.2239  1.0648
  174MPD1    H6 2661   3.191   4.112  14.204 -0.3388 -0.3510  2.6102
  174MPD1    H7 2662   3.061   4.205  14.247 -0.5073  3.6904 -2.3316
  175MPD1     C 2663   0.839   1.250  15.047  0.2575  0.1876  0.5914
  175MPD1    C1 2664   0.919   1.314  15.142 -0.9221  0.3216 -0.5998
  175MPD1    C2 2665   0.896   1.311  15.283 -0.0576  0.6442  0.2646
  175MPD1    C3 2666   0.781   1.245  15.327 -0.4740 -0.1702 -0.1952
  175MPD1    C4 2667   0.692   1.188  15.231  0.2423  0.4081 -0.0238
  175MPD1    C5 2668   0.726   1.184  15.095  0.1897  0.0846  0.5088
  175MPD1     H 2669   0.958   1.370  15.349  0.5176 -2.3862  2.4218
  175MPD1    H1 2670   0.600   1.141  15.264  1.4149 -2.3001 -0.5567
  175MPD1    H2 2671   0.864   1.247  14.942  2.7537 -1.5156  1.2486
  175MPD1    H3 2672   0.654   1.135  15.031  0.0900  1.0798 -0.1361
  175MPD1     N 2673   0.741   1.236  15.461 -0.3276  0.4430 -0.2284
  175MPD1    H5 2674   0.649   1.199  15.483  0.0560 -0.4629 -0.1309
  175MPD1    N1 2675   1.007   1.411  15.087  0.4750  0.2659 -0.6107
  175MPD1    H6 2676   1.038   1.398  14.991 -1.3503 -1.6637 -0.9324
  175MPD1    H7 2677   1.093   1.432  15.136 -0.3320  3.5078 -0.5907
  176MPD1     C 2678   2.350   2.496  17.628 -0.5854 -0.4867  0.0626
  176MPD1    C1 2679   2.409   2.529  17.503 -0.2864 -0.4482  0.4060
  176MPD1    C2 2680   2.409   2.658  17.457  0.1382  0.0580  0.5467
  176MPD1    C3 2681   2.351   2.756  17.532  0.9037  0.0941 -0.3409
  176MPD1    C4 2682   2.310   2.729  17.661 -0.6521  0.7855 -0.3655
  176MPD1    C5 2683   2.319   2.606   0.031 -0.9844  0.1308 -0.1441
  176MPD1     H 2684   2.432   2.687  17.355 -0.4968 -0.0325  0.3756
  176MPD1    H1 2685   2.281   2.807   0.051 -0.3180 -0.7804  1.5456
  176MPD1    H2 2686   2.344   2.395  17.667 -0.4171 -0.2943  0.5761
  176MPD1    H3 2687   2.292   2.579   0.133 -0.7030  1.7063  0.3395
  176MPD1     N 2688   2.339   2.882  17.465  0.4371  0.0664  0.4170
  176MPD1    H5 2689   2.382   2.898  17.374  1.6058  2.2266  1.3518
  176MPD1    N1 2690   2.437   2.432  17.404 -0.1544 -0.1409  0.0967
  176MPD1    H6 2691   2.453   2.334  17.429 -0.3601  0.1796  1.5046
  176MPD1    H7 2692   2.503   2.465  17.334  3.7571 -2.5744  2.6708
  177MPD1     C 2693   1.531   3.722   9.136  0.1428 -0.2149  0.4825
  177MPD1    C1 2694   1.475   3.619   9.207 -0.0645  0.2839 -0.2631
  177MPD1    C2 2695   1.340   3.598   9.194 -0.0500  0.2639 -0.7466
  177MPD1    C3 2696   1.255   3.680   9.113 -0.1362 -0.8256  0.0711
  177MPD1    C4 2697   1.312   3.790   9.059 -0.1075  0.3408 -0.5895
  177MPD1    C5 2698   1.449   3.804   9.061 -0.0021  0.1884 -0.2140
  177MPD1     H 2699   1.297   3.517   9.252  1.7196 -0.2956 -0.2375
  177MPD1    H1 2700   1.263   3.867   9.000  3.4862  0.9013 -2.8260
  177MPD1    H2 2701   1.636   3.742   9.122  0.6376 -2.1815  1.3151
  177MPD1    H3 2702   1.486   3.887   9.002  0.4458 -0.4825 -0.8832
  177MPD1     N 2703   1.121   3.647   9.102  0.3384 -0.0113  0.3251
  177MPD1    H5 2704   1.095   3.554   9.131  0.4685  0.1592  0.9889
  177MPD1    N1 2705   1.561   3.538   9.282 -0.1212 -0.2800  0.4581
  177MPD1    H6 2706   1.518   3.516   9.372 -0.3533 -1.9871 -0.0626
  177MPD1    H7 2707   1.646   3.590   9.299  0.1024 -0.6671  0.5196
  178MPD1     C 2708   2.939   4.025  17.670  0.3567  0.1258  0.7987
  178MPD1    C1 2709   2.856   3.979  17.574 -0.1809  0.1726 -0.4886
  178MPD1    C2 2710   2.905   3.958  17.452 -0.1755 -0.5565 -0.4968
  178MPD1    C3 2711   3.034   4.008  17.418 -0.0377 -0.1326 -0.1703
  178MPD1    C4 2712   3.110   4.069  17.514 -0.7404 -0.1747 -0.7530
  178MPD1    C5 2713   3.062   4.077  17.644 -0.2615  0.5301 -0.1770
  178MPD1     H 2714   2.840   3.908  17.381 -0.1674 -0.3649 -0.6393
  178MPD1    H1 2715   3.205   4.111  17.482 -0.5907 -0.4093 -0.6121
  178MPD1    H2 2716   2.915   4.022   0.097  2.2209  0.0573  1.2178
  178MPD1    H3 2717   3.127   4.125   0.038 -1.0995  1.1564  0.1614
  178MPD1     N 2718   3.092   4.006  17.292  0.5760 -0.1575  0.3343
  178MPD1    H5 2719   3.182   4.051  17.286  0.4549 -0.0748 -1.0469
  178MPD1    N1 2720   2.730   3.929  17.623  0.2904  0.7373  0.4326
  178MPD1    H6 2721   2.693   4.000   0.007  0.6173 -0.4287  1.9414
  178MPD1    H7 2722   2.658   3.914  17.552  0.0679 -0.8677  1.0204
  179MPD1     C 2723   2.670   2.623  15.871 -0.0585 -0.2281  0.2248
  179MPD1    C1 2724   2.762   2.572  15.784  0.0961  0.5929 -0.2468
  179MPD1    C2 2725   2.779   2.428  15.771 -0.1491  0.3444 -0.0116
  179MPD1    C3 2726   2.675   2.346  15.824 -0.5115 -1.1416 -0.3481
  179MPD1    C4 2727   2.578   2.406  15.894  0.7085  0.3074 -0.3577
  179MPD1    C5 2728   2.573   2.543  15.923  0.3059  0.8036  0.6494
  179MPD1     H 2729   2.859   2.393  15.708 -0.5163 -0.8681  0.1882
  179MPD1    H1 2730   2.501   2.349  15.945  0.5803  0.3736 -0.4813
  179MPD1    H2 2731   2.675   2.724  15.909 -0.2052  0.9113 -2.8039
  179MPD1    H3 2732   2.502   2.589  15.991 -3.2672 -1.8812 -1.2855
  179MPD1     N 2733   2.677   2.207  15.802 -0.1387  0.2178 -0.4858
  179MPD1    H5 2734   2.596   2.157  15.835 -0.1792  0.9962  0.6198
  179MPD1    N1 2735   2.870   2.654  15.754  0.0559  0.3764 -0.3942
  179MPD1    H6 2736   2.839   2.750  15.737 -0.8389  0.2405  0.4852
  179MPD1    H7 2737   2.908   2.621  15.665  0.7395 -0.3451  0.1684
  180MPD1     C 2738   2.106   3.769  15.260 -0.4025  0.2283 -0.1114
  180MPD1    C1 2739   2.229   3.821  15.218 -0.6917  0.5712  0.5326
  180MPD1    C2 2740   2.255   3.801  15.086 -0.1299 -0.2215  0.1577
  180MPD1    C3 2741   2.175   3.725  14.999 -0.0190  0.8333 -0.3566
  180MPD1    C4 2742   2.065   3.655  15.056 -0.3295 -0.3104 -0.3942
  180MPD1    C5 2743   2.032   3.687  15.186 -0.3532 -0.0797 -0.0201
  180MPD1     H 2744   2.352   3.837  15.057 -0.4103 -0.0973 -0.6264
  180MPD1    H1 2745   1.987   3.595  15.010 -1.4665  1.2073 -0.4413
  180MPD1    H2 2746   2.073   3.777  15.363 -0.9393 -1.4513 -0.1437
  180MPD1    H3 2747   1.941   3.643  15.226 -0.4430 -0.4645 -0.6555
  180MPD1     N 2748   2.210   3.709  14.863 -0.1703  0.2431 -0.4119
  180MPD1    H5 2749   2.295   3.752  14.829  1.0388 -3.5834 -2.2727
  180MPD1    N1 2750   2.293   3.925  15.294 -0.1698 -0.1067  0.3861
  180MPD1    H6 2751   2.298   3.903  15.394  0.3941 -3.1205 -0.3090
  180MPD1    H7 2752   2.387   3.946  15.260  0.7037 -2.1851  1.4614
  181MPD1     C 2753   4.368   0.608   9.941  0.5402  0.2919  0.5021
  181MPD1    C1 2754   4.357   0.669   9.814  0.7152 -0.1832  0.1002
  181MPD1    C2 2755   4.476   0.718   9.761  0.5538  0.0501 -0.0417
  181MPD1    C3 2756   4.596   0.675   9.815 -0.3115 -0.0686 -0.1155
  181MPD1    C4 2757   4.602   0.594   9.924 -0.0845 -0.5507 -0.0652
  181MPD1    C5 2758   4.491   0.557   9.995  0.4487  0.7368 -0.2131
  181MPD1     H 2759   4.484   0.780   9.672  0.3970 -0.9888 -0.7835
  181MPD1    H1 2760   4.695   0.549   9.958  0.1802  1.6441  2.0789
  181MPD1    H2 2761   4.278   0.581   9.995  1.7524 -1.3973  1.7112
  181MPD1    H3 2762   4.489   0.502  10.089 -1.0477 -1.6815 -1.6637
  181MPD1     N 2763   0.003   0.707   9.756  0.1673 -0.3065 -0.1767
  181MPD1    H5 2764   0.081   0.658   9.799  1.3599  2.2247  0.5295
  181MPD1    N1 2765   4.226   0.698   9.766  0.5738  0.1239 -1.0654
  181MPD1    H6 2766   4.162   0.628   9.803  0.8147  0.7527  0.5131
  181MPD1    H7 2767   4.212   0.697   9.665  0.2035  1.5841 -1.0316
  182MPD1     C 2768   1.035   4.511   1.273 -0.2981 -0.4806 -0.4350
  182MPD1    C1 2769   1.044   4.411   1.175  0.1404  0.0180  0.0022
  182MPD1    C2 2770   0.931   4.358   1.116  0.0242  0.1523 -0.1061
  182MPD1    C3 2771   0.809   4.404   1.157 -0.4446 -0.2028  0.2116
  182MPD1    C4 2772   0.799   4.496   1.258  0.1039 -0.7533  0.4801
  182MPD1    C5 2773   0.914   4.553   1.308  0.3404  0.3098 -0.0971
  182MPD1     H 2774   0.952   4.286   1.037  2.4342  1.1692 -0.3991
  182MPD1    H1 2775   0.705   4.538   1.291  0.2741  1.5867 -2.0095
  182MPD1    H2 2776   1.121   4.560   1.315 -2.3858  1.8862  1.0546
  182MPD1    H3 2777   0.907   4.621   1.392  1.6513  0.0250  0.2364
  182MPD1     N 2778   0.686   4.356   1.099 -0.0941 -0.3966  0.1927
  182MPD1    H5 2779   0.599   4.401   1.128  0.9146  1.1961  0.7529
  182MPD1    N1 2780   1.172   4.389   1.129 -0.1134  0.2770 -0.3765
  182MPD1    H6 2781   1.247   4.413   1.194  0.1181 -1.7919  0.1257
  182MPD1    H7 2782   1.199   4.297   1.096 -1.6224  0.0745 -1.0581
  183MPD1     C 2783   1.786   0.223   8.959  0.1664  0.3340  0.5473
  183MPD1    C1 2784   1.722   0.106   9.002  0.7149  0.2085  0.5133
  183MPD1    C2 2785   1.586   0.124   9.036  0.1555 -0.5374  0.4605
  183MPD1    C3 2786   1.514   0.241   9.021  0.6594 -0.2050  0.3486
  183MPD1    C4 2787   1.579   0.350   8.967 -0.6859  0.1099  0.3635
  183MPD1    C5 2788   1.717   0.342   8.939 -0.1841  0.1123  0.1272
  183MPD1     H 2789   1.533   0.037   9.073 -1.4559 -0.2944 -1.2570
  183MPD1    H1 2790   1.534   0.449   8.976  0.5125  0.3836  3.4508
  183MPD1    H2 2791   1.892   0.231   8.940  0.1030 -0.5963 -0.1880
  183MPD1    H3 2792   1.761   0.434   8.903 -1.2055  0.3358 -0.5558
  183MPD1     N 2793   1.382   0.239   9.076  0.3817 -0.2257  0.2716
  183MPD1    H5 2794   1.366   0.149   9.121 -0.3564  0.7221  1.8992
  183MPD1    N1 2795   1.791   4.710   9.035  0.0043 -0.7904  0.5971
  183MPD1    H6 2796   1.874   4.694   8.978  1.0165 -2.4273  2.5345
  183MPD1    H7 2797   1.740   4.622   9.046 -0.8463 -0.4308 -0.4325
  184MPD1     C 2798   0.950   2.633   9.545 -0.3557 -0.7129 -0.0028
  184MPD1    C1 2799   0.870   2.608   9.434 -0.6453 -0.2277 -0.1536
  184MPD1    C2 2800   0.819   2.715   9.365 -0.7671  0.2070 -0.4107
  184MPD1    C3 2801   0.840   2.842   9.419 -0.1748  0.3683 -0.0923
  184MPD1    C4 2802   0.927   2.868   9.519  0.3063  0.5944  0.2338
  184MPD1    C5 2803   0.988   2.766   9.580  0.6109  0.0736 -0.7855
  184MPD1     H 2804   0.764   2.692   9.274  0.3723 -0.6580 -0.8872
  184MPD1    H1 2805   0.967   2.968   9.531 -0.8640  1.4283 -2.8182
  184MPD1    H2 2806   0.994   2.555   9.606  0.2016 -0.0601  0.4306
  184MPD1    H3 2807   1.075   2.793   9.638 -0.6892 -0.0837  1.2801
  184MPD1     N 2808   0.774   2.964   9.375  0.2345 -0.0645  0.2644
  184MPD1    H5 2809   0.797   3.049   9.426  1.1537 -0.3896  0.3852
  184MPD1    N1 2810   0.851   2.481   9.387  0.0254 -0.3009 -0.9585
  184MPD1    H6 2811   0.761   2.468   9.341 -0.4449 -1.3529  0.2416
  184MPD1    H7 2812   0.880   2.402   9.444  0.9281  0.4416 -0.3835
  185MPD1     C 2813   0.048   3.299   8.734 -0.0660  0.1949 -0.4135
  185MPD1    C1 2814   0.133   3.400   8.770  0.6671 -0.1908 -0.2438
  185MPD1    C2 2815   0.221   3.375   8.868  0.0905  0.0775  0.3352
  185MPD1    C3 2816   0.226   3.256   8.938  0.1528  0.3503 -0.3102
  185MPD1    C4 2817   0.130   3.159   8.908  0.0243 -0.5153  0.1994
  185MPD1    C5 2818   0.047   3.181   8.796 -0.2367  0.0206  1.1944
  185MPD1     H 2819   0.284   3.459   8.894  0.2888 -0.7501  2.5172
  185MPD1    H1 2820   0.122   3.068   8.966  0.1383  1.0369  2.6809
  185MPD1    H2 2821   4.695   3.314   8.654  0.9165  1.9791 -0.9579
  185MPD1    H3 2822   4.700   3.104   8.759  0.7509  0.1271 -0.7437
  185MPD1     N 2823   0.308   3.225   9.042  0.3686  0.3569  0.2916
  185MPD1    H5 2824   0.322   3.128   9.065 -1.7484  0.2435  1.0412
  185MPD1    N1 2825   0.116   3.525   8.713  0.4509  0.3351  0.0942
  185MPD1    H6 2826   0.203   3.577   8.705 -0.8419  2.5205  0.1536
  185MPD1    H7 2827   0.061   3.536   8.628 -0.8568  1.2923  1.0509
  186MPD1     C 2828   3.230   1.874  15.404 -0.0075 -0.1633 -0.7644
  186MPD1    C1 2829   3.338   1.895  15.489 -0.3497 -0.1072  0.3189
  186MPD1    C2 2830   3.328   1.991  15.585  0.3629 -0.2935 -0.2401
  186MPD1    C3 2831   3.200   2.048  15.617  0.6810  0.0026 -0.2864
  186MPD1    C4 2832   3.093   2.028  15.529 -0.4825 -0.2216  0.1162
  186MPD1    C5 2833   3.108   1.941  15.420 -0.0717  0.1556  0.6498
  186MPD1     H 2834   3.416   2.026  15.638 -0.5750  0.2530  0.9493
  186MPD1    H1 2835   2.997   2.078  15.540 -1.9736 -3.3532  1.6489
  186MPD1    H2 2836   3.245   1.817  15.314  0.5195  0.8687 -1.3318
  186MPD1    H3 2837   3.028   1.940  15.347  1.7179  2.8518 -1.3476
  186MPD1     N 2838   3.179   2.144  15.720 -0.2394 -0.0624 -0.6628
  186MPD1    H5 2839   3.081   2.163  15.742 -0.1606 -0.2717 -0.1167
  186MPD1    N1 2840   3.463   1.837  15.459 -0.1897  0.1749  0.4044
  186MPD1    H6 2841   3.506   1.818  15.549  0.0046 -1.8493 -0.1250
  186MPD1    H7 2842   3.454   1.749  15.409  0.3606  0.8779 -0.9458
  187MPD1     C 2843   2.077   0.086   0.569 -0.2380 -0.0773  0.1619
  187MPD1    C1 2844   2.195   0.143   0.528 -0.3614 -0.5519  0.6076
  187MPD1    C2 2845   2.241   0.105   0.403 -0.0122 -0.5717 -0.5340
  187MPD1    C3 2846   2.189   4.711   0.335 -0.5817  0.2104  0.0917
  187MPD1    C4 2847   2.077   4.655   0.388  0.0569  0.1250  0.5298
  187MPD1    C5 2848   2.018   4.709   0.496  0.7224 -0.0385 -0.1486
  187MPD1     H 2849   2.335   0.143   0.365 -0.1011 -1.4051 -1.6142
  187MPD1    H1 2850   2.024   4.577   0.335 -0.1390 -0.8501  2.1798
  187MPD1    H2 2851   2.021   0.132   0.649 -2.5001 -0.2580 -1.3189
  187MPD1    H3 2852   1.922   4.668   0.524  1.3352 -2.1106 -1.1315
  187MPD1     N 2853   2.234   4.663   0.208 -0.3661 -1.0511  0.4147
  187MPD1    H5 2854   2.188   4.580   0.172 -0.7608 -0.5078 -0.3297
  187MPD1    N1 2855   2.240   0.263   0.582 -0.0921  0.6008  0.3842
  187MPD1    H6 2856   2.336   0.287   0.560  0.4171 -0.3341  1.5709
  187MPD1    H7 2857   2.229   0.247   0.682  1.8121  0.0868  0.5192
  188MPD1     C 2858   2.299   4.704  10.347 -0.2360  0.1011 -0.5479
  188MPD1    C1 2859   2.252   4.690  10.215 -0.3143 -0.5702  0.1958
  188MPD1    C2 2860   2.307   4.594  10.134 -0.2142 -0.1688  0.0452
  188MPD1    C3 2861   2.407   4.511  10.177 -0.1794  0.4778  0.2060
  188MPD1    C4 2862   2.457   4.526  10.299 -0.0780  0.0636 -0.0977
  188MPD1    C5 2863   2.396   4.615  10.377 -0.3017  0.5869  0.3113
  188MPD1     H 2864   2.269   4.580  10.033 -0.5421  1.6702 -0.0979
  188MPD1    H1 2865   2.517   4.450  10.348 -0.3364 -1.4412 -2.1397
  188MPD1    H2 2866   2.252   0.044  10.425 -0.2332 -1.3943  0.5988
  188MPD1    H3 2867   2.418   4.619  10.483  0.3895  1.5139  0.1328
  188MPD1     N 2868   2.458   4.407  10.100  0.6111 -0.5603 -0.0309
  188MPD1    H5 2869   2.531   4.353  10.145 -0.0564 -2.2517 -0.9738
  188MPD1    N1 2870   2.138   0.047  10.175 -0.4632  0.3680  0.2277
  188MPD1    H6 2871   2.161   0.092  10.087 -1.3990 -0.6946 -0.5607
  188MPD1    H7 2872   2.125   0.122  10.244 -0.9365  1.2299 -0.7913
  189MPD1     C 2873   3.372   0.260   0.753  0.0277  0.8331 -0.3789
  189MPD1    C1 2874   3.243   0.253   0.713  0.8526 -0.3775  0.6448
  189MPD1    C2 2875   3.207   0.341   0.611 -0.3016  0.6783  0.2363
  189MPD1    C3 2876   3.294   0.438   0.567 -0.2446  0.1660 -0.6216
  189MPD1    C4 2877   3.416   0.459   0.623  0.0089  0.4166  0.1661
  189MPD1    C5 2878   3.453   0.365   0.714 -0.4003  0.0271 -0.0439
  189MPD1     H 2879   3.109   0.327   0.565  0.7163  3.2982 -2.7402
  189MPD1    H1 2880   3.476   0.545   0.597 -0.3869  1.0751  1.4373
  189MPD1    H2 2881   3.410   0.190   0.827  0.6809  0.0763 -1.4071
  189MPD1    H3 2882   3.550   0.379   0.761 -0.3624 -0.2350 -0.0469
  189MPD1     N 2883   3.246   0.517   0.456  0.1676  0.1993  0.2074
  189MPD1    H5 2884   3.163   0.479   0.411 -0.3668  1.8291 -0.1623
  189MPD1    N1 2885   3.169   0.145   0.752  0.2114  0.4959  0.1251
  189MPD1    H6 2886   3.204   0.113   0.842  0.8536  0.1761 -0.2405
  189MPD1    H7 2887   3.068   0.155   0.758  0.2218 -0.0340  1.2301
  190MPD1     C 2888   2.309   3.191  15.878 -0.4342  0.4422  0.0478
  190MPD1    C1 2889   2.368   3.263  15.981 -0.5752 -0.2313  0.2597
  190MPD1    C2 2890   2.481   3.335  15.948  0.8022  0.2975  0.4798
  190MPD1    C3 2891   2.529   3.349  15.822  0.1281 -0.0454  0.2422
  190MPD1    C4 2892   2.459   3.288  15.716  0.0921  0.6224  0.0065
  190MPD1    C5 2893   2.355   3.206  15.745  0.4654  0.3296 -0.0854
  190MPD1     H 2894   2.536   3.385  16.027  1.0897  1.0725 -0.2228
  190MPD1    H1 2895   2.484   3.304  15.612 -0.3909 -2.5561 -0.6039
  190MPD1    H2 2896   2.214   3.140  15.890 -1.6444  1.8443 -3.3809
  190MPD1    H3 2897   2.292   3.172  15.664 -1.1458  1.4031  0.7032
  190MPD1     N 2898   2.649   3.411  15.812 -0.6716 -0.4952 -1.3415
  190MPD1    H5 2899   2.683   3.462  15.893 -1.5248 -1.5282 -0.3402
  190MPD1    N1 2900   2.329   3.242  16.113 -0.1579  0.0242  0.1580
  190MPD1    H6 2901   2.228   3.232  16.108 -0.1895  0.6954 -0.5761
  190MPD1    H7 2902   2.359   3.320  16.171 -3.2313  0.0676  1.6962
  191MPD1     C 2903   1.609   0.936  12.984 -0.7586 -0.0684 -0.0460
  191MPD1    C1 2904   1.546   1.037  12.912  0.0015 -0.1545  0.1587
  191MPD1    C2 2905   1.616   1.102  12.823  0.3141 -0.5677  0.0645
  191MPD1    C3 2906   1.745   1.075  12.785 -1.2495  0.4331 -0.2345
  191MPD1    C4 2907   1.813   0.980  12.864 -0.1346 -0.1339 -0.5820
  191MPD1    C5 2908   1.741   0.916  12.965  0.0171  0.9409  0.1743
  191MPD1     H 2909   1.570   1.188  12.775  0.7409 -1.4795 -1.9696
  191MPD1    H1 2910   1.914   0.950  12.841 -0.2158 -1.1475  0.4237
  191MPD1    H2 2911   1.556   0.877  13.058 -1.9998  1.2742  0.1422
  191MPD1    H3 2912   1.779   0.826  13.012  0.3639  1.0160  0.0414
  191MPD1     N 2913   1.803   1.147  12.679 -0.7116  0.1577 -0.3820
  191MPD1    H5 2914   1.744   1.218  12.639  0.2216  0.8948 -0.4389
  191MPD1    N1 2915   1.406   1.067  12.930 -0.9837  0.4282  0.3934
  191MPD1    H6 2916   1.346   0.993  12.963  2.6855 -1.3286  3.1473
  191MPD1    H7 2917   1.361   1.133  12.867 -2.3261  0.7077  1.6342
  192MPD1     C 2918   1.427   1.870  12.557 -0.0317  0.2396 -0.2579
  192MPD1    C1 2919   1.445   1.824  12.432  0.1997  0.8473 -0.1098
  192MPD1    C2 2920   1.538   1.722  12.413  0.1443  0.2810  0.2038
  192MPD1    C3 2921   1.621   1.685  12.520 -0.1461  0.4175  0.2804
  192MPD1    C4 2922   1.602   1.738  12.642 -0.2530 -0.1183  0.1943
  192MPD1    C5 2923   1.511   1.836  12.654 -0.6101 -0.0502  0.2707
  192MPD1     H 2924   1.553   1.674  12.317  0.6809  1.0181 -0.0907
  192MPD1    H1 2925   1.667   1.723  12.727 -0.4556 -0.8625  0.2131
  192MPD1    H2 2926   1.362   1.951  12.590  2.6519  1.4668  2.0008
  192MPD1    H3 2927   1.492   1.888  12.748 -0.0559 -1.7314  1.3101
  192MPD1     N 2928   1.723   1.589  12.507  0.1609 -0.1946 -0.2909
  192MPD1    H5 2929   1.774   1.565  12.592  0.6282 -0.2890 -0.5941
  192MPD1    N1 2930   1.367   1.877  12.329  0.1143  0.3314 -0.1699
  192MPD1    H6 2931   1.275   1.879  12.373  1.0301 -3.3016  1.8547
  192MPD1    H7 2932   1.357   1.814  12.250 -0.6309  1.7083 -1.1691
  193MPD1     C 2933   1.771   0.263  16.349 -0.5365  0.1899 -0.8181
  193MPD1    C1 2934   1.869   0.228  16.435  0.1582  0.5792 -0.7803
  193MPD1    C2 2935   1.956   0.324  16.461 -0.1917  1.1509  0.4910
  193MPD1    C3 2936   1.957   0.447  16.399 -0.0155 -0.5192  0.0324
  193MPD1    C4 2937   1.871   0.472  16.297  0.0633 -0.6660  0.1624
  193MPD1    C5 2938   1.768   0.385  16.285 -0.2225  0.4455  0.2591
  193MPD1     H 2939   2.021   0.301  16.544  2.5452 -0.1550 -1.9808
  193MPD1    H1 2940   1.872   0.568  16.247  2.5076  1.5646  4.4125
  193MPD1    H2 2941   1.691   0.192  16.333 -1.9424  1.3507  1.0969
  193MPD1    H3 2942   1.683   0.411  16.222  1.1309  1.9363 -0.9279
  193MPD1     N 2943   2.057   0.543  16.425 -1.0358  0.2603  0.5487
  193MPD1    H5 2944   2.037   0.639  16.400  0.7108  0.6323  0.5546
  193MPD1    N1 2945   1.848   0.118  16.522 -0.2430  0.2012  0.0364
  193MPD1    H6 2946   1.805   0.043  16.468  2.5280 -0.9011 -0.6387
  193MPD1    H7 2947   1.934   0.074  16.553  0.9704  1.8938 -0.8532
  194MPD1     C 2948   4.236   3.062  17.044 -0.5242  0.3140 -0.1894
  194MPD1    C1 2949   4.305   3.017  17.155  0.1636 -0.0092  0.7861
  194MPD1    C2 2950   4.304   2.883  17.174 -0.1946  0.6522 -0.3346
  194MPD1    C3 2951   4.233   2.791  17.092 -0.1380  0.3746 -0.2769
  194MPD1    C4 2952   4.165   2.847  16.988 -0.2062  0.5737 -0.3015
  194MPD1    C5 2953   4.165   2.976  16.962  0.4200 -0.0250 -0.4542
  194MPD1     H 2954   4.379   2.842  17.240 -1.2550  0.3924  0.7093
  194MPD1    H1 2955   4.110   2.785  16.919 -0.9470 -2.2387  2.8372
  194MPD1    H2 2956   4.244   3.164  17.007 -0.9519  1.4702  2.8278
  194MPD1    H3 2957   4.123   3.009  16.868  2.3483  0.9041 -0.9985
  194MPD1     N 2958   4.253   2.649  17.099  0.3570  0.1803  0.7964
  194MPD1    H5 2959   4.202   2.590  17.034 -1.9770  0.5927  2.2371
  194MPD1    N1 2960   4.401   3.100  17.212 -0.3681 -0.0823  0.2065
  194MPD1    H6 2961   4.380   3.199  17.213  0.6464  0.1307  0.6701
  194MPD1    H7 2962   4.417   3.071  17.309 -0.5836  0.9443  0.5416
  195MPD1     C 2963   1.577   4.161   1.004 -0.5111  0.2429 -0.4942
  195MPD1    C1 2964   1.542   4.039   1.052 -0.1860 -0.4063  1.0908
  195MPD1    C2 2965   1.536   3.928   0.961 -0.0726 -0.1616 -0.3431
  195MPD1    C3 2966   1.552   3.945   0.824 -0.6831 -0.5525  0.0562
  195MPD1    C4 2967   1.581   4.071   0.785  0.6069 -0.8185  0.6811
  195MPD1    C5 2968   1.584   4.181   0.867 -0.3515 -0.2860 -0.0426
  195MPD1     H 2969   1.505   3.828   0.990  1.1078 -0.7877 -1.2170
  195MPD1    H1 2970   1.580   4.089   0.678  0.4640 -1.5388  0.5610
  195MPD1    H2 2971   1.561   4.245   1.070  0.9432  0.4234 -0.3724
  195MPD1    H3 2972   1.597   4.278   0.822  0.7401  0.0376  0.9778
  195MPD1     N 2973   1.548   3.847   0.720  0.0416 -0.7732  0.0624
  195MPD1    H5 2974   1.574   3.862   0.623  0.5259  1.3886  0.5201
  195MPD1    N1 2975   1.487   4.031   1.184 -0.2553 -0.2038 -0.2880
  195MPD1    H6 2976   1.498   3.939   1.225  0.7907  0.0639  0.0364
  195MPD1    H7 2977   1.531   4.095   1.251 -0.5011  1.6781 -1.9239
  196MPD1     C 2978   1.998   3.545   0.506 -0.5823 -0.2102 -0.3821
  196MPD1    C1 2979   2.011   3.664   0.435  0.0172  0.1857  0.1047
  196MPD1    C2 2980   1.994   3.783   0.503 -0.4617  0.5293 -0.1642
  196MPD1    C3 2981   1.961   3.780   0.638  0.1850 -0.3855  0.2710
  196MPD1    C4 2982   1.944   3.662   0.701  0.2429  0.1306 -0.5156
  196MPD1    C5 2983   1.976   3.545   0.639 -0.5982  0.2578 -0.9972
  196MPD1     H 2984   2.002   3.877   0.448 -1.0714  1.7276  1.8232
  196MPD1    H1 2985   1.899   3.655   0.799  0.6921  0.1709 -0.3060
  196MPD1    H2 2986   2.000   3.448   0.458 -1.0386  0.3917 -1.6281
  196MPD1    H3 2987   1.976   3.447   0.686  1.3128  0.1507 -1.2224
  196MPD1     N 2988   1.943   3.896   0.721 -0.2719  0.6259 -0.0140
  196MPD1    H5 2989   1.923   3.881   0.820 -0.8016  0.4502 -0.1447
  196MPD1    N1 2990   2.049   3.662   0.300 -0.0653 -0.1247  0.0199
  196MPD1    H6 2991   1.998   3.600   0.237 -1.9339  0.2653  1.1430
  196MPD1    H7 2992   2.040   3.755   0.260  4.0401  1.0779  1.9210
  197MPD1     C 2993   4.568   1.671  17.312  0.0189  0.2045 -0.0709
  197MPD1    C1 2994   4.558   1.802  17.328  0.6763 -0.2296  0.0455
  197MPD1    C2 2995   4.626   1.891  17.246 -0.1470 -0.0165 -0.2590
  197MPD1    C3 2996   4.694   1.840  17.132 -0.3931  0.5286  0.2434
  197MPD1    C4 2997   4.684   1.705  17.110 -0.1560 -0.2741 -0.1390
  197MPD1    C5 2998   4.625   1.620  17.203  0.5130  0.0210 -0.8540
  197MPD1     H 2999   4.625   1.997  17.271  1.0599 -0.6835  2.6054
  197MPD1    H1 3000   0.020   1.662  17.027  0.6808  0.4401  0.0469
  197MPD1    H2 3001   4.529   1.612  17.394  1.2214 -0.1100  0.2719
  197MPD1    H3 3002   4.644   1.514  17.192 -0.1532 -0.2830  0.9924
  197MPD1     N 3003   0.046   1.925  17.043  0.4280  0.2555 -0.2537
  197MPD1    H5 3004   0.098   1.885  16.966 -2.1788 -3.3530 -0.1247
  197MPD1    N1 3005   4.487   1.850  17.438 -0.4768  0.3207  0.5137
  197MPD1    H6 3006   4.428   1.932  17.432 -1.3526 -0.2724  0.9753
  197MPD1    H7 3007   4.435   1.776  17.485 -1.6006  1.0790  0.4432
  198MPD1     C 3008   2.217   0.272  15.612 -0.3177 -0.3262 -0.1594
  198MPD1    C1 3009   2.301   0.257  15.717 -0.0663  0.5189  0.3069
  198MPD1    C2 3010   2.406   0.164  15.702  0.3276 -0.5315 -0.0163
  198MPD1    C3 3011   2.412   0.081  15.590  0.2592 -0.2050 -0.5388
  198MPD1    C4 3012   2.321   0.093  15.496 -0.3733 -1.4607 -0.5043
  198MPD1    C5 3013   2.218   0.181  15.510  0.5182  0.1155 -0.5668
  198MPD1     H 3014   2.482   0.155  15.778  0.6156  0.2209 -0.2100
  198MPD1    H1 3015   2.299   0.024  15.415  1.3837 -1.7564 -0.7409
  198MPD1    H2 3016   2.137   0.345  15.613 -0.3111 -0.2985 -2.3589
  198MPD1    H3 3017   2.138   0.179  15.437  0.5766  1.7348 -0.6716
  198MPD1     N 3018   2.512   4.699  15.588  0.2065  0.0417  0.4261
  198MPD1    H5 3019   2.569   4.698  15.672  1.2278  0.9315 -0.2662
  198MPD1    N1 3020   2.291   0.345  15.825 -0.1178  0.2071 -0.3689
  198MPD1    H6 3021   2.341   0.306  15.906 -0.3353  0.4383 -0.1253
  198MPD1    H7 3022   2.192   0.363  15.837 -0.5236 -1.5040 -1.1421
  199MPD1     C 3023   0.314   0.273   9.421  0.2555 -0.1915 -0.7845
  199MPD1    C1 3024   0.184   0.301   9.427  0.2255 -0.4410  0.3131
  199MPD1    C2 3025   0.140   0.425   9.369  0.5956  0.6426 -0.1677
  199MPD1    C3 3026   0.227   0.509   9.292  0.4281  0.2537  0.2112
  199MPD1    C4 3027   0.359   0.471   9.283 -0.7507  0.7528  0.1108
  199MPD1    C5 3028   0.398   0.352   9.342  0.3550 -0.0611 -0.2951
  199MPD1     H 3029   0.038   0.458   9.388  0.2965 -1.2237  1.3485
  199MPD1    H1 3030   0.436   0.523   9.227 -1.3467  0.4299 -0.9946
  199MPD1    H2 3031   0.352   0.185   9.473  0.6580 -0.2001 -1.0954
  199MPD1    H3 3032   0.500   0.322   9.320 -0.4735 -0.8658 -3.0465
  199MPD1     N 3033   0.189   0.640   9.238 -0.0320  0.1651  0.2661
  199MPD1    H5 3034   0.259   0.705   9.204  0.8678  0.6711  3.1081
  199MPD1    N1 3035   0.092   0.221   9.501 -0.2045  0.0535  0.7966
  199MPD1    H6 3036   4.719   0.226   9.458  0.5890 -0.8365 -1.0379
  199MPD1    H7 3037   0.117   0.123   9.491 -1.0025 -0.3752  3.1997
  200MPD1     C 3038   4.349   0.863  14.806 -0.1269  0.0430 -0.5735
  200MPD1    C1 3039   4.451   0.891  14.725  0.5918  0.4174 -0.8760
  200MPD1    C2 3040   4.430   0.901  14.586  0.2661  0.0261  0.0294
  200MPD1    C3 3041   4.304   0.884  14.529 -0.4626 -0.4217  0.6177
  200MPD1    C4 3042   4.204   0.852  14.616 -0.4517  0.5796  0.0374
  200MPD1    C5 3043   4.225   0.833  14.750 -0.3683 -0.2071  0.0591
  200MPD1     H 3044   4.508   0.931  14.516 -0.2439 -1.2792 -1.1097
  200MPD1    H1 3045   4.104   0.822  14.584  0.1968 -0.6775 -0.8364
  200MPD1    H2 3046   4.361   0.851  14.913 -2.1143 -1.1408 -0.4720
  200MPD1    H3 3047   4.142   0.808  14.816 -1.4126  4.2306  0.4137
  200MPD1     N 3048   4.282   0.903  14.393 -0.4160 -0.2259 -0.0210
  200MPD1    H5 3049   4.361   0.933  14.338 -0.3779 -0.4087 -0.0657
  200MPD1    N1 3050   4.564   0.946  14.780  0.5798  0.3369  0.2057
  200MPD1    H6 3051   4.574   0.924  14.879 -1.0504 -0.0015  0.2987
  200MPD1    H7 3052   4.646   0.925  14.724  1.1155 -0.5962  1.3233
  201MPD1     C 3053   1.253   0.204  12.825  0.4906 -0.1249 -0.2051
  201MPD1    C1 3054   1.320   0.231  12.935 -0.0653 -0.1576  0.3787
  201MPD1    C2 3055   1.343   0.134  13.035 -0.6627 -0.4574  0.4335
  201MPD1    C3 3056   1.260   0.021  13.032 -0.0047  0.2420 -0.5257
  201MPD1    C4 3057   1.178   0.004  12.919 -0.1016  0.5965  0.6337
  201MPD1    C5 3058   1.185   0.089  12.815  0.6663 -0.1370  0.3969
  201MPD1     H 3059   1.398   0.161  13.124  1.2102  0.1352 -0.9140
  201MPD1    H1 3060   1.099   4.650  12.906 -0.2589  1.2620 -2.0977
  201MPD1    H2 3061   1.248   0.275  12.743  3.1317  0.1432 -0.1611
  201MPD1    H3 3062   1.135   0.061  12.723 -0.2564 -0.0846  0.8835
  201MPD1     N 3063   1.276   4.643  13.127 -0.4581 -0.2235  0.4918
  201MPD1    H5 3064   1.355   4.648  13.191 -0.4934  2.1836  0.3553
  201MPD1    N1 3065   1.404   0.343  12.950  0.6321  0.3911 -0.2439
  201MPD1    H6 3066   1.425   0.370  13.046 -1.0326 -1.3521  0.6216
  201MPD1    H7 3067   1.372   0.422  12.894 -0.6201 -0.3851 -0.6304
  202MPD1     C 3068   2.086   4.327   9.007  0.0168  0.7026  0.6106
  202MPD1    C1 3069   1.959   4.377   9.029 -0.2625  0.1364 -0.7306
  202MPD1    C2 3070   1.930   4.403   9.165  0.0736  0.3216  0.0796
  202MPD1    C3 3071   2.022   4.369   9.264 -0.0453 -0.2601 -0.1502
  202MPD1    C4 3072   2.147   4.325   9.235 -0.2801 -0.5177  0.3230
  202MPD1    C5 3073   2.177   4.302   9.103 -0.1463  0.2558 -0.0105
  202MPD1     H 3074   1.832   4.439   9.193  0.2996  2.1108 -1.4411
  202MPD1    H1 3075   2.221   4.300   9.310 -0.1852  2.9418  1.3734
  202MPD1    H2 3076   2.129   4.295   8.913 -0.9661  0.6113  0.1905
  202MPD1    H3 3077   2.276   4.260   9.089  0.6063  1.4094  1.7257
  202MPD1     N 3078   1.994   4.371   9.398  0.0963 -0.6047  0.2237
  202MPD1    H5 3079   2.063   4.336   9.465 -0.6898 -0.9829  0.8399
  202MPD1    N1 3080   1.887   4.421   8.922 -0.0306 -0.3808 -0.6340
  202MPD1    H6 3081   1.786   4.428   8.933 -0.1109  2.0000 -2.5778
  202MPD1    H7 3082   1.909   4.385   8.829  0.2238 -0.4610 -0.5421
  203MPD1     C 3083   0.055   0.967  12.228 -0.1044 -0.5673 -0.4508
  203MPD1    C1 3084   0.102   0.913  12.115 -0.2984  0.0144  0.2738
  203MPD1    C2 3085   0.140   0.784  12.118 -0.5430  0.3457 -0.3635
  203MPD1    C3 3086   0.149   0.707  12.234  0.7584 -0.2976  0.1283
  203MPD1    C4 3087   0.097   0.764  12.346 -0.1620  0.2883  0.2809
  203MPD1    C5 3088   0.052   0.892  12.342  0.2848  0.2134 -0.1469
  203MPD1     H 3089   0.176   0.739  12.026  0.8962  1.2310 -0.2334
  203MPD1    H1 3090   0.097   0.713  12.441 -0.1963 -1.2511 -0.5388
  203MPD1    H2 3091   0.022   1.070  12.239  0.0775 -0.5742  0.1605
  203MPD1    H3 3092   0.018   0.938  12.434 -0.5124 -1.7586  0.5422
  203MPD1     N 3093   0.220   0.590  12.231 -0.7171 -0.1813  0.6727
  203MPD1    H5 3094   0.266   0.567  12.144 -0.0913 -0.4131  1.0646
  203MPD1    N1 3095   0.090   0.988  11.993 -0.3830  0.4106 -0.3066
  203MPD1    H6 3096   0.087   1.088  12.010 -0.2034 -0.1867  3.1052
  203MPD1    H7 3097   0.171   0.971  11.933 -1.5380  0.8374 -1.9916
  204MPD1     C 3098   4.213   1.188   0.171 -0.0255 -0.9470  0.0263
  204MPD1    C1 3099   4.180   1.253   0.053  0.3663  0.2537 -1.0478
  204MPD1    C2 3100   4.071   1.214  17.652 -0.2677 -0.4547  0.1662
  204MPD1    C3 3101   3.993   1.112   0.005 -0.0425  0.0261  0.6017
  204MPD1    C4 3102   4.027   1.048   0.129 -0.0360  0.0199 -0.5347
  204MPD1    C5 3103   4.134   1.081   0.208 -0.6098  0.1469  0.1427
  204MPD1     H 3104   4.053   1.277  17.566 -2.4724 -0.5818  0.5402
  204MPD1    H1 3105   3.972   0.963   0.165 -2.5048  1.4778 -0.8756
  204MPD1    H2 3106   4.300   1.213   0.231 -1.7710 -0.0511  2.1990
  204MPD1    H3 3107   4.168   1.018   0.289  0.4819  0.8058  0.1973
  204MPD1     N 3108   3.896   1.070  17.596  0.3459  0.2203 -0.2915
  204MPD1    H5 3109   3.900   1.107  17.501 -3.3073 -1.1057 -0.9620
  204MPD1    N1 3110   4.259   1.363   0.007 -0.4463 -0.2823 -0.0635
  204MPD1    H6 3111   4.204   1.430  17.632  0.0280  0.1900  0.0454
  204MPD1    H7 3112   4.298   1.408   0.090  0.8921  1.0074 -1.3849
  205MPD1     C 3113   0.166   0.179   0.658 -0.3571 -0.8755 -0.2943
  205MPD1    C1 3114   0.227   0.143   0.540  0.9126  0.4738  0.3084
  205MPD1    C2 3115   0.153   0.140   0.424  0.1272  0.8048  0.4451
  205MPD1    C3 3116   0.022   0.151   0.428 -0.8038  0.0227 -0.0498
  205MPD1    C4 3117   4.680   0.187   0.545  0.2689 -0.3490 -0.0659
  205MPD1    C5 3118   0.033   0.208   0.659 -0.2954 -0.2034 -0.2532
  205MPD1     H 3119   0.202   0.110   0.333 -2.7878 -0.4483 -0.6803
  205MPD1    H1 3120   4.577   0.222   0.548  1.1048  2.0712  0.3643
  205MPD1    H2 3121   0.224   0.203   0.747 -1.1218 -0.5263  0.1088
  205MPD1    H3 3122   4.702   0.234   0.751 -0.6266 -2.3374  0.1644
  205MPD1     N 3123   4.655   0.136   0.309  0.5895  0.3681  0.0522
  205MPD1    H5 3124   4.556   0.156   0.324  0.1500 -1.7884 -0.0714
  205MPD1    N1 3125   0.363   0.158   0.517 -0.0733 -0.1345  0.3956
  205MPD1    H6 3126   0.418   0.153   0.602  0.6236  0.6110 -0.0023
  205MPD1    H7 3127   0.404   0.107   0.439  0.0811 -1.7318  1.5263
  206MPD1     C 3128   3.901   3.532  16.467  0.5320 -0.1572  0.2642
  206MPD1    C1 3129   3.942   3.410  16.510 -0.3473 -0.3546 -0.5205
  206MPD1    C2 3130   4.040   3.332  16.442 -0.7469  0.2616  0.2466
  206MPD1    C3 3131   4.106   3.388  16.333 -0.3363  0.2739  0.8886
  206MPD1    C4 3132   4.075   3.520  16.304  0.0351 -0.9535  0.0511
  206MPD1    C5 3133   3.981   3.592  16.373  0.1669 -0.5688  0.0424
  206MPD1     H 3134   4.065   3.229  16.465  2.4653  0.7920 -0.9013
  206MPD1    H1 3135   4.125   3.571  16.223 -0.8111  0.2830  0.2962
  206MPD1    H2 3136   3.816   3.579  16.515  0.9187 -1.6583  2.4304
  206MPD1    H3 3137   3.966   3.699  16.363  0.4328 -0.6027 -0.6883
  206MPD1     N 3138   4.204   3.324  16.247 -0.3909  0.2692  0.1145
  206MPD1    H5 3139   4.248   3.383  16.177 -1.6037 -0.2459 -1.1024
  206MPD1    N1 3140   3.895   3.359  16.632 -0.2129  0.0560 -0.0448
  206MPD1    H6 3141   3.880   3.258  16.635  0.2168  0.0220  1.1276
  206MPD1    H7 3142   3.806   3.400  16.661  0.5116  2.2223 -0.8804
  207MPD1     C 3143   2.062   1.358   9.272 -0.0966  0.3017  0.7200
  207MPD1    C1 3144   2.079   1.229   9.314  0.1527  0.5287  0.0431
  207MPD1    C2 3145   2.197   1.189   9.385  0.4276  0.3848  0.2525
  207MPD1    C3 3146   2.285   1.292   9.415  0.4113  0.2453  0.0505
  207MPD1    C4 3147   2.269   1.417   9.369 -0.3940 -0.0455 -0.0475
  207MPD1    C5 3148   2.154   1.454   9.304 -0.0786 -0.1229 -0.3774
  207MPD1     H 3149   2.207   1.085   9.413 -1.0206  0.0260 -0.5531
  207MPD1    H1 3150   2.340   1.495   9.391 -1.7694  1.3336 -0.4687
  207MPD1    H2 3151   1.981   1.387   9.207  0.2313 -0.7003 -0.1474
  207MPD1    H3 3152   2.131   1.559   9.289  2.7101  0.8282  1.8453
  207MPD1     N 3153   2.395   1.252   9.491  0.2320  0.0738 -0.1535
  207MPD1    H5 3154   2.392   1.154   9.518  0.9965  0.5342  1.5772
  207MPD1    N1 3155   1.989   1.127   9.273 -0.8827  0.1476 -0.7831
  207MPD1    H6 3156   1.894   1.155   9.249 -2.3995 -1.8830  2.8901
  207MPD1    H7 3157   1.992   1.045   9.334 -3.3773  0.6970  0.0907
  208MPD1     C 3158   0.068   2.983  17.648 -0.3402  0.5413  0.5859
  208MPD1    C1 3159   0.098   3.041   0.091  0.7658 -0.2321  0.3485
  208MPD1    C2 3160   0.141   3.175   0.100 -0.0960  0.0664 -0.3266
  208MPD1    C3 3161   0.168   3.241  17.661  0.6579  0.2648  0.6622
  208MPD1    C4 3162   0.160   3.174  17.539  0.5550 -0.4318 -0.1419
  208MPD1    C5 3163   0.098   3.053  17.534 -0.0956 -0.3878  0.2046
  208MPD1     H 3164   0.157   3.224   0.195  0.4734 -1.1187  0.1950
  208MPD1    H1 3165   0.182   3.226  17.447  0.2971 -1.3050 -0.6910
  208MPD1    H2 3166   0.027   2.883  17.643 -0.6800  0.7874 -1.9393
  208MPD1    H3 3167   0.087   3.020  17.432 -1.7102  0.1178  0.2030
  208MPD1     N 3168   0.192   3.376  17.670 -0.2547 -0.0644  0.2042
  208MPD1    H5 3169   0.189   3.418   0.084 -0.5511 -3.1740  1.5856
  208MPD1    N1 3170   0.040   2.971   0.202 -0.7010 -0.3082 -0.4360
  208MPD1    H6 3171   0.047   2.869   0.195  1.2136 -0.2113  0.1973
  208MPD1    H7 3172   0.098   2.996   0.281 -1.2618 -0.4368  0.0127
  209MPD1     C 3173   1.537   0.581  10.642 -0.1893 -0.0630  0.7418
  209MPD1    C1 3174   1.592   0.579  10.515 -0.1845  0.2447  0.0382
  209MPD1    C2 3175   1.728   0.579  10.506  0.1496  0.6458  0.4150
  209MPD1    C3 3176   1.812   0.584  10.624 -0.2113 -0.3492  0.1627
  209MPD1    C4 3177   1.745   0.589  10.750  0.0552 -0.2528  0.0200
  209MPD1    C5 3178   1.606   0.594  10.757 -0.0505 -0.1204  0.1956
  209MPD1     H 3179   1.773   0.556  10.410 -0.3595 -1.9938  0.8103
  209MPD1    H1 3180   1.798   0.588  10.844 -0.1244  1.0261  0.1417
  209MPD1    H2 3181   1.429   0.584  10.659 -0.4311 -1.8809 -0.5456
  209MPD1    H3 3182   1.556   0.598  10.853 -0.1940  0.6384  0.0824
  209MPD1     N 3183   1.953   0.584  10.609  0.1372 -0.7511  0.6063
  209MPD1    H5 3184   1.988   0.597  10.515 -0.8015 -0.8923  0.2423
  209MPD1    N1 3185   1.519   0.545  10.401  0.3415  0.1245 -0.2250
  209MPD1    H6 3186   1.563   0.590  10.322 -0.4911 -0.7334 -1.1822
  209MPD1    H7 3187   1.424   0.577  10.418  0.5361  1.0364 -0.8802
  210MPD1     C 3188   3.022   0.614  10.950 -0.4321  0.9061  0.2002
  210MPD1    C1 3189   2.912   0.561  11.006 -0.3192  0.6608  0.2523
  210MPD1    C2 3190   2.791   0.562  10.946 -0.3228 -0.2048 -0.5500
  210MPD1    C3 3191   2.771   0.624  10.824  0.7177 -0.2470  0.9253
  210MPD1    C4 3192   2.888   0.677  10.767 -0.2886 -0.5363 -0.4461
  210MPD1    C5 3193   3.003   0.677  10.835 -0.5891  0.2056 -0.0178
  210MPD1     H 3194   2.711   0.507  10.995 -0.7280  0.4268 -0.4982
  210MPD1    H1 3195   2.885   0.721  10.668  1.3037  1.0640  0.2071
  210MPD1    H2 3196   3.121   0.618  10.994 -0.7186  0.3740  0.8981
  210MPD1    H3 3197   3.092   0.720  10.789  0.1447  0.0381  1.2519
  210MPD1     N 3198   2.651   0.638  10.754  0.6065 -0.5941  0.2850
  210MPD1    H5 3199   2.656   0.654  10.654 -0.2034  1.8907  0.6178
  210MPD1    N1 3200   2.932   0.512  11.134 -0.2876 -0.2851  0.3734
  210MPD1    H6 3201   2.866   0.444  11.171 -1.8784 -0.9038 -3.6721
  210MPD1    H7 3202   3.028   0.487  11.156 -0.0087  0.7505  0.3002
  211MPD1     C 3203   0.658   4.709  16.771 -0.5112  0.1348  1.5048
  211MPD1    C1 3204   0.533   4.645  16.770  0.0621 -0.1730 -0.2987
  211MPD1    C2 3205   0.432   4.709  16.702  0.3170  0.0833 -0.0558
  211MPD1    C3 3206   0.454   0.096  16.615  0.0214  0.0142  0.7408
  211MPD1    C4 3207   0.589   0.146  16.606  0.2004 -0.4713 -0.4374
  211MPD1    C5 3208   0.687   0.090  16.686  0.5110 -0.1235  0.0769
  211MPD1     H 3209   0.334   4.665  16.714  0.9175 -1.3494 -0.4158
  211MPD1    H1 3210   0.622   0.234  16.552 -0.2524  0.6225  1.0775
  211MPD1    H2 3211   0.733   4.670  16.838  0.2332  0.6178  0.9558
  211MPD1    H3 3212   0.784   0.138  16.675  1.2596 -1.7609 -0.4705
  211MPD1     N 3213   0.343   0.156  16.546  0.6172 -0.5176  0.6707
  211MPD1    H5 3214   0.254   0.108  16.549  0.7162 -0.5131  3.2317
  211MPD1    N1 3215   0.510   4.537  16.863  0.0216  0.3567 -0.0767
  211MPD1    H6 3216   0.439   4.477  16.821  1.7183 -0.0985 -2.2518
  211MPD1    H7 3217   0.592   4.488  16.900 -2.7021 -3.5656  0.8711
  212MPD1     C 3218   3.937   3.322  15.994  0.5664 -0.0337  0.0855
  212MPD1    C1 3219   3.846   3.392  16.078 -0.1716 -0.3854 -0.2820
  212MPD1    C2 3220   3.776   3.320  16.172 -0.5515  0.1627 -0.4314
  212MPD1    C3 3221   3.813   3.186  16.194  1.0237 -0.9453  0.6806
  212MPD1    C4 3222   3.917   3.125  16.122 -0.0848 -0.3350 -0.3185
  212MPD1    C5 3223   3.972   3.196  16.020 -0.2621  0.6504  0.0536
  212MPD1     H 3224   3.703   3.364  16.239  0.7103  0.1928  0.9223
  212MPD1    H1 3225   3.949   3.024  16.145 -0.7469 -0.0098  2.0073
  212MPD1    H2 3226   3.987   3.374  15.912 -0.9048  3.7377  1.5908
  212MPD1    H3 3227   4.052   3.146  15.968 -0.2598  0.2198  0.4691
  212MPD1     N 3228   3.762   3.105  16.298 -0.5248 -0.1601  0.4073
  212MPD1    H5 3229   3.797   3.010  16.305  0.3976  0.2422  1.2964
  212MPD1    N1 3230   3.794   3.518  16.042  0.1501 -0.0052 -0.4347
  212MPD1    H6 3231   3.759   3.568  16.123 -1.6579 -0.6037 -0.8382
  212MPD1    H7 3232   3.858   3.576  15.989 -0.1419 -1.7063 -2.6658
  213MPD1     C 3233   1.939   0.082  16.038 -0.9370  0.2935 -0.2375
  213MPD1    C1 3234   1.832   0.018  15.988  0.4082 -0.4302  0.4190
  213MPD1    C2 3235   1.853   4.623  15.914  0.4603  0.8269  0.2573
  213MPD1    C3 3236   1.971   4.600  15.850  0.4785 -0.5349  0.0905
  213MPD1    C4 3237   2.080   4.677  15.885 -1.3489 -0.2810 -0.1662
  213MPD1    C5 3238   2.061   0.049  15.986 -0.3024  0.0643  0.3424
  213MPD1     H 3239   1.784   4.539  15.921  0.5996  0.7655  0.9013
  213MPD1    H1 3240   2.180   4.668  15.845 -0.3004  1.5723  2.0674
  213MPD1    H2 3241   1.934   0.148  16.124  1.8061 -0.1300  0.2459
  213MPD1    H3 3242   2.146   0.108  16.019  0.2425  0.2359 -1.3443
  213MPD1     N 3243   1.989   4.480  15.774 -0.1394 -0.2695  0.4648
  213MPD1    H5 3244   1.906   4.424  15.759 -0.3864  0.0018  0.8152
  213MPD1    N1 3245   1.720   0.033  16.071 -0.3727 -0.5034 -0.6528
  213MPD1    H6 3246   1.638   0.001  16.021 -2.4390  3.2828  0.3290
  213MPD1    H7 3247   1.695   0.123  16.112  0.5475 -0.9084  0.8281
  214MPD1     C 3248   1.831   3.517  15.648 -0.1580  0.3436 -0.8605
  214MPD1    C1 3249   1.875   3.605  15.744 -0.1122 -0.1790  0.2141
  214MPD1    C2 3250   1.893   3.744  15.717  0.2935 -0.3082 -0.4481
  214MPD1    C3 3251   1.880   3.783  15.586 -0.0640 -0.7501  0.9531
  214MPD1    C4 3252   1.834   3.697  15.486  0.1472  0.0583 -0.0643
  214MPD1    C5 3253   1.812   3.563  15.520 -0.4094 -0.6366  0.4154
  214MPD1     H 3254   1.931   3.804  15.798 -2.1041 -0.3907  0.7489
  214MPD1    H1 3255   1.814   3.744  15.390 -0.7353  0.1922  0.1904
  214MPD1    H2 3256   1.801   3.414  15.659 -3.6058  1.5494  1.3325
  214MPD1    H3 3257   1.771   3.485  15.456  0.0457 -1.5264  1.2015
  214MPD1     N 3258   1.912   3.919  15.544 -0.2527  0.5044  0.1113
  214MPD1    H5 3259   1.878   3.950  15.454 -0.2186  1.9413  0.5973
  214MPD1    N1 3260   1.894   3.555  15.875  0.2737 -0.5053  0.9210
  214MPD1    H6 3261   1.884   3.625  15.949 -0.0130 -0.0885  0.4899
  214MPD1    H7 3262   1.836   3.472  15.887 -2.7104  1.0504 -2.7262
  215MPD1     C 3263   1.520   0.255  11.191 -0.1251  0.0096  0.1544
  215MPD1    C1 3264   1.623   0.185  11.249 -0.2129  0.3005  0.4370
  215MPD1    C2 3265   1.746   0.239  11.252  0.0749 -0.3137  0.6802
  215MPD1    C3 3266   1.770   0.361  11.201 -0.2596 -0.5585 -0.3478
  215MPD1    C4 3267   1.665   0.434  11.141  0.0309 -0.5559 -0.1129
  215MPD1    C5 3268   1.541   0.374  11.141 -0.1922  0.5056  0.7059
  215MPD1     H 3269   1.827   0.181  11.296  0.8759  0.0406 -0.3462
  215MPD1    H1 3270   1.674   0.527  11.087 -1.2729 -0.5149 -0.2681
  215MPD1    H2 3271   1.418   0.218  11.183 -0.9087  2.7671 -2.2146
  215MPD1    H3 3272   1.454   0.419  11.094  0.3407  0.6893 -0.0889
  215MPD1     N 3273   1.899   0.411  11.199 -0.6848 -0.3941  0.6547
  215MPD1    H5 3274   1.976   0.359  11.240 -1.1203 -0.1790  1.7644
  215MPD1    N1 3275   1.599   0.056  11.304 -0.0225  0.7194  0.0316
  215MPD1    H6 3276   1.644   4.700  11.253  1.0565  1.6562 -0.3885
  215MPD1    H7 3277   1.501   0.033  11.316  0.1698 -0.7970 -1.3454
  216MPD1     C 3278   2.769   2.961   0.649  0.5974  0.3034  0.4805
  216MPD1    C1 3279   2.840   2.855   0.700 -0.8148 -0.6208  1.0518
  216MPD1    C2 3280   2.930   2.786   0.614  0.1943 -0.0893  0.1134
  216MPD1    C3 3281   2.964   2.841   0.491  0.2647  0.1267  0.5453
  216MPD1    C4 3282   2.887   2.946   0.443  0.9501  0.1620 -0.0711
  216MPD1    C5 3283   2.790   3.007   0.522 -0.2894  0.5218 -0.3519
  216MPD1     H 3284   2.981   2.705   0.665  1.4422  0.6262  0.0010
  216MPD1    H1 3285   2.906   2.980   0.342  0.3245  2.8990  0.7386
  216MPD1    H2 3286   2.688   3.008   0.705  0.2176  0.4517 -0.1939
  216MPD1    H3 3287   2.728   3.084   0.477 -1.4462 -0.3254 -0.2280
  216MPD1     N 3288   3.056   2.775   0.408 -0.2201  0.2703  0.3028
  216MPD1    H5 3289   3.082   2.684   0.446 -1.5950 -1.1305 -2.0931
  216MPD1    N1 3290   2.825   2.822   0.840 -0.0528  0.0060 -0.1377
  216MPD1    H6 3291   2.751   2.873   0.888  1.1236  1.2285  0.3560
  216MPD1    H7 3292   2.817   2.722   0.860 -2.9785  0.3471  0.3801
  217MPD1     C 3293   0.851   4.614   8.289 -0.0038 -0.3693 -0.1225
  217MPD1    C1 3294   0.967   4.536   8.294 -0.3868 -0.7310  0.0557
  217MPD1    C2 3295   0.987   4.479   8.418 -0.4234  0.6759 -0.3566
  217MPD1    C3 3296   0.900   4.490   8.526  0.1755 -0.3127  0.6750
  217MPD1    C4 3297   0.787   4.568   8.518 -0.1232  1.0747  0.7723
  217MPD1    C5 3298   0.766   4.624   8.395  0.2617  0.1298  0.2029
  217MPD1     H 3299   1.076   4.418   8.426 -1.1956 -0.4023  0.0399
  217MPD1    H1 3300   0.717   4.575   8.601 -3.1244  1.6722 -1.8500
  217MPD1    H2 3301   0.816   4.656   8.195  0.8382 -0.2072 -0.3643
  217MPD1    H3 3302   0.676   4.682   8.375  1.8622  2.2040 -0.9274
  217MPD1     N 3303   0.922   4.431   8.650 -0.4126 -0.0058 -0.7426
  217MPD1    H5 3304   0.852   4.458   8.720  2.0937  0.0442  1.7442
  217MPD1    N1 3305   1.046   4.510   8.180 -0.0446  0.0068 -0.1342
  217MPD1    H6 3306   1.141   4.478   8.197  0.1940  0.6597 -0.2354
  217MPD1    H7 3307   1.056   4.592   8.120 -0.5805  0.6460  0.6439
  218MPD1     C 3308   1.603   0.878  13.580 -0.6315 -0.2326 -0.4103
  218MPD1    C1 3309   1.645   0.955  13.471  1.0039  0.2528  0.5309
  218MPD1    C2 3310   1.727   0.894  13.384  0.0539  0.6214 -0.2522
  218MPD1    C3 3311   1.759   0.755  13.388 -0.0421  1.2124 -0.1433
  218MPD1    C4 3312   1.691   0.678  13.480  0.4288  0.3657  0.4474
  218MPD1    C5 3313   1.614   0.742  13.575  0.0007  0.2892  0.4560
  218MPD1     H 3314   1.781   0.955  13.312  1.2809  1.3536  1.2777
  218MPD1    H1 3315   1.715   0.573  13.491  1.8863  0.8221  1.5399
  218MPD1    H2 3316   1.555   0.918  13.668 -0.1298 -0.9413  0.1860
  218MPD1    H3 3317   1.574   0.685  13.658 -3.8875  0.5959 -1.2004
  218MPD1     N 3318   1.854   0.706  13.294 -0.0560  0.3485  0.1420
  218MPD1    H5 3319   1.900   0.779  13.241  0.2417  1.3962  1.8570
  218MPD1    N1 3320   1.650   1.094  13.488 -0.0903 -0.4862 -0.2453
  218MPD1    H6 3321   1.572   1.124  13.545  0.9216 -0.1377  0.9585
  218MPD1    H7 3322   1.667   1.149  13.404 -0.8143 -0.3084 -0.2733
  219MPD1     C 3323   2.563   0.933  12.688  0.3105 -0.2179  0.6339
  219MPD1    C1 3324   2.615   0.820  12.744 -0.0537  0.1962 -0.2474
  219MPD1    C2 3325   2.529   0.739  12.814 -0.2741 -0.2168 -0.0166
  219MPD1    C3 3326   2.393   0.766  12.814  0.1760 -0.9552 -0.7342
  219MPD1    C4 3327   2.339   0.873  12.742 -0.1162 -0.0707 -0.1388
  219MPD1    C5 3328   2.429   0.956  12.677  0.2514  0.9896  0.9055
  219MPD1     H 3329   2.572   0.660  12.875 -0.0184  0.6691  0.9646
  219MPD1    H1 3330   2.236   0.909  12.743 -0.3821 -0.8575  1.2311
  219MPD1    H2 3331   2.633   1.008  12.654  0.4825 -0.0333  1.4142
  219MPD1    H3 3332   2.398   1.049  12.632  1.1453  2.0293  2.4225
  219MPD1     N 3333   2.313   0.687  12.896  0.0436  0.1518 -0.1711
  219MPD1    H5 3334   2.362   0.609  12.939 -0.1389 -0.5044 -1.1336
  219MPD1    N1 3335   2.753   0.805  12.766 -0.2142 -0.4198 -0.2898
  219MPD1    H6 3336   2.795   0.717  12.794  0.9165  0.0238 -0.5685
  219MPD1    H7 3337   2.812   0.860  12.703  0.6426 -1.0331 -0.0223
  220MPD1     C 3338   2.372   1.630   9.716  1.4951  0.4160 -0.8288
  220MPD1    C1 3339   2.446   1.618   9.830 -0.6821  0.0629  0.1034
  220MPD1    C2 3340   2.413   1.511   9.914 -0.3349 -0.2969 -0.5410
  220MPD1    C3 3341   2.313   1.420   9.882 -0.7013  0.5479  0.7666
  220MPD1    C4 3342   2.236   1.438   9.771  0.6127  0.5566  0.9802
  220MPD1    C5 3343   2.269   1.547   9.694 -0.1953 -0.8370  0.3289
  220MPD1     H 3344   2.475   1.492  10.001 -0.5709 -0.7977 -0.4861
  220MPD1    H1 3345   2.158   1.368   9.741  1.6636  0.0019 -0.4687
  220MPD1    H2 3346   2.397   1.703   9.639  0.8099  2.3107  0.7435
  220MPD1    H3 3347   2.215   1.557   9.600  0.0722  0.1220  0.2733
  220MPD1     N 3348   2.279   1.316   9.973 -0.0248  0.3562 -0.3675
  220MPD1    H5 3349   2.327   1.308  10.062 -1.0813  0.1739  0.1826
  220MPD1    N1 3350   2.563   1.686   9.858  0.0633 -0.0778 -0.8822
  220MPD1    H6 3351   2.560   1.779   9.816  0.4675 -0.4140 -1.6583
  220MPD1    H7 3352   2.567   1.697   9.959  1.5030 -0.9766 -0.8311
  221MPD1     C 3353   4.085   4.631  15.295 -0.9386  0.1629 -0.8633
  221MPD1    C1 3354   4.010   4.717  15.379  0.4595 -0.0762  0.1407
  221MPD1    C2 3355   4.055   0.018  15.510  0.1888 -0.0877  0.1336
  221MPD1    C3 3356   4.173   4.674  15.553 -0.2729 -0.7855  0.6707
  221MPD1    C4 3357   4.239   4.593  15.465  0.2714  0.8897  0.5860
  221MPD1    C5 3358   4.200   4.562  15.340 -0.9683  0.9506  0.4291
  221MPD1     H 3359   3.998   0.091  15.566 -0.0319 -1.6722  1.9412
  221MPD1    H1 3360   4.335   4.551  15.495  0.3209  0.4600 -0.1620
  221MPD1    H2 3361   4.053   4.617  15.193 -0.0063 -1.6551 -0.8835
  221MPD1    H3 3362   4.264   4.500  15.277 -0.3386  1.6197  0.4081
  221MPD1     N 3363   4.215   4.674  15.689  0.0707 -0.0267  0.1109
  221MPD1    H5 3364   4.298   4.620  15.715 -0.5495 -0.1596  1.7973
  221MPD1    N1 3365   3.897   0.064  15.335 -0.0094 -0.3949  0.1027
  221MPD1    H6 3366   3.836   0.093  15.411  0.8889  0.9898  0.2962
  221MPD1    H7 3367   3.842   0.027  15.257  0.4767 -0.7642 -0.0685
  222MPD1     C 3368   3.828   2.557  16.682  0.3302  0.1492  0.3999
  222MPD1    C1 3369   3.874   2.677  16.625  0.2206  0.4191  0.2338
  222MPD1    C2 3370   3.868   2.792  16.708 -0.2134 -0.0482  0.4579
  222MPD1    C3 3371   3.785   2.793  16.821  0.2106 -0.2101 -0.1591
  222MPD1    C4 3372   3.718   2.680  16.852  0.0175  0.5291  0.0828
  222MPD1    C5 3373   3.748   2.565  16.791  0.2902  0.1571  0.2631
  222MPD1     H 3374   3.908   2.883  16.665 -1.1985  0.8329  1.3785
  222MPD1    H1 3375   3.642   2.675  16.929 -1.8093 -0.6794 -1.7933
  222MPD1    H2 3376   3.852   2.466  16.629  3.7691  0.1243  2.0109
  222MPD1    H3 3377   3.702   2.479  16.840 -0.4350  1.0133  1.0756
  222MPD1     N 3378   3.759   2.904  16.907 -0.7474  0.3093 -0.1742
  222MPD1    H5 3379   3.701   2.891  16.990 -0.2276  0.5732  0.2330
  222MPD1    N1 3380   3.954   2.666  16.511 -0.2415 -0.5425  0.0317
  222MPD1    H6 3381   3.941   2.741  16.443  1.6537  0.8889  1.2427
  222MPD1    H7 3382   3.927   2.585  16.457 -0.0977  0.2443 -1.2092
  223MPD1     C 3383   3.348   3.184   0.052  0.6622 -0.0877 -0.5885
  223MPD1    C1 3384   3.340   3.308  17.670  0.0351  0.3323  0.0377
  223MPD1    C2 3385   3.391   3.324  17.540  0.2939  0.1374  0.4363
  223MPD1    C3 3386   3.460   3.220  17.486  0.3942 -0.1698  0.2269
  223MPD1    C4 3387   3.458   3.097  17.543  0.6275 -0.2212  0.4109
  223MPD1    C5 3388   3.400   3.076  17.664  0.3234  0.6993  0.0001
  223MPD1     H 3389   3.385   3.412  17.478 -1.5117 -0.4111 -0.1596
  223MPD1    H1 3390   3.516   3.017  17.500  1.1022  0.0467  0.5479
  223MPD1    H2 3391   3.321   3.179   0.156  1.0235 -0.8024 -0.5312
  223MPD1    H3 3392   3.401   2.978   0.031  0.9333  1.0296  0.6808
  223MPD1     N 3393   3.519   3.252  17.355  0.1949 -0.4068  0.5176
  223MPD1    H5 3394   3.506   3.343  17.313  3.0876  0.0085  0.4902
  223MPD1    N1 3395   3.262   3.410   0.053 -1.2357 -0.0276  0.3461
  223MPD1    H6 3396   3.279   3.413   0.153 -0.2714  1.7575  0.1306
  223MPD1    H7 3397   3.262   3.505   0.017 -1.2639 -0.1858 -0.0778
  224MPD1     C 3398   1.236   4.648   8.809 -0.0127  0.3137  0.9532
  224MPD1    C1 3399   1.114   4.712   8.809  0.4268  0.2161 -0.7866
  224MPD1    C2 3400   1.038   4.701   8.927 -0.2130 -0.9559 -0.2504
  224MPD1    C3 3401   1.072   4.603   9.025  0.1161 -0.4602  0.3639
  224MPD1    C4 3402   1.189   4.533   9.006 -0.5927 -0.3993 -0.3049
  224MPD1    C5 3403   1.271   4.557   8.900 -0.2313 -0.3423 -0.0883
  224MPD1     H 3404   0.945   0.037   8.933  1.1732  1.3351  0.6070
  224MPD1    H1 3405   1.206   4.454   9.078 -2.4171  0.8018  1.4559
  224MPD1    H2 3406   1.307   4.671   8.730  0.6366  2.7693  2.2623
  224MPD1    H3 3407   1.364   4.501   8.893  0.1339  0.5773 -2.2297
  224MPD1     N 3408   0.991   4.570   9.133 -0.2807  0.3730 -0.0343
  224MPD1    H5 3409   1.041   4.525   9.209  0.6139 -0.1014 -0.9010
  224MPD1    N1 3410   1.080   0.086   8.717  0.2443  0.4073  0.7480
  224MPD1    H6 3411   0.987   0.125   8.726  0.1940  0.0870  1.5567
  224MPD1    H7 3412   1.090   0.048   8.623  1.8036  1.1843  0.5940
  225MPD1     C 3413   1.397   1.504  12.983 -0.1628 -0.3116  0.3742
  225MPD1    C1 3414   1.515   1.487  12.910  0.0816 -0.3093 -0.3660
  225MPD1    C2 3415   1.510   1.443  12.784 -0.5900 -0.0045  0.3717
  225MPD1    C3 3416   1.391   1.411  12.721 -0.0083 -0.2138  0.2513
  225MPD1    C4 3417   1.274   1.435  12.785  0.3019 -0.2674  0.1652
  225MPD1    C5 3418   1.282   1.486  12.913  0.1742  0.4224  0.4569
  225MPD1     H 3419   1.604   1.432  12.732 -1.4735  0.6968 -1.3723
  225MPD1    H1 3420   1.175   1.425  12.741  0.6180  1.3487 -0.9410
  225MPD1    H2 3421   1.400   1.546  13.083 -0.1242 -0.2370  0.3408
  225MPD1    H3 3422   1.186   1.514  12.956 -0.4497  0.3221 -0.8729
  225MPD1     N 3423   1.388   1.377  12.584  0.1640 -0.0078 -0.8461
  225MPD1    H5 3424   1.307   1.404  12.529 -0.3767 -1.2401 -0.6574
  225MPD1    N1 3425   1.641   1.499  12.970 -0.1319 -0.0740 -0.6381
  225MPD1    H6 3426   1.719   1.522  12.909  0.4878 -1.6514 -0.4538
  225MPD1    H7 3427   1.650   1.524  13.068 -2.2626  1.2624 -0.7801
  226MPD1     C 3428   0.709   1.395   8.494 -0.0739  0.6573  0.0944
  226MPD1    C1 3429   0.577   1.406   8.462 -0.4241  0.1311 -0.1034
  226MPD1    C2 3430   0.493   1.305   8.493  0.1052 -0.7781  0.3651
  226MPD1    C3 3431   0.534   1.196   8.571 -0.0232 -0.3343 -1.2112
  226MPD1    C4 3432   0.667   1.187   8.604 -0.2609 -0.7991  0.7665
  226MPD1    C5 3433   0.756   1.286   8.563 -0.1110 -0.5615 -0.0758
  226MPD1     H 3434   0.389   1.304   8.462 -0.3517 -0.2028  1.8735
  226MPD1    H1 3435   0.709   1.104   8.660  3.7316  0.1310 -0.8430
  226MPD1    H2 3436   0.773   1.478   8.469  0.6205 -0.2301 -1.0566
  226MPD1    H3 3437   0.862   1.262   8.567  0.3320  1.7698  2.1180
  226MPD1     N 3438   0.434   1.106   8.609 -0.2654  0.9357  0.0741
  226MPD1    H5 3439   0.339   1.122   8.575 -1.2238 -1.9987  1.2987
  226MPD1    N1 3440   0.548   1.505   8.362  0.6461  0.0864 -0.5622
  226MPD1    H6 3441   0.608   1.585   8.377 -2.2768  1.8730  1.4157
  226MPD1    H7 3442   0.450   1.530   8.352  0.1600 -1.7618 -0.5204
  227MPD1     C 3443   4.379   1.373   8.829  0.4054  0.8250 -0.7127
  227MPD1    C1 3444   4.451   1.391   8.715  0.3900 -0.1743  0.0796
  227MPD1    C2 3445   4.546   1.291   8.693  0.2504  0.6517 -0.0113
  227MPD1    C3 3446   4.573   1.187   8.771 -0.6249 -0.0143  0.8472
  227MPD1    C4 3447   4.489   1.170   8.871  0.1183  0.2937  0.3246
  227MPD1    C5 3448   4.393   1.261   8.903 -0.2378  0.0132 -0.1825
  227MPD1     H 3449   4.609   1.299   8.604 -0.8814 -0.5375 -0.9307
  227MPD1    H1 3450   4.489   1.086   8.939 -1.6947  1.5609  1.8953
  227MPD1    H2 3451   4.301   1.443   8.857 -1.5440 -1.1180 -1.3072
  227MPD1    H3 3452   4.335   1.249   8.994 -1.5801  0.6313 -0.9525
  227MPD1     N 3453   4.682   1.096   8.747 -0.4149 -0.0433 -0.3918
  227MPD1    H5 3454   0.015   1.114   8.662 -0.8195 -1.1380 -0.8808
  227MPD1    N1 3455   4.455   1.510   8.646  0.1034 -0.1064  0.0065
  227MPD1    H6 3456   4.367   1.560   8.641 -0.2310 -0.8742 -2.0974
  227MPD1    H7 3457   4.486   1.498   8.549  0.4767 -0.8259  0.2107
  228MPD1     C 3458   3.555   3.817  12.651 -0.0107 -0.3216  0.1105
  228MPD1    C1 3459   3.447   3.789  12.563  0.1687  0.2108 -0.0131
  228MPD1    C2 3460   3.323   3.769  12.618 -0.0668 -0.7790 -0.0123
  228MPD1    C3 3461   3.312   3.772  12.757  0.2834 -0.1295  0.0109
  228MPD1    C4 3462   3.421   3.803  12.838  0.2760  0.2396  0.1472
  228MPD1    C5 3463   3.538   3.833  12.783  0.1142 -0.0117 -0.2963
  228MPD1     H 3464   3.238   3.747  12.554 -1.6788 -0.5863  2.0380
  228MPD1    H1 3465   3.410   3.804  12.946 -1.1233  0.1420  0.0037
  228MPD1    H2 3466   3.657   3.840  12.622  0.7243 -0.8040  2.3370
  228MPD1    H3 3467   3.625   3.851  12.846 -0.6602  2.4934  0.0611
  228MPD1     N 3468   3.183   3.765  12.817  0.2905  0.2629  0.4360
  228MPD1    H5 3469   3.104   3.769  12.753  0.4573  2.4802  0.3832
  228MPD1    N1 3470   3.461   3.812  12.425  0.0464 -0.4224  0.4829
  228MPD1    H6 3471   3.556   3.791  12.397  0.0088  0.2422 -0.1318
  228MPD1    H7 3472   3.387   3.761  12.378  0.8018 -1.6939  0.6655
  229MPD1     C 3473   2.426   2.390  14.920  0.4093  0.6298 -0.2850
  229MPD1    C1 3474   2.503   2.382  14.809 -0.0047 -0.1913  0.7295
  229MPD1    C2 3475   2.603   2.288  14.795 -0.0937  0.2794  0.0841
  229MPD1    C3 3476   2.627   2.200  14.900  0.0877 -0.4237  0.0739
  229MPD1    C4 3477   2.548   2.205  15.011  0.3328  0.8323 -0.3196
  229MPD1    C5 3478   2.448   2.295  15.017 -0.5191 -0.4038 -0.1070
  229MPD1     H 3479   2.655   2.285  14.700  1.3631 -1.1537  0.9238
  229MPD1    H1 3480   2.567   2.143  15.099  0.3072 -0.7699 -1.4482
  229MPD1    H2 3481   2.342   2.457  14.934 -0.4945 -1.2497  2.9946
  229MPD1    H3 3482   2.400   2.304  15.114 -1.6863  0.4442 -0.7542
  229MPD1     N 3483   2.752   2.139  14.920  0.0146  0.1530 -0.4247
  229MPD1    H5 3484   2.764   2.094  15.011  1.5896 -1.1775 -1.2941
  229MPD1    N1 3485   2.504   2.490  14.720 -0.1060 -0.3687 -0.1159
  229MPD1    H6 3486   2.417   2.543  14.718 -0.3595 -0.7970 -0.4222
  229MPD1    H7 3487   2.524   2.464  14.623  1.0707 -1.7115  0.4778
  230MPD1     C 3488   3.142   2.538  15.547 -0.7312 -0.2220  0.2254
  230MPD1    C1 3489   3.064   2.575  15.443 -0.6151  0.0477  0.2954
  230MPD1    C2 3490   3.059   2.483  15.339 -0.6657  0.0192  0.7618
  230MPD1    C3 3491   3.146   2.373  15.326 -0.2380 -0.0090 -0.7920
  230MPD1    C4 3492   3.236   2.349  15.426  0.0457  0.2800 -0.2333
  230MPD1    C5 3493   3.234   2.437  15.538 -0.5425  0.3594 -0.2196
  230MPD1     H 3494   2.986   2.501  15.261 -1.1899 -1.9113  0.8100
  230MPD1    H1 3495   3.310   2.269  15.427  0.0964  0.3309  1.6042
  230MPD1    H2 3496   3.140   2.593  15.641  1.1834  0.9634 -0.4372
  230MPD1    H3 3497   3.304   2.419  15.619 -0.8221 -0.4026 -0.1494
  230MPD1     N 3498   3.125   2.283  15.224 -0.1873 -0.3433 -0.0135
  230MPD1    H5 3499   3.052   2.318  15.162 -0.8661 -0.7537  0.5733
  230MPD1    N1 3500   2.968   2.677  15.456  1.0998 -0.1382 -0.2854
  230MPD1    H6 3501   3.005   2.760  15.502  0.0617  0.4102 -0.4302
  230MPD1    H7 3502   2.926   2.701  15.367 -3.5799  0.4876  2.0724
  231MPD1     C 3503   1.768   4.533  15.492 -0.5930 -1.1001  0.4560
  231MPD1    C1 3504   1.769   4.426  15.414  0.3631  0.3492 -0.3041
  231MPD1    C2 3505   1.818   4.432  15.284  0.2435 -0.5253 -0.2006
  231MPD1    C3 3506   1.883   4.546  15.240 -0.6518 -0.0387 -0.7976
  231MPD1    C4 3507   1.904   4.646  15.329  0.1678 -0.7794  0.0151
  231MPD1    C5 3508   1.834   4.641  15.447 -0.1588  0.2732 -0.1164
  231MPD1     H 3509   1.819   4.352  15.210  1.6170  1.4740 -2.3176
  231MPD1    H1 3510   1.957   0.013  15.292  0.8425 -0.0418  2.7405
  231MPD1    H2 3511   1.724   4.534  15.591 -1.6585  0.8554 -0.0439
  231MPD1    H3 3512   1.846   0.006  15.514  1.4109 -1.0437  1.2253
  231MPD1     N 3513   1.944   4.544  15.111 -0.7172  0.2042 -0.6533
  231MPD1    H5 3514   1.913   4.483  15.037 -3.3693  0.7207  0.0093
  231MPD1    N1 3515   1.703   4.309  15.460  0.2047  0.1262  0.1120
  231MPD1    H6 3516   1.685   4.309  15.561  1.7193 -0.9351  0.3686
  231MPD1    H7 3517   1.740   4.225  15.417  2.7187  0.8439  0.8714
  232MPD1     C 3518   2.777   0.715  17.649 -0.2177  0.0186  0.3790
  232MPD1    C1 3519   2.817   0.848  17.649 -0.3939 -0.2757  0.1445
  232MPD1    C2 3520   2.781   0.928   0.072 -0.6083  0.2779  0.0904
  232MPD1    C3 3521   2.725   0.879   0.189 -0.0130 -0.6020  0.1282
  232MPD1    C4 3522   2.687   0.744   0.195 -0.1796  0.8644  0.0564
  232MPD1    C5 3523   2.703   0.667   0.084 -0.1521 -0.4344  0.4560
  232MPD1     H 3524   2.808   1.033   0.067 -2.4104  0.7933  1.4089
  232MPD1    H1 3525   2.624   0.696   0.269 -0.6855  0.7478 -0.4478
  232MPD1    H2 3526   2.795   0.652  17.562 -2.3846 -0.5751  0.3547
  232MPD1    H3 3527   2.662   0.567   0.085 -1.6343  0.1470 -1.3197
  232MPD1     N 3528   2.704   0.968   0.294  0.5754 -0.0916  0.4139
  232MPD1    H5 3529   2.720   1.066   0.272  0.4141 -0.4427 -1.3210
  232MPD1    N1 3530   2.879   0.911  17.542  0.0107  0.1955 -0.5499
  232MPD1    H6 3531   2.951   0.861  17.490 -0.3910 -1.1229  0.1367
  232MPD1    H7 3532   2.922   0.995  17.579 -1.1202  0.0403  1.1206
  233MPD1     C 3533   4.355   0.297   1.974  0.3372  0.3693  0.2605
  233MPD1    C1 3534   4.354   0.171   2.041 -0.9507 -1.1131  0.3843
  233MPD1    C2 3535   4.433   0.074   1.990  0.4279  0.4409  0.0159
  233MPD1    C3 3536   4.521   0.091   1.883  0.4763  0.3200 -0.9680
  233MPD1    C4 3537   4.522   0.220   1.826 -0.7141  0.0996 -0.6692
  233MPD1    C5 3538   4.437   0.312   1.867  0.3381 -0.6492 -0.4010
  233MPD1     H 3539   4.424   4.689   2.020  1.6753  0.7768  1.5785
  233MPD1    H1 3540   4.585   0.239   1.740  1.9703  0.6538  1.4227
  233MPD1    H2 3541   4.297   0.383   2.005  1.9699  1.0036  1.5798
  233MPD1    H3 3542   4.439   0.407   1.816 -2.3378 -0.1004  0.5052
  233MPD1     N 3543   4.599   4.706   1.827 -0.2100  0.2094 -0.4832
  233MPD1    H5 3544   4.638   0.001   1.734 -0.8529 -0.9466 -0.9253
  233MPD1    N1 3545   4.256   0.148   2.143  0.4463  0.4606 -0.1723
  233MPD1    H6 3546   4.224   0.224   2.202  1.8338  1.6745 -0.9817
  233MPD1    H7 3547   4.282   0.073   2.207  0.0356  0.9650  0.5815
  234MPD1     C 3548   1.861   3.389   9.926 -0.3070  0.8307  0.7505
  234MPD1    C1 3549   1.834   3.414   9.793  0.1739  0.3852 -0.5348
  234MPD1    C2 3550   1.805   3.545   9.760 -0.4835  0.5988  0.0118
  234MPD1    C3 3551   1.826   3.647   9.847 -0.1616 -0.1600  0.1227
  234MPD1    C4 3552   1.862   3.620   9.977 -0.3476  0.1500 -0.2325
  234MPD1    C5 3553   1.880   3.487  10.020 -0.0802 -0.2532 -0.3756
  234MPD1     H 3554   1.774   3.560   9.657  1.8029 -0.6571 -0.8773
  234MPD1    H1 3555   1.867   3.706  10.042 -0.3174  0.4251 -0.6023
  234MPD1    H2 3556   1.882   3.289   9.961  1.9409  0.8481 -0.5442
  234MPD1    H3 3557   1.899   3.460  10.123  0.4223 -0.2133 -0.4587
  234MPD1     N 3558   1.806   3.784   9.813  0.5874  0.0541  0.4064
  234MPD1    H5 3559   1.806   3.855   9.886  0.8035  0.8073 -0.3287
  234MPD1    N1 3560   1.820   3.315   9.697 -0.4577  0.1486 -0.6050
  234MPD1    H6 3561   1.875   3.233   9.724  0.9328  1.2747 -0.0260
  234MPD1    H7 3562   1.835   3.343   9.601  1.1183 -1.8410 -0.9448
  235MPD1     C 3563   2.766   0.934  10.521 -1.0380  0.0183 -1.1977
  235MPD1    C1 3564   2.747   1.000  10.405 -0.5958 -0.2604 -0.8795
  235MPD1    C2 3565   2.778   1.133  10.403  0.0523  0.9417 -0.6081
  235MPD1    C3 3566   2.827   1.204  10.508 -0.7420 -0.3632 -0.0203
  235MPD1    C4 3567   2.842   1.140  10.632  0.2577 -0.0636 -0.1261
  235MPD1    C5 3568   2.799   1.009  10.637  0.0802  0.2878 -0.4745
  235MPD1     H 3569   2.788   1.176  10.304  2.3976 -2.3794 -1.8002
  235MPD1    H1 3570   2.890   1.188  10.716 -0.7357  2.9104 -1.2180
  235MPD1    H2 3571   2.735   0.830  10.526  0.8614 -0.4248  1.2212
  235MPD1    H3 3572   2.816   0.958  10.731  2.3119  0.1605 -0.9438
  235MPD1     N 3573   2.873   1.338  10.480  0.4861 -0.4245 -0.4743
  235MPD1    H5 3574   2.870   1.364  10.382  2.9566 -0.3877 -0.5332
  235MPD1    N1 3575   2.712   0.918  10.293  0.1581 -0.2377  0.5456
  235MPD1    H6 3576   2.622   0.878  10.318 -0.7682  1.1735 -0.5156
  235MPD1    H7 3577   2.684   0.985  10.221 -1.2107  0.4053  1.6872
  236MPD1     C 3578   2.044   3.001   9.904  0.0746 -0.6567 -0.5754
  236MPD1    C1 3579   2.099   2.882   9.873  0.9019  0.7632 -0.3426
  236MPD1    C2 3580   2.225   2.848   9.928  0.4599 -0.5011 -0.2760
  236MPD1    C3 3581   2.275   2.920  10.032 -0.1173 -0.7654  0.3128
  236MPD1    C4 3582   2.210   3.033  10.071 -0.2222 -0.9132 -0.6868
  236MPD1    C5 3583   2.108   3.083   9.994 -0.2206  0.2158  0.4682
  236MPD1     H 3584   2.267   2.753   9.896  0.6432 -0.1880 -0.9544
  236MPD1    H1 3585   2.246   3.099  10.150 -0.3255 -2.5426  0.7153
  236MPD1    H2 3586   1.961   3.049   9.852 -1.5509 -2.2777  0.5129
  236MPD1    H3 3587   2.062   3.176  10.023 -0.9905  0.0678 -0.2635
  236MPD1     N 3588   2.395   2.875  10.097 -0.0042 -0.5815  0.5903
  236MPD1    H5 3589   2.437   2.942  10.160 -3.0159  0.7642  1.1614
  236MPD1    N1 3590   2.053   2.810   9.757  0.6775 -0.0811  0.4026
  236MPD1    H6 3591   1.954   2.826   9.743  0.6483 -0.6738 -0.0581
  236MPD1    H7 3592   2.065   2.709   9.770  1.4867  0.1280  1.2762
  237MPD1     C 3593   1.345   1.594  15.387  0.6110 -0.0873  0.4692
  237MPD1    C1 3594   1.382   1.503  15.287 -0.1034  1.0043  0.7045
  237MPD1    C2 3595   1.336   1.370  15.306  0.0278 -0.5198  0.2861
  237MPD1    C3 3596   1.238   1.340  15.403 -0.4637 -0.0442  0.0502
  237MPD1    C4 3597   1.212   1.429  15.497  0.4006 -0.3227  0.1173
  237MPD1    C5 3598   1.267   1.551  15.495  1.7658  0.7652  0.2604
  237MPD1     H 3599   1.365   1.292  15.238 -1.3248 -0.0803 -0.8037
  237MPD1    H1 3600   1.140   1.407  15.575 -0.3960 -1.6549 -1.0062
  237MPD1    H2 3601   1.392   1.691  15.389  0.4149  0.0511 -1.1370
  237MPD1    H3 3602   1.251   1.616  15.580 -1.1039  0.6828 -0.2022
  237MPD1     N 3603   1.161   1.212  15.406 -0.2660 -0.1509  0.1588
  237MPD1    H5 3604   1.084   1.200  15.472 -0.3512 -1.7527 -0.2525
  237MPD1    N1 3605   1.481   1.544  15.200 -0.3137 -0.2509  0.3308
  237MPD1    H6 3606   1.475   1.644  15.185 -0.0959 -0.8618 -4.0318
  237MPD1    H7 3607   1.473   1.500  15.108 -2.4283 -0.5172  0.6563
  238MPD1     C 3608   3.731   3.762  14.904  0.1407  0.0480  0.1893
  238MPD1    C1 3609   3.669   3.732  15.025 -0.1459 -0.2942  0.1847
  238MPD1    C2 3610   3.537   3.767  15.035  0.4285 -0.7368  0.0552
  238MPD1    C3 3611   3.475   3.857  14.953 -0.1786 -0.4494  0.6556
  238MPD1    C4 3612   3.545   3.898  14.842 -0.7500 -0.7510  0.1395
  238MPD1    C5 3613   3.672   3.845  14.816 -0.3582  0.1125  0.0876
  238MPD1     H 3614   3.480   3.729  15.118  0.1335 -0.4292 -0.0057
  238MPD1    H1 3615   3.512   3.977  14.775 -1.5147 -1.4323 -0.2880
  238MPD1    H2 3616   3.833   3.730  14.886 -0.3742  0.5773 -3.6660
  238MPD1    H3 3617   3.722   3.857  14.720  0.2240 -0.0567  0.3745
  238MPD1     N 3618   3.340   3.903  14.967 -0.1576 -0.2508 -0.5309
  238MPD1    H5 3619   3.312   3.967  14.894 -0.3609  0.9996  0.6247
  238MPD1    N1 3620   3.725   3.641  15.113  0.3405 -0.3526  0.4282
  238MPD1    H6 3621   3.825   3.655  15.122  0.4846  0.2487 -2.1488
  238MPD1    H7 3622   3.681   3.645  15.205  1.9726  0.8884  1.1331
  239MPD1     C 3623   3.794   4.602  14.583 -0.2132  0.1044  0.4914
  239MPD1    C1 3624   3.787   0.010  14.633 -0.1199  0.2404  0.2684
  239MPD1    C2 3625   3.727   0.112  14.560  0.1267 -0.4631  0.4370
  239MPD1    C3 3626   3.688   0.085  14.433 -0.4725  0.3726 -0.2050
  239MPD1    C4 3627   3.715   4.682  14.374 -0.5949  0.5659 -0.2164
  239MPD1    C5 3628   3.763   4.582  14.451  0.9820  0.2087 -0.3084
  239MPD1     H 3629   3.720   0.215  14.594  0.5229 -0.2552 -0.0966
  239MPD1    H1 3630   3.698   4.659  14.270  0.8239  1.2557 -0.6003
  239MPD1    H2 3631   3.845   4.536  14.652 -1.4623 -0.1611  1.1452
  239MPD1    H3 3632   3.780   4.481  14.417 -0.6590  0.0124 -0.5438
  239MPD1     N 3633   3.630   0.194  14.360  0.1424 -0.4551 -0.0974
  239MPD1    H5 3634   3.613   0.185  14.260  0.1551  0.2508 -0.1615
  239MPD1    N1 3635   3.804   0.023  14.773 -0.1687  0.4463 -0.2500
  239MPD1    H6 3636   3.874   4.676  14.806  0.8137  1.5573 -0.0851
  239MPD1    H7 3637   3.814   0.122  14.797  1.6923  0.0391  0.6430
  240MPD1     C 3638   3.335   4.620  14.443 -0.3124 -0.2114 -0.6738
  240MPD1    C1 3639   3.219   4.617  14.375  0.1247  0.3455  0.2757
  240MPD1    C2 3640   3.115   4.553  14.436  0.8081 -0.1700  0.0257
  240MPD1    C3 3641   3.128   4.484  14.554  0.5228 -0.6059 -0.1754
  240MPD1    C4 3642   3.253   4.462  14.600  1.0244 -0.3320 -0.0951
  240MPD1    C5 3643   3.351   4.550  14.556  0.0058  0.3884  0.6977
  240MPD1     H 3644   3.016   4.564  14.393  0.7877  0.4856  0.2394
  240MPD1    H1 3645   3.270   4.406  14.691 -4.1827 -0.3907  0.8575
  240MPD1    H2 3646   3.425   4.670  14.409  0.6418 -1.1340  0.5311
  240MPD1    H3 3647   3.448   4.533  14.602  1.0358 -0.5606 -1.8062
  240MPD1     N 3648   3.014   4.443  14.617 -0.8877 -0.1036 -0.2641
  240MPD1    H5 3649   2.935   4.485  14.569  0.1154  2.8850  0.7213
  240MPD1    N1 3650   3.216   4.682  14.251  0.4990 -0.7355  0.8615
  240MPD1    H6 3651   3.132   4.669  14.195  0.2538  2.7372  0.4210
  240MPD1    H7 3652   3.302   4.666  14.198  0.2468 -2.7723  1.0408
  241MPD1     C 3653   2.657   4.179  15.510  0.3272  0.0144 -0.2557
  241MPD1    C1 3654   2.551   4.198  15.424  0.1051  0.5612  0.7164
  241MPD1    C2 3655   2.559   4.190  15.286 -0.3023  0.5659 -0.3602
  241MPD1    C3 3656   2.689   4.171  15.239 -1.1694 -0.2530 -0.0438
  241MPD1    C4 3657   2.798   4.162  15.328 -0.1014  0.1931  0.1846
  241MPD1    C5 3658   2.786   4.159  15.461 -0.3546  0.1763  0.9145
  241MPD1     H 3659   2.481   4.198  15.211  0.0881 -1.3262 -0.9891
  241MPD1    H1 3660   2.894   4.145  15.279  0.4609  0.2533  1.2785
  241MPD1    H2 3661   2.647   4.173  15.618  2.5614  0.0019 -0.0628
  241MPD1    H3 3662   2.873   4.150  15.527 -0.9080 -0.0473  1.6133
  241MPD1     N 3663   2.725   4.179  15.100  0.5068 -0.1792 -0.1569
  241MPD1    H5 3664   2.824   4.173  15.078  0.6582  2.0915 -0.1292
  241MPD1    N1 3665   2.427   4.198  15.482 -0.0238 -0.2485 -0.1346
  241MPD1    H6 3666   2.355   4.219  15.412  1.0098  2.3237 -0.4456
  241MPD1    H7 3667   2.401   4.109  15.524 -1.9669  0.5742  0.3948
  242MPD1     C 3668   2.268   2.843  15.929  0.6603  0.2040  0.2554
  242MPD1    C1 3669   2.168   2.871  15.839 -0.0003  0.2629 -0.0399
  242MPD1    C2 3670   2.202   2.891  15.705 -0.1270 -0.2095  0.4709
  242MPD1    C3 3671   2.337   2.880  15.661 -0.2695 -1.0146  0.5841
  242MPD1    C4 3672   2.436   2.855  15.756  0.1633 -0.2286 -0.1783
  242MPD1    C5 3673   2.396   2.841  15.885 -0.2149 -0.0797  0.6033
  242MPD1     H 3674   2.122   2.915  15.636  0.5880  2.0981  0.4516
  242MPD1    H1 3675   2.541   2.846  15.729  0.0768  0.0411 -0.5988
  242MPD1    H2 3676   2.247   2.830  16.034 -1.4390  1.5228  0.0069
  242MPD1    H3 3677   2.474   2.834  15.960 -2.1264  0.2974  2.6232
  242MPD1     N 3678   2.367   2.902  15.520 -0.1604  0.1048  0.1411
  242MPD1    H5 3679   2.464   2.907  15.489 -0.5687 -0.9759 -1.3066
  242MPD1    N1 3680   2.039   2.908  15.881  1.0915  0.0107  0.1243
  242MPD1    H6 3681   1.969   2.913  15.807  0.5597 -0.2655  0.6097
  242MPD1    H7 3682   1.998   2.844  15.948 -1.2571 -0.1008 -1.4035
  243MPD1     C 3683   3.661   2.791   0.133  0.1260 -0.6604 -0.0100
  243MPD1    C1 3684   3.736   2.687   0.184  0.4339  0.4209 -0.4136
  243MPD1    C2 3685   3.788   2.607   0.088 -0.2007 -0.1297  0.1192
  243MPD1    C3 3686   3.772   2.609  17.630 -0.2890 -0.0691  0.0826
  243MPD1    C4 3687   3.693   2.714  17.580  0.2018  0.5504 -0.3392
  243MPD1    C5 3688   3.645   2.804  17.676  0.6185  0.0836  0.1574
  243MPD1     H 3689   3.854   2.527   0.122  0.5679  1.4955  2.5109
  243MPD1    H1 3690   3.666   2.730  17.476 -1.5856 -0.3732 -0.0165
  243MPD1    H2 3691   3.597   2.850   0.197  0.2160 -0.6651  0.0846
  243MPD1    H3 3692   3.577   2.882  17.642  2.1745  0.8711 -1.1180
  243MPD1     N 3693   3.845   2.517  17.545 -0.9919 -0.8438  0.4839
  243MPD1    H5 3694   3.876   2.430  17.588 -0.2619 -0.0544  1.5549
  243MPD1    N1 3695   3.766   2.673   0.317 -0.3607 -0.5660  0.2790
  243MPD1    H6 3696   3.790   2.578   0.346 -1.9511 -1.2732 -0.6858
  243MPD1    H7 3697   3.689   2.714   0.370 -0.0524  0.2416  0.0877
  244MPD1     C 3698   3.694   1.732   0.055 -0.4371 -0.3068  0.1281
  244MPD1    C1 3699   3.749   1.847   0.118  0.3235  0.3660  0.2240
  244MPD1    C2 3700   3.812   1.946   0.047 -0.6060  0.6748 -0.1418
  244MPD1    C3 3701   3.819   1.935  17.581 -0.5020  0.5162 -0.2764
  244MPD1    C4 3702   3.745   1.828  17.522  0.0904  0.5159  0.2378
  244MPD1    C5 3703   3.689   1.733  17.600 -0.9312  0.0754  0.2098
  244MPD1     H 3704   3.851   2.033   0.098  0.7144  1.2423 -2.1129
  244MPD1    H1 3705   3.734   1.806  17.416  0.2741  1.0282  0.1115
  244MPD1    H2 3706   3.641   1.650   0.103  0.3695  0.5676  2.4993
  244MPD1    H3 3707   3.631   1.653  17.554  1.1694 -1.4538  0.2069
  244MPD1     N 3708   3.881   2.042  17.509 -0.8389 -0.2668  0.3702
  244MPD1    H5 3709   3.919   2.117  17.565 -2.3678  0.8314 -0.0750
  244MPD1    N1 3710   3.761   1.847   0.264 -0.6010 -0.4901 -0.3312
  244MPD1    H6 3711   3.698   1.778   0.305  0.1052 -1.3023 -0.6057
  244MPD1    H7 3712   3.743   1.935   0.311 -2.1326 -0.7378 -0.4385
  245MPD1     C 3713   1.593   2.187  13.270  0.3745  0.3753  0.1358
  245MPD1    C1 3714   1.671   2.301  13.278  0.1080 -0.6253 -0.0377
  245MPD1    C2 3715   1.609   2.415  13.325  0.6581  0.0807 -0.4475
  245MPD1    C3 3716   1.475   2.424  13.349  0.4906  0.0779 -0.8653
  245MPD1    C4 3717   1.394   2.312  13.334 -0.1507  0.6236  1.0276
  245MPD1    C5 3718   1.459   2.195  13.299  0.0191  0.1233  0.0538
  245MPD1     H 3719   1.663   2.509  13.330 -0.4026  0.6082  1.2990
  245MPD1    H1 3720   1.286   2.321  13.337 -0.3823 -1.6107 -0.9295
  245MPD1    H2 3721   1.641   2.094  13.243  0.1853 -0.0586  1.3369
  245MPD1    H3 3722   1.400   2.105  13.284 -1.8778  1.2050  0.9251
  245MPD1     N 3723   1.428   2.546  13.397  0.3864 -0.2127 -0.8200
  245MPD1    H5 3724   1.496   2.620  13.411 -1.0744  0.7654  1.0254
  245MPD1    N1 3725   1.813   2.289  13.272 -0.1338 -0.4490  0.4919
  245MPD1    H6 3726   1.865   2.375  13.252 -1.6438  0.4930  0.5710
  245MPD1    H7 3727   1.837   2.213  13.208  1.9767 -0.0715  0.8426
  246MPD1     C 3728   1.184   1.491   8.479 -0.0623 -0.7072  0.3286
  246MPD1    C1 3729   1.308   1.486   8.409  0.1101  0.4302 -0.4172
  246MPD1    C2 3730   1.414   1.553   8.478 -0.4467  0.0931 -0.4171
  246MPD1    C3 3731   1.395   1.621   8.595 -0.2695  0.6549 -0.8002
  246MPD1    C4 3732   1.271   1.625   8.652  0.4518 -0.3009  0.1694
  246MPD1    C5 3733   1.169   1.554   8.593 -0.0073  0.0502  0.5777
  246MPD1     H 3734   1.510   1.546   8.429  0.6232  0.7991  1.5546
  246MPD1    H1 3735   1.236   1.689   8.733  3.0941  0.7313  0.5035
  246MPD1    H2 3736   1.097   1.450   8.428 -1.6538 -1.4449  3.6547
  246MPD1    H3 3737   1.079   1.532   8.650 -0.8237  4.3235  0.9530
  246MPD1     N 3738   1.509   1.682   8.652 -0.3305  0.4926 -0.2378
  246MPD1    H5 3739   1.602   1.665   8.617  0.0314  2.5231 -0.2267
  246MPD1    N1 3740   1.323   1.402   8.299  0.3490  0.5214 -0.1675
  246MPD1    H6 3741   1.247   1.401   8.231  1.3310 -0.0593 -1.2741
  246MPD1    H7 3742   1.409   1.430   8.251  0.7964 -0.1645  0.2224
  247MPD1     C 3743   0.093   2.713  16.793  0.0193  0.2128  0.1343
  247MPD1    C1 3744   0.160   2.771  16.687 -0.3694  0.4254  0.1807
  247MPD1    C2 3745   0.193   2.696  16.572  1.1076  0.2411 -0.5387
  247MPD1    C3 3746   0.162   2.563  16.564 -0.0418 -0.3979 -0.3331
  247MPD1    C4 3747   0.090   2.509  16.671 -0.0059  0.4713  0.3200
  247MPD1    C5 3748   0.053   2.582  16.780 -0.1881  0.4470 -0.1808
  247MPD1     H 3749   0.235   2.755  16.491 -0.1037  0.7357 -0.8211
  247MPD1    H1 3750   0.057   2.405  16.672  1.4879 -0.0113 -0.2751
  247MPD1    H2 3751   0.058   2.761  16.883  1.1840  0.4168  0.4757
  247MPD1    H3 3752   0.000   2.534  16.861  2.4930 -1.2884  0.5275
  247MPD1     N 3753   0.195   2.474  16.459  0.6518 -0.0273  0.3164
  247MPD1    H5 3754   0.166   2.377  16.464 -2.0419  0.7476 -0.1788
  247MPD1    N1 3755   0.166   2.912  16.679 -0.0424  0.2402 -0.0902
  247MPD1    H6 3756   0.146   2.957  16.768  1.2733  0.4165  0.1267
  247MPD1    H7 3757   0.264   2.929  16.657  0.2475 -0.7871  0.4002
  248MPD1     C 3758   1.398   2.000   1.035  0.2083  0.5923  0.3407
  248MPD1    C1 3759   1.275   2.041   0.985  0.7544  0.0901 -0.2508
  248MPD1    C2 3760   1.181   2.101   1.069 -0.1907  0.4004  0.5325
  248MPD1    C3 3761   1.212   2.114   1.201  0.6473 -0.2023 -0.3258
  248MPD1    C4 3762   1.330   2.069   1.255 -0.0912  0.0439 -0.3297
  248MPD1    C5 3763   1.420   2.014   1.169  0.0661 -0.5785 -0.1524
  248MPD1     H 3764   1.091   2.147   1.029 -0.3433 -1.1097 -0.8749
  248MPD1    H1 3765   1.357   2.092   1.357 -1.2008 -0.0151 -0.0160
  248MPD1    H2 3766   1.478   1.955   0.977  0.5796 -0.5042  1.7134
  248MPD1    H3 3767   1.524   2.002   1.196 -0.1868  3.2965  2.6737
  248MPD1     N 3768   1.114   2.165   1.278 -0.2901  0.3553  0.3793
  248MPD1    H5 3769   1.031   2.194   1.227  2.1563  3.2425 -1.9458
  248MPD1    N1 3770   1.253   2.044   0.845  0.4853 -0.6216 -0.6353
  248MPD1    H6 3771   1.155   2.040   0.818 -0.0565  0.1536  1.2609
  248MPD1    H7 3772   1.293   1.964   0.796  0.5860 -0.0855 -1.4387
  249MPD1     C 3773   2.226   0.312  10.449  0.1675 -0.1716 -0.0410
  249MPD1    C1 3774   2.163   0.336  10.324  0.9520 -0.7845  0.1926
  249MPD1    C2 3775   2.240   0.395  10.227  0.2834  1.0415 -0.1525
  249MPD1    C3 3776   2.374   0.425  10.245 -0.3039  0.3541  0.3242
  249MPD1    C4 3777   2.435   0.381  10.358  0.0521 -0.0823  0.3130
  249MPD1    C5 3778   2.358   0.326  10.456  0.2782  0.0079 -0.7071
  249MPD1     H 3779   2.194   0.417  10.131 -2.0603  0.3852  0.8178
  249MPD1    H1 3780   2.539   0.400  10.381  0.3796 -1.2480 -0.1896
  249MPD1    H2 3781   2.168   0.272  10.532 -1.0650 -0.4557 -1.0299
  249MPD1    H3 3782   2.411   0.307  10.549  1.1118  0.2033 -1.1426
  249MPD1     N 3783   2.442   0.491  10.144 -0.1384 -0.4087  0.0108
  249MPD1    H5 3784   2.386   0.529  10.068 -0.6471  0.6992  0.9438
  249MPD1    N1 3785   2.029   0.328  10.291  0.1406  0.7173  0.3266
  249MPD1    H6 3786   2.011   0.320  10.191  0.5863 -0.8992  0.3833
  249MPD1    H7 3787   1.964   0.263  10.334  0.7329  0.0916  0.2627
  250MPD2     C 3788   4.431   0.784  13.331 -0.4522  0.2947 -0.6917
  250MPD2    C1 3789   4.368   0.839  13.222  0.3501 -0.0690  0.1640
  250MPD2    C2 3790   4.259   0.769  13.168 -0.4712  0.2542  0.1475
  250MPD2    C3 3791   4.208   0.659  13.235  0.1757  0.6202 -0.6629
  250MPD2    C4 3792   4.265   0.618  13.353  0.1219  0.0019 -0.3511
  250MPD2    C5 3793   4.375   0.681  13.404 -0.0881  0.7351  0.8700
  250MPD2     H 3794   4.220   0.798  13.071  3.9548 -1.7228 -2.2320
  250MPD2    H1 3795   4.216   0.538  13.408 -0.2845  2.1575  2.4064
  250MPD2    H2 3796   4.523   0.826  13.369 -0.4914 -0.7269  0.5063
  250MPD2    H3 3797   4.428   0.636  13.487 -1.7584  0.4755  1.7831
  250MPD2     N 3798   4.095   0.592  13.190 -0.2773  0.3854  0.1549
  250MPD2    H5 3799   4.081   0.502  13.234  1.3320 -0.0844 -0.2909
  250MPD2    N1 3800   4.427   0.950  13.158 -0.2405 -0.2530 -0.0020
  250MPD2    H7 3801   4.501   0.999  13.207 -0.0886 -1.6443  1.1647
  251TMC3    C1 3802   4.462   1.106  12.992  0.2433  0.0299  0.3043
  251TMC3    C2 3803   4.466   1.213  13.079 -0.1261 -0.3073  0.1709
  251TMC3    C3 3804   4.511   1.336  13.043 -0.1367  0.7610 -0.0951
  251TMC3    C4 3805   4.508   1.125  12.865  0.5439 -0.1828 -0.3124
  251TMC3    C5 3806   4.563   1.247  12.838 -0.1495  0.9715 -0.0188
  251TMC3    C6 3807   4.558   1.358  12.918 -0.5663 -0.4364 -0.8837
  251TMC3     C 3808   4.401   0.981  13.026 -0.6258  0.1768 -0.3303
  251TMC3     O 3809   4.343   0.929  12.928 -0.1640  0.3869  0.8283
  251TMC3     H 3810   4.416   1.203  13.175 -0.2811  4.8247  0.6246
  251TMC3    H1 3811   4.499   1.052  12.786 -0.0906 -1.6082  1.0768
  251TMC3    H2 3812   4.587   1.457  12.884 -0.1323 -0.8063 -1.5919
  251TMC3    C7 3813   4.690   1.224  12.769  0.4778  0.4333  0.6963
  251TMC3    C8 3814   4.469   1.445  13.130  0.0476  0.6521 -0.1208
  251TMC3    O1 3815   4.689   1.121  12.712  0.2818  0.6197 -0.3099
  251TMC3    O2 3816   4.456   1.411  13.245  0.2389 -0.3007  0.0817
  252TMC3    C1 3817   1.080   1.159   8.997  0.6064  0.4917 -0.4512
  252TMC3    C2 3818   1.194   1.230   9.013  0.5670  0.5890 -0.1023
  252TMC3    C3 3819   1.181   1.362   8.999 -0.0539 -0.1228  0.6179
  252TMC3    C4 3820   0.960   1.212   8.972  0.3286 -0.3651 -0.3074
  252TMC3    C5 3821   0.950   1.348   8.953 -0.7786  0.2352  0.4077
  252TMC3    C6 3822   1.061   1.426   8.974  0.4699  0.0726  0.3074
  252TMC3     C 3823   1.097   1.021   9.049  0.5040  0.1982  0.0866
  252TMC3     O 3824   1.214   0.990   9.065  0.4506 -0.4510  0.3969
  252TMC3     H 3825   1.293   1.190   9.031 -0.0027 -0.4479  0.7291
  252TMC3    H1 3826   0.870   1.157   8.949  0.8230 -0.4123 -2.1369
  252TMC3    H2 3827   1.065   1.531   8.949 -0.7257  0.3366  1.2183
  252TMC3    C7 3828   0.838   1.407   8.902 -0.0832 -0.1136 -0.0947
  252TMC3    C8 3829   1.305   1.440   9.022 -0.8529  0.5015  0.1006
  252TMC3    O1 3830   0.847   1.510   8.835  0.5571  0.8215  0.4605
  252TMC3    O2 3831   1.414   1.389   8.988  0.1184 -0.6649  0.7716
  253MPD2     C 3832   0.343   0.755  15.232 -0.1696  1.0027 -0.0873
  253MPD2    C1 3833   0.331   0.887  15.264 -0.8547 -0.0536 -0.2695
  253MPD2    C2 3834   0.406   0.935  15.364  0.1918  0.2898 -0.5206
  253MPD2    C3 3835   0.480   0.851  15.448  0.0975  0.2951  0.3768
  253MPD2    C4 3836   0.497   0.719  15.409 -0.5125  0.5941  0.9910
  253MPD2    C5 3837   0.424   0.675  15.306 -1.3666  1.0352 -0.3432
  253MPD2     H 3838   0.393   1.039  15.393 -1.4117  0.3456 -1.4236
  253MPD2    H1 3839   0.562   0.650  15.463 -0.9444  0.5743  1.4879
  253MPD2    H2 3840   0.276   0.717  15.156  2.5418 -1.8079 -1.0545
  253MPD2    H3 3841   0.424   0.574  15.265 -0.3938  0.7927  0.2660
  253MPD2     N 3842   0.528   0.898  15.575  0.1501 -0.0115  0.3052
  253MPD2    H5 3843   0.561   0.825  15.638 -0.7307 -0.3677  0.3456
  253MPD2    N1 3844   0.246   0.977  15.190  0.1261  0.0641  0.7141
  253MPD2    H7 3845   0.249   1.072  15.223  2.3736  0.5115 -0.7628
  254TMC3    C1 3846   0.500   1.011  15.771  0.7492  0.2227 -0.1941
  254TMC3    C2 3847   0.373   1.028  15.819  0.3628  0.0675  0.1684
  254TMC3    C3 3848   0.364   1.009  15.956 -0.2492  0.4771  0.5925
  254TMC3    C4 3849   0.602   0.977  15.854  0.6504 -0.7894 -1.0778
  254TMC3    C5 3850   0.584   0.955  15.981  0.1501  0.1162  0.3300
  254TMC3    C6 3851   0.462   0.977  16.041 -0.2763 -0.5907 -0.3855
  254TMC3     C 3852   0.508   1.022  15.629 -0.3665 -0.1372  0.4430
  254TMC3     O 3853   0.483   1.129  15.580 -0.6636  0.5321 -0.0205
  254TMC3     H 3854   0.290   1.034  15.750 -0.3871  1.4733  1.1988
  254TMC3    H1 3855   0.700   0.983  15.808  0.0995 -2.1328 -2.4429
  254TMC3    H2 3856   0.449   0.952  16.146 -3.4434  1.7162 -0.2218
  254TMC3    C7 3857   0.695   0.918  16.064 -0.1650  0.2283 -0.5445
  254TMC3    C8 3858   0.240   1.053  16.026 -0.1033 -0.1300 -0.1132
  254TMC3    O1 3859   0.803   0.937  16.014  0.3412 -0.0298  0.1743
  254TMC3    O2 3860   0.235   1.043  16.145 -0.5415  0.3899  0.2751
  255MPD2     C 3861   4.698   2.633  10.429  0.0779  0.4916 -0.8350
  255MPD2    C1 3862   0.061   2.623  10.319 -0.0824  0.2506 -1.2711
  255MPD2    C2 3863   0.128   2.501  10.298  0.7313 -0.2091  0.2391
  255MPD2    C3 3864   0.132   2.406  10.401 -0.6975 -0.2742 -0.7570
  255MPD2    C4 3865   0.046   2.421  10.509  0.1618  0.1118 -0.3021
  255MPD2    C5 3866   4.686   2.529  10.516  0.5493 -0.5814 -0.4595
  255MPD2     H 3867   0.201   2.495  10.218 -0.2458  2.4349 -0.8376
  255MPD2    H1 3868   0.050   2.360  10.598 -2.4459  0.4525  0.0586
  255MPD2    H2 3869   4.641   2.721  10.454 -0.8571 -1.0632  2.5449
  255MPD2    H3 3870   4.607   2.529  10.590  0.6055 -0.3707 -0.3989
  255MPD2     N 3871   0.230   2.301  10.414  0.7997 -0.2064 -0.5735
  255MPD2    H5 3872   0.198   2.228  10.477  0.3252  1.4687  1.1529
  255MPD2    N1 3873   0.060   2.730  10.237 -0.1383 -0.2303  0.5345
  255MPD2    H7 3874   0.008   2.810  10.271 -0.8850 -1.2451  1.7542
  256TMC3    C1 3875   0.115   2.888  10.075  0.0395  0.7623  0.6549
  256TMC3    C2 3876   0.215   2.934   9.998 -0.2346  0.4641  0.4302
  256TMC3    C3 3877   0.206   3.072   9.969 -0.4727  0.6309 -0.4834
  256TMC3    C4 3878   0.017   2.964  10.134  0.5069  0.2715 -0.4182
  256TMC3    C5 3879   0.031   3.097  10.126 -0.2611  0.0826  0.0961
  256TMC3    C6 3880   0.112   3.154  10.031 -0.9684  0.6997  0.5939
  256TMC3     C 3881   0.128   2.748  10.120 -0.8785 -0.1823  0.2703
  256TMC3     O 3882   0.194   2.677  10.049 -0.0243 -0.3214 -0.1490
  256TMC3     H 3883   0.290   2.870   9.952  0.7162  2.9345 -1.4541
  256TMC3    H1 3884   4.653   2.926  10.193  1.1150 -0.7026 -0.1868
  256TMC3    H2 3885   0.102   3.260  10.009  4.2507  0.9684 -0.4501
  256TMC3    C7 3886   4.658   3.182  10.192 -0.4321 -0.2803  0.1927
  256TMC3    C8 3887   0.313   3.133   9.891  0.1802 -0.8473  0.5832
  256TMC3    O1 3888   4.566   3.124  10.250  0.2071 -0.1799  1.4838
  256TMC3    O2 3889   0.419   3.070   9.877  0.4368 -0.1429  0.1501
  257MPD2     C 3890   3.305   1.150  12.956  0.7754 -0.3329 -0.2809
  257MPD2    C1 3891   3.206   1.077  12.892  0.3283 -0.2631 -0.2765
  257MPD2    C2 3892   3.161   0.960  12.943 -0.2070 -0.0646 -0.2458
  257MPD2    C3 3893   3.211   0.915  13.061 -0.0599  0.2019 -0.0498
  257MPD2    C4 3894   3.307   0.987  13.124 -0.5291 -0.3253 -0.1744
  257MPD2    C5 3895   3.351   1.109  13.082  0.5473 -0.8683  0.0539
  257MPD2     H 3896   3.078   0.912  12.893 -0.3359  0.3431 -0.4230
  257MPD2    H1 3897   3.357   0.948  13.213 -0.7613  0.2157  0.1957
  257MPD2    H2 3898   3.342   1.244  12.918  0.8315  0.2404  1.1746
  257MPD2    H3 3899   3.410   1.174  13.146  1.5755 -1.2644 -0.4979
  257MPD2     N 3900   3.173   0.790  13.111  0.6447  0.0377 -0.4591
  257MPD2    H5 3901   3.129   0.724  13.048  0.8333 -1.4165  0.9293
  257MPD2    N1 3902   3.160   1.128  12.768 -0.1813  0.0988  0.3415
  257MPD2    H7 3903   3.218   1.199  12.725 -2.3497  1.1958 -0.8074
  258TMC3    C1 3904   3.161   0.606  13.255  0.9252 -0.1002  0.1926
  258TMC3    C2 3905   3.160   0.519  13.148  0.3368  0.6415 -0.7437
  258TMC3    C3 3906   3.137   0.385  13.181 -0.1268 -0.7114 -0.3231
  258TMC3    C4 3907   3.138   0.562  13.385 -0.1628  0.4044  1.3124
  258TMC3    C5 3908   3.116   0.428  13.409  0.4563 -0.4976  0.3442
  258TMC3    C6 3909   3.119   0.332  13.305 -0.2183 -0.3556  0.2420
  258TMC3     C 3910   3.204   0.741  13.238 -0.2518 -0.1486 -0.0600
  258TMC3     O 3911   3.233   0.796  13.339 -0.2221  0.4284 -0.3567
  258TMC3     H 3912   3.161   0.548  13.043  0.1963 -0.0475 -0.9360
  258TMC3    H1 3913   3.164   0.615  13.476  1.9549  1.2168  0.2310
  258TMC3    H2 3914   3.090   0.229  13.323  0.9636 -0.8805 -0.8479
  258TMC3    C7 3915   3.091   0.390  13.550 -0.2606  0.1160  0.0638
  258TMC3    C8 3916   3.096   0.303  13.073  0.2907 -0.3808  0.3320
  258TMC3    O1 3917   3.059   0.473  13.629  0.0331  0.1030  0.1338
  258TMC3    O2 3918   3.028   0.363  12.988 -0.5957  0.2941  0.6347
  259MPD2     C 3919   1.622   2.253   0.993 -0.0957 -0.1098 -0.4664
  259MPD2    C1 3920   1.731   2.193   1.043 -0.1840 -0.2782 -0.6078
  259MPD2    C2 3921   1.821   2.135   0.956 -0.1508  0.9334  0.0250
  259MPD2    C3 3922   1.800   2.148   0.823 -0.0437  0.0302 -0.4549
  259MPD2    C4 3923   1.674   2.188   0.773 -0.1542  1.0918 -0.1013
  259MPD2    C5 3924   1.595   2.250   0.860  0.0954 -0.2353 -0.4874
  259MPD2     H 3925   1.901   2.085   1.010  0.7585  1.2545 -1.0202
  259MPD2    H1 3926   1.661   2.209   0.668 -0.5847 -1.3341 -0.5508
  259MPD2    H2 3927   1.546   2.302   1.054 -1.3944 -3.1990  0.4131
  259MPD2    H3 3928   1.512   2.312   0.827  0.8830  1.8938  1.4922
  259MPD2     N 3929   1.898   2.098   0.728  0.3089  0.1281  0.0865
  259MPD2    H5 3930   1.976   2.053   0.775 -1.2488 -0.5609  1.9967
  259MPD2    N1 3931   1.738   2.198   1.186 -0.6453  0.5410  0.0977
  259MPD2    H7 3932   1.658   2.243   1.229  0.3540  1.0115  1.4868
  260TMC3    C1 3933   1.998   2.043   0.519 -0.3239  0.1365  0.0694
  260TMC3    C2 3934   2.119   2.022   0.580  0.5337  0.2383  0.4495
  260TMC3    C3 3935   2.223   1.969   0.498 -0.2841  0.2888  0.1021
  260TMC3    C4 3936   1.986   2.020   0.385  0.5264 -0.2903  0.2672
  260TMC3    C5 3937   2.087   1.957   0.321  1.0047 -0.4812 -0.2529
  260TMC3    C6 3938   2.211   1.927   0.366  0.6143 -0.3854  0.6407
  260TMC3     C 3939   1.885   2.097   0.591  0.1639 -0.1744 -0.4434
  260TMC3     O 3940   1.791   2.123   0.515 -0.1548  0.9064  0.5837
  260TMC3     H 3941   2.154   2.067   0.672  0.3346  2.0829 -0.3784
  260TMC3    H1 3942   1.884   2.041   0.354  0.3717  0.0437  0.9919
  260TMC3    H2 3943   2.295   1.894   0.306  1.2913 -0.3036  1.5445
  260TMC3    C7 3944   2.057   1.891   0.201  0.4244 -0.0017 -0.0072
  260TMC3    C8 3945   2.353   1.952   0.554  0.3338  0.7184  0.2788
  260TMC3    O1 3946   2.151   1.850   0.135  0.5983  0.0350 -0.1908
  260TMC3    O2 3947   2.392   2.057   0.604  0.4168  0.2037 -0.5593
  261MPD2     C 3948   3.508   0.544  12.536  0.3565  0.2737  0.7690
  261MPD2    C1 3949   3.628   0.599  12.573  0.4818  0.0092  0.1898
  261MPD2    C2 3950   3.681   0.693  12.487  0.5605  1.2927 -0.1370
  261MPD2    C3 3951   3.615   0.735  12.373 -0.3227  0.3688 -0.2028
  261MPD2    C4 3952   3.498   0.672  12.339 -0.0109  0.0093  0.2347
  261MPD2    C5 3953   3.443   0.573  12.416  0.1421 -0.2100  0.2881
  261MPD2     H 3954   3.778   0.738  12.500  0.4424  0.9784  1.8696
  261MPD2    H1 3955   3.441   0.716  12.257 -1.9339 -3.1809 -0.1300
  261MPD2    H2 3956   3.456   0.470  12.596 -0.4802  0.3998  0.2004
  261MPD2    H3 3957   3.349   0.535  12.377  1.2260 -2.6950  0.1089
  261MPD2     N 3958   3.672   0.832  12.291  0.3004  0.3746  0.1900
  261MPD2    H5 3959   3.759   0.879  12.316  0.2610  1.6699 -2.0479
  261MPD2    N1 3960   3.706   0.568  12.692  0.0256 -0.0404  0.5339
  261MPD2    H7 3961   3.800   0.604  12.694 -0.2578  0.6614  1.0698
  262TMC3    C1 3962   3.733   0.943  12.095  0.2703  0.1852  0.0817
  262TMC3    C2 3963   3.702   0.992  11.971  0.3654  0.0944  0.3925
  262TMC3    C3 3964   3.806   1.037  11.892  0.2959  0.0614  0.0334
  262TMC3    C4 3965   3.860   0.912  12.132  0.3003 -0.2475  0.0157
  262TMC3    C5 3966   3.958   0.950  12.045 -0.9066  0.1528 -0.2591
  262TMC3    C6 3967   3.934   1.023  11.933  0.2019 -0.1209  0.2393
  262TMC3     C 3968   3.623   0.884  12.173  0.3140 -0.5236  0.0575
  262TMC3     O 3969   3.508   0.873  12.132 -0.7857  0.5737  0.3123
  262TMC3     H 3970   3.599   0.998  11.941  0.6288  0.9594 -0.3327
  262TMC3    H1 3971   3.890   0.855  12.219  0.2523  2.1292  1.6033
  262TMC3    H2 3972   4.018   1.068  11.881  0.9444 -2.2972 -0.4422
  262TMC3    C7 3973   4.045   0.841  12.040  0.5901 -0.1639  0.1197
  262TMC3    C8 3974   3.779   1.106  11.767  0.0275 -0.2905 -0.9501
  262TMC3    O1 3975   4.073   0.790  12.146 -0.3699 -0.4372 -0.8267
  262TMC3    O2 3976   3.877   1.137  11.700 -0.2363  0.3252  0.1111
  263MPD2     C 3977   0.337   4.689  10.908 -0.0506  0.5557 -0.0879
  263MPD2    C1 3978   0.378   0.095  10.963 -0.0944  0.2604  0.2826
  263MPD2    C2 3979   0.341   0.214  10.898  0.2982 -0.0868 -0.0834
  263MPD2    C3 3980   0.281   0.213  10.773  0.2829 -0.2842 -0.4042
  263MPD2    C4 3981   0.262   0.092  10.712  0.4226  0.1009  0.1226
  263MPD2    C5 3982   0.284   4.695  10.784 -0.0405  0.4353  0.1069
  263MPD2     H 3983   0.363   0.309  10.947  1.8146  0.8407 -2.5640
  263MPD2    H1 3984   0.225   0.088  10.610 -1.4764 -1.0070  0.8519
  263MPD2    H2 3985   0.359   4.589  10.944 -0.1627  0.5378 -0.0685
  263MPD2    H3 3986   0.248   4.602  10.742 -0.5473  0.1101  1.2574
  263MPD2     N 3987   0.264   0.340  10.716 -0.0595 -0.3398  0.0269
  263MPD2    H5 3988   0.278   0.424  10.771 -3.2168  0.7003 -0.7413
  263MPD2    N1 3989   0.448   0.098  11.083 -0.3048  0.7239 -0.0129
  263MPD2    H7 3990   0.477   0.005  11.110 -2.3111 -0.2573 -1.2452
  264TMC3    C1 3991   0.261   0.505  10.550 -0.3290  0.3833  0.7224
  264TMC3    C2 3992   0.282   0.600  10.644 -0.3175 -0.3081  0.7622
  264TMC3    C3 3993   0.325   0.724  10.597 -0.1144  0.4127 -0.7214
  264TMC3    C4 3994   0.274   0.540  10.418 -0.2534 -0.3855  0.3201
  264TMC3    C5 3995   0.317   0.661  10.378  0.1636 -0.6590 -0.6222
  264TMC3    C6 3996   0.343   0.756  10.466 -0.4035  0.9571 -0.4528
  264TMC3     C 3997   0.241   0.365  10.586  0.0178 -0.4374  0.1006
  264TMC3     O 3998   0.219   0.284  10.498  0.0836  0.4770 -0.6055
  264TMC3     H 3999   0.265   0.596  10.751 -1.2202  0.1221  0.6318
  264TMC3    H1 4000   0.255   0.465  10.343 -2.7889  1.6566 -1.0807
  264TMC3    H2 4001   0.371   0.856  10.434  2.0699  0.2971 -0.3032
  264TMC3    C7 4002   0.360   0.669  10.241  0.6060  0.6115 -0.5625
  264TMC3    C8 4003   0.344   0.828  10.694  0.0435 -0.4089 -0.1874
  264TMC3    O1 4004   0.390   0.558  10.192  0.9510  0.3217 -0.0011
  264TMC3    O2 4005   0.273   0.836  10.792 -0.0933  0.4350 -0.6475
  265MPD2     C 4006   2.024   0.446  15.334  0.1576 -0.0533  0.2168
  265MPD2    C1 4007   2.144   0.518  15.343 -0.1349 -0.0816  0.7403
  265MPD2    C2 4008   2.247   0.495  15.249  0.5052 -0.0240  0.2563
  265MPD2    C3 4009   2.234   0.389  15.160  0.0196 -0.7193  0.3437
  265MPD2    C4 4010   2.122   0.318  15.160  0.4295  0.2287 -0.4844
  265MPD2    C5 4011   2.020   0.345  15.244 -0.4327  0.4279 -0.0806
  265MPD2     H 4012   2.334   0.559  15.258  1.2850 -1.0699  0.3179
  265MPD2    H1 4013   2.112   0.230  15.097 -0.6428  2.0436 -2.8182
  265MPD2    H2 4014   1.947   0.450  15.410  0.2682 -0.7279  0.3656
  265MPD2    H3 4015   1.935   0.279  15.239  0.2674 -0.6501  2.3509
  265MPD2     N 4016   2.331   0.353  15.061  0.8437  0.3050  0.0158
  265MPD2    H5 4017   2.300   0.283  14.994 -0.8343  0.0476  1.0574
  265MPD2    N1 4018   2.166   0.614  15.449  0.1233 -0.1540 -0.7990
  265MPD2    H7 4019   2.255   0.663  15.443  0.5645 -0.3566  3.5105
  266TMC3    C1 4020   2.118   0.757  15.623  0.9632  0.1347  0.1064
  266TMC3    C2 4021   2.114   0.762  15.759 -0.1757 -0.6022  0.3148
  266TMC3    C3 4022   2.144   0.883  15.824 -0.2976  0.5523  1.2564
  266TMC3    C4 4023   2.136   0.874  15.552 -0.1369  0.4178  0.3378
  266TMC3    C5 4024   2.156   0.993  15.614 -0.2772 -0.1756  0.6292
  266TMC3    C6 4025   2.151   1.001  15.747  0.1626  0.0022 -0.6397
  266TMC3     C 4026   2.089   0.634  15.558 -0.3665  0.6167 -0.1952
  266TMC3     O 4027   1.998   0.569  15.607  0.6144 -0.1273  0.0129
  266TMC3     H 4028   2.105   0.667  15.810  2.8388  0.1579  2.2121
  266TMC3    H1 4029   2.136   0.867  15.444  2.4457 -2.4028  0.5335
  266TMC3    H2 4030   2.171   1.096  15.795  0.2831 -1.5875  2.4710
  266TMC3    C7 4031   2.171   1.112  15.542  0.3172  0.7495 -1.2710
  266TMC3    C8 4032   2.201   0.871  15.961  0.1056 -0.2859  0.4360
  266TMC3    O1 4033   2.093   1.147  15.453  0.5088 -0.5251 -0.2882
  266TMC3    O2 4034   2.207   0.754  16.003  0.6059 -0.5011 -0.5011
  267MPD2     C 4035   3.626   2.351   0.781  0.1245  0.2472  0.2473
  267MPD2    C1 4036   3.695   2.390   0.670 -0.5561 -0.0917  0.7628
  267MPD2    C2 4037   3.628   2.434   0.564  0.3951  0.3366  0.5262
  267MPD2    C3 4038   3.490   2.432   0.573  0.1193 -0.7070  0.5551
  267MPD2    C4 4039   3.420   2.393   0.687 -0.2088 -0.1429 -0.3725
  267MPD2    C5 4040   3.491   2.350   0.795 -0.2938  0.6278 -0.3517
  267MPD2     H 4041   3.675   2.472   0.474  2.9034 -0.6311  1.4427
  267MPD2    H1 4042   3.313   2.386   0.679 -0.2604  0.9644 -0.7344
  267MPD2    H2 4043   3.689   2.334   0.868  2.6811  0.9190 -1.4717
  267MPD2    H3 4044   3.443   2.317   0.886  0.6314  0.4957  0.0848
  267MPD2     N 4045   3.410   2.478   0.468 -0.1501  0.2602 -0.5212
  267MPD2    H5 4046   3.316   2.511   0.491 -0.4863  0.1797 -1.7594
  267MPD2    N1 4047   3.834   2.386   0.680 -0.0457 -0.5468 -0.3010
  267MPD2    H7 4048   3.877   2.357   0.767 -0.5568  0.2669  0.2257
  268TMC3    C1 4049   4.050   2.340   0.581 -0.7568 -0.2647 -0.1585
  268TMC3    C2 4050   4.107   2.295   0.467  0.4811  0.0065 -0.9936
  268TMC3    C3 4051   4.225   2.227   0.476  0.0331 -0.9951  0.2714
  268TMC3    C4 4052   4.114   2.338   0.700  0.1757  0.8035 -0.1695
  268TMC3    C5 4053   4.226   2.261   0.702 -0.0129 -0.1221 -0.1490
  268TMC3    C6 4054   4.279   2.194   0.596  0.2201  0.1815  0.4752
  268TMC3     C 4055   3.918   2.399   0.566 -0.0145 -0.3276 -0.2137
  268TMC3     O 4056   3.883   2.429   0.451 -0.2462 -0.5883 -0.1683
  268TMC3     H 4057   4.051   2.301   0.375 -0.8337  1.7719 -0.0782
  268TMC3    H1 4058   4.060   2.367   0.790 -0.5719  0.6485 -0.5685
  268TMC3    H2 4059   4.366   2.131   0.611  1.0686  0.7453 -2.0973
  268TMC3    C7 4060   4.274   2.224   0.834  0.5627  0.4820  0.2054
  268TMC3    C8 4061   4.241   2.121   0.381 -0.3597 -0.1927 -0.1446
  268TMC3    O1 4062   4.354   2.132   0.834 -0.1471  0.5575 -0.3602
  268TMC3    O2 4063   4.263   2.009   0.425 -0.6367 -0.3652 -0.5581
  269MPD2     C 4064   0.155   1.161  15.488  0.2503 -0.0129  0.0883
  269MPD2    C1 4065   0.013   1.184  15.492 -0.1284  0.0850  0.1915
  269MPD2    C2 4066   4.678   1.308  15.457 -0.2608  0.0262 -0.0021
  269MPD2    C3 4067   0.038   1.413  15.414 -0.3134 -0.7019  0.1649
  269MPD2    C4 4068   0.174   1.392  15.412  0.5751 -0.0578  0.4185
  269MPD2    C5 4069   0.228   1.266  15.439 -0.4209 -0.0756  0.6410
  269MPD2     H 4070   4.572   1.327  15.467 -0.2447  0.9646 -1.5485
  269MPD2    H1 4071   0.243   1.469  15.379 -1.2172  0.6683 -1.6141
  269MPD2    H2 4072   0.208   1.077  15.529 -1.0927 -0.3867  1.0648
  269MPD2    H3 4073   0.334   1.246  15.434 -0.7136 -1.0705 -1.5152
  269MPD2     N 4074   4.693   1.533  15.388 -0.9977 -0.3484 -0.4604
  269MPD2    H5 4075   4.594   1.532  15.409 -0.5505  0.5659  1.7014
  269MPD2    N1 4076   4.653   1.069  15.531  0.7047 -0.0076  0.4318
  269MPD2    H7 4077   4.704   0.982  15.548  0.4402  0.0095  1.3350
  270TMC3    C1 4078   4.473   0.931  15.597  0.6814 -0.3389  0.0629
  270TMC3    C2 4079   4.351   0.900  15.559 -0.2215 -0.1937  0.3433
  270TMC3    C3 4080   4.305   0.775  15.604 -0.4345  0.8067  0.4838
  270TMC3    C4 4081   4.567   0.854  15.658 -0.0593 -0.6943 -0.3956
  270TMC3    C5 4082   4.527   0.731  15.702 -0.4836  1.4185 -0.4293
  270TMC3    C6 4083   4.393   0.701  15.680  0.1973  0.9236 -0.0476
  270TMC3     C 4084   4.519   1.057  15.538  0.3013  0.2364 -0.5753
  270TMC3     O 4085   4.429   1.137  15.505 -0.4061  0.0848  0.6353
  270TMC3     H 4086   4.293   0.952  15.483  2.0765  0.4730 -0.9344
  270TMC3    H1 4087   4.672   0.879  15.662 -0.4660  0.3260  3.6285
  270TMC3    H2 4088   4.366   0.606  15.724  0.2008  0.5820 -0.7838
  270TMC3    C7 4089   4.620   0.627  15.687 -0.3045 -0.2004  0.6086
  270TMC3    C8 4090   4.265   0.701  15.490 -0.8108 -0.0027 -0.0805
  270TMC3    O1 4091   0.021   0.646  15.699 -0.1534  0.6138 -0.3491
  270TMC3    O2 4092   4.312   0.589  15.488 -0.4748 -0.1111 -0.5649
  271MPD2     C 4093   3.922   0.564  13.903  0.6920 -0.0380 -0.5223
  271MPD2    C1 4094   3.854   0.583  14.024  0.3959 -0.2121  0.0048
  271MPD2    C2 4095   3.738   0.660  14.022 -0.4110 -0.0848  0.2433
  271MPD2    C3 4096   3.687   0.702  13.906  0.2512 -0.7066  0.6658
  271MPD2    C4 4097   3.759   0.685  13.794  0.7272 -0.2929 -0.1718
  271MPD2    C5 4098   3.877   0.622  13.793 -0.6006  0.4706 -0.5425
  271MPD2     H 4099   3.687   0.679  14.115  0.4660 -2.7752  1.2664
  271MPD2    H1 4100   3.718   0.723  13.701  1.3085  2.2561  0.6071
  271MPD2    H2 4101   4.017   0.511  13.898  0.2016 -0.8798 -0.7766
  271MPD2    H3 4102   3.932   0.607  13.700 -2.8705 -1.8413 -1.5423
  271MPD2     N 4103   3.571   0.780  13.891  0.3762 -0.4687 -0.8661
  271MPD2    H5 4104   3.547   0.824  13.803 -0.6244  0.4104 -0.1552
  271MPD2    N1 4105   3.889   0.531  14.152  0.1292 -0.4317  0.4304
  271MPD2    H7 4106   3.834   0.560  14.233 -0.3801 -0.9962  0.2896
  272TMC3    C1 4107   4.018   0.416  14.308 -0.0072  0.1530 -0.0426
  272TMC3    C2 4108   4.082   0.301  14.344 -0.3631  0.2350 -0.2461
  272TMC3    C3 4109   4.098   0.274  14.476 -0.4152  0.2936 -0.2847
  272TMC3    C4 4110   3.971   0.507  14.399  0.5038  0.0628  0.2502
  272TMC3    C5 4111   3.978   0.471  14.526 -0.2682  0.2973 -0.6069
  272TMC3    C6 4112   4.047   0.357  14.571  0.0951  0.3043 -0.0611
  272TMC3     C 4113   3.988   0.439  14.172 -0.9904 -1.2389 -0.6040
  272TMC3     O 4114   4.046   0.374  14.088 -0.3791  0.4885 -0.2316
  272TMC3     H 4115   4.115   0.236  14.264 -0.0220 -1.3446  1.1640
  272TMC3    H1 4116   3.928   0.606  14.384 -1.5174 -0.3845  3.0683
  272TMC3    H2 4117   4.049   0.345  14.679 -0.1325 -1.1916 -0.2167
  272TMC3    C7 4118   3.930   0.559  14.632 -0.6209 -0.0226 -0.7438
  272TMC3    C8 4119   4.143   0.141  14.502 -0.5022  0.1607  0.3325
  272TMC3    O1 4120   3.910   0.514  14.745  0.0192  0.4439 -0.5227
  272TMC3    O2 4121   4.142   0.075  14.399 -0.3902  0.0340  0.0162
  273MPD2     C 4122   0.998   3.485  11.765 -0.2189 -0.5391  0.5706
  273MPD2    C1 4123   1.043   3.622  11.757  0.4712 -0.4905  0.3913
  273MPD2    C2 4124   1.038   3.688  11.638  0.2781  0.4055  0.0386
  273MPD2    C3 4125   0.995   3.632  11.527  0.7467  0.0972 -0.0190
  273MPD2    C4 4126   0.955   3.501  11.528  0.2067  0.1685  0.1063
  273MPD2    C5 4127   0.946   3.431  11.649 -0.0162 -0.2381 -0.1367
  273MPD2     H 4128   1.042   3.796  11.636  4.5919  0.2406  0.5918
  273MPD2    H1 4129   0.912   3.458  11.438  0.4878  0.9280 -0.3964
  273MPD2    H2 4130   1.011   3.423  11.853 -2.4475 -1.2501  0.3956
  273MPD2    H3 4131   0.918   3.326  11.641  0.7700 -0.2776 -2.3943
  273MPD2     N 4132   0.992   3.697  11.397 -0.1718  0.1668 -0.0897
  273MPD2    H5 4133   0.937   3.652  11.324  0.0932 -2.5241  1.3805
  273MPD2    N1 4134   1.094   3.685  11.873 -0.1271  0.1464 -0.6054
  273MPD2    H7 4135   1.108   3.624  11.953 -2.6490  0.6572  0.2331
  274TMC3    C1 4136   1.047   3.867  11.229 -0.2697 -0.8261  0.4744
  274TMC3    C2 4137   0.947   3.825  11.142  0.8185 -0.2982  0.0594
  274TMC3    C3 4138   0.935   3.897  11.028  0.0316  0.4342  0.5526
  274TMC3    C4 4139   1.123   3.976  11.200  0.1478 -1.3343  0.0021
  274TMC3    C5 4140   1.095   4.050  11.090 -0.4054  0.4840 -0.2304
  274TMC3    C6 4141   1.005   4.009  10.994  0.3930  0.2354  0.5806
  274TMC3     C 4142   1.068   3.809  11.373  0.8067 -0.1778 -0.4421
  274TMC3     O 4143   1.152   3.864  11.438  0.2113  0.7102  0.2462
  274TMC3     H 4144   0.891   3.732  11.152 -0.9852  0.8072  0.3117
  274TMC3    H1 4145   1.183   4.023  11.278  1.6499  0.0294 -1.9722
  274TMC3    H2 4146   0.966   4.073  10.916  0.4942 -0.2165  0.1610
  274TMC3    C7 4147   1.123   4.190  11.098  0.0070  0.4826  0.1955
  274TMC3    C8 4148   0.857   3.843  10.914  0.2900  0.0556  0.1786
  274TMC3    O1 4149   1.140   4.239  11.205  0.3219  0.1964 -0.8718
  274TMC3    O2 4150   0.788   3.747  10.949  0.3523  0.0934  0.2545
  275MPD2     C 4151   0.643   1.346  14.718  0.4396  0.5345  0.1562
  275MPD2    C1 4152   0.536   1.422  14.673 -0.6137 -0.0039  0.0032
  275MPD2    C2 4153   0.450   1.374  14.584 -0.1099 -0.0652  0.0972
  275MPD2    C3 4154   0.444   1.244  14.544 -0.5630 -0.0465  0.0307
  275MPD2    C4 4155   0.544   1.164  14.595 -0.3364 -0.2462 -0.0634
  275MPD2    C5 4156   0.638   1.217  14.687  0.4239  1.5507 -0.6385
  275MPD2     H 4157   0.373   1.444  14.553 -0.9274 -1.8504 -1.8724
  275MPD2    H1 4158   0.554   1.059  14.570  1.3318 -0.3141  0.8826
  275MPD2    H2 4159   0.717   1.381  14.789 -0.5818 -0.6176  1.7695
  275MPD2    H3 4160   0.722   1.157  14.719 -2.1584 -1.8026 -0.1694
  275MPD2     N 4161   0.361   1.198  14.439  0.5893  0.4290 -0.3031
  275MPD2    H5 4162   0.381   1.103  14.410 -0.9699 -0.4722  1.5372
  275MPD2    N1 4163   0.518   1.560  14.713 -0.7674 -0.1755  0.1493
  275MPD2    H7 4164   0.428   1.600  14.689 -0.9525  0.0202  1.2076
  276TMC3    C1 4165   0.575   1.788  14.769 -0.1907 -0.6676  0.2757
  276TMC3    C2 4166   0.444   1.826  14.756  0.6743 -0.4046 -0.9229
  276TMC3    C3 4167   0.398   1.952  14.779  0.1355 -0.2462  0.2905
  276TMC3    C4 4168   0.672   1.862  14.823 -0.1890  0.1355  0.3276
  276TMC3    C5 4169   0.625   1.989  14.842  0.2095  1.5662  0.5120
  276TMC3    C6 4170   0.498   2.038  14.817  0.1722  0.4214  0.0448
  276TMC3     C 4171   0.611   1.643  14.773 -0.2152 -0.0677  0.7750
  276TMC3     O 4172   0.719   1.602  14.819  0.4972 -0.1949 -0.2754
  276TMC3     H 4173   0.377   1.753  14.711  0.4114 -0.3855 -0.5553
  276TMC3    H1 4174   0.767   1.822  14.854 -0.3065 -2.8583 -3.2597
  276TMC3    H2 4175   0.470   2.143  14.828  1.2102  0.7901 -0.8850
  276TMC3    C7 4176   0.724   2.090  14.871 -0.6542  0.0008 -0.1111
  276TMC3    C8 4177   0.272   1.976  14.844 -0.6321 -0.6074 -0.1421
  276TMC3    O1 4178   0.688   2.200  14.917  0.7259 -0.0791 -0.2436
  276TMC3    O2 4179   0.207   2.067  14.808  0.1864  0.5063  0.2511
  277MPD2     C 4180   2.445   0.820  13.171  0.3699  0.0847 -0.2889
  277MPD2    C1 4181   2.316   0.842  13.224  0.1512  0.0491 -0.2271
  277MPD2    C2 4182   2.276   0.741  13.304  0.3031  0.4273 -0.5711
  277MPD2    C3 4183   2.354   0.641  13.354 -0.8719  0.2177 -0.3096
  277MPD2    C4 4184   2.480   0.629  13.306 -0.4803  0.8544  0.0168
  277MPD2    C5 4185   2.527   0.727  13.221  0.8323  0.0624 -0.3437
  277MPD2     H 4186   2.173   0.741  13.338 -0.1295  5.5234 -1.9346
  277MPD2    H1 4187   2.538   0.541  13.334  0.6505  1.5636 -0.1128
  277MPD2    H2 4188   2.496   0.896  13.113  0.0675  1.6781  1.5360
  277MPD2    H3 4189   2.633   0.725  13.199  0.6230  0.3705 -1.3969
  277MPD2     N 4190   2.295   0.553  13.444 -0.6528 -0.0404  0.3225
  277MPD2    H5 4191   2.200   0.575  13.469 -1.7196 -1.5711 -2.3491
  277MPD2    N1 4192   2.246   0.950  13.161 -0.2451 -0.3059  0.1501
  277MPD2    H7 4193   2.299   1.009  13.098 -0.8591 -0.8765 -0.8963
  278TMC3    C1 4194   2.254   0.355  13.555  0.9166 -0.2315 -0.4601
  278TMC3    C2 4195   2.233   0.227  13.521 -0.0967  0.6256 -0.1796
  278TMC3    C3 4196   2.117   0.172  13.576 -0.5020 -0.2285 -0.1561
  278TMC3    C4 4197   2.179   0.422  13.647  0.2244  0.1203 -0.0930
  278TMC3    C5 4198   2.064   0.366  13.691  0.3205  0.0178 -0.2809
  278TMC3    C6 4199   2.034   0.236  13.667 -0.0451  0.5553  0.2989
  278TMC3     C 4200   2.343   0.429  13.470  0.3149  0.1053 -0.2236
  278TMC3     O 4201   2.428   0.357  13.420 -0.1467 -0.2947 -0.6673
  278TMC3     H 4202   2.294   0.161  13.461 -1.0932  1.1310 -1.7389
  278TMC3    H1 4203   2.205   0.523  13.677  0.2484 -0.0621  0.4938
  278TMC3    H2 4204   1.954   0.185  13.721  1.3645 -0.6643  1.2335
  278TMC3    C7 4205   1.978   0.451  13.776 -0.6825  0.3292  0.5332
  278TMC3    C8 4206   2.103   0.029  13.568 -0.7435  0.0528 -0.4143
  278TMC3    O1 4207   2.030   0.543  13.840  0.0163 -0.4194 -0.2675
  278TMC3    O2 4208   2.199   4.679  13.608  0.4054  0.0428  0.0897
  279MPD2     C 4209   1.446   0.964   0.032  0.1020  0.0386 -0.0456
  279MPD2    C1 4210   1.374   0.863  17.657  0.4640  0.2155  0.1343
  279MPD2    C2 4211   1.426   0.785  17.555 -0.6394 -1.4566 -0.4088
  279MPD2    C3 4212   1.544   0.826  17.490 -0.1977  0.1015 -0.2282
  279MPD2    C4 4213   1.609   0.936  17.541 -0.4869  0.2428  0.5700
  279MPD2    C5 4214   1.570   0.994  17.653  0.3641  0.7680  0.4976
  279MPD2     H 4215   1.372   0.700  17.514 -1.7761 -1.5224  1.2461
  279MPD2    H1 4216   1.706   0.958  17.499  0.7569 -0.9666  2.7966
  279MPD2    H2 4217   1.409   1.016   0.120  1.6076  1.0680 -0.0082
  279MPD2    H3 4218   1.623   1.079   0.016  1.3459  0.4503 -0.1069
  279MPD2     N 4219   1.596   0.776  17.369  0.4973 -0.1207 -0.5414
  279MPD2    H5 4220   1.676   0.822  17.326 -0.8174  0.8092 -2.0474
  279MPD2    N1 4221   1.239   0.841   0.007 -0.3816 -0.1543  0.6982
  279MPD2    H7 4222   1.189   0.774  17.628  0.9846  0.2991 -1.0231
  280TMC3    C1 4223   1.024   0.849   0.101 -0.0309  0.2975 -0.1333
  280TMC3    C2 4224   0.953   0.819   0.220  0.2733 -0.1178  0.0873
  280TMC3    C3 4225   0.829   0.770   0.198  0.6226 -0.4198 -0.0062
  280TMC3    C4 4226   0.972   0.827  17.649  0.2494  0.1931 -0.3060
  280TMC3    C5 4227   0.847   0.777  17.644  0.1789 -0.0267  0.1955
  280TMC3    C6 4228   0.768   0.754   0.078  0.5342  0.2804 -0.0026
  280TMC3     C 4229   1.158   0.895   0.105 -0.6166  0.4167 -0.4699
  280TMC3     O 4230   1.190   0.953   0.206 -0.5235  0.5062  0.5549
  280TMC3     H 4231   0.994   0.838   0.318 -0.5653 -0.3498  0.4882
  280TMC3    H1 4232   1.026   0.864  17.562 -0.8965 -0.2966 -1.2098
  280TMC3    H2 4233   0.664   0.723   0.076  0.9788 -1.1696 -1.0416
  280TMC3    C7 4234   0.792   0.770  17.505  0.4278  0.8768 -0.5498
  280TMC3    C8 4235   0.767   0.701   0.306  0.3963 -0.3813  0.3809
  280TMC3    O1 4236   0.872   0.761  17.409 -0.4278 -0.4761  0.2043
  280TMC3    O2 4237   0.646   0.712   0.331 -0.3131 -0.9392 -0.1897
  281TMC3    C1 4238   0.279   0.961  12.951 -0.2563 -0.2449  0.8615
  281TMC3    C2 4239   0.372   0.949  12.857  0.0278  0.2980 -0.3868
  281TMC3    C3 4240   0.323   0.898  12.735 -0.6728 -0.3675 -0.1260
  281TMC3    C4 4241   0.147   0.922  12.945 -0.2727 -0.0053 -0.9081
  281TMC3    C5 4242   0.110   0.861  12.833 -0.6211  0.4085 -0.8385
  281TMC3    C6 4243   0.200   0.842  12.730 -0.0762  0.1322  0.0796
  281TMC3     C 4244   0.304   1.029  13.066  0.2255 -0.8429  0.8508
  281TMC3     O 4245   0.395   0.988  13.133 -0.1206 -0.7728 -0.4854
  281TMC3     H 4246   0.474   0.979  12.878 -0.6176  1.1879  1.4971
  281TMC3    H1 4247   0.081   0.945  13.028 -0.4136  2.3493 -1.6524
  281TMC3    H2 4248   0.161   0.818  12.632 -0.8923 -0.0685  0.4493
  281TMC3    C7 4249   4.704   0.797  12.818 -0.7323 -0.5569  0.4655
  281TMC3    C8 4250   0.398   0.930  12.614  0.3175 -0.7772  0.6918
  281TMC3    O1 4251   4.643   0.780  12.715 -0.2407 -0.3171  0.6434
  281TMC3    O2 4252   0.412   0.845  12.527 -0.1236 -0.2179 -0.0156
  282MPD2     C 4253   2.044   2.269  15.093 -0.6351  0.1643  0.0077
  282MPD2    C1 4254   1.911   2.288  15.121 -0.3429 -0.2337  0.4067
  282MPD2    C2 4255   1.831   2.344  15.032 -0.3138 -0.6392  0.5325
  282MPD2    C3 4256   1.872   2.371  14.900 -0.0278 -1.4049 -0.3505
  282MPD2    C4 4257   2.003   2.330  14.866  0.2217 -0.2055 -0.0739
  282MPD2    C5 4258   2.086   2.283  14.965 -0.2531 -0.1392 -0.5744
  282MPD2     H 4259   1.733   2.373  15.069 -0.0237 -1.2128  1.7237
  282MPD2    H1 4260   2.059   2.363  14.779  1.3424 -0.3869  0.5759
  282MPD2    H2 4261   2.110   2.218  15.162  0.3205  0.1635 -0.9057
  282MPD2    H3 4262   2.192   2.273  14.949 -0.1979  0.6972 -0.7098
  282MPD2     N 4263   1.793   2.444  14.809  0.3795 -0.4345  0.2024
  282MPD2    H5 4264   1.845   2.470  14.726 -1.6367  2.8625 -0.0400
  282MPD2    N1 4265   1.873   2.278  15.253  0.2117 -0.6103 -0.4985
  282MPD2    H7 4266   1.945   2.267  15.324  0.6608 -0.8843 -0.9955
  283TMC3    C1 4267   1.718   2.266  15.428  0.6079  0.0783 -0.2325
  283TMC3    C2 4268   1.763   2.380  15.496 -0.5693 -0.0243 -0.1426
  283TMC3    C3 4269   1.698   2.402  15.615  0.1786  1.4156  0.3640
  283TMC3    C4 4270   1.608   2.198  15.461  0.0480 -0.4373  0.4140
  283TMC3    C5 4271   1.538   2.239  15.571 -0.1115  0.5591 -0.2008
  283TMC3    C6 4272   1.585   2.332  15.659 -0.4616  0.5065  0.3528
  283TMC3     C 4273   1.743   2.251  15.289  0.3336 -0.5192  0.2922
  283TMC3     O 4274   1.648   2.218  15.218  0.1298  0.1262 -0.0834
  283TMC3     H 4275   1.835   2.452  15.458  0.5777 -0.6407  0.8927
  283TMC3    H1 4276   1.572   2.117  15.398 -0.7759 -1.6970  2.4965
  283TMC3    H2 4277   1.530   2.357  15.749 -2.1534  0.1996 -0.6085
  283TMC3    C7 4278   1.397   2.200  15.581  0.0830  0.4298 -0.1464
  283TMC3    C8 4279   1.729   2.508  15.698  0.4219 -0.0926 -0.3013
  283TMC3    O1 4280   1.340   2.243  15.682 -0.1652 -0.4436  0.2148
  283TMC3    O2 4281   1.690   2.511  15.817  0.1769 -0.1381  0.2539
  284MPD2     C 4282   0.656   1.994  11.607 -0.6508  0.1262  1.2141
  284MPD2    C1 4283   0.747   1.907  11.555 -0.1110  0.6988 -0.6364
  284MPD2    C2 4284   0.708   1.774  11.529 -0.6556 -0.4328  0.2501
  284MPD2    C3 4285   0.574   1.742  11.516  0.4840  0.3205  0.0013
  284MPD2    C4 4286   0.480   1.836  11.559  0.0939 -0.3260  0.4958
  284MPD2    C5 4287   0.518   1.959  11.603  0.2554  0.0135 -0.3933
  284MPD2     H 4288   0.782   1.699  11.506 -1.1849 -0.7411 -0.4720
  284MPD2    H1 4289   0.373   1.821  11.549 -0.5917  4.6875  0.7307
  284MPD2    H2 4290   0.692   2.090  11.643 -1.3705 -0.0109  2.3232
  284MPD2    H3 4291   0.441   2.027  11.637  1.0980  1.4217 -1.3020
  284MPD2     N 4292   0.533   1.614  11.462 -0.1479 -0.5727  0.0381
  284MPD2    H5 4293   0.432   1.605  11.464 -0.3846  1.8594 -1.0820
  284MPD2    N1 4294   0.886   1.933  11.544  0.1626 -0.3295  0.1924
  284MPD2    H7 4295   0.936   1.851  11.513 -0.6480 -0.4155 -0.9024
  285TMC3    C1 4296   1.101   2.027  11.541  0.4492  0.1525  0.1239
  285TMC3    C2 4297   1.122   1.925  11.448  0.1644 -0.5462  0.1442
  285TMC3    C3 4298   1.236   1.919  11.375  0.3016  0.7155  0.5416
  285TMC3    C4 4299   1.197   2.123  11.570  0.0347  0.3844  0.2061
  285TMC3    C5 4300   1.315   2.105  11.503 -0.6695  0.3762  0.0855
  285TMC3    C6 4301   1.334   2.012  11.399 -0.4499  0.0005 -0.0048
  285TMC3     C 4302   0.960   2.044  11.578  0.3433 -0.3910 -0.4696
  285TMC3     O 4303   0.925   2.158  11.610 -0.0058 -0.0612 -0.7054
  285TMC3     H 4304   1.064   1.834  11.442  0.1096 -0.5518  0.7606
  285TMC3    H1 4305   1.173   2.203  11.638 -0.0749  2.4397 -2.2451
  285TMC3    H2 4306   1.429   2.012  11.347 -0.0659 -2.3013  0.6941
  285TMC3    C7 4307   1.409   2.217  11.507  0.1147  0.4086 -0.2526
  285TMC3    C8 4308   1.239   1.833  11.261  0.3585  0.4641  0.3756
  285TMC3    O1 4309   1.471   2.232  11.405  0.5634  0.6889  0.0811
  285TMC3    O2 4310   1.150   1.751  11.238 -0.0040  0.5287 -0.3735
  286MPD2     C 4311   0.582   0.696   1.368  0.5425 -0.3871 -0.3971
  286MPD2    C1 4312   0.532   0.639   1.250 -0.6558  0.5810  0.2136
  286MPD2    C2 4313   0.584   0.514   1.206 -0.6368  0.5013 -0.2952
  286MPD2    C3 4314   0.697   0.465   1.267  0.2737 -0.3633 -0.4600
  286MPD2    C4 4315   0.743   0.522   1.382 -0.0364  0.6330 -0.0645
  286MPD2    C5 4316   0.691   0.636   1.432  0.3453  0.6134 -0.2455
  286MPD2     H 4317   0.539   0.459   1.124 -0.7276  1.9343 -1.2157
  286MPD2    H1 4318   0.837   0.490   1.427 -0.5692  0.2747  0.7978
  286MPD2    H2 4319   0.538   0.786   1.411  1.5464 -0.0122 -0.1378
  286MPD2    H3 4320   0.746   0.686   1.510  0.7894 -2.3465  1.3332
  286MPD2     N 4321   0.764   0.352   1.219 -0.4339  0.4693 -0.1418
  286MPD2    H5 4322   0.821   0.306   1.289 -0.8562  0.3436  0.1200
  286MPD2    N1 4323   0.431   0.701   1.181 -0.1748  0.1650  0.1232
  286MPD2    H7 4324   0.409   0.663   1.090  0.7048 -1.8194  0.7235
  287TMC3    C1 4325   0.819   0.181   1.089  0.0512  0.8972  0.7303
  287TMC3    C2 4326   0.777   0.083   1.003  0.0933  0.4816 -0.1382
  287TMC3    C3 4327   0.870   4.708   0.964  0.2828  0.6382 -0.3863
  287TMC3    C4 4328   0.950   0.204   1.114 -0.2399 -0.0218 -0.2112
  287TMC3    C5 4329   1.044   0.106   1.065  0.4268  0.2503  0.3636
  287TMC3    C6 4330   1.003   4.712   0.989  0.9101  0.4790 -0.3526
  287TMC3     C 4331   0.738   0.292   1.097  0.1046 -0.3061 -0.3279
  287TMC3     O 4332   0.656   0.309   1.008 -0.1723  0.8244 -0.6114
  287TMC3     H 4333   0.672   0.060   0.999  0.3377 -0.8918  1.3965
  287TMC3    H1 4334   0.989   0.277   1.183 -1.5319  0.9762 -0.5464
  287TMC3    H2 4335   1.066   4.628   0.964  2.0333  0.9759  0.7652
  287TMC3    C7 4336   1.173   0.123   1.118  0.3374 -0.2790  0.6329
  287TMC3    C8 4337   0.820   4.597   0.880  0.2816 -0.4183 -0.1974
  287TMC3    O1 4338   1.202   0.228   1.175 -0.3130 -0.0133  0.9541
  287TMC3    O2 4339   0.902   4.519   0.832  0.3703  0.2435  0.0992
  288TMC3    C1 4340   2.864   0.041  14.029  0.1826  0.2131  0.1501
  288TMC3    C2 4341   2.845   0.127  14.130 -0.4811  0.3801  0.0358
  288TMC3    C3 4342   2.812   0.253  14.097  0.2643 -0.4989 -0.0120
  288TMC3    C4 4343   2.852   0.071  13.897 -0.3978 -0.5278  0.3181
  288TMC3    C5 4344   2.811   0.198  13.865  0.2644 -0.7269 -0.1184
  288TMC3    C6 4345   2.795   0.289  13.968  0.1441 -0.0386 -0.1426
  288TMC3     C 4346   2.913   4.633  14.068  0.3255  0.1480  0.3702
  288TMC3     O 4347   2.903   4.608  14.189 -0.1146 -0.2329  0.4427
  288TMC3     H 4348   2.868   0.102  14.233 -0.6592  0.3624  0.0721
  288TMC3    H1 4349   2.840   4.708  13.826  1.0638 -0.1077 -0.4100
  288TMC3    H2 4350   2.760   0.388  13.941  1.1764 -0.0214 -1.4188
  288TMC3    C7 4351   2.779   0.245  13.731 -0.1002 -0.2342 -0.6606
  288TMC3    C8 4352   2.729   0.322  14.194 -0.1851  0.4289 -0.1294
  288TMC3    O1 4353   2.725   0.357  13.728 -0.1932 -0.0352  0.3361
  288TMC3    O2 4354   2.714   0.440  14.166 -0.0433 -0.2746 -0.3713
  289MPD2     C 4355   2.606   3.903  14.360  0.3992 -0.2331 -0.1784
  289MPD2    C1 4356   2.550   4.020  14.396  0.5677 -0.4052 -0.0098
  289MPD2    C2 4357   2.429   4.057  14.338 -0.7791  0.4099  0.7595
  289MPD2    C3 4358   2.369   3.979  14.233  0.3191 -0.1125 -0.4623
  289MPD2    C4 4359   2.435   3.861  14.197  0.5644  0.0002 -0.2238
  289MPD2    C5 4360   2.549   3.823  14.262  0.6566  0.2669 -0.3914
  289MPD2     H 4361   2.393   4.158  14.352 -2.7037 -0.1198 -0.4053
  289MPD2    H1 4362   2.405   3.807  14.108  2.7481  0.9416 -1.5385
  289MPD2    H2 4363   2.685   3.858  14.418  0.3861  1.1217  0.8799
  289MPD2    H3 4364   2.604   3.736  14.228 -1.1161 -1.4198  1.0131
  289MPD2     N 4365   2.254   4.015  14.152  0.2045  0.4150 -0.2913
  289MPD2    H5 4366   2.213   3.938  14.100 -1.3180  0.5998  0.6336
  289MPD2    N1 4367   2.613   4.100  14.495 -0.1748  0.8286  0.5615
  289MPD2    H7 4368   2.703   4.067  14.527  0.3606  0.6027 -1.1487
  290TMC3    C1 4369   2.108   4.169  14.029 -0.3919  0.0313 -0.7126
  290TMC3    C2 4370   2.092   4.298  13.985  0.4932 -0.5819  0.1988
  290TMC3    C3 4371   1.976   4.332  13.922 -0.1631  0.2131  0.2169
  290TMC3    C4 4372   2.012   4.072  14.002 -0.2160 -1.2552 -0.5956
  290TMC3    C5 4373   1.895   4.119  13.944  0.0218  0.2611  0.1033
  290TMC3    C6 4374   1.877   4.244  13.905  0.2382  0.8455 -0.2250
  290TMC3     C 4375   2.213   4.145  14.129  0.1461 -0.8405 -0.3866
  290TMC3     O 4376   2.273   4.246  14.159 -0.7291 -0.5642  1.1993
  290TMC3     H 4377   2.171   4.370  14.002  0.1865 -0.2081  0.0360
  290TMC3    H1 4378   2.031   3.968  14.026  3.1121 -0.4235  0.3714
  290TMC3    H2 4379   1.798   4.274  13.837 -0.2860 -0.4317 -0.1665
  290TMC3    C7 4380   1.775   4.044  13.951 -0.3386  0.1250 -0.2800
  290TMC3    C8 4381   1.943   4.471  13.927 -0.7014  0.5029 -0.1814
  290TMC3    O1 4382   1.677   4.091  13.885 -0.3272 -0.2561 -0.3165
  290TMC3    O2 4383   1.837   4.498  13.981 -0.2557  0.2733 -0.2510
  291MPD2     C 4384   1.156   2.912   0.637 -0.5224 -0.7854 -0.6667
  291MPD2    C1 4385   1.153   2.972   0.516 -0.2028 -0.6804  0.4233
  291MPD2    C2 4386   1.228   3.085   0.495  0.2050 -0.4955 -0.5055
  291MPD2    C3 4387   1.298   3.142   0.599 -0.1230 -0.4967 -0.3258
  291MPD2    C4 4388   1.295   3.083   0.726  0.5069 -0.0584  0.1126
  291MPD2    C5 4389   1.225   2.967   0.745 -0.0582  0.2697  0.1498
  291MPD2     H 4390   1.238   3.125   0.394  1.1539  1.3069  0.3081
  291MPD2    H1 4391   1.344   3.132   0.810  2.6546 -0.0448 -1.1524
  291MPD2    H2 4392   1.083   2.835   0.661  0.2589 -1.3143  0.0443
  291MPD2    H3 4393   1.220   2.917   0.842 -1.1350 -0.2648 -0.1879
  291MPD2     N 4394   1.365   3.263   0.588 -0.1701  0.1793 -0.6387
  291MPD2    H5 4395   1.416   3.296   0.669 -2.4999  1.7559  0.1681
  291MPD2    N1 4396   1.075   2.917   0.413  0.4077  0.4899 -0.3480
  291MPD2    H7 4397   1.060   2.973   0.331 -2.4881 -3.2529 -2.3881
  292TMC3    C1 4398   0.903   2.786   0.325 -0.6788 -0.2675  0.0489
  292TMC3    C2 4399   0.810   2.888   0.333  0.5115  0.3651  0.1900
  292TMC3    C3 4400   0.694   2.863   0.269 -0.1274 -0.2789  0.5775
  292TMC3    C4 4401   0.877   2.667   0.266  0.2590  0.1575 -0.0210
  292TMC3    C5 4402   0.753   2.655   0.203 -0.5918  0.0739 -0.9973
  292TMC3    C6 4403   0.654   2.745   0.206  0.3129  0.7343  0.6237
  292TMC3     C 4404   1.021   2.792   0.411  0.1254 -0.4636  0.3707
  292TMC3     O 4405   1.036   2.692   0.476  0.0275  0.3397 -0.1772
  292TMC3     H 4406   0.844   2.985   0.368  1.5759 -0.6456  1.9659
  292TMC3    H1 4407   0.952   2.589   0.265 -0.7852 -0.8671  0.8052
  292TMC3    H2 4408   0.558   2.746   0.156  0.4617  0.4394  0.3295
  292TMC3    C7 4409   0.729   2.527   0.143  0.3747  0.2245 -0.6378
  292TMC3    C8 4410   0.594   2.961   0.302  0.2003  0.1038 -0.5567
  292TMC3    O1 4411   0.821   2.444   0.140 -0.8265 -0.4550  0.0638
  292TMC3    O2 4412   0.498   2.969   0.227 -0.0962  0.4061  0.3572
  293MPD2     C 4413   3.281   0.942  12.411 -0.2305 -0.0953  0.1201
  293MPD2    C1 4414   3.215   0.855  12.493 -0.1319  0.2058 -0.5233
  293MPD2    C2 4415   3.272   0.821  12.614  0.6688 -0.0728  0.0741
  293MPD2    C3 4416   3.397   0.873  12.653  0.0418 -0.1205 -0.3163
  293MPD2    C4 4417   3.465   0.964  12.572  0.1665  0.0147  0.7512
  293MPD2    C5 4418   3.403   0.993  12.449  0.2738 -0.1722 -0.2021
  293MPD2     H 4419   3.226   0.735  12.663 -2.5575  1.1243 -0.8658
  293MPD2    H1 4420   3.562   1.007  12.594  1.7569 -1.6007 -2.9658
  293MPD2    H2 4421   3.240   0.958  12.312  1.1743  1.1245 -0.2718
  293MPD2    H3 4422   3.463   1.046  12.376 -0.3349 -0.0496 -0.6070
  293MPD2     N 4423   3.453   0.839  12.778 -0.7319  0.0319  0.5598
  293MPD2    H5 4424   3.397   0.769  12.826 -2.6097  0.8481 -0.4581
  293MPD2    N1 4425   3.092   0.809  12.438 -0.3824 -0.0618 -0.1085
  293MPD2    H7 4426   3.064   0.845  12.348 -2.5568  1.4284  1.1617
  294TMC3    C1 4427   2.873   0.699  12.426  0.5000  0.7662  0.3106
  294TMC3    C2 4428   2.820   0.582  12.477  0.8151 -0.5472  0.3835
  294TMC3    C3 4429   2.683   0.576  12.481 -0.5406 -0.1269  0.4849
  294TMC3    C4 4430   2.801   0.799  12.369  0.1573 -0.2328 -0.5838
  294TMC3    C5 4431   2.663   0.788  12.376  0.0124 -0.2744  0.0779
  294TMC3    C6 4432   2.599   0.672  12.433  0.4496 -0.2292  0.0310
  294TMC3     C 4433   3.005   0.716  12.490  0.2899  0.6171  0.5922
  294TMC3     O 4434   3.023   0.664  12.600 -0.2634  0.9998 -0.2687
  294TMC3     H 4435   2.881   0.507  12.526 -0.2679 -2.0603 -0.5906
  294TMC3    H1 4436   2.853   0.882  12.323 -0.4624  0.4381 -0.0758
  294TMC3    H2 4437   2.491   0.674  12.443  0.5387 -2.8036  1.4271
  294TMC3    C7 4438   2.583   0.863  12.281  0.5060 -0.7195  0.2532
  294TMC3    C8 4439   2.622   0.445  12.493 -0.2413  0.2977  0.3271
  294TMC3    O1 4440   2.469   0.877  12.307 -0.3724  0.0520 -0.4436
  294TMC3    O2 4441   2.503   0.450  12.505 -0.1872  0.1863 -0.2353
  295MPD2     C 4442   4.702   3.832   0.333  0.6065  0.0564  0.0942
  295MPD2    C1 4443   4.584   3.769   0.313 -0.0424  0.1661  0.1224
  295MPD2    C2 4444   4.551   3.660   0.393  0.2231  0.3322  0.7540
  295MPD2    C3 4445   4.632   3.626   0.502  0.3550  0.0242  0.1038
  295MPD2    C4 4446   0.027   3.693   0.530 -0.0815  0.2880  0.0122
  295MPD2    C5 4447   0.061   3.800   0.446  1.1093 -0.0283 -0.0037
  295MPD2     H 4448   4.458   3.608   0.370  0.4855  0.6073 -0.8854
  295MPD2    H1 4449   0.094   3.664   0.609 -0.6065  0.5202  0.5376
  295MPD2    H2 4450   0.019   3.910   0.266  0.6510  0.4845  0.6201
  295MPD2    H3 4451   0.159   3.843   0.464  1.5877 -1.0081 -0.2904
  295MPD2     N 4452   4.599   3.517   0.589  0.3970 -0.1227 -0.1798
  295MPD2    H5 4453   4.654   3.510   0.674 -0.7606 -0.2895  0.5431
  295MPD2    N1 4454   4.490   3.805   0.202  0.1065  0.8036 -0.5442
  295MPD2    H7 4455   4.397   3.768   0.192  0.1100  1.2889 -2.4516
  296TMC3    C1 4456   4.478   3.361   0.707  0.1178  0.2113 -0.2894
  296TMC3    C2 4457   4.601   3.333   0.768  0.5789  0.2204 -0.5229
  296TMC3    C3 4458   4.610   3.311   0.903  0.2202  0.3324  0.3167
  296TMC3    C4 4459   4.366   3.381   0.778 -0.8372 -0.4490  0.7268
  296TMC3    C5 4460   4.383   3.379   0.917 -0.3851 -0.1157 -0.0494
  296TMC3    C6 4461   4.496   3.343   0.973  0.6625  0.4632 -0.2120
  296TMC3     C 4462   4.487   3.445   0.588 -0.2646 -0.2354 -0.0185
  296TMC3     O 4463   4.411   3.418   0.499 -0.2047  0.1862 -0.2112
  296TMC3     H 4464   4.681   3.290   0.709  1.3014  0.7075  0.1058
  296TMC3    H1 4465   4.277   3.400   0.720 -0.0325  0.9035 -0.0644
  296TMC3    H2 4466   4.487   3.329   1.080 -0.1742  1.1808 -0.1862
  296TMC3    C7 4467   4.286   3.447   0.997 -0.4339 -0.2503  0.6680
  296TMC3    C8 4468   0.020   3.325   0.959  0.1030 -0.7511 -0.4704
  296TMC3    O1 4469   4.331   3.487   1.104 -0.1793 -0.5704  0.5926
  296TMC3    O2 4470   0.111   3.279   0.896 -0.0215 -0.1991 -0.5098
  297MPD2     C 4471   1.168   0.987  16.099  0.5719 -0.2025 -0.1678
  297MPD2    C1 4472   1.122   1.117  16.096  0.3067  0.3095 -0.0947
  297MPD2    C2 4473   1.199   1.221  16.141  1.2717  0.0270 -1.0093
  297MPD2    C3 4474   1.325   1.197  16.192 -0.1414  0.1885 -0.3737
  297MPD2    C4 4475   1.364   1.064  16.207 -0.3041  0.0904 -0.1746
  297MPD2    C5 4476   1.286   0.962  16.160  0.0236 -0.3581  0.0816
  297MPD2     H 4477   1.182   1.324  16.111 -0.9476 -0.5364 -1.6522
  297MPD2    H1 4478   1.458   1.038  16.255 -0.1840  1.6480  0.4337
  297MPD2    H2 4479   1.113   0.903  16.060  0.2518  0.7900 -1.8246
  297MPD2    H3 4480   1.314   0.857  16.162  1.1166 -0.1166 -3.4010
  297MPD2     N 4481   1.414   1.307  16.210  0.6288  0.4432 -0.7460
  297MPD2    H5 4482   1.374   1.398  16.189 -2.1483 -0.5249  0.2891
  297MPD2    N1 4483   0.996   1.144  16.031  0.0910 -1.1082 -0.7284
  297MPD2    H7 4484   0.944   1.071  15.983 -1.6596  1.0797 -2.1749
  298TMC3    C1 4485   0.825   1.257  15.924 -0.0812 -0.0581 -0.7350
  298TMC3    C2 4486   0.851   1.204  15.797  0.0381 -0.1699  0.0202
  298TMC3    C3 4487   0.765   1.248  15.699 -0.3641  0.4960  0.6694
  298TMC3    C4 4488   0.717   1.332  15.957  0.1417  0.3735  0.2938
  298TMC3    C5 4489   0.630   1.358  15.857 -0.4926 -0.0247 -0.6098
  298TMC3    C6 4490   0.649   1.317  15.724 -0.3149 -0.0471  0.3590
  298TMC3     C 4491   0.937   1.261  16.018 -0.0600 -0.4666  0.5787
  298TMC3     O 4492   0.945   1.359  16.091  0.2224  0.2974  0.3693
  298TMC3     H 4493   0.943   1.156  15.767 -0.8505 -1.8240 -0.0407
  298TMC3    H1 4494   0.699   1.359  16.060 -2.2407 -1.5152  0.3700
  298TMC3    H2 4495   0.596   1.371  15.647 -0.7149  0.6495  1.1317
  298TMC3    C7 4496   0.497   1.370  15.911 -0.2917  0.0673  0.1140
  298TMC3    C8 4497   0.825   1.261  15.567 -0.2012  0.4941  0.2426
  298TMC3    O1 4498   0.485   1.352  16.027 -0.1069 -0.1754  0.3228
  298TMC3    O2 4499   0.949   1.272  15.569 -0.2704  0.1459  0.8571
  299MPD2     C 4500   1.944   1.303  10.661 -0.0621 -0.2260  0.0389
  299MPD2    C1 4501   2.059   1.366  10.606 -0.5445 -0.0222  0.1807
  299MPD2    C2 4502   2.047   1.408  10.473 -0.0979 -0.1270 -0.2834
  299MPD2    C3 4503   1.939   1.381  10.394  0.3545 -0.1856  0.5196
  299MPD2    C4 4504   1.830   1.322  10.445 -1.1275  0.3805 -0.1684
  299MPD2    C5 4505   1.833   1.280  10.583 -0.4389 -0.1246 -0.5306
  299MPD2     H 4506   2.140   1.453  10.439  0.0593  0.7979  1.3417
  299MPD2    H1 4507   1.743   1.317  10.381 -1.1556 -0.4908 -0.0629
  299MPD2    H2 4508   1.945   1.261  10.761  0.1625  1.6707  0.8210
  299MPD2    H3 4509   1.743   1.245  10.632 -0.8966 -0.4757 -1.6120
  299MPD2     N 4510   1.929   1.421  10.264  0.1335 -0.3646 -0.1957
  299MPD2    H5 4511   1.838   1.429  10.219 -1.6880  1.9814  3.8826
  299MPD2    N1 4512   2.171   1.380  10.688  0.0849 -0.4821 -0.2657
  299MPD2    H7 4513   2.163   1.326  10.773  0.2725 -1.3872 -0.8175
  300TMC3    C1 4514   1.990   1.497  10.054 -0.8862 -0.4738 -0.4219
  300TMC3    C2 4515   1.998   1.627  10.010 -0.1833 -0.1210 -0.2389
  300TMC3    C3 4516   1.911   1.667   9.911  0.2141 -0.2340  0.4454
  300TMC3    C4 4517   1.893   1.405  10.002 -0.0577 -0.1523 -1.0604
  300TMC3    C5 4518   1.811   1.453   9.899  0.4933 -0.7213 -0.3668
  300TMC3    C6 4519   1.823   1.579   9.848 -0.5604 -0.0043  0.0945
  300TMC3     C 4520   2.036   1.471  10.191  0.2461 -0.8661 -0.0793
  300TMC3     O 4521   2.146   1.517  10.220 -0.4022 -0.0217 -0.8667
  300TMC3     H 4522   2.066   1.697  10.058  0.1798 -1.3399  1.0370
  300TMC3    H1 4523   1.894   1.300  10.031  1.8672 -0.5750 -2.6232
  300TMC3    H2 4524   1.758   1.623   9.774  1.0140  0.1260 -1.2103
  300TMC3    C7 4525   1.687   1.378   9.877  0.2972 -0.1038  0.1935
  300TMC3    C8 4526   1.839   1.795   9.940  0.1031  0.6551 -0.2750
  300TMC3    O1 4527   1.640   1.386   9.763  0.1229  0.0622 -0.8106
  300TMC3    O2 4528   1.776   1.849   9.847  0.4976 -0.0234 -0.0542
  301MPD2     C 4529   3.325   2.324   1.719  0.0502  0.6117 -0.1330
  301MPD2    C1 4530   3.337   2.306   1.584 -0.2548  0.5694  0.0924
  301MPD2    C2 4531   3.449   2.227   1.539 -0.0088  0.6401 -0.0045
  301MPD2    C3 4532   3.546   2.181   1.627 -0.1000 -0.3342  0.2216
  301MPD2    C4 4533   3.523   2.201   1.765 -0.2765 -0.1386  0.7592
  301MPD2    C5 4534   3.411   2.268   1.809 -0.3951  0.0324 -0.3524
  301MPD2     H 4535   3.457   2.214   1.432 -1.5909  0.6736 -0.1282
  301MPD2    H1 4536   3.593   2.164   1.839 -1.4377 -2.5292  0.6757
  301MPD2    H2 4537   3.239   2.380   1.756 -1.3616 -0.9511 -1.0384
  301MPD2    H3 4538   3.410   2.302   1.912  1.6040  0.3934 -0.4414
  301MPD2     N 4539   3.653   2.093   1.594  0.0209 -0.5468  0.2391
  301MPD2    H5 4540   3.713   2.060   1.669  0.9310 -1.6707 -0.9728
  301MPD2    N1 4541   3.246   2.361   1.494  0.2261 -0.3171  0.1820
  301MPD2    H7 4542   3.261   2.327   1.399  0.9746 -1.2635  0.6380
  302TMC3    C1 4543   3.820   1.991   1.469 -0.1983  0.1236 -0.2078
  302TMC3    C2 4544   3.831   1.879   1.547  0.3300  0.3770  0.3657
  302TMC3    C3 4545   3.929   1.790   1.516 -0.0150  0.2140  0.0816
  302TMC3    C4 4546   3.896   2.015   1.367  0.0769 -0.8518  0.4967
  302TMC3    C5 4547   3.990   1.925   1.334 -1.3492 -0.3058 -0.2627
  302TMC3    C6 4548   4.005   1.812   1.404 -0.1827  0.1190  0.3535
  302TMC3     C 4549   3.699   2.073   1.473  0.6014 -0.4649 -0.2787
  302TMC3     O 4550   3.669   2.132   1.374 -0.4745  0.5199  0.1031
  302TMC3     H 4551   3.759   1.865   1.627  0.3917  2.4106  0.7808
  302TMC3    H1 4552   3.887   2.107   1.311  0.2872 -3.0991 -3.2348
  302TMC3    H2 4553   4.079   1.738   1.375  2.0268  1.6762  2.0921
  302TMC3    C7 4554   4.040   1.920   1.193  0.2201 -0.2695  0.1843
  302TMC3    C8 4555   3.906   1.649   1.540 -0.3898  0.2343  0.2892
  302TMC3    O1 4556   4.121   1.837   1.150 -0.1551  0.0007 -0.0837
  302TMC3    O2 4557   3.967   1.571   1.475 -0.0306  0.2534 -0.9000
  303MPD2     C 4558   4.521   0.673  10.452 -0.2433  0.5383  0.3746
  303MPD2    C1 4559   4.415   0.594  10.423  0.2860  0.3605 -0.2953
  303MPD2    C2 4560   4.324   0.633  10.331  0.6435 -0.0185 -0.1983
  303MPD2    C3 4561   4.338   0.752  10.264 -0.8169 -0.0746  0.0135
  303MPD2    C4 4562   4.453   0.829  10.285 -0.6899  0.3664 -0.4745
  303MPD2    C5 4563   4.539   0.790  10.383 -0.8646  0.1096  0.8222
  303MPD2     H 4564   4.244   0.569  10.297  0.4008  0.5020 -0.5918
  303MPD2    H1 4565   4.460   0.927  10.241  1.2515  0.8734  0.9530
  303MPD2    H2 4566   4.593   0.639  10.525 -0.0379  0.6935  0.2415
  303MPD2    H3 4567   4.619   0.859  10.409 -1.0243  0.5574  0.1278
  303MPD2     N 4568   4.246   0.803  10.174  0.3636  0.4888 -0.3240
  303MPD2    H5 4569   4.275   0.885  10.122  1.2537 -0.5044 -1.3819
  303MPD2    N1 4570   4.387   0.488  10.512 -0.0705 -1.2199  0.1123
  303MPD2    H7 4571   4.434   0.479  10.601 -2.0182 -2.0875  1.0626
  304TMC3    C1 4572   4.257   0.313  10.586 -0.1501 -0.2767 -0.0427
  304TMC3    C2 4573   4.243   0.374  10.706 -0.2719 -0.4954  0.6841
  304TMC3    C3 4574   4.198   0.284  10.805  0.1902 -0.2645  0.3585
  304TMC3    C4 4575   4.222   0.182  10.560 -0.3178  0.4444  0.4071
  304TMC3    C5 4576   4.183   0.103  10.659 -0.2510 -0.0182 -0.5336
  304TMC3    C6 4577   4.177   0.149  10.785 -0.1734 -0.8802 -0.1873
  304TMC3     C 4578   4.295   0.393  10.480 -0.6610 -0.8900  0.1201
  304TMC3     O 4579   4.249   0.359  10.375 -0.3273 -0.0378  0.1445
  304TMC3     H 4580   4.262   0.481  10.712  1.3393 -0.7562  0.1510
  304TMC3    H1 4581   4.228   0.139  10.461  0.4760  2.5920 -0.4663
  304TMC3    H2 4582   4.133   0.091  10.865 -0.8693  2.6365  1.9728
  304TMC3    C7 4583   4.072   0.021  10.625  0.6191 -0.0949  0.3612
  304TMC3    C8 4584   4.099   0.340  10.896  0.7830  0.3376 -0.8030
  304TMC3    O1 4585   4.074   4.692  10.511  0.5135  0.0218  0.1585
  304TMC3    O2 4586   4.000   0.269  10.904 -0.5540  0.6054  0.0615
  305MPD2     C 4587   1.785   2.492  13.835 -0.2295 -0.4744 -0.0854
  305MPD2    C1 4588   1.919   2.506  13.828 -0.2364  0.8560 -0.4263
  305MPD2    C2 4589   1.992   2.445  13.727 -0.6900 -0.3646 -0.0160
  305MPD2    C3 4590   1.926   2.376  13.629 -0.4564 -0.0676 -0.1563
  305MPD2    C4 4591   1.787   2.346  13.648  0.4380  0.3289 -0.2907
  305MPD2    C5 4592   1.723   2.402  13.761  0.2707  0.5895  0.7605
  305MPD2     H 4593   2.100   2.448  13.723 -0.6652 -0.7839  0.3760
  305MPD2    H1 4594   1.727   2.284  13.582  0.8184 -0.3618  0.0150
  305MPD2    H2 4595   1.741   2.550  13.916  0.5375  0.5303 -0.3910
  305MPD2    H3 4596   1.619   2.372  13.764 -0.2108  1.9618 -2.4829
  305MPD2     N 4597   1.992   2.317  13.513  0.0100  0.5184  0.4193
  305MPD2    H5 4598   1.935   2.286  13.435  0.4741  0.7304 -0.0080
  305MPD2    N1 4599   1.975   2.597  13.923 -0.0351 -0.1312  0.8204
  305MPD2    H7 4600   1.913   2.611  14.003 -0.9490 -1.1601  0.2972
  306TMC3    C1 4601   2.141   2.730  14.033 -0.1437  0.0297  0.5990
  306TMC3    C2 4602   2.244   2.660  14.086  0.0143 -0.9260 -0.3514
  306TMC3    C3 4603   2.274   2.672  14.218 -0.2066  0.3846 -0.4824
  306TMC3    C4 4604   2.053   2.805  14.114  0.2896  0.7057 -0.2122
  306TMC3    C5 4605   2.086   2.813  14.243 -0.4206 -0.0997 -0.3793
  306TMC3    C6 4606   2.195   2.743  14.300 -0.0667  0.3011  1.0331
  306TMC3     C 4607   2.092   2.659  13.917  1.6251 -0.3772  0.4108
  306TMC3     O 4608   2.167   2.653  13.820  0.3444  0.0433  0.2813
  306TMC3     H 4609   2.301   2.594  14.021 -1.6255 -0.9278 -1.7815
  306TMC3    H1 4610   1.968   2.857  14.073  0.9463  2.1649  0.2788
  306TMC3    H2 4611   2.237   2.755  14.399  1.7168  1.5457  0.1295
  306TMC3    C7 4612   1.981   2.835  14.342 -0.2572  0.9256 -0.0673
  306TMC3    C8 4613   2.313   2.552  14.279 -0.1649  0.2919 -0.2129
  306TMC3    O1 4614   1.864   2.801  14.321 -0.0372 -0.1234 -0.2365
  306TMC3    O2 4615   2.419   2.552  14.335  0.3559 -0.2033  0.1383
  307MPD2     C 4616   3.810   0.105   1.019 -0.1182 -0.4101  0.0427
  307MPD2    C1 4617   3.843   0.236   0.986 -0.1113  0.0902  0.3850
  307MPD2    C2 4618   3.748   0.332   1.008  0.1685 -0.1329  0.0360
  307MPD2    C3 4619   3.625   0.292   1.054 -0.3748 -0.0864 -0.1906
  307MPD2    C4 4620   3.587   0.161   1.074  0.1694 -0.2348 -0.0730
  307MPD2    C5 4621   3.684   0.067   1.051 -0.8538 -0.1612 -0.3243
  307MPD2     H 4622   3.761   0.439   0.995 -2.8598  0.2420  0.1145
  307MPD2    H1 4623   3.490   0.133   1.114 -1.0143 -1.1449 -3.5691
  307MPD2    H2 4624   3.874   0.020   0.996 -0.4013 -0.2661 -1.3111
  307MPD2    H3 4625   3.664   4.680   1.060 -0.0373 -0.2578  0.3826
  307MPD2     N 4626   3.537   0.400   1.089 -0.1669  0.3323 -0.2959
  307MPD2    H5 4627   3.583   0.490   1.081  1.9504 -0.6755  0.5941
  307MPD2    N1 4628   3.958   0.273   0.916 -0.5231  0.0176  1.2417
  307MPD2    H7 4629   3.966   0.371   0.892  2.5011 -1.0055 -1.9324
  308TMC3    C1 4630   3.260   0.670   0.943  0.2231 -0.2085  0.1412
  308TMC3    C2 4631   3.310   0.777   1.002 -0.4852 -0.1743  0.1919
  308TMC3    C3 4632   3.398   0.746   1.102  0.1155  0.8378 -0.5716
  308TMC3    C4 4633   3.267   0.541   0.990  0.0164  0.0832 -0.3823
  308TMC3    C5 4634   3.342   0.517   1.098 -0.0413 -0.6027 -0.8429
  308TMC3    C6 4635   3.415   0.618   1.155 -0.2983 -0.3683 -0.0214
  308TMC3     C 4636   3.171   0.692   0.830  0.2090 -0.5753 -0.3775
  308TMC3     O 4637   3.074   0.619   0.811  0.0304  0.6725  0.1132
  308TMC3     H 4638   3.289   0.883   0.991 -4.6113 -1.0258 -0.0341
  308TMC3    H1 4639   3.217   0.465   0.932 -2.2701  1.3828 -0.1323
  308TMC3    H2 4640   3.484   0.599   1.237 -1.1876 -0.7369  0.6308
  308TMC3    C7 4641   3.401   0.391   1.086 -0.1767  0.2888  0.2727
  308TMC3    C8 4642   3.479   0.849   1.167  0.3877 -0.1914 -0.3103
  308TMC3    O1 4643   3.327   0.296   1.073 -0.1556  0.5296  0.4044
  308TMC3    O2 4644   3.525   0.826   1.280  0.1456  0.4613  0.2381
  309MPD2     C 4645   3.620   0.938  16.893 -0.0311 -0.5002  0.0260
  309MPD2    C1 4646   3.587   1.003  16.779 -0.3382  0.5935  0.1033
  309MPD2    C2 4647   3.477   1.088  16.778 -0.2692 -0.5357  0.3928
  309MPD2    C3 4648   3.402   1.118  16.892  0.3167 -0.7952 -0.1740
  309MPD2    C4 4649   3.443   1.045  17.008 -0.1526  0.0555  0.3323
  309MPD2    C5 4650   3.561   0.969  17.012  0.2765 -0.0348 -0.0202
  309MPD2     H 4651   3.449   1.141  16.687  1.4494  0.2558  0.3339
  309MPD2    H1 4652   3.383   1.041  17.098 -1.7885  1.1678 -0.7085
  309MPD2    H2 4653   3.717   0.889  16.902  0.5632  0.7037  0.2163
  309MPD2    H3 4654   3.600   0.925  17.103  0.6248  3.3762  1.4445
  309MPD2     N 4655   3.281   1.196  16.892  0.7559  0.0564  0.2210
  309MPD2    H5 4656   3.245   1.207  16.986 -1.0767 -0.3431 -0.4333
  309MPD2    N1 4657   3.664   0.996  16.655 -0.0750 -0.2319 -0.4758
  309MPD2    H7 4658   3.623   1.047  16.577  0.3332  0.0779 -0.4878
  310TMC3    C1 4659   3.846   0.936  16.510 -0.0419  0.0181 -0.7287
  310TMC3    C2 4660   3.794   1.014  16.417  0.3133  0.0134  0.3586
  310TMC3    C3 4661   3.881   1.055  16.323 -0.3999 -0.3983  0.3378
  310TMC3    C4 4662   3.969   0.876  16.497 -0.2419 -0.3108  0.0200
  310TMC3    C5 4663   4.041   0.904  16.386  0.1757  0.7428 -0.4960
  310TMC3    C6 4664   4.003   1.004  16.305 -0.0784  0.1376  0.1157
  310TMC3     C 4665   3.774   0.911  16.634 -0.3015  0.6283 -0.5979
  310TMC3     O 4666   3.817   0.821  16.708  0.2182  0.3666 -0.2583
  310TMC3     H 4667   3.692   1.052  16.415 -0.1459 -1.3259 -2.0494
  310TMC3    H1 4668   4.011   0.813  16.574  0.2525 -1.4995 -1.2212
  310TMC3    H2 4669   4.063   1.040  16.222  0.6600  0.6217  0.8500
  310TMC3    C7 4670   4.175   0.844  16.370  0.2447 -0.5119  0.4340
  310TMC3    C8 4671   3.840   1.148  16.221 -1.1319  0.6230 -0.5556
  310TMC3    O1 4672   4.222   0.779  16.465 -0.3780  0.4467 -0.6756
  310TMC3    O2 4673   3.897   1.151  16.114  0.0155 -0.2001  0.1672
  311MPD2     C 4674   1.434   1.952  12.979  0.2743  0.2781 -0.4408
  311MPD2    C1 4675   1.408   2.090  12.974 -0.0787 -0.0141 -0.1152
  311MPD2    C2 4676   1.276   2.128  12.993  0.0358  0.0110  0.1015
  311MPD2    C3 4677   1.177   2.035  13.006  0.9147 -0.2466 -1.2525
  311MPD2    C4 4678   1.205   1.901  13.010 -0.0206  0.1561 -0.1221
  311MPD2    C5 4679   1.333   1.861  12.988 -0.2712 -0.8664  0.0980
  311MPD2     H 4680   1.259   2.234  13.012 -2.3084 -0.4159  0.4287
  311MPD2    H1 4681   1.129   1.826  13.024  0.0580  0.2399  0.7898
  311MPD2    H2 4682   1.539   1.928  12.964  0.1352 -0.4129 -0.3374
  311MPD2    H3 4683   1.366   1.758  12.982  0.0719 -0.7302 -0.3747
  311MPD2     N 4684   1.047   2.085  13.027  0.9826 -0.2536  0.0524
  311MPD2    H5 4685   1.046   2.186  13.031  0.2392 -0.1981 -1.5180
  311MPD2    N1 4686   1.508   2.189  12.957  0.7260 -0.0730 -0.3176
  311MPD2    H7 4687   1.471   2.282  12.968 -1.1107 -0.7508 -0.8063
  312TMC3    C1 4688   0.819   2.090  12.997 -0.1745 -0.2885 -0.3094
  312TMC3    C2 4689   0.725   2.057  12.908  0.3481 -0.1987 -0.8325
  312TMC3    C3 4690   0.625   2.146  12.877 -0.2568  0.4671  0.2611
  312TMC3    C4 4691   0.824   2.211  13.063 -0.1799 -0.1693 -0.0318
  312TMC3    C5 4692   0.734   2.303  13.015  0.7346 -0.1819 -0.3173
  312TMC3    C6 4693   0.637   2.270  12.922  0.2352 -0.6072 -0.5201
  312TMC3     C 4694   0.937   2.004  13.004  0.1060 -0.1417 -0.3141
  312TMC3     O 4695   0.928   1.895  12.958 -0.7224 -0.2168  0.3718
  312TMC3     H 4696   0.727   1.955  12.871 -1.5463  0.3638 -2.4970
  312TMC3    H1 4697   0.897   2.223  13.143  1.3462  0.2808 -1.4923
  312TMC3    H2 4698   0.567   2.350  12.901 -0.1172 -1.1205 -1.3103
  312TMC3    C7 4699   0.721   2.427  13.084 -0.7487 -0.4452 -0.0268
  312TMC3    C8 4700   0.532   2.118  12.768 -0.0982 -0.6087  0.1107
  312TMC3    O1 4701   0.703   2.526  13.013  0.2266 -0.8001  0.2874
  312TMC3    O2 4702   0.509   1.997  12.753  0.0159 -0.0673 -0.0601
  313MPD2     C 4703   1.469   1.741  10.094  0.0806 -0.2763 -0.2038
  313MPD2    C1 4704   1.359   1.667  10.137 -0.6534 -0.1965  0.4597
  313MPD2    C2 4705   1.277   1.598  10.049 -0.4580 -0.0355  0.9219
  313MPD2    C3 4706   1.314   1.597   9.918  0.1338 -0.2508  1.0540
  313MPD2    C4 4707   1.420   1.664   9.869 -0.5764 -0.4423  0.0908
  313MPD2    C5 4708   1.491   1.746   9.960 -0.3831  0.2339  0.0376
  313MPD2     H 4709   1.183   1.551  10.072 -0.0601 -1.7833 -1.0031
  313MPD2    H1 4710   1.448   1.664   9.764 -1.0295 -1.4179 -0.0253
  313MPD2    H2 4711   1.536   1.796  10.159  0.1363  0.2983 -0.7446
  313MPD2    H3 4712   1.568   1.812   9.923 -0.7064 -0.6887 -2.2321
  313MPD2     N 4713   1.234   1.520   9.833 -0.0622 -0.5559  0.7564
  313MPD2    H5 4714   1.163   1.459   9.873  1.6150 -2.9605  0.0638
  313MPD2    N1 4715   1.328   1.670  10.275  0.1958  0.0260 -0.0183
  313MPD2    H7 4716   1.258   1.606  10.309  0.2491  0.5354  1.0612
  314TMC3    C1 4717   1.302   1.767  10.495  0.8288 -0.2301  1.0507
  314TMC3    C2 4718   1.321   1.882  10.568 -0.2835  0.1915 -0.1837
  314TMC3    C3 4719   1.229   1.911  10.666  0.1281  0.2357  0.2624
  314TMC3    C4 4720   1.200   1.683  10.526  0.9963 -0.3631  0.4585
  314TMC3    C5 4721   1.100   1.721  10.620  0.2596 -0.2776  0.2670
  314TMC3    C6 4722   1.112   1.837  10.690  0.0575  0.4642 -0.0928
  314TMC3     C 4723   1.365   1.771  10.363  1.3627 -0.3607 -1.5967
  314TMC3     O 4724   1.449   1.864  10.343  0.2808  0.2241 -0.1849
  314TMC3     H 4725   1.407   1.944  10.547 -0.9240  1.5609  1.2657
  314TMC3    H1 4726   1.188   1.595  10.464 -2.1709  1.0923 -1.0240
  314TMC3    H2 4727   1.035   1.857  10.764 -1.1331  2.5735 -1.9204
  314TMC3    C7 4728   0.975   1.706  10.551  0.0925  0.6322 -0.3167
  314TMC3    C8 4729   1.258   2.038  10.735  0.7919 -0.0862 -0.9294
  314TMC3    O1 4730   0.905   1.606  10.571 -0.0876  0.1334  0.0353
  314TMC3    O2 4731   1.342   2.112  10.687  0.1840 -0.0493 -0.4398
  315MPD2     C 4732   4.452   0.624   0.257  0.0313 -0.2463  0.5777
  315MPD2    C1 4733   4.574   0.594   0.201  0.2693  0.0598  0.2490
  315MPD2    C2 4734   4.602   0.634   0.073 -0.0722  0.1003 -0.3725
  315MPD2    C3 4735   4.507   0.699  17.676  0.4406 -0.6441  0.4771
  315MPD2    C4 4736   4.383   0.716   0.043  0.9425  0.1557 -0.5592
  315MPD2    C5 4737   4.360   0.675   0.169  0.4418 -0.6382  0.2036
  315MPD2     H 4738   4.695   0.615   0.021  0.2925 -1.5019  0.8791
  315MPD2    H1 4739   4.304   0.766  17.667  0.9106 -0.1351 -0.7833
  315MPD2    H2 4740   4.438   0.615   0.364 -1.3497 -1.2720  0.3159
  315MPD2    H3 4741   4.265   0.712   0.207 -0.7865 -1.2233 -2.3217
  315MPD2     N 4742   4.552   0.743  17.549 -0.1023 -0.1778 -0.4139
  315MPD2    H5 4743   4.649   0.716  17.532  0.4711  1.1468  0.7755
  315MPD2    N1 4744   4.680   0.538   0.267  0.0902  0.2403  0.9095
  315MPD2    H7 4745   0.044   0.527   0.210 -0.9959 -1.8263 -0.2804
  316TMC3    C1 4746   4.542   0.812  17.323 -0.2763  0.1390 -0.3863
  316TMC3    C2 4747   4.677   0.841  17.331  0.6986 -0.9426 -0.4460
  316TMC3    C3 4748   0.009   0.922  17.233 -0.3888  0.3646 -0.4901
  316TMC3    C4 4749   4.455   0.871  17.238 -0.1109 -0.0534 -0.1523
  316TMC3    C5 4750   4.508   0.953  17.140 -0.2130  0.1584 -0.2153
  316TMC3    C6 4751   4.646   0.968  17.134 -0.0574  0.3714  0.3747
  316TMC3     C 4752   4.473   0.794  17.450 -0.1344 -0.6661 -0.3371
  316TMC3     O 4753   4.371   0.852  17.470 -0.3388  0.3848  0.2052
  316TMC3     H 4754   0.028   0.813  17.409 -0.8870 -0.9112  0.9742
  316TMC3    H1 4755   4.349   0.847  17.244 -0.5732  1.4878 -2.0388
  316TMC3    H2 4756   4.688   1.048  17.074 -0.8254  0.5915  0.1329
  316TMC3    C7 4757   4.424   1.064  17.107 -0.4505 -0.5598 -0.3687
  316TMC3    C8 4758   0.153   0.934  17.207 -0.3115 -0.0641 -0.5382
  316TMC3    O1 4759   4.321   1.085  17.169 -0.0341  0.2566 -0.0319
  316TMC3    O2 4760   0.177   0.984  17.094  0.7389  0.0563  0.0319
  317MPD2     C 4761   2.168   4.520  13.196  0.0100  0.4051 -0.0268
  317MPD2    C1 4762   2.163   4.389  13.154  0.7428 -0.4440  0.6842
  317MPD2    C2 4763   2.238   4.295  13.212  0.1398  0.1028 -0.2638
  317MPD2    C3 4764   2.292   4.318  13.339  0.7448  0.0440  0.3025
  317MPD2    C4 4765   2.292   4.446  13.385 -0.2954 -0.6199 -0.3412
  317MPD2    C5 4766   2.244   4.547  13.310  0.1042  0.0748  0.0877
  317MPD2     H 4767   2.230   4.195  13.170 -1.2887  0.5268 -0.9861
  317MPD2    H1 4768   2.351   4.472  13.473 -0.8643 -1.1786  0.2037
  317MPD2    H2 4769   2.127   4.601  13.136 -0.6383  1.0570  1.2933
  317MPD2    H3 4770   2.241   4.648  13.350  1.2756  1.0685 -2.3177
  317MPD2     N 4771   2.360   4.212  13.398 -0.4924  0.0281 -0.1204
  317MPD2    H5 4772   2.365   4.128  13.342 -2.5321  0.5595 -1.1036
  317MPD2    N1 4773   2.107   4.356  13.029  0.3247 -0.0428 -0.0949
  317MPD2    H7 4774   2.126   4.265  12.988 -1.9081 -0.0619 -1.0719
  318TMC3    C1 4775   2.503   4.087  13.519  0.1040  0.5280 -0.4848
  318TMC3    C2 4776   2.434   3.973  13.478  0.4422 -0.1597  0.1146
  318TMC3    C3 4777   2.513   3.860  13.487 -0.5877 -0.1441 -0.6709
  318TMC3    C4 4778   2.631   4.091  13.565 -0.5895  0.3051  0.3384
  318TMC3    C5 4779   2.701   3.976  13.548  0.4269  0.4167 -0.3838
  318TMC3    C6 4780   2.643   3.858  13.516  0.3889 -0.1501  0.5961
  318TMC3     C 4781   2.436   4.209  13.511 -0.2379  0.5016 -0.2926
  318TMC3     O 4782   2.434   4.276  13.612 -0.2355 -0.1476 -0.4098
  318TMC3     H 4783   2.327   3.972  13.459  0.7568  0.3204 -1.6904
  318TMC3    H1 4784   2.668   4.189  13.590 -2.3334  0.7633  1.1201
  318TMC3    H2 4785   2.699   3.766  13.525  1.8567  0.5674 -1.2154
  318TMC3    C7 4786   2.850   3.995  13.525  0.0249  0.4062  0.7347
  318TMC3    C8 4787   2.455   3.731  13.501  0.2026 -0.2101  0.6474
  318TMC3    O1 4788   2.884   4.111  13.529  0.8924  0.0504 -0.3236
  318TMC3    O2 4789   2.497   3.637  13.575 -0.0518  0.1170  0.2118
  319MPD2     C 4790   3.599   0.563  16.187  0.0234 -0.0420 -0.7790
  319MPD2    C1 4791   3.492   0.494  16.240  0.0809 -0.1149 -0.2436
  319MPD2    C2 4792   3.412   0.412  16.163  0.1982 -0.3777  0.4842
  319MPD2    C3 4793   3.418   0.416  16.024  0.7382 -1.2805 -0.2181
  319MPD2    C4 4794   3.522   0.489  15.969 -0.2193 -0.4025 -0.8108
  319MPD2    C5 4795   3.615   0.550  16.050 -0.0241  0.7756 -1.2380
  319MPD2     H 4796   3.334   0.354  16.212  0.3680 -0.4967  0.6157
  319MPD2    H1 4797   3.530   0.492  15.861  1.1679 -1.5032 -0.7393
  319MPD2    H2 4798   3.663   0.633  16.240  0.0931 -0.5303 -0.2222
  319MPD2    H3 4799   3.689   0.613  16.001  0.6841  2.1327  1.5505
  319MPD2     N 4800   3.318   0.354  15.946 -0.3697  0.3397  0.1994
  319MPD2    H5 4801   3.328   0.361  15.845  0.0995 -0.2261  0.2102
  319MPD2    N1 4802   3.449   0.509  16.376  0.1872 -0.0348  0.5121
  319MPD2    H7 4803   3.365   0.455  16.397 -0.3385  0.6986  0.2866
  320TMC3    C1 4804   3.097   0.287  15.896 -0.3827 -0.7446  0.0154
  320TMC3    C2 4805   3.085   0.375  15.792  0.6146  0.1831 -0.1181
  320TMC3    C3 4806   2.971   0.350  15.716  0.2907 -0.0590  0.3544
  320TMC3    C4 4807   3.002   0.199  15.929  0.3204  0.0059  0.5121
  320TMC3    C5 4808   2.897   0.177  15.850  0.7345  0.0149 -0.0370
  320TMC3    C6 4809   2.888   0.244  15.731  0.0949 -1.2005  0.0461
  320TMC3     C 4810   3.201   0.300  15.997 -0.2051  0.8177 -0.7831
  320TMC3     O 4811   3.156   0.278  16.111  0.5615  0.5685 -0.3231
  320TMC3     H 4812   3.146   0.464  15.787 -0.4228  0.8802 -0.1699
  320TMC3    H1 4813   3.008   0.142  16.021  2.5498  0.4999  0.6731
  320TMC3    H2 4814   2.804   0.221  15.667  0.0760 -1.9845  0.3538
  320TMC3    C7 4815   2.784   0.097  15.896  0.0411 -0.6081  0.4185
  320TMC3    C8 4816   2.890   0.472  15.684 -0.4126 -0.5102 -0.3157
  320TMC3    O1 4817   2.712   0.059  15.803 -0.3640 -0.7814  0.1573
  320TMC3    O2 4818   2.948   0.571  15.646  0.5319  0.0798 -0.0648
  321TMC3    C1 4819   3.419   0.577  16.592 -0.0749 -0.0652 -0.5153
  321TMC3    C2 4820   3.318   0.487  16.593 -0.6558  0.4420 -0.5446
  321TMC3    C3 4821   3.244   0.487  16.705 -0.2284 -0.6775  0.1451
  321TMC3    C4 4822   3.450   0.654  16.703 -0.1153  0.4184  0.4201
  321TMC3    C5 4823   3.388   0.640  16.813  0.1706  0.6959 -0.1221
  321TMC3    C6 4824   3.276   0.558  16.813 -0.1430 -0.7959 -0.3635
  321TMC3     C 4825   3.499   0.587  16.475 -1.0905 -0.3978 -0.1293
  321TMC3     O 4826   3.589   0.670  16.475 -0.3096 -0.0287  0.7279
  321TMC3     H 4827   3.269   0.435  16.511 -1.6095  2.4328 -1.2381
  321TMC3    H1 4828   3.545   0.707  16.705 -1.4312  2.7610  1.3807
  321TMC3    H2 4829   3.232   0.547  16.911 -0.1372 -0.6135 -0.3390
  321TMC3    C7 4830   3.465   0.596  16.922 -0.2109  0.1079  0.4795
  321TMC3    C8 4831   3.199   0.352  16.743 -0.3937 -0.7291 -0.3113
  321TMC3    O1 4832   3.526   0.491  16.920  0.3687  0.0087 -0.9348
  321TMC3    O2 4833   3.093   0.308  16.696 -0.3123  0.0551  0.1169
  322MPD2     C 4834   1.885   1.656  13.732  0.2680  0.6721 -0.0764
  322MPD2    C1 4835   1.958   1.584  13.827  0.2000  0.0479  0.3241
  322MPD2    C2 4836   2.025   1.472  13.779  0.1534 -0.3048 -0.2419
  322MPD2    C3 4837   2.013   1.420  13.655 -0.2832 -0.1692  0.6333
  322MPD2    C4 4838   1.940   1.485  13.564  0.1481 -0.3065  0.6525
  322MPD2    C5 4839   1.876   1.600  13.606 -0.1468  0.0924 -0.4514
  322MPD2     H 4840   2.091   1.414  13.843  1.0554  0.3528 -0.5775
  322MPD2    H1 4841   1.940   1.460  13.458 -0.3883  1.1485  0.3136
  322MPD2    H2 4842   1.836   1.751  13.750 -0.1747 -0.0651  2.5060
  322MPD2    H3 4843   1.816   1.654  13.534  0.2037 -1.2469 -1.7484
  322MPD2     N 4844   2.097   1.309  13.624  0.2264  0.1240  0.3355
  322MPD2    H5 4845   2.138   1.256  13.700  1.5611  0.5378 -0.0824
  322MPD2    N1 4846   1.981   1.629  13.958  0.4155 -0.0245  0.4702
  322MPD2    H7 4847   2.049   1.570  14.006 -0.2168 -0.1903  1.1592
  323TMC3    C1 4848   2.013   1.795  14.133  0.0237 -0.4085 -0.2878
  323TMC3    C2 4849   2.046   1.924  14.156 -0.3509 -0.6988 -0.6807
  323TMC3    C3 4850   2.118   1.966  14.266  0.5567 -0.3398 -0.4000
  323TMC3    C4 4851   2.048   1.698  14.226 -0.9429  0.0112  0.4173
  323TMC3    C5 4852   2.106   1.740  14.346  0.0232 -0.1827 -0.8799
  323TMC3    C6 4853   2.138   1.873  14.369 -0.5016 -0.8354  0.1981
  323TMC3     C 4854   1.954   1.758  14.004  0.5742 -0.1003  0.0533
  323TMC3     O 4855   1.879   1.844  13.952  0.0342 -0.4656 -0.1329
  323TMC3     H 4856   2.032   1.978  14.063 -0.2211  0.0693 -0.2530
  323TMC3    H1 4857   2.022   1.595  14.204  2.1102 -0.8039  0.5940
  323TMC3    H2 4858   2.197   1.920  14.447 -0.8181  1.0588 -0.6937
  323TMC3    C7 4859   2.148   1.644  14.439 -0.7130  0.2020  0.3417
  323TMC3    C8 4860   2.241   2.034  14.224  0.3258  0.3409 -0.3741
  323TMC3    O1 4861   2.141   1.526  14.412  0.8141  0.2218  0.2288
  323TMC3    O2 4862   2.346   1.998  14.283  0.3433 -0.2459  1.0703
  324MPD2     C 4863   3.650   2.462  14.205 -0.0255 -0.4278 -0.4846
  324MPD2    C1 4864   3.652   2.593  14.162 -0.6191 -0.0575  0.0633
  324MPD2    C2 4865   3.546   2.668  14.192  0.1951  0.2017  0.3604
  324MPD2    C3 4866   3.437   2.623  14.265  0.5502 -0.2489  0.6675
  324MPD2    C4 4867   3.437   2.492  14.313  0.3121 -0.8375  0.0179
  324MPD2    C5 4868   3.541   2.411  14.282  0.0552  0.2370 -0.1491
  324MPD2     H 4869   3.544   2.769  14.153  4.0775 -0.2087 -0.9724
  324MPD2    H1 4870   3.360   2.461  14.382  2.0704 -0.0990  2.3052
  324MPD2    H2 4871   3.732   2.395  14.180  2.0940  1.7162  0.7684
  324MPD2    H3 4872   3.550   2.311  14.321 -2.6043 -0.3097 -0.9674
  324MPD2     N 4873   3.328   2.708  14.304  0.3415 -0.0251 -0.0403
  324MPD2    H5 4874   3.251   2.658  14.347 -0.2957 -0.0396 -1.1951
  324MPD2    N1 4875   3.760   2.643  14.095  0.2354  0.9295 -0.6281
  324MPD2    H7 4876   3.746   2.736  14.056 -0.2206  1.4852  0.8632
  325TMC3    C1 4877   3.191   2.896  14.325  0.1892 -0.2639  0.6623
  325TMC3    C2 4878   3.086   2.814  14.301  0.0351 -0.3976 -0.0155
  325TMC3    C3 4879   2.959   2.866  14.328 -0.2132  0.2004  0.6581
  325TMC3    C4 4880   3.188   3.022  14.378  0.1035  0.2719 -0.2005
  325TMC3    C5 4881   3.062   3.060  14.414 -0.4536 -0.4407 -0.5963
  325TMC3    C6 4882   2.948   2.988  14.388 -0.0432  0.6646 -0.3585
  325TMC3     C 4883   3.322   2.845  14.299 -0.5401  0.1096  0.1623
  325TMC3     O 4884   3.413   2.924  14.288  0.2025  0.8901  0.5669
  325TMC3     H 4885   3.099   2.727  14.239 -2.6742 -0.0019 -1.1552
  325TMC3    H1 4886   3.277   3.084  14.387  0.6722 -0.8713  1.9267
  325TMC3    H2 4887   2.853   3.024  14.427  1.1061  0.4385  2.5931
  325TMC3    C7 4888   3.058   3.195  14.467 -0.1910 -0.1033 -0.1636
  325TMC3    C8 4889   2.853   2.811  14.246  0.4591  0.2996  0.4463
  325TMC3    O1 4890   3.156   3.240  14.522  0.2915 -0.2513  0.0268
  325TMC3    O2 4891   2.873   2.698  14.201 -0.0808  0.5617  0.1267
  326MPD2     C 4892   0.466   3.872  10.996 -0.5350  0.4876  0.1400
  326MPD2    C1 4893   0.464   3.901  10.858 -0.0698 -0.1798 -0.3292
  326MPD2    C2 4894   0.539   4.001  10.811  0.3488  0.1836  0.7463
  326MPD2    C3 4895   0.609   4.091  10.897 -0.0914 -0.2540  0.1249
  326MPD2    C4 4896   0.608   4.064  11.036 -0.0261 -0.4911 -0.1714
  326MPD2    C5 4897   0.543   3.953  11.080  0.6321 -0.3292  0.5611
  326MPD2     H 4898   0.552   4.007  10.704 -0.1567 -0.7603  0.6330
  326MPD2    H1 4899   0.676   4.119  11.100 -0.3135  1.9079 -1.9539
  326MPD2    H2 4900   0.398   3.800  11.039  0.2835 -0.8247 -0.7455
  326MPD2    H3 4901   0.530   3.941  11.187  1.0242 -1.4533  0.4792
  326MPD2     N 4902   0.681   4.201  10.853 -0.1948 -0.1985  0.0096
  326MPD2    H5 4903   0.728   4.261  10.920  0.9538 -2.7769  1.4856
  326MPD2    N1 4904   0.391   3.827  10.767  0.5991 -0.3605  0.4011
  326MPD2    H7 4905   0.399   3.860  10.672 -1.3293  0.5591  0.5753
  327TMC3    C1 4906   0.271   3.665  10.658 -0.2749 -0.1160 -0.3134
  327TMC3    C2 4907   0.198   3.765  10.595  0.3180 -0.0434 -0.0991
  327TMC3    C3 4908   0.192   3.773  10.462  0.0852 -0.5873  0.0183
  327TMC3    C4 4909   0.360   3.584  10.582  0.0037  0.0224  0.0880
  327TMC3    C5 4910   0.362   3.600  10.442  0.6523  0.0891 -0.5870
  327TMC3    C6 4911   0.276   3.693  10.388  0.0808 -0.0359 -0.4171
  327TMC3     C 4912   0.326   3.704  10.785 -0.5348 -0.1925  0.0488
  327TMC3     O 4913   0.314   3.629  10.880  0.1409 -0.1282 -0.2572
  327TMC3     H 4914   0.155   3.836  10.665 -1.4542 -1.8161  0.6222
  327TMC3    H1 4915   0.414   3.505  10.633 -0.1606 -0.4108 -0.4156
  327TMC3    H2 4916   0.268   3.689  10.280 -4.4897  1.5453 -0.1219
  327TMC3    C7 4917   0.498   3.636  10.396 -0.9063  0.6539 -0.2620
  327TMC3    C8 4918   0.129   3.886  10.393  0.4131 -0.4785 -0.4541
  327TMC3    O1 4919   0.513   3.683  10.288  0.4041  0.6616  0.2840
  327TMC3    O2 4920   0.158   3.909  10.274 -0.2523 -0.2110 -0.2722
  328MPD2     C 4921   2.408   3.356  16.847  0.2067  0.2706 -0.2523
  328MPD2    C1 4922   2.349   3.410  16.959 -0.1494 -0.1350  0.0572
  328MPD2    C2 4923   2.339   3.552  16.964  0.4528  0.5769  0.0988
  328MPD2    C3 4924   2.383   3.635  16.868  0.0062  0.4976 -0.4210
  328MPD2    C4 4925   2.432   3.583  16.753  0.2892  0.1474  0.0593
  328MPD2    C5 4926   2.445   3.445  16.747 -0.2774  0.2008  0.1763
  328MPD2     H 4927   2.292   3.597  17.051  1.1321  0.7421  0.3876
  328MPD2    H1 4928   2.481   3.643  16.677 -0.9931 -0.3761 -1.1833
  328MPD2    H2 4929   2.431   3.252  16.827 -3.2648 -0.9321  2.0532
  328MPD2    H3 4930   2.503   3.413  16.661 -0.0180 -1.3529  0.9217
  328MPD2     N 4931   2.372   3.778  16.877 -0.0112  1.4327  0.1247
  328MPD2    H5 4932   2.378   3.840  16.797 -2.7421  2.4703  0.7170
  328MPD2    N1 4933   2.283   3.337  17.067  0.2634  0.2782  0.3685
  328MPD2    H7 4934   2.233   3.386  17.141  0.4607 -0.9306  1.2945
  329TMC3    C1 4935   2.219   3.166  17.201  0.7793  0.0013 -0.0191
  329TMC3    C2 4936   2.111   3.238  17.238  0.4448 -0.1596  0.4359
  329TMC3    C3 4937   2.075   3.252  17.369 -0.6650  0.5861 -0.9522
  329TMC3    C4 4938   2.292   3.089  17.291 -0.2885  0.2296  0.2543
  329TMC3    C5 4939   2.248   3.101  17.420  0.3308 -0.0851 -1.1628
  329TMC3    C6 4940   2.147   3.185  17.466  0.1166  0.4641  1.0116
  329TMC3     C 4941   2.283   3.201  17.078 -0.1784  0.5214  0.4469
  329TMC3     O 4942   2.328   3.113  17.003  0.1626 -0.2223  0.6276
  329TMC3     H 4943   2.039   3.286  17.173  0.9464 -0.4815 -0.3587
  329TMC3    H1 4944   2.384   3.036  17.267 -0.1961  0.9997 -1.0906
  329TMC3    H2 4945   2.133   3.177  17.573 -2.5765 -0.5868  0.5739
  329TMC3    C7 4946   2.281   2.996  17.523  0.0294  0.8325  0.4682
  329TMC3    C8 4947   2.022   3.384  17.412 -0.8249  0.8723 -0.1019
  329TMC3    O1 4948   2.243   3.015  17.643 -0.1905  0.4017 -0.1698
  329TMC3    O2 4949   2.044   3.476  17.333 -0.0869  0.0493  0.6766
  330TMC3    C1 4950   0.666   3.703   9.003 -0.2880 -0.4624  0.2145
  330TMC3    C2 4951   0.656   3.571   8.960  0.1739 -0.1860  0.2116
  330TMC3    C3 4952   0.762   3.482   8.974 -0.3720  0.2305  0.6595
  330TMC3    C4 4953   0.787   3.756   9.036  0.3022 -0.5017 -0.0326
  330TMC3    C5 4954   0.892   3.671   9.046 -0.6831 -0.3632  0.6536
  330TMC3    C6 4955   0.881   3.534   9.023  0.6286  0.3376  0.0989
  330TMC3     C 4956   0.547   3.795   9.002  0.1439  0.9262 -0.0508
  330TMC3     O 4957   0.565   3.914   8.990 -0.1810 -0.4627  0.2653
  330TMC3     H 4958   0.564   3.533   8.919 -0.6425  2.8637 -0.7877
  330TMC3    H1 4959   0.802   3.862   9.053 -1.9114  0.0546 -1.5990
  330TMC3    H2 4960   0.973   3.477   9.025 -0.1748 -0.8879  2.4845
  330TMC3    C7 4961   1.028   3.726   9.032 -0.7166  0.3206  0.3380
  330TMC3    C8 4962   0.744   3.341   8.955  0.2701  0.3725 -1.1716
  330TMC3    O1 4963   1.039   3.839   8.987  0.5572 -0.3163  0.2365
  330TMC3    O2 4964   0.644   3.296   8.896 -0.2710  0.3597 -0.1069
  331MPD2     C 4965   3.157   2.285  12.390 -0.1163  0.4176  0.6983
  331MPD2    C1 4966   3.203   2.304  12.259  0.3698  0.8680  0.5899
  331MPD2    C2 4967   3.229   2.190  12.176  0.3285 -0.1119 -0.4237
  331MPD2    C3 4968   3.215   2.065  12.232 -0.2811 -0.5487  0.1296
  331MPD2    C4 4969   3.168   2.050  12.355  0.0518  0.0984  0.8221
  331MPD2    C5 4970   3.136   2.160  12.427  0.1911  0.2812  0.4045
  331MPD2     H 4971   3.266   2.213  12.076  2.2941 -0.6860  0.1823
  331MPD2    H1 4972   3.150   1.958  12.409 -0.4558 -0.6521 -0.6258
  331MPD2    H2 4973   3.108   2.366  12.444 -0.3707  1.9123 -1.7600
  331MPD2    H3 4974   3.095   2.145  12.526 -1.0859 -0.8530 -0.2961
  331MPD2     N 4975   3.266   1.953  12.157  0.5140  0.0817 -0.0454
  331MPD2    H5 4976   3.250   1.866  12.206  0.0421 -0.2972 -0.8782
  331MPD2    N1 4977   3.236   2.435  12.212 -0.5491 -0.3096  0.2795
  331MPD2    H7 4978   3.265   2.505  12.279 -0.4784 -0.5313  0.4821
  332TMC3    C1 4979   3.414   1.850  12.006 -0.5553  0.0459  0.1081
  332TMC3    C2 4980   3.482   1.856  11.883  0.3323  0.6957  0.0773
  332TMC3    C3 4981   3.608   1.809  11.877  0.6213 -0.5823  0.8689
  332TMC3    C4 4982   3.472   1.787  12.113 -0.3116  0.0979  0.3422
  332TMC3    C5 4983   3.607   1.754  12.109 -0.4145 -0.0555 -0.4022
  332TMC3    C6 4984   3.677   1.775  11.993  0.5332  0.5643 -0.6738
  332TMC3     C 4985   3.340   1.966  12.040 -0.3518 -0.4840 -0.2810
  332TMC3     O 4986   3.380   2.064  11.976 -0.0916  0.1192  0.5024
  332TMC3     H 4987   3.430   1.897  11.798  1.7928  1.8281 -0.2630
  332TMC3    H1 4988   3.431   1.786  12.214 -0.2646 -1.1758  0.3408
  332TMC3    H2 4989   3.779   1.740  11.992  0.4395  0.2927 -0.5720
  332TMC3    C7 4990   3.661   1.687  12.223 -0.0619 -0.2267 -0.9336
  332TMC3    C8 4991   3.697   1.877  11.787 -0.2497  0.0739 -0.1969
  332TMC3    O1 4992   3.581   1.631  12.299 -0.1409 -0.4550 -0.0374
  332TMC3    O2 4993   3.804   1.903  11.835  0.3439  0.0227  0.4564
  333MPD2     C 4994   4.208   2.708  11.487  0.6023 -0.0333  0.4003
  333MPD2    C1 4995   4.200   2.660  11.359  0.1018 -0.1235  0.3665
  333MPD2    C2 4996   4.091   2.579  11.328  0.2932  0.0345  0.2595
  333MPD2    C3 4997   3.993   2.542  11.417  0.8393 -0.6582  0.4731
  333MPD2    C4 4998   3.998   2.599  11.545 -0.1269  0.6999  0.1317
  333MPD2    C5 4999   4.108   2.685  11.576  0.4490 -0.3687 -0.0308
  333MPD2     H 5000   4.088   2.549  11.224  1.9924  0.2393  0.1561
  333MPD2    H1 5001   3.918   2.597  11.617 -0.5422  1.1749 -0.3098
  333MPD2    H2 5002   4.285   2.773  11.526  0.3215 -0.8228  2.2513
  333MPD2    H3 5003   4.117   2.733  11.673 -2.0331 -2.5990  1.3079
  333MPD2     N 5004   3.879   2.477  11.367  0.2235  0.4969 -0.1680
  333MPD2    H5 5005   3.880   2.458  11.268 -0.6920  0.7914 -0.2402
  333MPD2    N1 5006   4.297   2.689  11.250  0.1416 -0.6887 -0.3074
  333MPD2    H7 5007   4.298   2.630  11.168  3.9260 -2.8898  1.2970
  334TMC3    C1 5008   4.469   2.820  11.135 -0.1330 -0.9089 -0.2575
  334TMC3    C2 5009   4.525   2.722  11.063 -0.0355  0.5041  0.2465
  334TMC3    C3 5010   4.609   2.751  10.960 -0.0373 -0.1973 -0.5066
  334TMC3    C4 5011   4.513   2.946  11.107 -0.2133 -0.5916 -0.7446
  334TMC3    C5 5012   4.596   2.971  11.004 -0.5795  0.1083 -0.5045
  334TMC3    C6 5013   4.645   2.878  10.925 -0.3100  0.5849  0.2628
  334TMC3     C 5014   4.395   2.788  11.256 -0.1603  0.2450 -0.6891
  334TMC3     O 5015   4.416   2.870  11.346  0.4670  0.1759 -0.7781
  334TMC3     H 5016   4.493   2.619  11.078 -0.6199  0.6138 -0.2768
  334TMC3    H1 5017   4.468   3.026  11.165 -0.4379 -1.7671  0.6923
  334TMC3    H2 5018   4.718   2.907  10.850 -1.2249  1.2279 -0.3713
  334TMC3    C7 5019   4.612   3.108  10.978 -0.2252 -0.3318  1.0053
  334TMC3    C8 5020   4.711   2.646  10.940  0.2436 -0.5303 -0.4568
  334TMC3    O1 5021   4.641   3.180  11.072  0.6147 -0.6037  0.5251
  334TMC3    O2 5022   4.694   2.556  11.019 -0.2238  0.4375  0.3904
  335TMC3    C1 5023   3.142   3.933  17.072  0.3296  0.2929 -0.1035
  335TMC3    C2 5024   3.097   3.893  16.952  0.3230  0.4113 -0.3873
  335TMC3    C3 5025   3.194   3.885  16.851 -0.0353  0.4650 -0.4074
  335TMC3    C4 5026   3.272   3.978  17.092  0.0760 -0.7495 -0.3208
  335TMC3    C5 5027   3.361   3.968  16.985  0.4172  0.0728  0.0666
  335TMC3    C6 5028   3.325   3.910  16.872  0.1652  0.3900  0.0671
  335TMC3     C 5029   3.040   3.935  17.183  0.1408 -0.0478 -0.1256
  335TMC3     O 5030   2.938   3.865  17.169 -0.4810  0.5043 -0.3945
  335TMC3     H 5031   2.991   3.878  16.936  0.8345 -3.8260  0.1311
  335TMC3    H1 5032   3.313   3.999  17.191  0.5400  0.9841 -0.8749
  335TMC3    H2 5033   3.389   3.915  16.785 -1.5364  0.4549 -1.1574
  335TMC3    C7 5034   3.500   4.010  16.989  0.5774 -0.1845  0.1133
  335TMC3    C8 5035   3.172   3.803  16.733  0.2547 -0.4535  0.0874
  335TMC3    O1 5036   3.579   3.955  16.916  0.4335  0.4504  0.1682
  335TMC3    O2 5037   3.230   3.833  16.629  0.3373  0.0693  0.3384
  336MPD2     C 5038   2.990   1.739  16.196 -0.2193  0.3226 -0.3904
  336MPD2    C1 5039   2.949   1.674  16.085  0.0399 -0.0847 -1.4374
  336MPD2    C2 5040   2.991   1.545  16.070 -0.4507  0.5793  0.3166
  336MPD2    C3 5041   3.057   1.478  16.172 -0.7081  0.4831  0.5694
  336MPD2    C4 5042   3.098   1.551  16.282 -0.4453 -0.5398 -0.1755
  336MPD2    C5 5043   3.067   1.683  16.290  0.1936 -0.4955 -0.5787
  336MPD2     H 5044   2.972   1.490  15.979 -0.2442 -1.5040  1.5401
  336MPD2    H1 5045   3.156   1.499  16.358  0.2784 -0.7414 -0.8611
  336MPD2    H2 5046   2.979   1.847  16.200  0.8967  0.4505 -0.8071
  336MPD2    H3 5047   3.109   1.750  16.365  0.7001 -0.8729 -0.5204
  336MPD2     N 5048   3.115   1.353  16.151 -0.0705 -0.1626 -0.2231
  336MPD2    H5 5049   3.173   1.322  16.228  0.3016 -0.2737 -0.5473
  336MPD2    N1 5050   2.866   1.742  15.988  0.2634 -0.1486  0.2262
  336MPD2    H7 5051   2.850   1.841  16.004 -2.3541 -0.5900  0.2896
  337TMC3    C1 5052   2.730   1.784  15.804  0.0518  0.2744  0.4353
  337TMC3    C2 5053   2.596   1.764  15.771  0.0911  0.3183 -0.2960
  337TMC3    C3 5054   2.531   1.862  15.694  0.1773 -0.0673 -0.1168
  337TMC3    C4 5055   2.794   1.898  15.777 -0.1070  0.0995  0.1989
  337TMC3    C5 5056   2.725   1.999  15.716 -0.4687 -0.5692  0.5777
  337TMC3    C6 5057   2.595   1.982  15.683  0.1175 -0.4134  0.1817
  337TMC3     C 5058   2.804   1.688  15.878 -0.3595 -0.9250 -0.2083
  337TMC3     O 5059   2.787   1.570  15.855 -0.4280 -0.1077  0.3310
  337TMC3     H 5060   2.553   1.664  15.777  0.3630  0.0784 -2.4375
  337TMC3    H1 5061   2.902   1.905  15.785  0.1069 -1.8413 -1.0135
  337TMC3    H2 5062   2.548   2.069  15.639 -2.0660 -1.0090  1.3068
  337TMC3    C7 5063   2.771   2.130  15.744 -0.4831 -0.1853  1.1389
  337TMC3    C8 5064   2.392   1.873  15.695  0.1967 -0.0431  0.1215
  337TMC3    O1 5065   2.891   2.137  15.755  0.6289  0.4976  0.0096
  337TMC3    O2 5066   2.333   1.845  15.800  0.0501 -0.5145  0.1584
  338MPD2     C 5067   3.673   1.637   0.633  0.9298 -0.0559  0.0779
  338MPD2    C1 5068   3.553   1.562   0.646 -0.2130  0.0755  0.2995
  338MPD2    C2 5069   3.523   1.519   0.773  0.0285  0.0816 -0.6039
  338MPD2    C3 5070   3.587   1.573   0.884  0.5415 -0.5920  0.2605
  338MPD2    C4 5071   3.700   1.651   0.874 -0.1005  0.1830  0.3467
  338MPD2    C5 5072   3.743   1.682   0.745  0.5497  0.3826  0.3023
  338MPD2     H 5073   3.444   1.448   0.796 -0.7778  1.2867  0.3019
  338MPD2    H1 5074   3.760   1.690   0.956  1.8130 -2.3206  0.1213
  338MPD2    H2 5075   3.709   1.671   0.537  1.2134 -1.1460 -0.2022
  338MPD2    H3 5076   3.832   1.742   0.728 -0.3992  1.3464 -1.3456
  338MPD2     N 5077   3.538   1.526   1.005 -0.1549  0.0328  0.1693
  338MPD2    H5 5078   3.463   1.458   1.009  0.2139 -0.4439 -1.1197
  338MPD2    N1 5079   3.473   1.523   0.538 -0.1145  0.5269  0.2858
  338MPD2    H7 5080   3.393   1.465   0.562  0.1418  0.7212  1.6424
  339TMC3    C1 5081   3.518   1.496   1.240 -0.2831  0.6647 -0.0134
  339TMC3    C2 5082   3.450   1.556   1.337 -0.7754  0.2470  0.1876
  339TMC3    C3 5083   3.350   1.490   1.399  0.3710  0.1954  0.7356
  339TMC3    C4 5084   3.470   1.385   1.183  0.3787  0.2606 -0.2406
  339TMC3    C5 5085   3.367   1.317   1.242  0.2366  0.3214  0.1832
  339TMC3    C6 5086   3.302   1.367   1.356 -0.6440 -0.1428  0.6512
  339TMC3     C 5087   3.578   1.576   1.133  0.3797 -0.0781  0.2295
  339TMC3     O 5088   3.657   1.658   1.167 -0.6556 -0.1010  0.1220
  339TMC3     H 5089   3.489   1.646   1.382  0.1499 -0.8217  1.5445
  339TMC3    H1 5090   3.528   1.323   1.115  1.5215  2.9442 -1.7056
  339TMC3    H2 5091   3.201   1.334   1.379 -1.4803  1.0697 -1.2745
  339TMC3    C7 5092   3.283   1.235   1.152  0.1258  0.2472 -0.4300
  339TMC3    C8 5093   3.279   1.548   1.510  0.5910 -1.2810  0.0261
  339TMC3    O1 5094   3.292   1.273   1.037  0.0095  0.5293  0.1916
  339TMC3    O2 5095   3.299   1.663   1.539 -0.0334 -0.2094 -0.3570
  340MPD2     C 5096   4.411   3.622  10.190  0.0480  0.3990  0.5406
  340MPD2    C1 5097   4.365   3.496  10.178 -0.4647  0.3267 -0.1035
  340MPD2    C2 5098   4.458   3.392  10.189 -0.1977  0.1995 -0.7419
  340MPD2    C3 5099   4.591   3.410  10.217 -0.5115 -1.2695 -0.9048
  340MPD2    C4 5100   4.641   3.541  10.220 -0.5991  0.5292 -0.3013
  340MPD2    C5 5101   4.543   3.643  10.210  0.2660 -0.0675 -0.3368
  340MPD2     H 5102   4.428   3.291  10.166 -1.3342  0.6924 -1.4159
  340MPD2    H1 5103   0.026   3.565  10.232 -1.0729  1.5794  1.5852
  340MPD2    H2 5104   4.351   3.712  10.186  0.9498  0.8458 -3.0565
  340MPD2    H3 5105   4.575   3.745  10.226  1.0559 -0.5205  1.0203
  340MPD2     N 5106   4.692   3.312  10.203 -0.4594 -0.3974 -0.5285
  340MPD2    H5 5107   0.067   3.344  10.184 -0.7069 -1.5159 -3.6105
  340MPD2    N1 5108   4.230   3.475  10.138  0.1826  0.5340  0.5181
  340MPD2    H7 5109   4.180   3.555  10.100  1.0693  0.4595 -0.7841
  341TMC3    C1 5110   4.069   3.354  10.022  0.3884  0.1233 -0.5067
  341TMC3    C2 5111   3.983   3.254  10.027 -0.1097 -0.0583  0.4552
  341TMC3    C3 5112   3.940   3.214   9.903 -0.7511  0.3759 -0.2134
  341TMC3    C4 5113   4.112   3.415   9.904 -0.5581 -0.1122 -0.1563
  341TMC3    C5 5114   4.059   3.369   9.788  0.7194 -0.1064 -0.3839
  341TMC3    C6 5115   3.972   3.267   9.780 -0.5026 -0.0362  0.2286
  341TMC3     C 5116   4.169   3.351  10.125  0.0909 -0.4935 -0.5164
  341TMC3     O 5117   4.185   3.250  10.195 -0.1972  0.2937 -0.1169
  341TMC3     H 5118   3.982   3.188  10.113  1.6980  0.8666  1.1755
  341TMC3    H1 5119   4.191   3.489   9.902  0.4054 -1.0484  2.5831
  341TMC3    H2 5120   3.927   3.229   9.690  1.7075 -1.1309 -0.4128
  341TMC3    C7 5121   4.161   3.352   9.691 -0.3416 -0.0242 -0.9587
  341TMC3    C8 5122   3.854   3.095   9.900 -0.2676 -0.2090 -0.6831
  341TMC3    O1 5123   4.161   3.244   9.628 -0.3697 -0.2064 -0.3443
  341TMC3    O2 5124   3.878   3.008   9.818 -0.2371 -0.4726  0.3364
  342MPD2     C 5125   0.945   1.717  16.653 -0.2698  0.4428 -0.3942
  342MPD2    C1 5126   0.986   1.620  16.740  0.3127 -0.0357 -0.2304
  342MPD2    C2 5127   0.983   1.650  16.871 -1.1153 -0.4791  0.2646
  342MPD2    C3 5128   0.944   1.775  16.916 -0.7718 -0.6303  0.0246
  342MPD2    C4 5129   0.918   1.874  16.818 -0.3324 -0.6137  0.6770
  342MPD2    C5 5130   0.907   1.839  16.687  0.5917 -0.0850  0.1323
  342MPD2     H 5131   1.027   1.575  16.936  0.5627  1.9537  1.9348
  342MPD2    H1 5132   0.889   1.975  16.846  0.2802 -0.6949  1.6142
  342MPD2    H2 5133   0.934   1.687  16.549  1.5517 -1.9865  0.1099
  342MPD2    H3 5134   0.875   1.907  16.609 -2.7784 -0.8683  0.8261
  342MPD2     N 5135   0.951   1.815  17.051  0.3133 -0.0687 -0.2859
  342MPD2    H5 5136   0.941   1.916  17.056 -1.9944 -0.2020 -2.1119
  342MPD2    N1 5137   1.046   1.493  16.700  0.0087  0.2535  0.1475
  342MPD2    H7 5138   1.075   1.426  16.771 -0.2216  0.0725  0.0669
  343TMC3    C1 5139   1.161   1.346  16.561  0.2967  0.7437 -0.1312
  343TMC3    C2 5140   1.295   1.353  16.523  0.2825 -0.0600 -0.0413
  343TMC3    C3 5141   1.383   1.258  16.563  0.2610 -0.1973 -0.0906
  343TMC3    C4 5142   1.110   1.237  16.629 -0.1995  0.1255 -0.1340
  343TMC3    C5 5143   1.203   1.137  16.660  0.6001  0.0553  0.1775
  343TMC3    C6 5144   1.339   1.142  16.632  0.0219 -0.6445  0.0586
  343TMC3     C 5145   1.091   1.467  16.576  0.2435  0.2669  0.6603
  343TMC3     O 5146   1.093   1.533  16.470  0.4736 -0.1448 -0.0222
  343TMC3     H 5147   1.338   1.443  16.481  2.2586  0.7591  3.6678
  343TMC3    H1 5148   1.005   1.244  16.658  0.7093  3.4160  2.3766
  343TMC3    H2 5149   1.399   1.056  16.657 -0.1508 -0.6851  0.3392
  343TMC3    C7 5150   1.156   1.024  16.735 -0.1198 -0.9253 -0.2040
  343TMC3    C8 5151   1.518   1.301  16.564  0.8302  0.2647 -0.2311
  343TMC3    O1 5152   1.044   0.983  16.712  0.3380  0.5253 -0.1745
  343TMC3    O2 5153   1.543   1.416  16.543  0.6692  0.6838 -0.6906
  344MPD2     C 5154   2.860   1.837  10.911 -0.4179  0.4055  0.4602
  344MPD2    C1 5155   2.802   1.798  10.793  0.0630 -0.1466  0.2315
  344MPD2    C2 5156   2.828   1.856  10.671 -0.3444 -0.0776  0.2055
  344MPD2    C3 5157   2.926   1.958  10.672 -0.5271 -0.2701  0.0521
  344MPD2    C4 5158   2.999   1.989  10.785 -0.1705  0.2459 -0.0796
  344MPD2    C5 5159   2.956   1.935  10.904 -0.1468  0.5389 -0.1380
  344MPD2     H 5160   2.795   1.817  10.576 -1.0804  0.5030  0.2175
  344MPD2    H1 5161   3.077   2.064  10.788 -0.7172  0.8978 -2.2653
  344MPD2    H2 5162   2.827   1.809  11.010  0.9569  2.1968  1.4176
  344MPD2    H3 5163   2.985   1.975  11.001  0.7423 -1.0868  0.2708
  344MPD2     N 5164   2.970   2.026  10.553  0.3640  0.1366  0.0035
  344MPD2    H5 5165   3.049   2.090  10.560 -0.0698  1.0064 -3.2682
  344MPD2    N1 5166   2.698   1.696  10.797 -0.1346  0.1620  0.2418
  344MPD2    H7 5167   2.647   1.679  10.711  0.2445  0.5984 -0.0685
  345TMC3    C1 5168   2.980   2.108  10.344 -0.1332  0.0441  0.3851
  345TMC3    C2 5169   3.101   2.159  10.371 -0.4277  0.7968 -0.3043
  345TMC3    C3 5170   3.163   2.240  10.286 -0.4108 -0.0362  0.2568
  345TMC3    C4 5171   2.903   2.156  10.241 -0.8846 -0.1114  0.2037
  345TMC3    C5 5172   2.974   2.247  10.163 -0.1439  0.1369  0.1370
  345TMC3    C6 5173   3.101   2.290  10.173  0.0004 -0.1033  0.2036
  345TMC3     C 5174   2.908   2.022  10.429 -0.8167  0.2233 -0.3838
  345TMC3     O 5175   2.823   1.949  10.380 -0.4151  0.1882 -0.0297
  345TMC3     H 5176   3.163   2.139  10.458 -1.1892 -0.0452  0.0533
  345TMC3    H1 5177   2.802   2.124  10.217 -1.0918  0.0274  0.9142
  345TMC3    H2 5178   3.156   2.346  10.098  1.9807  0.0846  1.8168
  345TMC3    C7 5179   2.895   2.336  10.076  0.2499 -0.5786 -0.5966
  345TMC3    C8 5180   3.278   2.310  10.333 -0.2865 -0.2203  0.0670
  345TMC3    O1 5181   2.959   2.432  10.043  0.0344  0.2536  0.2299
  345TMC3    O2 5182   3.263   2.344  10.450  0.3044  0.2711  0.1851
  346MPD2     C 5183   1.777   3.292  13.944  0.0260  1.0261  0.0835
  346MPD2    C1 5184   1.908   3.239  13.951 -0.2459  0.8458  0.6711
  346MPD2    C2 5185   1.996   3.293  14.045 -0.5069  0.9399 -0.1194
  346MPD2    C3 5186   1.966   3.405  14.117  0.4868  0.2909  0.1942
  346MPD2    C4 5187   1.840   3.466  14.100 -0.3870 -0.0284 -0.1847
  346MPD2    C5 5188   1.755   3.408  14.005 -0.1723 -0.0882 -0.5197
  346MPD2     H 5189   2.080   3.232  14.077  0.4365  1.8427 -0.8620
  346MPD2    H1 5190   1.811   3.564  14.137 -0.0151 -0.2686  0.7559
  346MPD2    H2 5191   1.703   3.250  13.877 -1.1147  0.5317  1.6272
  346MPD2    H3 5192   1.653   3.442  13.994 -0.6231 -0.7269  1.6551
  346MPD2     N 5193   2.057   3.457  14.214 -0.5042 -0.5580 -0.9632
  346MPD2    H5 5194   2.150   3.417  14.214  0.1822  1.0518  0.8820
  346MPD2    N1 5195   1.938   3.126  13.869 -0.1668 -0.4756  0.3403
  346MPD2    H7 5196   1.866   3.062  13.839 -0.8374 -0.2022  1.3714
  347TMC3    C1 5197   2.136   3.598  14.397 -0.0406  0.1426  0.0505
  347TMC3    C2 5198   2.263   3.578  14.371  0.7895  0.0889 -0.5800
  347TMC3    C3 5199   2.353   3.602  14.472  0.3143 -0.3942  0.1497
  347TMC3    C4 5200   2.087   3.647  14.521 -0.5957 -0.4258  0.0205
  347TMC3    C5 5201   2.179   3.654  14.627  0.2177  0.9556 -0.1570
  347TMC3    C6 5202   2.315   3.633  14.599 -0.4592 -0.4000 -0.3434
  347TMC3     C 5203   2.028   3.557  14.307  0.8062  0.1147  0.0877
  347TMC3     O 5204   1.925   3.621  14.327 -0.3876 -0.1751  0.0633
  347TMC3     H 5205   2.294   3.534  14.277  0.5907 -0.6279 -0.3106
  347TMC3    H1 5206   1.981   3.660  14.541 -0.3513 -0.0815  1.0833
  347TMC3    H2 5207   2.393   3.634  14.675  0.6857 -0.3827 -1.5191
  347TMC3    C7 5208   2.123   3.662  14.767  0.1757  0.1126  0.1201
  347TMC3    C8 5209   2.485   3.533  14.452 -0.5220  0.0390  0.3293
  347TMC3    O1 5210   2.005   3.624  14.775 -0.3711 -0.2702 -0.0658
  347TMC3    O2 5211   2.498   3.449  14.366  0.2976  0.2911 -0.0091
  348MPD2     C 5212   1.231   3.224  11.655  0.3262 -0.1294  0.3258
  348MPD2    C1 5213   1.306   3.336  11.677 -0.6291  0.1573 -0.6578
  348MPD2    C2 5214   1.309   3.433  11.576  0.5135  0.0699  0.4870
  348MPD2    C3 5215   1.270   3.409  11.446 -0.4572  0.8665  0.2449
  348MPD2    C4 5216   1.198   3.290  11.420  0.0237 -0.0575  0.5436
  348MPD2    C5 5217   1.180   3.203  11.531 -0.2515  0.6100  0.1346
  348MPD2     H 5218   1.366   3.521  11.605  0.5459  0.5237 -0.9447
  348MPD2    H1 5219   1.166   3.261  11.321  0.0693  0.9917  0.2283
  348MPD2    H2 5220   1.210   3.151  11.733 -0.3436  2.1070  2.2118
  348MPD2    H3 5221   1.122   3.115  11.508 -1.2158  1.8221 -2.0675
  348MPD2     N 5222   1.300   3.499  11.336  0.0659 -0.9234  0.4005
  348MPD2    H5 5223   1.258   3.476  11.247  2.9280 -0.4026 -1.0898
  348MPD2    N1 5224   1.386   3.358  11.793 -0.0657 -0.0018  0.0286
  348MPD2    H7 5225   1.451   3.435  11.778  2.1642 -1.7109  0.9541
  349TMC3    C1 5226   1.526   3.292  11.967  0.2328  0.4357  0.5219
  349TMC3    C2 5227   1.544   3.202  12.069  0.1737 -0.0491 -0.7888
  349TMC3    C3 5228   1.679   3.153  12.075 -0.2668  0.1278  0.1821
  349TMC3    C4 5229   1.625   3.355  11.892 -0.3110 -0.3545  0.0558
  349TMC3    C5 5230   1.754   3.310  11.914 -0.2444  0.2185  0.0156
  349TMC3    C6 5231   1.780   3.209  12.003 -0.4722 -0.2023 -1.0682
  349TMC3     C 5232   1.395   3.276  11.909  0.7520  0.2609 -0.8149
  349TMC3     O 5233   1.322   3.186  11.942 -0.3737  0.1494  0.5658
  349TMC3     H 5234   1.462   3.157  12.123 -1.6938  2.4294 -1.5677
  349TMC3    H1 5235   1.607   3.422  11.809  0.3591 -2.2570 -1.6360
  349TMC3    H2 5236   1.876   3.159  11.992 -0.0016  0.5956 -0.6063
  349TMC3    C7 5237   1.817   3.275  11.789 -0.5336  0.7621 -0.1234
  349TMC3    C8 5238   1.679   3.010  12.089 -0.2559 -0.5073  0.0887
  349TMC3    O1 5239   1.829   3.154  11.770  0.3811 -0.4257  0.3573
  349TMC3    O2 5240   1.589   2.956  12.152  0.2937  0.5124 -0.1488
  350MPD2     C 5241   0.534   1.214   9.302 -0.8972  0.8405 -0.3956
  350MPD2    C1 5242   0.596   1.104   9.357 -0.5963  0.2522 -0.1444
  350MPD2    C2 5243   0.734   1.098   9.361 -1.0296  0.1594 -0.4128
  350MPD2    C3 5244   0.809   1.209   9.324  0.5884 -1.1608 -0.2026
  350MPD2    C4 5245   0.749   1.322   9.281 -0.1006 -0.4982 -0.5291
  350MPD2    C5 5246   0.610   1.327   9.272  0.4258  0.5640  0.3439
  350MPD2     H 5247   0.790   1.012   9.397 -0.4625  0.5056 -0.4749
  350MPD2    H1 5248   0.803   1.415   9.269 -1.0995  0.3201  1.3294
  350MPD2    H2 5249   0.425   1.215   9.302 -0.9044  0.2576 -1.0704
  350MPD2    H3 5250   0.561   1.422   9.258 -0.8857  0.2540  3.0015
  350MPD2     N 5251   0.944   1.192   9.347 -0.0875  0.0296  0.3346
  350MPD2    H5 5252   0.968   1.112   9.404 -1.1971  0.7575  1.8272
  350MPD2    N1 5253   0.525   0.988   9.407 -0.3421  0.1018  0.1163
  350MPD2    H7 5254   0.590   0.911   9.423 -0.0239  0.5795  1.1267
  351TMC3    C1 5255   0.333   0.851   9.472  1.3637 -0.3654  0.8587
  351TMC3    C2 5256   0.412   0.742   9.493 -0.6268 -0.2882  0.5181
  351TMC3    C3 5257   0.359   0.642   9.578  0.2573 -0.2083 -0.6857
  351TMC3    C4 5258   0.202   0.859   9.506  0.2038 -0.0069  0.1057
  351TMC3    C5 5259   0.157   0.768   9.598  0.2702 -0.0875 -0.0060
  351TMC3    C6 5260   0.229   0.649   9.625  0.8050 -0.2942  0.5364
  351TMC3     C 5261   0.385   0.976   9.426 -0.5027 -0.0966  0.7577
  351TMC3     O 5262   0.300   1.066   9.418  0.5357 -0.4045 -0.1503
  351TMC3     H 5263   0.519   0.745   9.478 -0.9174  0.0487 -1.3924
  351TMC3    H1 5264   0.143   0.949   9.498  1.5306  0.9419  1.1860
  351TMC3    H2 5265   0.186   0.563   9.675  0.3437 -0.0578  0.5452
  351TMC3    C7 5266   0.028   0.791   9.655  0.2541  1.0422  1.0711
  351TMC3    C8 5267   0.446   0.533   9.620 -0.0208 -0.0801  0.2072
  351TMC3    O1 5268   4.673   0.876   9.602  0.6051 -0.1179 -0.6482
  351TMC3    O2 5269   0.553   0.524   9.557  0.4672  0.2990 -0.0840
  352MPD2     C 5270   2.306   2.846   1.199 -0.4121  0.1602  0.0436
  352MPD2    C1 5271   2.427   2.883   1.143  0.1644  0.1092 -0.4551
  352MPD2    C2 5272   2.534   2.800   1.183  0.1934  0.5080  0.1310
  352MPD2    C3 5273   2.516   2.681   1.251 -0.7671 -0.0513 -0.2676
  352MPD2    C4 5274   2.392   2.633   1.287  0.2919  0.2821  0.3695
  352MPD2    C5 5275   2.286   2.715   1.256 -0.6116  0.2252  0.0063
  352MPD2     H 5276   2.637   2.826   1.159  0.4220  0.0467  0.5953
  352MPD2    H1 5277   2.378   2.532   1.324 -1.3870  0.0640 -0.8610
  352MPD2    H2 5278   2.215   2.903   1.183 -1.5004 -1.7387 -0.5603
  352MPD2    H3 5279   2.187   2.675   1.272  0.0442 -0.3301  2.8051
  352MPD2     N 5280   2.624   2.597   1.272  0.2491 -0.3383  0.4112
  352MPD2    H5 5281   2.592   2.501   1.287 -1.9448  0.6332  1.9338
  352MPD2    N1 5282   2.429   2.991   1.050  0.7336  0.1814  0.2234
  352MPD2    H7 5283   2.340   3.039   1.039 -0.3653 -2.4396 -2.2942
  353TMC3    C1 5284   2.846   2.523   1.314 -0.0107 -1.0417 -0.1710
  353TMC3    C2 5285   2.952   2.540   1.402  0.1988 -0.9754 -0.0311
  353TMC3    C3 5286   3.047   2.439   1.403 -0.4284  0.2530  0.2487
  353TMC3    C4 5287   2.835   2.418   1.223  0.1258  0.0826 -0.7901
  353TMC3    C5 5288   2.938   2.325   1.222  0.1354 -0.6990  0.2265
  353TMC3    C6 5289   3.051   2.338   1.310 -0.4543 -0.1239  0.0562
  353TMC3     C 5290   2.750   2.638   1.308  0.2255 -0.6325 -0.5699
  353TMC3     O 5291   2.786   2.757   1.316 -0.5580 -0.2358  0.5736
  353TMC3     H 5292   2.949   2.617   1.479  1.1245  0.6815 -1.6535
  353TMC3    H1 5293   2.750   2.416   1.155  0.2938 -0.6973 -0.9852
  353TMC3    H2 5294   3.110   2.249   1.320 -0.7293 -0.3302 -0.1461
  353TMC3    C7 5295   2.918   2.203   1.150 -0.4225 -0.1137  0.0810
  353TMC3    C8 5296   3.132   2.435   1.518 -0.3914  0.6423 -0.6900
  353TMC3    O1 5297   2.804   2.176   1.114 -0.3182 -0.7986 -0.1906
  353TMC3    O2 5298   3.098   2.503   1.611 -0.4162  0.1047 -0.2614
  354TMC3    C1 5299   0.417   4.055  13.079  0.4083  0.2634  0.4374
  354TMC3    C2 5300   0.423   4.191  13.094 -0.9647 -0.1635  0.3303
  354TMC3    C3 5301   0.390   4.270  12.988  0.7654 -0.3409 -0.4017
  354TMC3    C4 5302   0.396   3.998  12.953  0.3061 -0.5141 -0.1548
  354TMC3    C5 5303   0.392   4.088  12.843  0.2194  0.7519  0.7835
  354TMC3    C6 5304   0.392   4.224  12.857 -0.8237 -0.1990  0.1799
  354TMC3     C 5305   0.425   3.969  13.194 -0.4071  0.2010  0.3331
  354TMC3     O 5306   0.348   3.874  13.193  0.1201  0.1338  0.9104
  354TMC3     H 5307   0.433   4.227  13.196 -0.1048 -0.4514  0.3443
  354TMC3    H1 5308   0.419   3.893  12.942  0.1590 -0.3307 -2.2420
  354TMC3    H2 5309   0.370   4.285  12.770 -0.5118 -0.4677 -0.0831
  354TMC3    C7 5310   0.448   4.038  12.720  0.2103 -0.2455 -0.6939
  354TMC3    C8 5311   0.341   4.406  13.020  1.1022 -0.3508 -0.4045
  354TMC3    O1 5312   0.444   3.918  12.716 -0.0691  0.2327 -0.3442
  354TMC3    O2 5313   0.293   4.423  13.133  0.3768  0.3075 -0.2119
  355MPD2     C 5314   0.400   0.398  11.606  0.7231 -0.3813 -0.5345
  355MPD2    C1 5315   0.431   0.463  11.489  0.0603  0.0823  0.2888
  355MPD2    C2 5316   0.568   0.489  11.459  0.0965  0.8942 -0.4605
  355MPD2    C3 5317   0.668   0.444  11.540  0.4570  0.1794  0.0601
  355MPD2    C4 5318   0.641   0.380  11.663 -0.5982 -0.5366 -0.4033
  355MPD2    C5 5319   0.505   0.359  11.686  0.3472 -0.5606  0.0415
  355MPD2     H 5320   0.595   0.530  11.362 -1.0341  0.1614 -1.0864
  355MPD2    H1 5321   0.716   0.353  11.736 -0.2207  0.9542 -0.2285
  355MPD2    H2 5322   0.299   0.368  11.631  0.7765  0.8440  1.1247
  355MPD2    H3 5323   0.480   0.312  11.781 -2.6662  1.0676  0.0503
  355MPD2     N 5324   0.803   0.463  11.516  0.3860 -0.2840 -0.0723
  355MPD2    H5 5325   0.873   0.418  11.575 -1.8676 -0.5019  2.4296
  355MPD2    N1 5326   0.319   0.495  11.411  0.5653 -0.3777 -0.3229
  355MPD2    H7 5327   0.232   0.459  11.449  1.3511 -1.6209  0.2897
  356TMC3    C1 5328   0.982   0.590  11.457 -0.0986 -0.5107  0.6001
  356TMC3    C2 5329   1.094   0.598  11.379  0.0460  0.4564  0.3899
  356TMC3    C3 5330   1.209   0.644  11.434 -0.5064 -0.5494  0.2224
  356TMC3    C4 5331   0.980   0.635  11.586 -0.6949 -0.1943 -0.2589
  356TMC3    C5 5332   1.102   0.674  11.632  0.1407 -0.0031 -1.0448
  356TMC3    C6 5333   1.221   0.677  11.564 -0.4129 -0.4837  0.4885
  356TMC3     C 5334   0.859   0.536  11.411  0.2931 -0.1154  0.1704
  356TMC3     O 5335   0.820   0.576  11.299 -0.2928 -0.1029  0.0361
  356TMC3     H 5336   1.089   0.541  11.287 -0.0949  1.5235 -0.2541
  356TMC3    H1 5337   0.892   0.642  11.648 -0.8596  2.7431 -0.8459
  356TMC3    H2 5338   1.315   0.703  11.611 -0.6337 -0.6432  1.0254
  356TMC3    C7 5339   1.103   0.692  11.775  0.0261 -0.4603  0.9428
  356TMC3    C8 5340   1.317   0.682  11.349  0.1230 -0.5019  0.3697
  356TMC3    O1 5341   1.013   0.637  11.844  0.4033 -0.0507  0.2423
  356TMC3    O2 5342   1.301   0.643  11.236 -0.4062 -0.0780 -0.4943
  357MPD2     C 5343   4.600   4.448   0.968  0.3658 -0.5825  0.4979
  357MPD2    C1 5344   0.011   4.443   1.022  0.5051 -0.2676  0.4275
  357MPD2    C2 5345   0.020   4.451   1.156 -0.6244  0.0120  0.0642
  357MPD2    C3 5346   4.635   4.451   1.242 -0.3829  0.6871  0.5944
  357MPD2    C4 5347   4.506   4.460   1.185 -0.2099  0.9945  0.2234
  357MPD2    C5 5348   4.494   4.465   1.049 -0.5893  0.0193  0.3626
  357MPD2     H 5349   0.121   4.449   1.196 -1.1959 -0.0272  1.5086
  357MPD2    H1 5350   4.418   4.474   1.248 -0.3034  1.4708 -0.0119
  357MPD2    H2 5351   4.581   4.446   0.861  0.2026  1.6967  0.4937
  357MPD2    H3 5352   4.395   4.462   1.004  0.6092 -1.1327 -2.1714
  357MPD2     N 5353   4.645   4.442   1.382 -0.8022  0.0021  0.5138
  357MPD2    H5 5354   4.559   4.439   1.436 -0.5702 -0.7799  0.8335
  357MPD2    N1 5355   0.121   4.423   0.932 -0.1111 -0.5379 -0.3942
  357MPD2    H7 5356   0.102   4.377   0.844  0.8914  0.1688 -0.9831
  358TMC3    C1 5357   0.343   4.346   0.903  0.6689  0.8856  0.1119
  358TMC3    C2 5358   0.301   4.233   0.841  0.2440 -0.1795  0.0020
  358TMC3    C3 5359   0.393   4.131   0.817 -0.2196 -0.1167 -0.1761
  358TMC3    C4 5360   0.465   4.344   0.961  0.2730  0.4058 -0.4622
  358TMC3    C5 5361   0.549   4.243   0.947 -0.0670 -0.3377 -0.0815
  358TMC3    C6 5362   0.516   4.131   0.876  0.1731  0.7392  0.1827
  358TMC3     C 5363   0.253   4.450   0.953 -0.4373  0.1103  0.0038
  358TMC3     O 5364   0.296   4.527   1.038 -0.3082  0.3651  0.1264
  358TMC3     H 5365   0.206   4.219   0.789  1.2183  0.3225 -1.9076
  358TMC3    H1 5366   0.495   4.436   1.010  0.3683 -0.8718  1.8655
  358TMC3    H2 5367   0.593   4.061   0.846 -0.2253  0.3875 -0.0218
  358TMC3    C7 5368   0.679   4.246   1.014  0.0192 -0.5518 -0.8467
  358TMC3    C8 5369   0.352   4.022   0.730 -0.7416 -0.3234 -0.4424
  358TMC3    O1 5370   0.754   4.154   0.988 -0.1729  0.2669  0.6025
  358TMC3    O2 5371   0.258   4.045   0.657 -0.2171 -0.1226 -0.5377
  359MPD2     C 5372   1.006   3.795  12.600  1.2065  0.1869 -0.0347
  359MPD2    C1 5373   0.922   3.780  12.495 -0.4554 -0.0833 -1.0495
  359MPD2    C2 5374   0.819   3.685  12.507 -0.3954 -0.2335 -0.0689
  359MPD2    C3 5375   0.792   3.620  12.624 -0.4200 -1.0342 -0.1298
  359MPD2    C4 5376   0.874   3.645  12.726  0.2093 -0.1634 -0.2755
  359MPD2    C5 5377   0.979   3.728  12.716  0.4444  0.7239  0.3704
  359MPD2     H 5378   0.770   3.660  12.413  1.2713  0.7829 -1.1979
  359MPD2    H1 5379   0.862   3.595  12.822  2.7515 -0.1011  0.0806
  359MPD2    H2 5380   1.088   3.865  12.601  1.5066 -0.1601 -0.5424
  359MPD2    H3 5381   1.047   3.745  12.798  0.8468  0.9071 -0.0023
  359MPD2     N 5382   0.707   3.509  12.639 -0.0669  0.4674  0.0633
  359MPD2    H5 5383   0.714   3.453  12.723  0.1297 -0.7290 -0.7550
  359MPD2    N1 5384   0.954   3.836  12.375 -0.0417 -0.0399  0.1447
  359MPD2    H7 5385   0.896   3.804  12.298 -2.0402  3.1041  0.3514
  360TMC3    C1 5386   1.071   3.964  12.216 -0.3146  0.3348  0.0728
  360TMC3    C2 5387   1.147   4.076  12.184  0.1277 -0.4731 -0.5872
  360TMC3    C3 5388   1.238   4.065  12.083  0.0266 -0.1256 -0.1886
  360TMC3    C4 5389   1.085   3.853  12.132 -0.1286 -0.1868 -0.4917
  360TMC3    C5 5390   1.158   3.860  12.017  0.0659 -0.9489  0.4210
  360TMC3    C6 5391   1.244   3.964  11.993  0.0812  0.0314  0.4175
  360TMC3     C 5392   1.030   3.948  12.355  0.8003 -0.1746 -0.1597
  360TMC3     O 5393   1.073   4.019  12.442  0.3025 -0.0016 -0.1957
  360TMC3     H 5394   1.168   4.154  12.256 -0.8655 -0.2264 -0.5679
  360TMC3    H1 5395   1.027   3.763  12.149  2.1505 -1.1310  2.2919
  360TMC3    H2 5396   1.290   3.982  11.897  0.2771 -2.1806  0.0921
  360TMC3    C7 5397   1.092   3.819  11.893  1.3037  0.4390 -0.3487
  360TMC3    C8 5398   1.304   4.193  12.053 -0.0737 -0.3571  0.8321
  360TMC3    O1 5399   1.064   3.911  11.815  0.1174  0.8550  0.1006
  360TMC3    O2 5400   1.251   4.297  12.090 -0.5930 -0.2894 -0.5351
  361MPD2     C 5401   1.637   2.235  17.005  1.0492  0.0271 -0.0404
  361MPD2    C1 5402   1.705   2.324  17.088  0.2325 -0.4749 -0.1667
  361MPD2    C2 5403   1.834   2.358  17.049  0.2044  0.6327  0.1616
  361MPD2    C3 5404   1.898   2.301  16.938 -0.0948  0.1910  0.6388
  361MPD2    C4 5405   1.830   2.205  16.868  0.8906 -0.3125  0.1986
  361MPD2    C5 5406   1.704   2.175  16.898 -0.4082  0.2836 -0.4258
  361MPD2     H 5407   1.886   2.437  17.102 -0.1905 -0.4066  2.0843
  361MPD2    H1 5408   1.876   2.170  16.776  0.0642 -0.5192 -0.1297
  361MPD2    H2 5409   1.539   2.201  17.037  0.7894 -0.1567 -1.0271
  361MPD2    H3 5410   1.651   2.106  16.833  1.8065 -0.3618 -1.5580
  361MPD2     N 5411   2.037   2.333  16.897  0.0699  0.0928  0.1965
  361MPD2    H5 5412   2.072   2.290  16.812  1.5117  0.6624  0.5082
  361MPD2    N1 5413   1.650   2.382  17.199  0.5346  0.1550  0.5877
  361MPD2    H7 5414   1.692   2.471  17.222 -0.4031 -0.0126  2.9648
  362TMC3    C1 5415   1.498   2.471  17.345 -0.1249 -0.4021 -0.0716
  362TMC3    C2 5416   1.399   2.441  17.433  0.3414  0.0735  0.0414
  362TMC3    C3 5417   1.365   2.535  17.519  0.4761 -0.6119  0.1126
  362TMC3    C4 5418   1.584   2.582  17.352 -0.5232  0.0116 -0.4351
  362TMC3    C5 5419   1.551   2.676  17.453  0.7468 -1.4034  0.3220
  362TMC3    C6 5420   1.437   2.655  17.529 -0.2746  0.0109  0.3583
  362TMC3     C 5421   1.530   2.361  17.255  0.5519 -0.2282 -0.2634
  362TMC3     O 5422   1.440   2.281  17.239  0.1529  0.1892  0.3954
  362TMC3     H 5423   1.343   2.349  17.424 -1.4250  1.3807 -2.2396
  362TMC3    H1 5424   1.656   2.610  17.276 -0.0357  0.1145  0.0654
  362TMC3    H2 5425   1.414   2.736  17.598  1.2020  0.1556  0.6756
  362TMC3    C7 5426   1.579   2.816  17.425 -0.0128  0.0702 -0.4916
  362TMC3    C8 5427   1.222   2.546  17.545  1.0751  0.1593 -0.3578
  362TMC3    O1 5428   1.488   2.896  17.448  0.0049  0.0236  0.0873
  362TMC3    O2 5429   1.149   2.458  17.501 -0.5630 -0.2148 -0.9338
  363TMC3    C1 5430   1.185   0.315   9.159 -0.3795 -0.0319  0.7327
  363TMC3    C2 5431   1.193   0.247   9.273 -0.1575 -0.0744 -0.0789
  363TMC3    C3 5432   1.080   0.204   9.327  0.3273 -0.1665 -0.0674
  363TMC3    C4 5433   1.074   0.360   9.097  0.7464  0.3562  0.3675
  363TMC3    C5 5434   0.955   0.310   9.152  0.2168  0.2760 -0.1372
  363TMC3    C6 5435   0.960   0.232   9.267  0.3348  0.2673  0.5874
  363TMC3     C 5436   1.304   0.353   9.093  0.1004  0.6806 -0.2757
  363TMC3     O 5437   1.319   0.465   9.046 -0.3345 -0.0752 -0.6416
  363TMC3     H 5438   1.291   0.243   9.320 -1.0825 -2.1642  1.6247
  363TMC3    H1 5439   1.077   0.406   8.999  0.8902  1.5882  0.9513
  363TMC3    H2 5440   0.871   0.196   9.317  0.9185 -0.4394  1.1143
  363TMC3    C7 5441   0.828   0.346   9.092  0.0166  0.7726  0.3329
  363TMC3    C8 5442   1.082   0.123   9.445  0.1336 -0.4382 -0.2968
  363TMC3    O1 5443   0.839   0.428   9.004 -0.1819  0.3483  0.2122
  363TMC3    O2 5444   0.974   0.113   9.504 -0.5888 -0.2508 -0.3786
  364MPD2     C 5445   4.438   4.206  10.392  0.3143 -0.2235  0.0694
  364MPD2    C1 5446   4.528   4.174  10.289  0.4765  0.2040  0.1869
  364MPD2    C2 5447   4.623   4.074  10.310 -0.1832 -0.1795 -0.4824
  364MPD2    C3 5448   4.623   4.006  10.428 -0.0712  0.2067  0.2842
  364MPD2    C4 5449   4.526   4.025  10.516 -0.2990 -1.0404  0.1213
  364MPD2    C5 5450   4.432   4.128  10.502 -0.1448  0.1226  0.2724
  364MPD2     H 5451   4.697   4.056  10.233 -1.6933  0.2146 -2.0172
  364MPD2    H1 5452   4.519   3.969  10.609  2.1720 -0.8887  0.3909
  364MPD2    H2 5453   4.361   4.282  10.383  1.2108  0.6223 -0.4961
  364MPD2    H3 5454   4.361   4.151  10.580  0.0371  1.6185  0.0099
  364MPD2     N 5455   0.009   3.918  10.465  0.3137 -0.2412 -0.3578
  364MPD2    H5 5456   4.716   3.871  10.555  0.4879  0.2730 -0.0680
  364MPD2    N1 5457   4.520   4.255  10.171  0.0139 -0.1513  0.1593
  364MPD2    H7 5458   4.443   4.321  10.171  1.2347  1.2486 -3.5677
  365TMC3    C1 5459   4.587   4.361   9.970  0.1170 -0.0328 -1.4072
  365TMC3    C2 5460   4.656   4.339   9.858  0.3267  0.3059 -0.2271
  365TMC3    C3 5461   0.012   4.441   9.810 -0.3744  0.0807  0.2613
  365TMC3    C4 5462   4.568   4.491  10.012 -0.6908 -0.0345  0.3660
  365TMC3    C5 5463   4.621   4.597   9.938 -0.3263 -0.0320 -0.7480
  365TMC3    C6 5464   4.708   4.570   9.843  0.2829  0.5722 -0.2321
  365TMC3     C 5465   4.586   4.243  10.053 -0.4727 -0.7383 -0.1856
  365TMC3     O 5466   4.673   4.166  10.023 -0.1889  0.3016 -0.0144
  365TMC3     H 5467   4.654   4.239   9.817 -0.1823  0.8886 -1.6244
  365TMC3    H1 5468   4.521   4.508  10.108  1.6856  2.0689  1.1688
  365TMC3    H2 5469   0.051   4.642   9.792 -0.1620  1.6276  0.7158
  365TMC3    C7 5470   4.610   0.016   9.985  0.4080 -0.2763  0.2404
  365TMC3    C8 5471   0.100   4.405   9.694  0.7951  0.8520 -0.2807
  365TMC3    O1 5472   4.633   0.107   9.907 -0.0336  0.2099  0.2663
  365TMC3    O2 5473   0.179   4.484   9.649 -0.1590  0.6942 -0.1994
  366MPD2     C 5474   2.567   0.482  15.420 -0.0335  0.1259 -0.3128
  366MPD2    C1 5475   2.666   0.567  15.370  0.1265  0.8489 -0.3823
  366MPD2    C2 5476   2.781   0.512  15.328 -0.6692  0.6507  0.1378
  366MPD2    C3 5477   2.803   0.377  15.338  0.2726  0.7317 -0.1872
  366MPD2    C4 5478   2.716   0.294  15.407  0.5078 -0.8489 -0.4228
  366MPD2    C5 5479   2.595   0.351  15.443  0.1632  0.2136 -0.5024
  366MPD2     H 5480   2.849   0.578  15.274  1.9868 -0.8318  1.6712
  366MPD2    H1 5481   2.731   0.195  15.447  2.2253 -1.4169 -2.4966
  366MPD2    H2 5482   2.471   0.514  15.460 -0.2589 -0.9772  0.0422
  366MPD2    H3 5483   2.517   0.293  15.490 -1.4249  2.6439 -0.1429
  366MPD2     N 5484   2.923   0.333  15.265  0.8288 -0.0804 -0.1438
  366MPD2    H5 5485   2.971   0.408  15.216 -0.4396  2.9524  3.3269
  366MPD2    N1 5486   2.642   0.708  15.367 -0.5051  0.0251 -0.1719
  366MPD2    H7 5487   2.719   0.768  15.339 -0.9878  0.2876 -0.9440
  367TMC3    C1 5488   2.540   0.910  15.402  1.1891  0.0927  0.1116
  367TMC3    C2 5489   2.663   0.960  15.436 -0.2222  0.6703  0.0885
  367TMC3    C3 5490   2.694   1.080  15.373  0.1418 -0.2027 -0.4611
  367TMC3    C4 5491   2.457   0.973  15.316  0.1196  0.1012 -0.3393
  367TMC3    C5 5492   2.503   1.083  15.250  0.1922  0.5710 -0.3303
  367TMC3    C6 5493   2.621   1.145  15.275  0.0197  0.1960 -1.1286
  367TMC3     C 5494   2.525   0.765  15.405  0.2445 -0.3388 -0.2058
  367TMC3     O 5495   2.411   0.718  15.424  0.4887  0.1792 -0.1389
  367TMC3     H 5496   2.735   0.906  15.496 -0.4836  1.6111  1.2550
  367TMC3    H1 5497   2.362   0.925  15.294 -0.7104  1.4333  0.2862
  367TMC3    H2 5498   2.641   1.237  15.222  0.6192  0.9686  0.4314
  367TMC3    C7 5499   2.421   1.141  15.141  0.0243 -0.3352 -0.8976
  367TMC3    C8 5500   2.816   1.149  15.419 -0.0525  0.0644 -0.4267
  367TMC3    O1 5501   2.438   1.253  15.099 -0.1462  0.4975 -0.2748
  367TMC3    O2 5502   2.910   1.084  15.469  0.3849 -0.3300  0.1491
  368MPD2     C 5503   3.597   2.747  13.013  0.1334  0.5161  0.5137
  368MPD2    C1 5504   3.614   2.835  12.908  0.1755 -0.0155 -0.0034
  368MPD2    C2 5505   3.746   2.867  12.866 -0.2344  0.3376 -0.2387
  368MPD2    C3 5506   3.856   2.807  12.926  0.1287  0.0443 -0.2481
  368MPD2    C4 5507   3.831   2.721  13.028 -0.4475 -0.3747  0.2159
  368MPD2    C5 5508   3.707   2.689  13.071 -0.2810 -0.2136  0.5567
  368MPD2     H 5509   3.755   2.938  12.784  3.2542  0.1115 -0.0194
  368MPD2    H1 5510   3.912   2.670  13.079 -1.7456 -2.5975  0.0643
  368MPD2    H2 5511   3.499   2.727  13.054  0.1705 -0.8205 -0.0635
  368MPD2    H3 5512   3.689   2.618  13.150  2.6515  0.1853  1.5710
  368MPD2     N 5513   3.993   2.838  12.896 -0.6652  0.5096 -0.0727
  368MPD2    H5 5514   4.062   2.793  12.956  0.9013 -0.2683 -2.4791
  368MPD2    N1 5515   3.500   2.907  12.862 -0.2613  0.9378 -0.5327
  368MPD2    H7 5516   3.410   2.867  12.887  0.1005  1.5865  1.7370
  369TMC3    C1 5517   3.376   3.061  12.745 -0.6572  0.5842 -0.1224
  369TMC3    C2 5518   3.354   3.132  12.631  0.0072  0.3888 -0.6126
  369TMC3    C3 5519   3.244   3.203  12.618 -0.0151  0.2295 -0.1031
  369TMC3    C4 5520   3.279   3.059  12.845 -0.3297  0.4389 -0.0528
  369TMC3    C5 5521   3.164   3.133  12.828 -0.4584  0.7943  0.0653
  369TMC3    C6 5522   3.134   3.197  12.706  0.1171  0.0708  0.1328
  369TMC3     C 5523   3.501   3.014  12.773 -0.0830 -0.1997 -0.6743
  369TMC3     O 5524   3.584   3.075  12.706  0.2309  0.0004  0.1658
  369TMC3     H 5525   3.415   3.095  12.549  0.7793  0.5025 -0.0987
  369TMC3    H1 5526   3.295   3.019  12.944  0.1385 -0.4043 -0.4650
  369TMC3    H2 5527   3.044   3.254  12.691  0.5862  0.4825 -1.1533
  369TMC3    C7 5528   3.060   3.107  12.927 -0.0008 -0.0986 -0.4886
  369TMC3    C8 5529   3.241   3.311  12.526  0.0402  0.3596  0.9428
  369TMC3    O1 5530   3.081   3.009  12.997 -0.2519 -1.1789  0.2614
  369TMC3    O2 5531   3.140   3.377  12.513  0.0969  0.3058 -0.1250
  370TMC3    C1 5532   3.243   3.420  16.170 -0.4239 -0.3944  0.2230
  370TMC3    C2 5533   3.188   3.330  16.258  0.1986  0.1812  0.0991
  370TMC3    C3 5534   3.116   3.228  16.210 -0.9104  0.2703  0.0117
  370TMC3    C4 5535   3.234   3.406  16.034  0.0402  0.6505 -0.2035
  370TMC3    C5 5536   3.168   3.296  15.988 -0.4296 -0.1061 -0.1492
  370TMC3    C6 5537   3.114   3.202  16.073  0.7813  0.3076  0.2866
  370TMC3     C 5538   3.333   3.524  16.223  0.2777 -0.3379  1.1634
  370TMC3     O 5539   3.368   3.507  16.338 -0.3559 -0.0399  0.4719
  370TMC3     H 5540   3.203   3.350  16.363 -0.1611  0.7276  0.0467
  370TMC3    H1 5541   3.282   3.470  15.961  1.1649  1.5829  1.3561
  370TMC3    H2 5542   3.049   3.124  16.036  0.0896  0.4881  1.1238
  370TMC3    C7 5543   3.207   3.259  15.852 -0.0326  0.1327 -0.3845
  370TMC3    C8 5544   3.086   3.113  16.294  0.2459 -0.6069 -0.3673
  370TMC3    O1 5545   3.228   3.354  15.776  0.0208 -0.5813 -0.3393
  370TMC3    O2 5546   3.036   3.022  16.230  0.2845 -0.3004  0.3597
  371TMC3    C1 5547   4.652   1.748  15.334  0.4668  0.0602  0.0778
  371TMC3    C2 5548   4.537   1.749  15.404  0.3726 -0.1104  0.1212
  371TMC3    C3 5549   4.451   1.859  15.392  0.1298  0.3337  0.4711
  371TMC3    C4 5550   4.700   1.869  15.280 -0.4576 -0.2091  1.2708
  371TMC3    C5 5551   4.614   1.979  15.284  0.4297  0.4227  0.4157
  371TMC3    C6 5552   4.490   1.974  15.334 -0.1856 -0.2409 -0.1851
  371TMC3     C 5553   0.028   1.644  15.342  0.3605  0.6718 -0.6056
  371TMC3     O 5554   0.142   1.672  15.316 -0.2000  0.5016  0.0345
  371TMC3     H 5555   4.496   1.666  15.462  0.6659  0.6565  1.4225
  371TMC3    H1 5556   0.076   1.861  15.230 -0.6985 -1.1345  0.9639
  371TMC3    H2 5557   4.434   2.066  15.346 -0.2648 -0.2254 -0.6845
  371TMC3    C7 5558   4.665   2.106  15.230 -0.6017 -0.4673  0.6569
  371TMC3    C8 5559   4.310   1.833  15.431 -0.4083 -0.6145 -0.6846
  371TMC3    O1 5560   4.580   2.188  15.196  0.6266 -0.6790  0.2721
  371TMC3    O2 5561   4.282   1.723  15.477 -0.0812 -0.1701 -0.2767
  372MPD2     C 5562   3.989   2.998  13.282 -0.0831  0.2154 -0.1696
  372MPD2    C1 5563   4.108   2.927  13.292  0.1957 -0.5979  0.4133
  372MPD2    C2 5564   4.105   2.806  13.354  0.6422  0.0893 -0.3759
  372MPD2    C3 5565   3.984   2.761  13.408 -0.2890  0.5739 -0.2736
  372MPD2    C4 5566   3.867   2.828  13.391 -0.0241 -0.2653 -1.1733
  372MPD2    C5 5567   3.869   2.936  13.314 -0.5584  0.3111  0.0111
  372MPD2     H 5568   4.199   2.756  13.370 -0.0713 -0.1607  2.9379
  372MPD2    H1 5569   3.774   2.785  13.427  0.1681 -0.4486 -0.8951
  372MPD2    H2 5570   3.992   3.090  13.226 -1.6985  0.2651 -0.1541
  372MPD2    H3 5571   3.776   2.990  13.300 -0.6507  0.5744  1.6261
  372MPD2     N 5572   3.987   2.638  13.488  0.2850 -0.4244  0.1640
  372MPD2    H5 5573   4.079   2.598  13.504  0.1513 -0.4991  0.7635
  372MPD2    N1 5574   4.235   2.981  13.249  0.3521 -0.5643  0.3030
  372MPD2    H7 5575   4.318   2.952  13.300  0.4103  1.1709  1.2011
  373TMC3    C1 5576   3.911   2.455  13.626 -0.0690  0.0811 -0.1535
  373TMC3    C2 5577   3.822   2.404  13.713  0.2765  0.6846 -0.3785
  373TMC3    C3 5578   3.839   2.279  13.760  0.6162 -0.4044  0.0842
  373TMC3    C4 5579   4.012   2.375  13.573 -0.6508  0.4885  0.1401
  373TMC3    C5 5580   4.018   2.238  13.614  0.1771 -0.1034  0.3044
  373TMC3    C6 5581   3.933   2.189  13.707  0.2492  0.3632  0.4280
  373TMC3     C 5582   3.882   2.588  13.568  0.2235 -0.0306 -0.3591
  373TMC3     O 5583   3.768   2.634  13.586 -0.0347 -0.4088 -0.2491
  373TMC3     H 5584   3.736   2.459  13.750  0.8765  1.0779  0.4396
  373TMC3    H1 5585   4.083   2.412  13.500 -0.8716  0.1698 -0.2377
  373TMC3    H2 5586   3.943   2.085  13.739  0.7171  0.9916  2.3668
  373TMC3    C7 5587   4.140   2.168  13.586  0.2289  0.1276  0.5311
  373TMC3    C8 5588   3.753   2.240  13.869  0.0859 -0.6848 -0.2769
  373TMC3    O1 5589   4.184   2.178  13.469  0.2270 -0.4968 -0.1978
  373TMC3    O2 5590   3.643   2.287  13.848  0.3054 -0.6208 -0.3433
  374TMC3    C1 5591   0.631   3.109   9.271  0.2065 -0.3443 -0.2606
  374TMC3    C2 5592   0.715   3.212   9.314 -0.1651  0.3089  0.3639
  374TMC3    C3 5593   0.658   3.330   9.339 -0.0473 -0.4204 -0.1148
  374TMC3    C4 5594   0.507   3.131   9.224 -0.3244  0.8048  0.1637
  374TMC3    C5 5595   0.455   3.258   9.229  1.0050 -0.0091 -0.1015
  374TMC3    C6 5596   0.532   3.358   9.296  0.9898  0.6120  0.5119
  374TMC3     C 5597   0.674   2.970   9.288  0.5739 -0.9254 -0.0341
  374TMC3     O 5598   0.612   2.885   9.226  0.5744  0.2979 -0.4846
  374TMC3     H 5599   0.822   3.202   9.317 -0.3779 -1.6989  1.2958
  374TMC3    H1 5600   0.473   3.061   9.150 -2.5492  1.2427  0.7881
  374TMC3    H2 5601   0.512   3.464   9.304 -0.2142  0.4976 -0.7343
  374TMC3    C7 5602   0.382   3.316   9.117 -0.2639  0.2620 -0.5136
  374TMC3    C8 5603   0.749   3.437   9.377  0.8729  0.1439 -0.3179
  374TMC3    O1 5604   0.390   3.437   9.098  0.1025  0.0773  0.1088
  374TMC3    O2 5605   0.720   3.549   9.331  0.2560  0.0022 -0.0129
  375MPD2     C 5606   0.044   3.662  17.082 -0.4226  1.1974 -0.0494
  375MPD2    C1 5607   4.702   3.661  16.958  0.0843  0.1931 -0.3338
  375MPD2    C2 5608   0.035   3.571  16.862 -0.5389 -0.1413 -0.3922
  375MPD2    C3 5609   0.143   3.503  16.885  0.3377 -0.4348 -0.7381
  375MPD2    C4 5610   0.206   3.516  17.010  0.1901 -0.9119  0.2901
  375MPD2    C5 5611   0.161   3.596  17.107  0.2188 -0.5789  0.0100
  375MPD2     H 5612   4.708   3.566  16.764 -2.5154 -2.1410  0.6419
  375MPD2    H1 5613   0.298   3.462  17.031 -0.0342 -1.4263 -0.0718
  375MPD2    H2 5614   4.717   3.712  17.166  1.0080  0.5690  1.1002
  375MPD2    H3 5615   0.195   3.581  17.208  0.3702  0.9795  0.1838
  375MPD2     N 5616   0.197   3.410  16.798 -0.1680  0.2632  0.8470
  375MPD2    H5 5617   0.285   3.362  16.816 -0.2686 -0.5837 -0.8220
  375MPD2    N1 5618   4.588   3.731  16.931 -0.2202  0.2518  0.4700
  375MPD2    H7 5619   4.534   3.698  16.851 -0.0883 -0.5458  0.7036
  376TMC3    C1 5620   0.251   3.309  16.590 -0.1605 -0.2731  0.2154
  376TMC3    C2 5621   0.376   3.306  16.636  0.6267  0.1807  0.2331
  376TMC3    C3 5622   0.467   3.241  16.552  0.5067  0.4967  0.3719
  376TMC3    C4 5623   0.207   3.243  16.486 -0.3312 -0.3282 -0.3600
  376TMC3    C5 5624   0.297   3.181  16.409 -0.6771  0.2457  0.5022
  376TMC3    C6 5625   0.428   3.177  16.439  0.7395 -0.7904  0.5401
  376TMC3     C 5626   0.150   3.376  16.674  0.6236 -0.4391 -0.4743
  376TMC3     O 5627   0.037   3.390  16.628  0.8256  0.5379  0.3289
  376TMC3     H 5628   0.416   3.369  16.714 -1.4006  1.3711  0.3233
  376TMC3    H1 5629   0.106   3.241  16.447  0.3294 -0.6913 -2.0239
  376TMC3    H2 5630   0.505   3.163  16.364  1.0084  0.6429  0.5645
  376TMC3    C7 5631   0.265   3.152  16.271  0.5276 -0.0557  0.4278
  376TMC3    C8 5632   0.602   3.305  16.558 -0.1663  0.9572  0.4387
  376TMC3    O1 5633   0.177   3.213  16.211  0.3711 -0.1412 -0.6963
  376TMC3    O2 5634   0.649   3.329  16.444 -0.4641  0.1567 -1.0370
  377MPD2     C 5635   2.684   3.385  12.157 -0.5845  1.2626 -0.8022
  377MPD2    C1 5636   2.786   3.310  12.224  0.3643 -0.1642  0.1576
  377MPD2    C2 5637   2.750   3.254  12.352  0.0774 -0.8028  1.0484
  377MPD2    C3 5638   2.626   3.268  12.406 -0.0097 -0.1509  0.0800
  377MPD2    C4 5639   2.531   3.338  12.330 -0.1315 -0.3749  0.2332
  377MPD2    C5 5640   2.561   3.401  12.216 -0.5856  0.0176 -0.5393
  377MPD2     H 5641   2.818   3.195  12.412 -0.8388 -3.6634 -0.7208
  377MPD2    H1 5642   2.433   3.361  12.372  0.9353  1.1475  1.8748
  377MPD2    H2 5643   2.695   3.428  12.059 -0.2153  0.5969 -1.0522
  377MPD2    H3 5644   2.488   3.466  12.170  0.3657  3.6508  3.0921
  377MPD2     N 5645   2.587   3.221  12.531 -0.2612  0.5897 -0.0408
  377MPD2    H5 5646   2.493   3.244  12.561 -0.6300 -0.9491  0.0085
  377MPD2    N1 5647   2.912   3.305  12.161 -0.5470  0.4328 -0.1891
  377MPD2    H7 5648   2.918   3.355  12.072  0.3672 -2.4026 -1.7324
  378TMC3    C1 5649   3.308   3.316  12.024 -0.4872 -0.7309 -0.5179
  378TMC3    C2 5650   3.175   3.322  12.060 -0.2434 -0.6053 -0.2985
  378TMC3    C3 5651   3.132   3.209  12.116  0.0390 -0.0324  0.3368
  378TMC3    C4 5652   3.393   3.212  12.049  0.1798  0.1945 -0.4664
  378TMC3    C5 5653   3.344   3.105  12.115 -0.0272 -0.5136 -0.4051
  378TMC3    C6 5654   3.211   3.100  12.146 -0.3140 -0.1899  0.6116
  378TMC3     C 5655   3.352   3.429  11.939 -0.6297  0.1545 -0.5974
  378TMC3     O 5656   3.262   3.506  11.915  0.0393 -0.6512  0.0348
  378TMC3     H 5657   3.123   3.417  12.054 -0.4414 -0.7056 -0.1788
  378TMC3    H1 5658   3.499   3.229  12.038  0.0678  1.7221  0.8656
  378TMC3    H2 5659   3.160   3.014  12.187  0.2813 -0.8951 -0.1259
  378TMC3    C7 5660   3.429   3.035  12.209 -0.2203 -0.7427 -0.1212
  378TMC3    C8 5661   3.014   3.218  12.201 -0.4651  0.4087 -0.3124
  378TMC3    O1 5662   3.387   2.986  12.313 -0.1562  0.3942 -0.3318
  378TMC3    O2 5663   3.019   3.146  12.302  0.5595 -0.1374  0.2445
  379MPD2     C 5664   3.444   1.430  16.031 -0.0207  0.4843  0.2235
  379MPD2    C1 5665   3.556   1.373  15.970 -0.1298 -0.3891 -0.8879
  379MPD2    C2 5666   3.648   1.306  16.047  0.0183  0.0813 -0.1179
  379MPD2    C3 5667   3.637   1.298  16.182 -0.1183 -0.2923  0.5798
  379MPD2    C4 5668   3.534   1.363  16.247 -0.2061 -0.3893  0.0859
  379MPD2    C5 5669   3.434   1.422  16.170  0.0147  0.1982  0.0965
  379MPD2     H 5670   3.736   1.262  16.000  0.6500  0.8637  0.3238
  379MPD2    H1 5671   3.531   1.362  16.355 -0.9775  2.4451  0.0960
  379MPD2    H2 5672   3.374   1.487  15.972  2.4132  2.5852 -0.6549
  379MPD2    H3 5673   3.340   1.459  16.208  0.0565  1.1518 -0.7307
  379MPD2     N 5674   3.738   1.238  16.266  0.1659 -0.1663  0.7722
  379MPD2    H5 5675   3.722   1.253  16.365 -2.5571 -0.9418  0.4501
  379MPD2    N1 5676   3.565   1.392  15.831 -0.0721 -0.3452 -0.2385
  379MPD2    H7 5677   3.487   1.441  15.789  0.6712  1.3597  0.3610
  380TMC3    C1 5678   3.653   1.376  15.613 -0.1965  0.2185  0.1635
  380TMC3    C2 5679   3.758   1.402  15.529  0.9505  0.6097  0.0010
  380TMC3    C3 5680   3.732   1.438  15.399  0.0179  0.0642  0.4800
  380TMC3    C4 5681   3.518   1.383  15.563  0.1044 -0.4450 -0.6089
  380TMC3    C5 5682   3.494   1.422  15.438  0.2717 -0.4704 -0.4488
  380TMC3    C6 5683   3.599   1.455  15.354 -0.8568  0.5544 -0.1359
  380TMC3     C 5684   3.673   1.359  15.753  0.5891 -0.0889 -0.4633
  380TMC3     O 5685   3.789   1.331  15.790 -0.4005  0.1201 -0.2864
  380TMC3     H 5686   3.856   1.399  15.574  1.6301 -0.0819 -1.5007
  380TMC3    H1 5687   3.437   1.343  15.624  1.1821 -1.3735  0.1971
  380TMC3    H2 5688   3.580   1.495  15.255  1.8483 -2.2473 -1.7691
  380TMC3    C7 5689   3.371   1.493  15.407  0.0683  0.0357  0.3388
  380TMC3    C8 5690   3.843   1.461  15.311 -0.4087 -0.0958  0.0307
  380TMC3    O1 5691   3.382   1.597  15.344  0.1164  0.2351 -0.6907
  380TMC3    O2 5692   3.814   1.534  15.219 -0.2426 -0.1650 -0.3387
  381TMC3    C1 5693   3.231   2.297  15.895 -0.4392  0.0545  0.1447
  381TMC3    C2 5694   3.330   2.379  15.950  0.4389  0.1919  0.0109
  381TMC3    C3 5695   3.293   2.473  16.040 -0.0910  0.1807  0.5214
  381TMC3    C4 5696   3.102   2.308  15.928 -0.2016 -0.4876 -0.9895
  381TMC3    C5 5697   3.071   2.394  16.021 -0.1706  0.4060  0.4155
  381TMC3    C6 5698   3.157   2.488  16.068  0.0344  0.3344 -0.0718
  381TMC3     C 5699   3.278   2.207  15.795 -0.3090  1.3382  0.0200
  381TMC3     O 5700   3.402   2.182  15.788  0.3693  0.3515  0.9287
  381TMC3     H 5701   3.432   2.368  15.918  0.7601  1.3146  0.6413
  381TMC3    H1 5702   3.034   2.225  15.912 -1.5142  0.2114  0.9230
  381TMC3    H2 5703   3.131   2.552  16.151  1.1930 -0.2058  0.7107
  381TMC3    C7 5704   2.944   2.378  16.087 -0.4678 -0.3910  0.0149
  381TMC3    C8 5705   3.367   2.598  16.014 -0.2570 -0.1359 -0.1748
  381TMC3    O1 5706   2.898   2.263  16.094 -0.2336  0.3875 -0.5370
  381TMC3    O2 5707   3.421   2.613  15.904 -0.5035 -0.5723  0.1994
  382MPD2     C 5708   2.864   0.114  17.019 -0.7132  0.5583 -0.0040
  382MPD2    C1 5709   2.797   0.184  17.119 -0.8778  0.2922  0.2113
  382MPD2    C2 5710   2.741   0.116  17.225  0.5043 -1.0115 -0.1914
  382MPD2    C3 5711   2.738   4.695  17.235  0.6087 -0.4227 -0.0915
  382MPD2    C4 5712   2.806   4.628  17.136 -0.2955  0.0840  0.3517
  382MPD2    C5 5713   2.868   4.695  17.030 -0.2613  0.4296  0.2559
  382MPD2     H 5714   2.688   0.178  17.296  0.3705 -1.0738 -0.2369
  382MPD2    H1 5715   2.823   4.521  17.136 -0.2362  0.0926  0.7863
  382MPD2    H2 5716   2.916   0.152  16.932  0.6101 -0.0497  0.5249
  382MPD2    H3 5717   2.928   4.644  16.956  0.5025  1.0519  0.4442
  382MPD2     N 5718   2.654   4.625  17.324  0.6454 -0.1832  0.1301
  382MPD2    H5 5719   2.645   4.524  17.313 -0.9759  0.0317 -0.4810
  382MPD2    N1 5720   2.773   0.323  17.107  0.8294  0.0571 -0.7229
  382MPD2    H7 5721   2.724   0.355  17.190  1.4732 -1.8909  0.4193
  383TMC3    C1 5722   2.507   4.585  17.504 -0.0733 -0.3691  0.0156
  383TMC3    C2 5723   2.410   4.508  17.458  0.1884 -0.0360 -0.3952
  383TMC3    C3 5724   2.290   4.507  17.514 -0.1157 -0.2206  0.0042
  383TMC3    C4 5725   2.485   4.652  17.627 -0.7290 -0.1108  0.1641
  383TMC3    C5 5726   2.363   4.637   0.013  0.7282 -0.7345 -0.0263
  383TMC3    C6 5727   2.268   4.569  17.635 -0.1060  0.5726  0.7706
  383TMC3     C 5728   2.574   4.684  17.421 -0.2771 -0.5548  0.1153
  383TMC3     O 5729   2.563   0.088  17.452 -0.2395 -0.2498  0.2321
  383TMC3     H 5730   2.434   4.458  17.365  2.6872  0.5346 -0.0654
  383TMC3    H1 5731   2.558   0.004  17.663  0.8624 -1.3160 -0.7018
  383TMC3    H2 5732   2.169   4.563  17.678 -0.8524  1.4473 -0.8449
  383TMC3    C7 5733   2.348   4.703   0.140 -0.4114 -0.3598  0.1669
  383TMC3    C8 5734   2.175   4.436  17.457  0.1561  0.4389 -1.5711
  383TMC3    O1 5735   2.429   0.066   0.176  0.2456 -0.2390  0.5857
  383TMC3    O2 5736   2.060   4.476  17.473 -0.1827 -0.1936 -0.0592
  384MPD2     C 5737   4.082   1.391  11.410 -0.2990 -0.0360  0.3997
  384MPD2    C1 5738   4.130   1.381  11.540  0.2957  0.0449  0.0894
  384MPD2    C2 5739   4.239   1.301  11.558 -0.0250  0.6382 -0.5149
  384MPD2    C3 5740   4.305   1.235  11.457 -0.1725 -0.6166 -0.5183
  384MPD2    C4 5741   4.249   1.237  11.338 -0.6573 -0.2026  0.3903
  384MPD2    C5 5742   4.146   1.317  11.312 -0.2484  0.5088  0.1829
  384MPD2     H 5743   4.273   1.295  11.661 -3.2777  1.3309  0.5910
  384MPD2    H1 5744   4.298   1.180  11.260  1.9573 -0.2416  2.0530
  384MPD2    H2 5745   3.997   1.452  11.382 -1.0245 -1.6463 -0.9727
  384MPD2    H3 5746   4.099   1.317  11.215 -1.4268 -2.3396  0.7598
  384MPD2     N 5747   4.421   1.163  11.492 -0.1466 -0.3573 -0.3636
  384MPD2    H5 5748   4.437   1.156  11.592 -1.9001 -2.9613 -0.2622
  384MPD2    N1 5749   4.067   1.445  11.650 -0.1968  0.6921 -0.3233
  384MPD2    H7 5750   4.109   1.444  11.742  0.8971  2.0069 -0.8118
  385TMC3    C1 5751   4.579   1.008  11.504  0.8508 -0.0715  0.4575
  385TMC3    C2 5752   4.562   0.871  11.506  0.0545  0.3649 -0.2076
  385TMC3    C3 5753   4.575   0.813  11.626  0.5796  0.1484 -0.4196
  385TMC3    C4 5754   4.617   1.083  11.617  0.0441 -0.2784 -0.2280
  385TMC3    C5 5755   4.613   1.016  11.740  1.2555 -0.0810  0.6279
  385TMC3    C6 5756   4.596   0.880  11.743 -0.9006 -0.8743 -0.7816
  385TMC3     C 5757   4.484   1.074  11.418  0.6002 -0.6030  0.0914
  385TMC3     O 5758   4.447   1.019  11.315 -0.0289 -0.2375 -0.7493
  385TMC3     H 5759   4.516   0.823  11.420  0.8384 -1.8151  0.5849
  385TMC3    H1 5760   4.630   1.191  11.618  0.2171 -0.2953 -0.6807
  385TMC3    H2 5761   4.590   0.818  11.831 -1.3939  0.8367  0.3749
  385TMC3    C7 5762   4.535   1.091  11.840 -0.1992  0.2825 -0.7840
  385TMC3    C8 5763   4.594   0.670  11.630 -0.1748  0.2485  0.1698
  385TMC3    O1 5764   4.476   1.185  11.783 -0.5469 -0.1060  0.0301
  385TMC3    O2 5765   4.600   0.618  11.743  0.8502 -0.1482 -0.4120
  386TMC3    C1 5766   4.123   3.565  11.850 -0.4973  0.0919 -0.1898
  386TMC3    C2 5767   4.245   3.633  11.822  0.0371  0.0547  0.2723
  386TMC3    C3 5768   4.247   3.768  11.791  0.6041 -0.0898 -0.8739
  386TMC3    C4 5769   4.009   3.639  11.860 -0.2260  0.4571 -0.4521
  386TMC3    C5 5770   4.021   3.770  11.835 -0.4707 -0.8781  0.1923
  386TMC3    C6 5771   4.131   3.843  11.800  0.4631  0.1409 -0.3715
  386TMC3     C 5772   4.122   3.442  11.924  0.4502  0.2886  0.5364
  386TMC3     O 5773   4.010   3.400  11.945  0.2282 -0.3398  0.5377
  386TMC3     H 5774   4.331   3.570  11.800  0.5935  0.4240  1.4128
  386TMC3    H1 5775   3.918   3.602  11.905 -0.6992  1.0332 -0.9326
  386TMC3    H2 5776   4.132   3.951  11.791 -1.0116  0.2826  1.2327
  386TMC3    C7 5777   3.907   3.850  11.874  0.4948 -0.0921  0.1006
  386TMC3    C8 5778   4.357   3.837  11.733 -0.6460 -0.1013 -0.3298
  386TMC3    O1 5779   3.827   3.799  11.951  0.0348 -0.1175 -0.8165
  386TMC3    O2 5780   4.332   3.937  11.671  0.6773  0.4792  0.6750
  387MPD2     C 5781   2.408   3.741   9.497  0.5562  0.0856 -0.6825
  387MPD2    C1 5782   2.486   3.743   9.610 -0.7488 -0.1530 -0.2149
  387MPD2    C2 5783   2.555   3.624   9.639  0.4867 -0.2060  1.0927
  387MPD2    C3 5784   2.539   3.501   9.571  0.3390  0.0332 -0.2188
  387MPD2    C4 5785   2.447   3.497   9.474  0.3626  0.1164  0.1216
  387MPD2    C5 5786   2.386   3.618   9.437 -0.3831  0.1161  0.7461
  387MPD2     H 5787   2.630   3.623   9.718  0.1335 -0.8228  1.4158
  387MPD2    H1 5788   2.407   3.407   9.428 -0.4968  0.7321 -0.3248
  387MPD2    H2 5789   2.361   3.831   9.458  0.9139  0.8880  0.7246
  387MPD2    H3 5790   2.308   3.618   9.361  0.2709 -0.2555  0.0774
  387MPD2     N 5791   2.611   3.392   9.630 -0.2626  0.4084 -0.2739
  387MPD2    H5 5792   2.667   3.418   9.710  0.3396  0.6822 -0.7832
  387MPD2    N1 5793   2.506   3.847   9.695  0.0861  0.4942 -0.0694
  387MPD2    H7 5794   2.583   3.838   9.761 -1.8965 -0.2258  2.1467
  388TMC3    C1 5795   2.455   4.030   9.824 -0.0407  0.5442  0.2999
  388TMC3    C2 5796   2.438   4.165   9.840  0.5358 -0.2593 -0.2710
  388TMC3    C3 5797   2.443   4.212   9.970 -0.8127 -0.8916  0.4702
  388TMC3    C4 5798   2.466   3.947   9.929 -0.2548  0.7655 -0.5549
  388TMC3    C5 5799   2.485   4.002  10.060  0.3204  0.5282 -0.6333
  388TMC3    C6 5800   2.473   4.135  10.079 -0.6057  0.2968 -0.1027
  388TMC3     C 5801   2.438   3.965   9.697  0.7606 -0.6738  0.2397
  388TMC3     O 5802   2.376   4.013   9.603  0.0312 -0.0557  0.6834
  388TMC3     H 5803   2.417   4.230   9.756 -1.7545 -1.6784 -0.8047
  388TMC3    H1 5804   2.457   3.839   9.925 -1.5497  0.8344  0.4322
  388TMC3    H2 5805   2.488   4.182  10.176 -2.1288 -0.1878  0.3603
  388TMC3    C7 5806   2.524   3.912  10.168  0.3709  0.0944  0.5853
  388TMC3    C8 5807   2.401   4.351   9.988 -0.3627  0.6791 -0.6632
  388TMC3    O1 5808   2.510   3.938  10.288  0.3925 -0.2976  0.0590
  388TMC3    O2 5809   2.356   4.405   9.888  0.1249 -0.6710  0.4873
  389MPD2     C 5810   1.701   1.934  11.315  0.6351  0.2283  0.1219
  389MPD2    C1 5811   1.739   1.869  11.202 -0.2496  0.2024  0.0942
  389MPD2    C2 5812   1.705   1.733  11.185 -0.1020 -0.3961 -0.3842
  389MPD2    C3 5813   1.627   1.662  11.273 -0.1066  0.4339  0.6130
  389MPD2    C4 5814   1.593   1.730  11.386  0.0414  0.3299 -0.8168
  389MPD2    C5 5815   1.629   1.864  11.409 -0.0317  0.3446  0.0217
  389MPD2     H 5816   1.736   1.690  11.091 -0.6346  1.1836 -1.2803
  389MPD2    H1 5817   1.532   1.689  11.466  0.9149 -0.6624 -0.6649
  389MPD2    H2 5818   1.717   2.039  11.336 -2.3087  0.8464 -0.6912
  389MPD2    H3 5819   1.615   1.924  11.498 -1.9619  0.1761 -0.1701
  389MPD2     N 5820   1.575   1.530  11.255 -0.0644 -0.2516 -0.1782
  389MPD2    H5 5821   1.514   1.489  11.325 -0.7231 -0.0398 -0.6249
  389MPD2    N1 5822   1.795   1.930  11.085  0.0360  0.4370 -0.3637
  389MPD2    H7 5823   1.814   1.873  11.003  1.2547  2.5923 -1.5580
  390TMC3    C1 5824   1.492   1.336  11.129  0.5547 -0.0452  0.3394
  390TMC3    C2 5825   1.473   1.279  11.249  0.0306  0.3640  1.0824
  390TMC3    C3 5826   1.419   1.156  11.244  0.4603  0.2774 -0.2505
  390TMC3    C4 5827   1.463   1.277  11.010 -0.7283 -0.0236 -0.2639
  390TMC3    C5 5828   1.399   1.159  11.015  0.3950  0.0733  0.0081
  390TMC3    C6 5829   1.377   1.092  11.136  0.3270 -0.3097 -0.4113
  390TMC3     C 5830   1.570   1.459  11.129  0.0091  0.3021  0.5441
  390TMC3     O 5831   1.623   1.490  11.024  0.2534  0.1969 -0.3199
  390TMC3     H 5832   1.513   1.318  11.342  2.3597  1.5754 -0.4462
  390TMC3    H1 5833   1.458   1.328  10.914 -0.3587  0.3161 -0.1016
  390TMC3    H2 5834   1.347   0.988  11.148  1.2960 -0.5777 -0.3677
  390TMC3    C7 5835   1.281   1.141  10.923 -0.4856 -0.7381 -0.1990
  390TMC3    C8 5836   1.343   1.117  11.364  0.2445  0.1553  0.1259
  390TMC3    O1 5837   1.301   1.097  10.810 -0.1491 -0.2795  0.0683
  390TMC3    O2 5838   1.368   1.168  11.473  0.0855 -0.1465  0.4683
  391MPD2     C 5839   1.355   3.191  10.794  0.3228  0.2440 -0.1552
  391MPD2    C1 5840   1.423   3.307  10.774 -0.0080 -0.3229 -0.3968
  391MPD2    C2 5841   1.441   3.352  10.646 -0.0593 -0.3887 -0.0676
  391MPD2    C3 5842   1.401   3.280  10.532 -0.5580 -0.2416 -0.1382
  391MPD2    C4 5843   1.334   3.163  10.550 -0.0419  0.1315  0.2668
  391MPD2    C5 5844   1.301   3.123  10.683  0.5062  0.2704  0.6196
  391MPD2     H 5845   1.480   3.450  10.622  0.0668 -0.2663  0.6429
  391MPD2    H1 5846   1.286   3.109  10.469  1.6800  0.5312 -1.0149
  391MPD2    H2 5847   1.341   3.136  10.886  2.1408  0.2634  0.1427
  391MPD2    H3 5848   1.251   3.028  10.696  1.6795 -0.4687 -0.2423
  391MPD2     N 5849   1.412   3.351  10.407 -0.3046  0.0024  0.0250
  391MPD2    H5 5850   1.458   3.442  10.403  0.5604 -0.5472 -2.0368
  391MPD2    N1 5851   1.447   3.396  10.885 -0.2258 -0.1103 -0.0925
  391MPD2    H7 5852   1.395   3.372  10.969 -0.3619 -1.1061 -0.4555
  392TMC3    C1 5853   1.389   3.388  10.174 -0.6835  0.0978 -0.2202
  392TMC3    C2 5854   1.295   3.371  10.079 -0.1840 -0.3319 -0.6183
  392TMC3    C3 5855   1.274   3.473   9.990  0.3279  0.4745 -0.2335
  392TMC3    C4 5856   1.470   3.497  10.163 -0.4579 -0.0737 -0.3682
  392TMC3    C5 5857   1.443   3.594  10.074  0.2384 -0.2957 -0.6061
  392TMC3    C6 5858   1.351   3.582   9.974 -0.4372  0.0514  0.2958
  392TMC3     C 5859   1.380   3.298  10.285  0.1278  0.1531 -0.1259
  392TMC3     O 5860   1.299   3.206  10.261  0.6789  0.2139 -0.2830
  392TMC3     H 5861   1.238   3.280  10.063 -0.4714 -0.3396  0.4551
  392TMC3    H1 5862   1.560   3.488  10.223 -2.0344 -0.1345  1.9845
  392TMC3    H2 5863   1.338   3.667   9.908 -1.0576 -0.5357 -0.3334
  392TMC3    C7 5864   1.516   3.715  10.078 -0.6761  0.2318 -0.5694
  392TMC3    C8 5865   1.163   3.458   9.901  0.5020  0.1559  0.4625
  392TMC3    O1 5866   1.501   3.797   9.989  0.9652 -0.7590  0.4544
  392TMC3    O2 5867   1.085   3.362   9.912 -0.5504 -0.0560  0.0805
  393TMC3    C1 5868   0.187   1.389   9.922  0.2789  0.1140 -0.3046
  393TMC3    C2 5869   0.057   1.383   9.873  0.4167 -0.4614 -0.4316
  393TMC3    C3 5870   0.015   1.270   9.811 -0.3525 -0.0313 -0.7420
  393TMC3    C4 5871   0.275   1.287   9.895  0.7118 -0.0805  0.0432
  393TMC3    C5 5872   0.230   1.176   9.825  0.7620  0.0807  0.2847
  393TMC3    C6 5873   0.097   1.162   9.792 -0.7656 -0.1949  0.4379
  393TMC3     C 5874   0.244   1.515   9.950  1.0057  0.2026  0.1821
  393TMC3     O 5875   0.361   1.534   9.927  0.1158 -0.1185 -0.0740
  393TMC3     H 5876   4.702   1.457   9.902  1.8644 -0.5890  3.6184
  393TMC3    H1 5877   0.376   1.291   9.932  1.0984 -1.9281 -0.8376
  393TMC3    H2 5878   0.069   1.066   9.751  0.8851 -0.6206  0.3110
  393TMC3    C7 5879   0.317   1.057   9.807  0.5776  0.9633  0.3243
  393TMC3    C8 5880   4.590   1.248   9.834  0.1490 -0.4416  0.4059
  393TMC3    O1 5881   0.268   0.950   9.845  0.6386  0.5956  0.7748
  393TMC3    O2 5882   4.559   1.143   9.886  1.2826  0.3405  0.6061
  394TMC3    C1 5883   1.871   2.093  10.927 -1.0790 -0.8588 -0.1319
  394TMC3    C2 5884   1.787   2.118  10.827 -0.1297  0.2415  0.3254
  394TMC3    C3 5885   1.845   2.127  10.702 -0.5353 -0.3639  0.5652
  394TMC3    C4 5886   2.007   2.080  10.917 -0.0544  0.1004 -0.0385
  394TMC3    C5 5887   2.055   2.084  10.785 -0.2391  0.0834 -0.7943
  394TMC3    C6 5888   1.977   2.103  10.679  0.7324  0.1730 -0.4377
  394TMC3     C 5889   1.803   2.063  11.062 -0.0793  0.2686  0.0069
  394TMC3     O 5890   1.793   2.153  11.141  0.0705  0.7004 -0.1965
  394TMC3     H 5891   1.679   2.123  10.833 -0.0970 -0.2122  1.2570
  394TMC3    H1 5892   2.072   2.056  11.000 -2.3159  2.3237  2.3904
  394TMC3    H2 5893   2.021   2.108  10.580  1.0871  2.5234 -0.1672
  394TMC3    C7 5894   2.199   2.087  10.774  0.3929  0.4554  0.3725
  394TMC3    C8 5895   1.756   2.116  10.594  0.0199  0.3153 -0.3658
  394TMC3    O1 5896   2.256   2.025  10.863 -0.1092 -0.0388 -0.7937
  394TMC3    O2 5897   1.650   2.174  10.600  0.9222 -1.3576 -1.2961
  395TMC3    C1 5898   1.180   3.928  14.499 -0.2619  1.1420  0.4147
  395TMC3    C2 5899   1.075   3.982  14.567  0.2001 -0.6177  0.5387
  395TMC3    C3 5900   1.087   4.103  14.631  0.1227 -0.0135  0.3812
  395TMC3    C4 5901   1.299   3.994  14.505  0.0293 -0.3558 -0.2229
  395TMC3    C5 5902   1.307   4.118  14.564 -0.0182  0.4460  0.9478
  395TMC3    C6 5903   1.195   4.180  14.622  0.4904  0.1499  1.0286
  395TMC3     C 5904   1.186   3.788  14.536  0.2643  0.6810 -0.0166
  395TMC3     O 5905   1.277   3.759  14.615 -0.0722  0.0331 -0.1055
  395TMC3     H 5906   0.984   3.923  14.577  0.1003 -0.3770  1.0576
  395TMC3    H1 5907   1.389   3.938  14.482 -1.0258 -1.7798 -0.9160
  395TMC3    H2 5908   1.195   4.280  14.662 -0.3306  0.5594 -0.0110
  395TMC3    C7 5909   1.430   4.185  14.581 -0.0142  0.2938  0.3735
  395TMC3    C8 5910   1.020   4.129  14.756  0.0309  0.5523  0.7401
  395TMC3    O1 5911   1.441   4.267  14.672  0.4157 -0.3114 -0.8772
  395TMC3    O2 5912   1.044   4.230  14.818  0.3835 -0.2301 -0.2292
  396MPD2     C 5913   4.690   4.677  17.059 -0.1251  0.4260  0.4753
  396MPD2    C1 5914   0.086   4.607  17.059 -0.1065  0.4712  0.4743
  396MPD2    C2 5915   0.198   4.684  17.027  0.0656 -0.1292 -0.5582
  396MPD2    C3 5916   0.186   0.099  16.994  0.7578  0.3035  0.0343
  396MPD2    C4 5917   0.059   0.162  16.991  0.0431  0.1954 -0.0469
  396MPD2    C5 5918   4.673   0.088  17.025  0.3764 -0.1722  0.2862
  396MPD2     H 5919   0.298   4.642  17.021  0.7294  1.5891 -1.4955
  396MPD2    H1 5920   0.050   0.259  16.942  1.8505  0.9306  1.0762
  396MPD2    H2 5921   4.602   4.620  17.086 -1.1009  0.9924 -1.5203
  396MPD2    H3 5922   4.574   0.131  17.012  1.4321  2.0189 -0.4673
  396MPD2     N 5923   0.298   0.172  16.944 -0.0538 -0.0997  0.1415
  396MPD2    H5 5924   0.387   0.123  16.952  0.4089  0.5093 -1.2593
  396MPD2    N1 5925   0.092   4.476  17.095 -0.2786 -0.9017  0.1758
  396MPD2    H7 5926   0.009   4.418  17.081 -1.0259 -0.4093  2.5108
  397TMC3    C1 5927   0.220   4.275  17.135 -0.0933  0.0095 -0.2901
  397TMC3    C2 5928   0.275   4.261  17.012 -0.2218  0.3909  0.7279
  397TMC3    C3 5929   0.373   4.170  16.995 -0.6348 -0.8978  0.2703
  397TMC3    C4 5930   0.281   4.223  17.246  0.5389 -0.3996  0.5553
  397TMC3    C5 5931   0.369   4.122  17.227  0.4292 -0.0440  1.7234
  397TMC3    C6 5932   0.419   4.098  17.101 -0.6576  0.3302  1.0126
  397TMC3     C 5933   0.195   4.416  17.162  0.2291  0.4923  0.6696
  397TMC3     O 5934   0.277   4.477  17.227  0.3071  0.5003 -0.5051
  397TMC3     H 5935   0.221   4.308  16.930  1.8257 -0.2897 -1.0098
  397TMC3    H1 5936   0.286   4.275  17.341 -0.6522  1.0537 -0.1844
  397TMC3    H2 5937   0.498   4.025  17.087 -1.1963  0.0752 -0.7604
  397TMC3    C7 5938   0.419   4.047  17.337  0.2863 -0.5590  0.2363
  397TMC3    C8 5939   0.477   4.206  16.896  0.0288 -0.2291  0.4711
  397TMC3    O1 5940   0.402   4.094  17.446 -0.1332 -0.2027 -0.2729
  397TMC3    O2 5941   0.432   4.262  16.794 -0.2399 -0.0211  0.0306
  398MPD2     C 5942   3.479   1.165  17.626 -0.7683 -0.2621 -0.6625
  398MPD2    C1 5943   3.463   1.109   0.074 -0.4475  0.1580  0.1936
  398MPD2    C2 5944   3.537   1.157   0.181 -0.5757  0.0628  0.1291
  398MPD2    C3 5945   3.627   1.263   0.167 -0.5270  0.6450 -0.1870
  398MPD2    C4 5946   3.640   1.322   0.049  0.2896 -0.6288  0.6597
  398MPD2    C5 5947   3.568   1.271  17.622 -0.3809 -0.1636  0.4920
  398MPD2     H 5948   3.520   1.113   0.278 -1.9467  2.7471  1.0967
  398MPD2    H1 5949   3.706   1.405   0.027 -1.0294 -0.2081 -1.6636
  398MPD2    H2 5950   3.426   1.137  17.536 -1.4381 -1.9615  0.2478
  398MPD2    H3 5951   3.604   1.311  17.529 -2.0247 -0.7328 -0.3998
  398MPD2     N 5952   3.713   1.283   0.280  0.3566 -0.1198  0.8577
  398MPD2    H5 5953   3.670   1.250   0.366  0.1325  1.2213  1.2593
  398MPD2    N1 5954   3.382   1.005   0.104 -0.5154 -0.2094  0.2602
  398MPD2    H7 5955   3.400   0.969   0.197  1.2491  0.0332  0.0042
  399TMC3    C1 5956   3.250   0.814   0.083 -0.4180 -0.7002 -0.3456
  399TMC3    C2 5957   3.290   0.786   0.210  0.2727  0.0894  0.0027
  399TMC3    C3 5958   3.250   0.667   0.266 -0.2388  1.1010  0.1748
  399TMC3    C4 5959   3.196   0.719   0.003 -0.2279  0.3504  0.0418
  399TMC3    C5 5960   3.178   0.597   0.053 -0.3457  0.5799  0.0155
  399TMC3    C6 5961   3.207   0.563   0.187  0.2724  0.9391 -0.3561
  399TMC3     C 5962   3.307   0.924   0.015 -0.1330 -0.0030 -0.2726
  399TMC3     O 5963   3.291   0.932  17.572  0.1169 -0.2666  0.1186
  399TMC3     H 5964   3.317   0.862   0.283  1.3129  0.1569 -0.4486
  399TMC3    H1 5965   3.189   0.740  17.576  1.1062 -0.4025 -0.1962
  399TMC3    H2 5966   3.207   0.459   0.220  0.5705  1.5483  1.5701
  399TMC3    C7 5967   3.128   0.489  17.645  0.1168 -0.5801 -0.0823
  399TMC3    C8 5968   3.302   0.639   0.402  0.2420  0.2921  0.5407
  399TMC3    O1 5969   3.112   0.386   0.022 -0.0164  0.5026 -0.0535
  399TMC3    O2 5970   3.393   0.704   0.445 -0.2598  0.6999  0.1486
  400TMC3    C1 5971   2.318   3.977  16.972  0.2966 -0.1278  0.5500
  400TMC3    C2 5972   2.199   3.997  16.900 -0.1741 -0.1202 -0.2258
  400TMC3    C3 5973   2.163   4.124  16.871  0.7717  1.4179 -1.3107
  400TMC3    C4 5974   2.371   4.073  17.047  0.0460 -0.9158  0.5311
  400TMC3    C5 5975   2.336   4.203  17.007 -0.3108 -0.0105 -0.2819
  400TMC3    C6 5976   2.237   4.230  16.916  0.0409 -0.2746 -0.1732
  400TMC3     C 5977   2.361   3.842  16.993  0.3228  0.7219  0.2499
  400TMC3     O 5978   2.400   3.811  17.106  0.0365 -0.3645  0.1951
  400TMC3     H 5979   2.158   3.908  16.852 -0.5544 -0.7149  1.1949
  400TMC3    H1 5980   2.456   4.047  17.109  0.6155 -0.6932 -0.1578
  400TMC3    H2 5981   2.205   4.332  16.899  1.0774  0.0350 -0.2537
  400TMC3    C7 5982   2.409   4.316  17.059  0.4170  0.0848 -0.2706
  400TMC3    C8 5983   2.021   4.154  16.868  0.6076 -0.4582  0.5770
  400TMC3    O1 5984   2.418   4.333  17.178 -0.4956 -0.5661 -0.1547
  400TMC3    O2 5985   1.989   4.265  16.818  0.6387  0.0543  0.5013
  401MPD2     C 5986   4.701   3.005   1.408  0.3480 -0.5014 -0.2480
  401MPD2    C1 5987   0.058   2.955   1.314 -0.5180  0.0422  0.3278
  401MPD2    C2 5988   0.058   2.817   1.292 -0.4151  0.0197 -0.5137
  401MPD2    C3 5989   4.686   2.735   1.350 -0.0804 -0.9598 -0.3000
  401MPD2    C4 5990   4.588   2.794   1.431  0.0856  0.3417 -0.0455
  401MPD2    C5 5991   4.606   2.926   1.468 -0.0125  0.5875 -1.0265
  401MPD2     H 5992   0.134   2.779   1.225  0.2815 -1.1401  0.9435
  401MPD2    H1 5993   4.499   2.751   1.475  0.3859  0.7607  0.9809
  401MPD2    H2 5994   4.696   3.110   1.435  1.9447 -1.1014  2.3468
  401MPD2    H3 5995   4.537   2.979   1.532  0.9437 -0.4828  0.8967
  401MPD2     N 5996   4.679   2.599   1.313  0.4530  0.4933 -0.4266
  401MPD2    H5 5997   0.040   2.567   1.261 -0.4722 -1.3845 -0.6928
  401MPD2    N1 5998   0.152   3.029   1.247  0.0236  0.0488 -0.3072
  401MPD2    H7 5999   0.207   2.986   1.174  4.0153  2.5382  1.2674
  402TMC3    C1 6000   4.631   2.368   1.324 -0.4564  0.6899 -0.3696
  402TMC3    C2 6001   4.630   2.265   1.415  0.0192  0.7897 -0.2104
  402TMC3    C3 6002   4.677   2.142   1.371 -0.3340  0.4816  0.0135
  402TMC3    C4 6003   4.645   2.345   1.189 -0.8213  0.1337 -0.0594
  402TMC3    C5 6004   4.695   2.225   1.150  0.0350  0.5271  0.1597
  402TMC3    C6 6005   4.714   2.126   1.242  0.2164  0.4008  0.8496
  402TMC3     C 6006   4.604   2.502   1.372 -0.5346  0.0800  0.6292
  402TMC3     O 6007   4.513   2.518   1.457 -0.8540  0.0045 -0.2790
  402TMC3     H 6008   4.620   2.292   1.520 -1.3290  0.8623 -0.3498
  402TMC3    H1 6009   4.637   2.424   1.116 -1.5642  2.3326  2.3934
  402TMC3    H2 6010   0.011   2.024   1.208 -1.4944  0.1237  0.8654
  402TMC3    C7 6011   0.078   2.228   1.048  0.4882  0.4319  0.1732
  402TMC3    C8 6012   0.057   2.077   1.460 -0.2552  0.0370  0.0688
  402TMC3    O1 6013   0.064   2.293   0.949 -0.0766 -0.4657  0.0910
  402TMC3    O2 6014   0.146   2.019   1.398 -0.2347 -0.0880  0.1280
  403MPD2     C 6015   3.836   1.364  13.243 -0.2626  0.5853 -0.2585
  403MPD2    C1 6016   3.846   1.239  13.290  0.3720  0.3937 -0.5320
  403MPD2    C2 6017   3.937   1.210  13.391 -0.3427  0.2486 -0.4680
  403MPD2    C3 6018   4.019   1.301  13.435 -0.4107  0.5430  0.7944
  403MPD2    C4 6019   4.032   1.419  13.359 -0.1607  0.4613 -0.5897
  403MPD2    C5 6020   3.942   1.442  13.256  0.4911  0.5482  0.4627
  403MPD2     H 6021   3.923   1.117  13.444 -3.4230  0.6451 -0.5561
  403MPD2    H1 6022   4.105   1.496  13.382  0.9573 -1.6943  3.1059
  403MPD2    H2 6023   3.750   1.389  13.182  0.6352  0.6758 -1.4785
  403MPD2    H3 6024   3.960   1.525  13.188 -0.9671 -0.9979 -1.7974
  403MPD2     N 6025   4.098   1.284  13.553 -0.2050  0.0576 -0.1053
  403MPD2    H5 6026   4.109   1.189  13.586  0.1553  0.4083  0.7636
  403MPD2    N1 6027   3.762   1.139  13.231 -0.2355 -0.6315  0.0697
  403MPD2    H7 6028   3.698   1.163  13.156  1.2960  2.0996 -0.3543
  404TMC3    C1 6029   3.663   0.928  13.180  0.3926 -0.2643  0.2677
  404TMC3    C2 6030   3.606   0.826  13.251  0.2737  0.0154  0.9667
  404TMC3    C3 6031   3.540   0.731  13.170 -0.8117 -0.6772 -0.2816
  404TMC3    C4 6032   3.654   0.947  13.045 -0.4838  0.0751 -0.1891
  404TMC3    C5 6033   3.586   0.854  12.977  0.3461 -0.0257  0.7799
  404TMC3    C6 6034   3.520   0.744  13.036  1.0033  0.0000 -0.2446
  404TMC3     C 6035   3.758   1.002  13.263 -0.1180  0.1165  0.1543
  404TMC3     O 6036   3.818   0.938  13.347  0.3501  0.1022 -0.2967
  404TMC3     H 6037   3.627   0.810  13.356  1.0163 -2.4527  0.4435
  404TMC3    H1 6038   3.722   1.019  13.003 -0.9388 -0.3330 -1.6062
  404TMC3    H2 6039   3.486   0.656  12.983  2.6869  0.1807 -1.6296
  404TMC3    C7 6040   3.571   0.886  12.838  0.1283 -0.3465 -0.3737
  404TMC3    C8 6041   3.504   0.599  13.226  0.4656 -0.8829 -0.0408
  404TMC3    O1 6042   3.657   0.949  12.783  0.1179 -0.2220 -0.0211
  404TMC3    O2 6043   3.501   0.502  13.157  0.5858 -0.5741 -0.2072
  405MPD2     C 6044   4.220   1.527  14.251  0.1061 -0.1889  0.7475
  405MPD2    C1 6045   4.138   1.431  14.198 -0.9617 -0.1148  1.0531
  405MPD2    C2 6046   4.004   1.446  14.197  0.0126 -0.3131  0.0333
  405MPD2    C3 6047   3.938   1.556  14.242 -0.0782  0.4661 -0.6852
  405MPD2    C4 6048   4.027   1.648  14.306 -0.8576  0.5574 -0.0765
  405MPD2    C5 6049   4.161   1.632  14.311 -0.1102 -0.1446 -0.2879
  405MPD2     H 6050   3.946   1.367  14.151  1.0936 -2.2485  2.0039
  405MPD2    H1 6051   3.977   1.740  14.333 -0.4592  0.5776  0.5915
  405MPD2    H2 6052   4.326   1.510  14.264 -0.0049 -1.3568  0.1133
  405MPD2    H3 6053   4.217   1.711  14.360 -0.0051  0.1236 -0.8353
  405MPD2     N 6054   3.797   1.568  14.226  0.6669 -0.3500  0.0445
  405MPD2    H5 6055   3.755   1.487  14.181  1.0628 -0.7714  0.4319
  405MPD2    N1 6056   4.197   1.314  14.144 -0.1693 -0.8452  0.3366
  405MPD2    H7 6057   4.293   1.293  14.168  0.7437  4.0994  1.0289
  406TMC3    C1 6058   3.362   1.677  14.154 -0.0721 -0.0034 -0.7903
  406TMC3    C2 6059   3.351   1.574  14.061 -0.0524  0.3158 -0.1550
  406TMC3    C3 6060   3.467   1.510  14.029 -0.1164  0.3978 -0.6085
  406TMC3    C4 6061   3.485   1.709  14.212 -1.1416 -0.4716  0.9621
  406TMC3    C5 6062   3.596   1.654  14.170 -0.5194 -0.1820 -0.4128
  406TMC3    C6 6063   3.585   1.544  14.083  0.1627  0.1112 -1.2555
  406TMC3     C 6064   3.240   1.739  14.196  0.3566  0.2997  0.1200
  406TMC3     O 6065   3.132   1.696  14.158 -0.5867 -0.2119 -0.1096
  406TMC3     H 6066   3.263   1.537  14.008 -0.6312  1.9567 -0.3312
  406TMC3    H1 6067   3.494   1.773  14.299  2.3486  0.4282 -0.0685
  406TMC3    H2 6068   3.674   1.504  14.037 -0.9969  0.2523 -3.5855
  406TMC3    C7 6069   3.716   1.679  14.237 -0.0190  0.1878 -0.7493
  406TMC3    C8 6070   3.470   1.413  13.917  0.7174  0.6491  0.4849
  406TMC3    O1 6071   3.738   1.789  14.283  0.3829  0.0022  0.4477
  406TMC3    O2 6072   3.391   1.431  13.826  0.3156  0.6032 -0.3826
  407MPD2     C 6073   2.098   3.180   9.423  0.4713  0.9277  0.1854
  407MPD2    C1 6074   2.159   3.115   9.529 -0.0357 -0.5507 -0.2071
  407MPD2    C2 6075   2.197   3.178   9.645 -0.5752  0.1504 -0.6169
  407MPD2    C3 6076   2.186   3.316   9.647 -0.4105  0.0773  0.1924
  407MPD2    C4 6077   2.119   3.383   9.553  0.4118  0.1213  0.0186
  407MPD2    C5 6078   2.089   3.312   9.439 -0.8709 -0.2800  0.2539
  407MPD2     H 6079   2.231   3.123   9.732  0.1557  0.4011 -0.7387
  407MPD2    H1 6080   2.128   3.491   9.561  1.8209  0.1519 -1.8241
  407MPD2    H2 6081   2.068   3.135   9.329 -0.2020  2.6807 -0.4282
  407MPD2    H3 6082   2.049   3.366   9.353 -1.4895 -0.1804  0.6038
  407MPD2     N 6083   2.227   3.391   9.762  0.3128 -0.2454 -0.0747
  407MPD2    H5 6084   2.200   3.487   9.783  1.7323  0.0599  0.3585
  407MPD2    N1 6085   2.175   2.973   9.534  0.1949  0.3853  0.0932
  407MPD2    H7 6086   2.203   2.936   9.624 -1.3003 -2.1971 -0.4987
  408TMC3    C1 6087   2.170   2.751   9.458 -0.4524 -0.5905  0.1723
  408TMC3    C2 6088   2.301   2.704   9.452  0.2545  0.1711 -0.1456
  408TMC3    C3 6089   2.332   2.581   9.413  0.1699  0.1856  0.1144
  408TMC3    C4 6090   2.075   2.653   9.430  0.4665 -0.2021  0.1928
  408TMC3    C5 6091   2.109   2.528   9.389  0.1995  0.4228 -1.0384
  408TMC3    C6 6092   2.235   2.490   9.378  0.2923 -0.1190 -0.4930
  408TMC3     C 6093   2.143   2.889   9.429 -0.1977 -0.3294 -0.2560
  408TMC3     O 6094   2.064   2.903   9.332 -0.6019 -0.3275 -0.2075
  408TMC3     H 6095   2.380   2.778   9.450  0.6450 -0.2711 -1.7008
  408TMC3    H1 6096   1.971   2.683   9.428  0.0421 -1.5616  1.1267
  408TMC3    H2 6097   2.261   2.388   9.353  2.3485 -0.4487  3.0199
  408TMC3    C7 6098   2.015   2.441   9.325 -0.0135 -0.1226 -0.0145
  408TMC3    C8 6099   2.473   2.537   9.389 -0.1029  0.4021  0.6854
  408TMC3    O1 6100   2.060   2.357   9.246  0.1780  0.1463 -0.0455
  408TMC3    O2 6101   2.486   2.442   9.315  0.2142  0.4270 -0.3928
  409MPD2     C 6102   0.924   3.689  17.264  0.2840 -0.0627  0.1168
  409MPD2    C1 6103   1.026   3.706  17.353  0.0849 -0.5548  0.5612
  409MPD2    C2 6104   1.117   3.807  17.330 -0.4598  0.0781 -0.1105
  409MPD2    C3 6105   1.099   3.885  17.221 -0.1045  0.5802 -0.3658
  409MPD2    C4 6106   1.002   3.862  17.130  0.6405  0.3928 -0.0967
  409MPD2    C5 6107   0.921   3.764  17.150  0.3279 -0.0757 -0.1475
  409MPD2     H 6108   1.198   3.814  17.401 -0.1457 -2.0187 -0.2403
  409MPD2    H1 6109   0.987   3.929  17.046 -0.2808  0.3576  0.0375
  409MPD2    H2 6110   0.836   3.627  17.275  0.8492 -0.8897 -0.0173
  409MPD2    H3 6111   0.847   3.743  17.073 -0.3592  0.0726  0.4713
  409MPD2     N 6112   1.192   3.986  17.171 -0.0445  0.3512  0.3329
  409MPD2    H5 6113   1.166   4.044  17.093  1.1065  1.0016  0.4237
  409MPD2    N1 6114   1.032   3.625  17.465 -0.4207 -0.2815 -0.2929
  409MPD2    H7 6115   1.098   3.646  17.539 -0.9182  1.4643 -0.3403
  410TMC3    C1 6116   1.376   4.119  17.178 -0.0724  0.4368 -0.0672
  410TMC3    C2 6117   1.515   4.115  17.198 -0.3910 -0.4235  0.4195
  410TMC3    C3 6118   1.569   4.241  17.165 -0.4985  0.6870 -0.0608
  410TMC3    C4 6119   1.306   4.217  17.113  0.1393  0.4119 -0.7247
  410TMC3    C5 6120   1.374   4.336  17.090  0.0262  0.3687 -0.1458
  410TMC3    C6 6121   1.505   4.352  17.118  0.5234  0.4237 -0.3817
  410TMC3     C 6122   1.310   4.010  17.238 -0.0129  0.0542 -0.1406
  410TMC3     O 6123   1.370   3.948  17.324 -0.1196  0.2120 -0.1298
  410TMC3     H 6124   1.562   4.035  17.254  0.8335 -0.7305 -1.0427
  410TMC3    H1 6125   1.201   4.225  17.087  0.0783 -0.6817 -0.7861
  410TMC3    H2 6126   1.565   4.442  17.121 -0.3113  0.9255  1.4529
  410TMC3    C7 6127   1.291   4.453  17.062 -0.7281 -0.1819 -0.1393
  410TMC3    C8 6128   1.707   4.265  17.207 -0.1868  0.0089  0.7243
  410TMC3    O1 6129   1.179   4.450  17.106 -0.3004 -0.2672  0.3110
  410TMC3    O2 6130   1.729   4.379  17.247  0.2973  0.1371  0.3470
  411MPD2     C 6131   1.946   0.071  14.476  0.2397 -0.1963  0.3450
  411MPD2    C1 6132   1.817   0.034  14.506 -0.3268 -0.0008 -0.1256
  411MPD2    C2 6133   1.747   4.650  14.442  0.5273 -0.1532  0.4053
  411MPD2    C3 6134   1.798   4.613  14.317  0.2389  0.0303 -0.3353
  411MPD2    C4 6135   1.924   4.648  14.284 -1.1771  0.2898  0.3513
  411MPD2    C5 6136   1.990   0.022  14.356 -0.0619 -0.6292  1.1704
  411MPD2     H 6137   1.647   4.620  14.471 -0.5259  1.6599 -1.3230
  411MPD2    H1 6138   1.962   4.617  14.187  0.3653 -2.0787  1.7327
  411MPD2    H2 6139   2.006   0.143  14.530 -1.1347  0.3616  1.1443
  411MPD2    H3 6140   2.091   0.047  14.323 -1.3963  0.3409 -2.1773
  411MPD2     N 6141   1.720   4.538  14.220 -0.2491  0.4266 -0.0053
  411MPD2    H5 6142   1.764   4.524  14.129 -2.6553  0.1255 -1.1284
  411MPD2    N1 6143   1.767   0.101  14.623  0.4778 -0.5449 -0.4704
  411MPD2    H7 6144   1.801   0.192  14.653  1.5414 -0.9089 -0.5837
  412TMC3    C1 6145   1.532   4.446  14.111  0.2585  0.5842 -0.4331
  412TMC3    C2 6146   1.466   4.330  14.133 -0.0442 -0.5864 -0.1126
  412TMC3    C3 6147   1.418   4.257  14.028  0.0506  0.4643 -0.2957
  412TMC3    C4 6148   1.549   4.504  13.986 -0.4323 -0.3873  0.1503
  412TMC3    C5 6149   1.494   4.437  13.883 -0.0766  0.4640 -0.2801
  412TMC3    C6 6150   1.437   4.310  13.906  0.0823  0.3029 -0.4800
  412TMC3     C 6151   1.591   4.502  14.226 -0.3334  0.1618 -0.0628
  412TMC3     O 6152   1.517   4.495  14.327 -0.3063 -0.2527 -0.1757
  412TMC3     H 6153   1.463   4.291  14.233  2.6997 -2.1937 -0.6725
  412TMC3    H1 6154   1.589   4.605  13.982  1.4545 -1.1373  0.4760
  412TMC3    H2 6155   1.408   4.258  13.815 -1.2363 -1.1215  0.7638
  412TMC3    C7 6156   1.394   4.510  13.812 -0.7974  0.5702  0.5212
  412TMC3    C8 6157   1.292   4.195  14.058 -0.7002  0.3139  0.1706
  412TMC3    O1 6158   1.281   4.462  13.817 -0.0784 -0.5767 -0.3815
  412TMC3    O2 6159   1.272   4.147  14.172  0.3086 -0.2505  0.0890
  413MPD2     C 6160   2.931   3.169  15.328  0.4789 -0.6259  0.2192
  413MPD2    C1 6161   2.874   3.072  15.250  0.3571  0.3667  0.8557
  413MPD2    C2 6162   2.956   2.982  15.194  0.3618 -0.6747  0.5240
  413MPD2    C3 6163   3.094   2.994  15.214  0.0162  0.4868 -0.3088
  413MPD2    C4 6164   3.154   3.105  15.279 -0.6180  0.7230  0.0122
  413MPD2    C5 6165   3.063   3.191  15.338  0.6836  0.0376 -0.6837
  413MPD2     H 6166   2.922   2.894  15.142  0.6176  0.8191 -2.2130
  413MPD2    H1 6167   3.260   3.129  15.282 -0.9311  1.9514  1.3950
  413MPD2    H2 6168   2.865   3.242  15.372  2.1841  0.1251  1.5349
  413MPD2    H3 6169   3.101   3.281  15.385  1.0341  0.0856 -1.0506
  413MPD2     N 6170   3.173   2.892  15.161 -0.3761  0.0247 -0.5313
  413MPD2    H5 6171   3.119   2.824  15.108 -1.5486  0.8115 -0.3395
  413MPD2    N1 6172   2.733   3.083  15.243 -0.4344  0.0429  0.0924
  413MPD2    H7 6173   2.676   3.147  15.297 -4.1666  0.3206 -4.2268
  414TMC3    C1 6174   3.350   2.748  15.103 -0.7340  0.9436  0.0966
  414TMC3    C2 6175   3.445   2.672  15.168  0.3887 -0.6179  1.4114
  414TMC3    C3 6176   3.454   2.537  15.134  0.3091  0.2191 -0.0562
  414TMC3    C4 6177   3.267   2.685  15.006  0.0272  0.0838 -0.0465
  414TMC3    C5 6178   3.278   2.552  14.974 -0.0346 -0.2825  0.3345
  414TMC3    C6 6179   3.376   2.478  15.036 -0.0696  0.1727 -0.1189
  414TMC3     C 6180   3.308   2.872  15.171 -0.0674 -0.1971 -0.1138
  414TMC3     O 6181   3.399   2.950  15.204 -0.5707 -0.0913 -0.1228
  414TMC3     H 6182   3.507   2.723  15.241  3.7749 -0.2805 -1.6919
  414TMC3    H1 6183   3.185   2.738  14.958 -0.9963 -1.1369  0.3261
  414TMC3    H2 6184   3.384   2.376  15.001  0.7122  0.3503 -0.4429
  414TMC3    C7 6185   3.185   2.493  14.881  0.4936  0.3638  0.1654
  414TMC3    C8 6186   3.569   2.461  15.159  0.3141  0.1110  0.0536
  414TMC3    O1 6187   3.073   2.525  14.910 -0.6309  0.0479 -0.7407
  414TMC3    O2 6188   3.577   2.351  15.109 -0.0217 -0.1123 -0.0671
  415TMC3    C1 6189   4.028   0.837  10.071 -0.0182  0.0739 -0.7576
  415TMC3    C2 6190   4.074   0.889   9.954 -0.5758 -0.4118 -0.3426
  415TMC3    C3 6191   3.989   0.939   9.863  0.1858 -0.0438 -0.3433
  415TMC3    C4 6192   3.893   0.821  10.099  0.0989 -0.8067  0.2909
  415TMC3    C5 6193   3.810   0.882  10.006 -0.0926  0.6512  0.6871
  415TMC3    C6 6194   3.857   0.946   9.897  0.6435 -0.6635  0.0781
  415TMC3     C 6195   4.116   0.756  10.155 -0.4013  0.4947 -0.6099
  415TMC3     O 6196   4.057   0.677  10.225  0.2678  0.2207 -0.1736
  415TMC3     H 6197   4.180   0.898   9.936 -0.3752 -1.0777  0.5127
  415TMC3    H1 6198   3.859   0.768  10.187  0.2807  0.1113  0.9112
  415TMC3    H2 6199   3.786   0.972   9.819  0.1000 -0.6186  0.5859
  415TMC3    C7 6200   3.678   0.853  10.010 -0.0902 -0.1558 -0.9452
  415TMC3    C8 6201   4.022   0.995   9.731 -0.8320  0.0757  0.5538
  415TMC3    O1 6202   3.602   0.859   9.912 -0.1825 -0.5163  0.1692
  415TMC3    O2 6203   3.926   1.018   9.659  0.5557  0.6792  0.4717
  416MPD2     C 6204   1.076   4.648  10.895 -0.1829  0.2703 -0.1071
  416MPD2    C1 6205   1.025   4.598  11.009 -0.2114  0.0716 -0.3117
  416MPD2    C2 6206   1.063   4.468  11.039 -0.2164 -0.0177  0.6435
  416MPD2    C3 6207   1.124   4.382  10.952 -0.2641  0.2606 -0.4968
  416MPD2    C4 6208   1.171   4.435  10.832  0.6082 -0.0857  0.2427
  416MPD2    C5 6209   1.160   4.571  10.816 -0.3883 -0.1910  0.1580
  416MPD2     H 6210   1.028   4.430  11.134 -1.6373  1.4389  0.7073
  416MPD2    H1 6211   1.227   4.376  10.761 -1.4994 -0.0025 -1.4857
  416MPD2    H2 6212   1.035   0.025  10.862  1.3974  0.4420 -1.5823
  416MPD2    H3 6213   1.208   4.624  10.734 -1.6461  1.7318  0.6514
  416MPD2     N 6214   1.145   4.248  10.979  0.5702 -1.1703  0.3924
  416MPD2    H5 6215   1.176   4.200  10.894 -2.0026 -1.6107 -0.2849
  416MPD2    N1 6216   0.932   4.674  11.087 -0.0383  0.7914 -0.4357
  416MPD2    H7 6217   0.884   0.028  11.036 -1.4082 -0.5038 -0.9950
  417TMC3    C1 6218   0.809   0.040  11.271 -0.4658  0.6490 -0.6680
  417TMC3    C2 6219   0.787   0.015  11.407 -0.1056  0.1308  0.7830
  417TMC3    C3 6220   0.669   0.063  11.454 -0.9300 -0.3840 -0.5481
  417TMC3    C4 6221   0.721   0.100  11.187 -0.0795  0.2922 -0.5280
  417TMC3    C5 6222   0.608   0.142  11.243  0.1317  0.0080  0.3184
  417TMC3    C6 6223   0.569   0.120  11.374 -0.7475 -0.2539  0.0610
  417TMC3     C 6224   0.908   4.664  11.222 -0.0262  0.2188  0.3695
  417TMC3     O 6225   0.954   4.588  11.303  0.1552 -0.4068 -0.0993
  417TMC3     H 6226   0.854   4.680  11.473 -0.3796 -1.9989 -0.6899
  417TMC3    H1 6227   0.727   0.127  11.082 -0.5941 -1.6246 -1.0388
  417TMC3    H2 6228   0.470   0.143  11.410  0.0958  3.0200  0.3071
  417TMC3    C7 6229   0.510   0.198  11.155  0.4481  0.4579  0.4342
  417TMC3    C8 6230   0.631   0.039  11.592  0.7856  0.2824  1.2261
  417TMC3    O1 6231   0.525   0.315  11.127 -0.3183  0.5371 -0.4215
  417TMC3    O2 6232   0.524   0.082  11.626 -0.2198  0.1455  0.2366
  418TMC3    C1 6233   4.064   1.283   0.544  0.2808 -0.4121  0.4159
  418TMC3    C2 6234   4.011   1.344   0.432  0.6309 -0.7035 -0.2934
  418TMC3    C3 6235   3.875   1.357   0.425  1.1586  0.4133  0.3995
  418TMC3    C4 6236   3.987   1.239   0.646 -0.2515 -0.3307 -0.5698
  418TMC3    C5 6237   3.849   1.256   0.634  0.0381  0.1956  0.2812
  418TMC3    C6 6238   3.787   1.303   0.521  0.0359 -0.2054  0.4222
  418TMC3     C 6239   4.195   1.222   0.526  0.3434  0.5051 -0.0749
  418TMC3     O 6240   4.277   1.282   0.462 -0.2955  0.3677 -0.2666
  418TMC3     H 6241   4.070   1.366   0.344 -1.3497  0.8636 -1.2126
  418TMC3    H1 6242   4.032   1.208   0.740  0.9870  0.0084 -1.0521
  418TMC3    H2 6243   3.685   1.338   0.526  0.6864  1.4481  2.0753
  418TMC3    C7 6244   3.763   1.247   0.745 -0.1024  0.0063  0.5692
  418TMC3    C8 6245   3.816   1.377   0.293 -1.4200 -0.0191  0.5290
  418TMC3    O1 6246   3.644   1.239   0.720 -0.1234 -0.2269 -0.2501
  418TMC3    O2 6247   3.875   1.449   0.216  0.0785 -0.7627  0.5148
  419MPD2     C 6248   3.226   4.172  12.606  0.1386  0.4200  0.3041
  419MPD2    C1 6249   3.105   4.219  12.560 -0.3163 -0.1576 -0.1247
  419MPD2    C2 6250   3.006   4.234  12.653  0.6474  0.5090 -0.0229
  419MPD2    C3 6251   3.019   4.204  12.786 -0.1913 -0.7085  0.3914
  419MPD2    C4 6252   3.142   4.167  12.833  0.0386 -0.8784  0.5923
  419MPD2    C5 6253   3.245   4.140  12.738  0.4765 -0.0175  0.3759
  419MPD2     H 6254   2.906   4.265  12.625 -1.0677 -2.6807  2.6623
  419MPD2    H1 6255   3.164   4.144  12.937 -1.5353  0.7698  1.2945
  419MPD2    H2 6256   3.311   4.146  12.544  0.4865  3.2372 -0.4169
  419MPD2    H3 6257   3.339   4.102  12.773  0.6630  0.8041  0.7740
  419MPD2     N 6258   2.917   4.239  12.871  0.8131 -0.6868 -0.4431
  419MPD2    H5 6259   2.826   4.268  12.834 -0.2121 -2.0666  0.9833
  419MPD2    N1 6260   3.067   4.261  12.433  0.4124 -0.2166 -0.2944
  419MPD2    H7 6261   2.968   4.281  12.423  0.3125 -0.1733  0.8230
  420TMC3    C1 6262   2.789   4.262  13.070 -0.5806 -0.1071 -0.0275
  420TMC3    C2 6263   2.672   4.274  12.990 -0.1081  0.6035  0.8134
  420TMC3    C3 6264   2.574   4.356  13.045 -0.0951 -0.3019 -0.1873
  420TMC3    C4 6265   2.786   4.305  13.198 -0.2656  0.3062 -0.7767
  420TMC3    C5 6266   2.681   4.380  13.248 -0.1427 -0.0567 -1.2026
  420TMC3    C6 6267   2.573   4.412  13.167  0.0788 -0.3052  0.6833
  420TMC3     C 6268   2.918   4.232  13.011  0.1015  0.3433 -0.2482
  420TMC3     O 6269   3.015   4.226  13.087  0.1336 -0.4187 -0.1630
  420TMC3     H 6270   2.654   4.226  12.894 -1.9973  2.4341  0.2549
  420TMC3    H1 6271   2.865   4.276  13.267  0.2986  0.4277 -1.3679
  420TMC3    H2 6272   2.490   4.464  13.213  0.1487 -0.1375  0.6181
  420TMC3    C7 6273   2.695   4.435  13.380 -0.6714 -0.0199 -0.7773
  420TMC3    C8 6274   2.475   4.395  12.946  0.1205  0.1005  0.8137
  420TMC3    O1 6275   2.774   4.374  13.451  0.1430 -0.2814 -0.0392
  420TMC3    O2 6276   2.491   4.352  12.837  0.3675  0.1495 -0.2373
  421TMC3    C1 6277   4.285   1.328  13.695  0.0465 -0.0065  0.0934
  421TMC3    C2 6278   4.361   1.420  13.767 -0.8049 -0.1092 -0.6057
  421TMC3    C3 6279   4.469   1.371  13.834 -0.6995  0.2302  0.0806
  421TMC3    C4 6280   4.302   1.193  13.706  0.6635 -0.5072 -0.5463
  421TMC3    C5 6281   4.409   1.145  13.787 -0.7629 -0.6692 -0.7088
  421TMC3    C6 6282   4.484   1.236  13.856  0.1115  0.1844  0.1331
  421TMC3     C 6283   4.185   1.377  13.605 -0.2488 -0.4697  0.5091
  421TMC3     O 6284   4.197   1.501  13.587  0.7222  0.0060 -0.0378
  421TMC3     H 6285   4.351   1.527  13.760  0.8523  0.0594 -0.3914
  421TMC3    H1 6286   4.238   1.121  13.657 -2.7433  0.5700  2.3216
  421TMC3    H2 6287   4.557   1.195  13.926  0.0859  1.6006  1.0025
  421TMC3    C7 6288   4.444   1.008  13.813 -0.6110  0.0936  0.0997
  421TMC3    C8 6289   4.559   1.446  13.912 -0.2493  0.5451 -0.1722
  421TMC3    O1 6290   4.527   0.985  13.900 -0.2612  0.4400  0.4091
  421TMC3    O2 6291   4.677   1.403  13.927  0.4459 -0.1153  0.2572
  422TMC3    C1 6292   1.867   2.420  12.767 -0.0134  0.1907 -0.6459
  422TMC3    C2 6293   1.826   2.536  12.828  0.3671 -0.8966  0.0897
  422TMC3    C3 6294   1.736   2.528  12.926 -0.1411  0.0273 -0.0674
  422TMC3    C4 6295   1.806   2.300  12.803  0.3720 -0.2063 -0.7461
  422TMC3    C5 6296   1.710   2.295  12.900  0.4605 -1.0631  0.1143
  422TMC3    C6 6297   1.667   2.413  12.960  0.1359  0.2596  0.0356
  422TMC3     C 6298   1.970   2.432  12.672 -0.0087 -0.6299  0.7689
  422TMC3     O 6299   1.997   2.541  12.625  0.7514 -0.3988 -0.3584
  422TMC3     H 6300   1.877   2.629  12.804  2.0393 -2.2055 -1.3749
  422TMC3    H1 6301   1.843   2.207  12.759 -0.1702  0.6288 -2.9847
  422TMC3    H2 6302   1.588   2.412  13.034 -1.4669 -0.3508 -1.6903
  422TMC3    C7 6303   1.632   2.173  12.911 -0.5618 -0.0783  0.7327
  422TMC3    C8 6304   1.685   2.655  12.978  0.3753  0.0944  0.2424
  422TMC3    O1 6305   1.680   2.073  12.861 -0.5328  0.2555 -0.3804
  422TMC3    O2 6306   1.758   2.753  12.984 -0.5713 -0.0435 -0.1060
  423MPD2     C 6307   2.855   3.500   0.461  0.0437 -0.5480 -0.2025
  423MPD2    C1 6308   2.796   3.385   0.427 -0.8876 -0.4519 -0.5799
  423MPD2    C2 6309   2.832   3.320   0.317  0.4894 -0.2246 -0.3716
  423MPD2    C3 6310   2.919   3.371   0.226 -0.1180 -0.3949 -0.3279
  423MPD2    C4 6311   2.979   3.489   0.254 -0.0909 -0.3579  0.0591
  423MPD2    C5 6312   2.938   3.557   0.367 -0.4648 -0.0855 -0.2661
  423MPD2     H 6313   2.790   3.221   0.298 -0.6925  0.2637 -0.3082
  423MPD2    H1 6314   3.040   3.535   0.177 -1.6185 -0.9323 -1.4824
  423MPD2    H2 6315   2.818   3.552   0.548 -0.0607  0.1665 -0.6702
  423MPD2    H3 6316   2.977   3.658   0.378  1.2924 -0.8836  0.8667
  423MPD2     N 6317   2.964   3.299   0.110  0.7995 -0.4656 -0.3217
  423MPD2    H5 6318   3.049   3.329   0.063  0.8550 -0.1704 -0.0279
  423MPD2    N1 6319   2.697   3.318   0.504  0.1353 -0.5395  0.1978
  423MPD2    H7 6320   2.642   3.244   0.462 -1.7719  1.1911 -0.3515
  424TMC3    C1 6321   2.576   3.265   0.697 -0.2420  0.5631 -0.4748
  424TMC3    C2 6322   2.604   3.201   0.818  0.0009  0.8274  0.2751
  424TMC3    C3 6323   2.505   3.119   0.869  0.5410 -1.0729 -0.2124
  424TMC3    C4 6324   2.460   3.242   0.624 -0.4385  0.0608 -0.2260
  424TMC3    C5 6325   2.372   3.155   0.673 -0.3680 -0.2768 -0.0153
  424TMC3    C6 6326   2.386   3.098   0.798  0.2377 -0.9629 -0.2051
  424TMC3     C 6327   2.690   3.336   0.644 -1.4323  0.3203 -0.7949
  424TMC3     O 6328   2.758   3.401   0.724  0.0530 -0.2931 -0.2870
  424TMC3     H 6329   2.693   3.230   0.873 -0.7013  1.0717  1.2720
  424TMC3    H1 6330   2.446   3.290   0.528 -1.6806 -0.1478 -0.1444
  424TMC3    H2 6331   2.323   3.011   0.817 -1.4801  0.3505  0.0906
  424TMC3    C7 6332   2.240   3.167   0.622 -0.0791 -0.0941  0.0182
  424TMC3    C8 6333   2.536   3.023   0.973  0.4016  0.2399  0.1368
  424TMC3    O1 6334   2.225   3.199   0.502  0.1240 -0.1098  0.2808
  424TMC3    O2 6335   2.654   2.983   0.978  0.0747  0.2796  0.4732
  425MPD2     C 6336   1.557   2.202   0.002  0.3797  0.4652 -0.1488
  425MPD2    C1 6337   1.576   2.146  17.558 -0.0152  0.6882  0.2326
  425MPD2    C2 6338   1.466   2.073  17.503  0.4685 -0.2347  0.3396
  425MPD2    C3 6339   1.352   2.055  17.580  0.3343 -0.4161  0.2215
  425MPD2    C4 6340   1.344   2.101   0.030 -0.5446  0.7854 -0.5152
  425MPD2    C5 6341   1.447   2.182   0.071  0.9299  0.6759 -0.8291
  425MPD2     H 6342   1.470   2.040  17.399  0.7786 -0.5813  0.4615
  425MPD2    H1 6343   1.273   2.074   0.107 -0.4235  1.8359 -0.0286
  425MPD2    H2 6344   1.645   2.255   0.038 -0.4832  1.5536  0.3279
  425MPD2    H3 6345   1.438   2.215   0.174 -3.3983 -0.0563 -0.9484
  425MPD2     N 6346   1.248   1.981  17.524 -0.5731 -0.6591 -0.2636
  425MPD2    H5 6347   1.253   1.960  17.425 -2.4408 -0.0494 -0.4763
  425MPD2    N1 6348   1.699   2.172  17.491  0.0735 -0.1996  0.3591
  425MPD2    H7 6349   1.767   2.232  17.537  0.2916  0.7221 -1.1730
  426TMC3    C1 6350   1.884   2.112  17.359 -0.3976  0.2270 -0.1147
  426TMC3    C2 6351   1.930   2.071  17.233 -0.8437  0.4967  0.7401
  426TMC3    C3 6352   2.066   2.041  17.223  0.2851  0.0546 -0.4485
  426TMC3    C4 6353   1.966   2.119  17.467 -0.3578  0.7655 -0.6041
  426TMC3    C5 6354   2.096   2.079  17.454  0.5377  0.6274 -0.4962
  426TMC3    C6 6355   2.146   2.035  17.332 -0.3016 -0.1572 -0.5939
  426TMC3     C 6356   1.740   2.114  17.373 -0.7184 -0.1102  0.4877
  426TMC3     O 6357   1.685   2.037  17.297  0.3861  0.1528 -0.0809
  426TMC3     H 6358   1.872   2.103  17.148 -0.1888 -0.2997 -0.0146
  426TMC3    H1 6359   1.928   2.126  17.568  0.4822  1.0893 -0.3064
  426TMC3    H2 6360   2.247   1.995  17.327 -1.1013 -2.3162  0.6365
  426TMC3    C7 6361   2.186   2.091  17.567 -0.7059  0.2233 -0.2623
  426TMC3    C8 6362   2.093   1.949  17.114  0.1166  1.0693  0.5435
  426TMC3    O1 6363   2.295   2.035  17.556  0.2933 -0.7533  0.3629
  426TMC3    O2 6364   2.207   1.925  17.087  0.2818 -0.8191  1.0927
  427MPD2     C 6365   0.573   0.187  15.444  0.2379 -0.5068  0.1619
  427MPD2    C1 6366   0.566   0.051  15.449 -0.5053 -0.4739 -0.0461
  427MPD2    C2 6367   0.437   4.715  15.418  0.0860  0.2366 -0.6889
  427MPD2    C3 6368   0.323   0.071  15.389 -0.5039 -0.2059  0.0941
  427MPD2    C4 6369   0.340   0.207  15.374 -0.5472  0.0331 -0.0867
  427MPD2    C5 6370   0.464   0.261  15.398  0.3511  0.6622  0.7135
  427MPD2     H 6371   0.433   4.606  15.422 -1.0280  0.3044  0.0631
  427MPD2    H1 6372   0.264   0.279  15.348  0.2995  0.6524 -0.8732
  427MPD2    H2 6373   0.659   0.242  15.478 -0.3857 -0.2021  1.2427
  427MPD2    H3 6374   0.466   0.370  15.400  0.1517  0.7193 -1.4549
  427MPD2     N 6375   0.194   0.023  15.352  0.4220 -0.4938 -0.2814
  427MPD2    H5 6376   0.124   0.089  15.318  0.6861  0.9661  1.9958
  427MPD2    N1 6377   0.682   4.688  15.488  0.1876 -0.1061  0.9179
  427MPD2    H7 6378   0.773   0.003  15.516 -0.0607  1.8196 -0.6505
  428TMC3    C1 6379   0.811   4.487  15.504 -0.1150 -0.4854  0.8122
  428TMC3    C2 6380   0.816   4.353  15.478  0.4517 -0.4023  0.4842
  428TMC3    C3 6381   0.943   4.301  15.466  0.2366 -0.2590 -0.0543
  428TMC3    C4 6382   0.930   4.563  15.511 -0.4314  0.2613  0.0535
  428TMC3    C5 6383   1.049   4.506  15.490 -0.2792 -0.0377  0.3433
  428TMC3    C6 6384   1.059   4.372  15.462 -0.1730  0.1066  0.8826
  428TMC3     C 6385   0.685   4.550  15.501 -0.1530 -1.1310  0.4563
  428TMC3     O 6386   0.593   4.470  15.488  0.0009 -0.7761 -0.1021
  428TMC3     H 6387   0.725   4.294  15.486  1.5382 -2.0621  0.5735
  428TMC3    H1 6388   0.931   4.670  15.526 -0.4976  0.2463  0.1615
  428TMC3    H2 6389   1.150   4.324  15.426 -0.1100  0.7169  0.2360
  428TMC3    C7 6390   1.167   4.577  15.542 -0.9519  0.2140 -0.3275
  428TMC3    C8 6391   0.948   4.157  15.449 -0.1864 -0.0770  0.1478
  428TMC3    O1 6392   1.164   4.627  15.654 -0.1507 -0.4306 -0.1560
  428TMC3    O2 6393   1.055   4.118  15.400  0.6380  0.1624  0.2349
  429MPD2     C 6394   1.797   0.013   0.189 -0.0765 -0.3943  0.2760
  429MPD2    C1 6395   1.823   4.672   0.067 -0.5858 -0.2530  0.4992
  429MPD2    C2 6396   1.917   0.012  17.659  0.3957  0.3375 -0.3609
  429MPD2    C3 6397   1.981   0.135   0.012  0.3168  0.2994  0.1293
  429MPD2    C4 6398   1.961   0.187   0.136  0.3579  0.0650 -0.0112
  429MPD2    C5 6399   1.866   0.127   0.219  0.3291 -0.4069 -0.7617
  429MPD2     H 6400   1.943   4.703  17.558 -2.7796  0.0447 -1.1000
  429MPD2    H1 6401   2.016   0.269   0.181  0.9509  0.0261 -0.6550
  429MPD2    H2 6402   1.725   4.691   0.259 -0.0872  0.1081  0.5527
  429MPD2    H3 6403   1.848   0.169   0.317 -0.9931 -1.2603 -0.6351
  429MPD2     N 6404   2.073   0.193  17.601  0.0279 -0.3500  0.4168
  429MPD2    H5 6405   2.107   0.144  17.518 -0.8125 -0.6939  0.2757
  429MPD2    N1 6406   1.758   4.559   0.017 -0.2822 -0.1422 -0.1686
  429MPD2    H7 6407   1.766   4.541  17.596  1.4209 -0.3535  0.0069
  430TMC3    C1 6408   2.195   0.345  17.494 -0.8124  0.0013  0.0275
  430TMC3    C2 6409   2.167   0.461  17.424  0.2996 -0.4450  0.4346
  430TMC3    C3 6410   2.196   0.460  17.289  0.0286  1.0484  0.1447
  430TMC3    C4 6411   2.257   0.231  17.437 -0.8088  0.1454  0.3991
  430TMC3    C5 6412   2.288   0.239  17.308  0.2178  0.5171 -0.1747
  430TMC3    C6 6413   2.261   0.348  17.231 -0.6613  0.1458  1.4058
  430TMC3     C 6414   2.119   0.323  17.614  0.0473 -0.4731  0.0583
  430TMC3     O 6415   2.082   0.419   0.007 -0.6038 -0.5580  0.4164
  430TMC3     H 6416   2.109   0.544  17.462  1.5578  0.3478  0.6191
  430TMC3    H1 6417   2.296   0.149  17.496 -0.0970  0.1711 -0.0489
  430TMC3    H2 6418   2.268   0.355  17.123 -1.4187 -1.0301  1.2734
  430TMC3    C7 6419   2.317   0.114  17.247  0.7784 -0.4542 -0.4245
  430TMC3    C8 6420   2.087   0.500  17.201 -0.2291  0.1356  0.6151
  430TMC3    O1 6421   2.269   0.007  17.286 -0.6450  0.5229  0.6999
  430TMC3    O2 6422   1.991   0.428  17.185  0.3507 -0.6682  0.3701
  431MPD2     C 6423   2.532   0.161  12.469 -0.0639 -0.3386  0.3076
  431MPD2    C1 6424   2.654   0.212  12.426  0.6434  0.5887  0.1122
  431MPD2    C2 6425   2.741   0.129  12.357  0.7385  0.0508  0.3517
  431MPD2    C3 6426   2.718   4.711  12.335 -0.1211 -0.4443 -0.6256
  431MPD2    C4 6427   2.598   4.662  12.387  0.1451 -0.0042  0.2054
  431MPD2    C5 6428   2.513   0.028  12.456  0.2758 -0.1742 -0.6663
  431MPD2     H 6429   2.832   0.176  12.320 -0.4554  0.3323 -2.2343
  431MPD2    H1 6430   2.569   4.558  12.376  0.2663  0.1780 -1.9069
  431MPD2    H2 6431   2.448   0.207  12.519  0.5217 -0.6093  1.5436
  431MPD2    H3 6432   2.417   4.701  12.475  0.0684 -0.9042 -3.4887
  431MPD2     N 6433   2.813   4.628  12.270  0.0393 -0.3216 -0.2722
  431MPD2    H5 6434   2.797   4.528  12.278 -1.7144 -0.0678 -0.4805
  431MPD2    N1 6435   2.696   0.344  12.442 -0.1387  0.2663  0.3614
  431MPD2    H7 6436   2.790   0.369  12.413  0.2284 -1.0713  0.4028
  432TMC3    C1 6437   3.002   4.558  12.160 -0.2570 -0.3878 -0.9997
  432TMC3    C2 6438   3.056   4.558  12.040 -0.1066 -0.3395  0.0117
  432TMC3    C3 6439   3.137   4.459  12.012  0.2467 -0.3028  0.0276
  432TMC3    C4 6440   3.022   4.465  12.259 -0.3331  0.1469 -0.6016
  432TMC3    C5 6441   3.091   4.352  12.220 -0.2333  0.1602 -0.3832
  432TMC3    C6 6442   3.150   4.351  12.093 -0.5229  0.3776  0.3511
  432TMC3     C 6443   2.912   4.670  12.189  0.1609 -0.2129 -0.4787
  432TMC3     O 6444   2.922   0.055  12.127 -0.2283  0.2772  0.5308
  432TMC3     H 6445   3.031   4.633  11.965 -0.5431 -1.1443 -0.6403
  432TMC3    H1 6446   2.978   4.470  12.358 -0.0853  0.5616 -0.5125
  432TMC3    H2 6447   3.216   4.270  12.066 -1.5288 -0.1577 -0.4927
  432TMC3    C7 6448   3.147   4.263  12.319  0.4604  0.0813  0.1657
  432TMC3    C8 6449   3.198   4.453  11.885 -0.0669  0.4444 -0.4310
  432TMC3    O1 6450   3.244   4.192  12.295 -0.2518  0.3635  0.6172
  432TMC3    O2 6451   3.235   4.342  11.852 -0.2734 -0.5942  0.4271
  433MPD2     C 6452   1.788   3.964  10.857 -0.5118  0.0419  0.1427
  433MPD2    C1 6453   1.836   3.855  10.928  0.5681 -0.6943  0.3521
  433MPD2    C2 6454   1.871   3.872  11.064 -0.2823 -0.0363 -0.1537
  433MPD2    C3 6455   1.867   3.995  11.122 -0.1394  0.3874  0.3209
  433MPD2    C4 6456   1.816   4.101  11.039 -0.0729  0.0290 -0.0045
  433MPD2    C5 6457   1.781   4.084  10.909  1.1228  0.0621  0.2630
  433MPD2     H 6458   1.904   3.787  11.122  0.4251  0.3829  0.0552
  433MPD2    H1 6459   1.795   4.197  11.084  1.0746  0.7412 -0.9834
  433MPD2    H2 6460   1.770   3.947  10.751  0.6538  1.3012 -0.2566
  433MPD2    H3 6461   1.755   4.173  10.852  1.2885 -0.6363 -0.8904
  433MPD2     N 6462   1.928   4.020  11.250 -0.2008 -0.6523 -0.3905
  433MPD2    H5 6463   1.977   3.937  11.284  0.4796  1.2608  3.2683
  433MPD2    N1 6464   1.835   3.737  10.858 -0.1096 -0.7423 -0.1003
  433MPD2    H7 6465   1.820   3.742  10.757  0.3988  0.2502 -0.1283
  434TMC3    C1 6466   1.836   3.504  10.818 -0.5318 -0.1865 -0.1980
  434TMC3    C2 6467   1.859   3.384  10.879  0.3254  0.0828 -0.6253
  434TMC3    C3 6468   1.947   3.302  10.813  0.4717 -0.0795 -0.6729
  434TMC3    C4 6469   1.887   3.528  10.692  0.4708 -0.8136  0.6404
  434TMC3    C5 6470   1.951   3.434  10.624  0.1289  0.3804  0.3859
  434TMC3    C6 6471   1.994   3.325  10.689  0.7287 -0.1350  0.5784
  434TMC3     C 6472   1.836   3.615  10.916 -0.5392 -0.6392  0.1324
  434TMC3     O 6473   1.831   3.580  11.033  0.6745 -0.1216  0.3476
  434TMC3     H 6474   1.826   3.359  10.979  0.8064  3.3056  0.3252
  434TMC3    H1 6475   1.851   3.610  10.630  0.5491  0.9182  2.8927
  434TMC3    H2 6476   2.085   3.283  10.646  0.5706  2.1784 -1.9448
  434TMC3    C7 6477   1.903   3.404  10.487  0.3093 -0.2835  0.1876
  434TMC3    C8 6478   2.044   3.242  10.908  0.5318  0.2871  0.2109
  434TMC3    O1 6479   1.848   3.500  10.438  0.2209 -0.8784 -0.2715
  434TMC3    O2 6480   2.054   3.307  11.006  0.3760  0.7181  0.8863
  435MPD2     C 6481   3.372   3.531  15.343 -0.4939  0.9625  0.0439
  435MPD2    C1 6482   3.354   3.498  15.475  0.1248 -0.5768  0.6734
  435MPD2    C2 6483   3.455   3.450  15.549 -0.4496 -0.4842  0.2693
  435MPD2    C3 6484   3.584   3.443  15.515 -0.6898 -0.2766  0.4591
  435MPD2    C4 6485   3.606   3.474  15.382 -0.4629 -0.0175  0.2539
  435MPD2    C5 6486   3.502   3.503  15.299  0.8632 -0.4670  0.3038
  435MPD2     H 6487   3.435   3.424  15.653 -0.7625 -0.9438  0.0937
  435MPD2    H1 6488   3.707   3.468  15.342 -0.5889  2.2762 -0.4038
  435MPD2    H2 6489   3.296   3.558  15.270 -0.0000  3.2141  0.3769
  435MPD2    H3 6490   3.517   3.503  15.191  5.0333 -3.1556  0.8867
  435MPD2     N 6491   3.672   3.376  15.601 -0.2580  0.1091 -0.1343
  435MPD2    H5 6492   3.651   3.372  15.700 -4.3632 -1.8887 -1.1139
  435MPD2    N1 6493   3.234   3.512  15.546 -0.7282 -0.0770 -0.1486
  435MPD2    H7 6494   3.242   3.493  15.645  0.1914  1.6398  0.1237
  436TMC3    C1 6495   2.988   3.625  15.812 -0.3484  0.1899 -0.1499
  436TMC3    C2 6496   3.067   3.638  15.702 -0.6656 -0.0668  0.6680
  436TMC3    C3 6497   3.020   3.582  15.590  0.7782  0.8890  0.5211
  436TMC3    C4 6498   2.874   3.545  15.819  0.1189 -0.2189  0.8221
  436TMC3    C5 6499   2.835   3.501  15.703 -0.9690  0.4614  0.4349
  436TMC3    C6 6500   2.906   3.511  15.584 -0.0607  0.4443 -0.3138
  436TMC3     C 6501   3.035   3.693  15.935 -0.0778  0.3517  0.4633
  436TMC3     O 6502   3.159   3.689  15.945 -0.0819 -0.1854 -0.2920
  436TMC3     H 6503   3.162   3.691  15.701 -0.3400 -0.6925 -2.1001
  436TMC3    H1 6504   2.826   3.533  15.915 -0.2369  1.3585  0.8578
  436TMC3    H2 6505   2.885   3.454  15.495 -1.6026  0.1850  0.2108
  436TMC3    C7 6506   2.732   3.399  15.702  0.4021 -0.3848 -0.0596
  436TMC3    C8 6507   3.112   3.542  15.490 -0.2617 -0.4995  0.4861
  436TMC3    O1 6508   2.727   3.327  15.607 -0.7135  0.5432  0.2865
  436TMC3    O2 6509   3.075   3.522  15.375  0.4512 -0.2041  0.1585
  437TMC3    C1 6510   1.944   1.233  12.521 -0.4089 -0.1848 -0.0347
  437TMC3    C2 6511   1.878   1.348  12.519 -0.1700  0.6615  0.2165
  437TMC3    C3 6512   1.862   1.421  12.404  0.1773 -0.3345 -0.1931
  437TMC3    C4 6513   2.025   1.199  12.411 -0.4133 -0.7586  0.0596
  437TMC3    C5 6514   2.015   1.279  12.299  0.3826  0.7438  0.4493
  437TMC3    C6 6515   1.935   1.391  12.294  0.2479  0.1225 -0.1189
  437TMC3     C 6516   1.928   1.138  12.627  0.2130  0.2904 -0.2485
  437TMC3     O 6517   2.006   1.043  12.637 -0.0976 -0.1737  0.4730
  437TMC3     H 6518   1.828   1.389  12.606  1.1803  2.1528  0.2866
  437TMC3    H1 6519   2.082   1.109  12.395  1.7193  0.5068  0.4898
  437TMC3    H2 6520   1.927   1.447  12.201  0.1162  0.9866  0.4187
  437TMC3    C7 6521   2.113   1.279  12.192 -0.7532  0.0567  0.4327
  437TMC3    C8 6522   1.772   1.536  12.389  0.1882  0.7308 -0.9822
  437TMC3    O1 6523   2.084   1.339  12.083  0.3402  0.5419  0.2239
  437TMC3    O2 6524   1.730   1.544  12.276  0.2728 -0.4678 -0.2989
  438MPD2     C 6525   3.985   1.239  16.794 -0.0065  0.1523  0.2917
  438MPD2    C1 6526   4.040   1.111  16.820 -0.4418  0.0429  0.5218
  438MPD2    C2 6527   4.006   1.045  16.937  0.2082  0.0248  0.3098
  438MPD2    C3 6528   3.915   1.098  17.026 -0.0306 -0.1111 -0.6058
  438MPD2    C4 6529   3.850   1.217  16.991  0.7333  0.4185  0.7522
  438MPD2    C5 6530   3.889   1.287  16.876 -0.3780  0.5054  0.0800
  438MPD2     H 6531   4.065   0.957  16.959  0.0676  0.0625  0.8271
  438MPD2    H1 6532   3.782   1.263  17.061  0.3053  1.5331 -0.4050
  438MPD2    H2 6533   4.010   1.299  16.707 -1.4889 -0.5689 -0.6262
  438MPD2    H3 6534   3.841   1.382  16.853 -0.3002  1.1873  2.7210
  438MPD2     N 6535   3.868   1.034  17.141 -0.1513  0.0215 -0.1665
  438MPD2    H5 6536   3.798   1.085  17.194 -0.0446  0.5501 -0.5339
  438MPD2    N1 6537   4.152   1.060  16.745  0.2162 -0.5385  0.8690
  438MPD2    H7 6538   4.188   0.971  16.776  0.8814 -0.0015  1.6382
  439TMC3    C1 6539   4.332   1.059  16.581  0.0148 -1.0058  0.3101
  439TMC3    C2 6540   4.384   1.114  16.470  0.3392 -0.4440  0.2149
  439TMC3    C3 6541   4.518   1.091  16.452 -0.3966  0.0247  0.2060
  439TMC3    C4 6542   4.401   0.977  16.667 -1.0050 -0.5723  0.0026
  439TMC3    C5 6543   4.523   0.945  16.630 -0.3989  0.0682  0.0756
  439TMC3    C6 6544   4.588   1.001  16.527 -0.1992 -0.2441  0.3292
  439TMC3     C 6545   4.208   1.122  16.631 -0.1287 -0.5661  0.2414
  439TMC3     O 6546   4.162   1.210  16.558 -0.1039  0.4372  0.1087
  439TMC3     H 6547   4.322   1.174  16.404 -0.7902 -0.5987  1.1399
  439TMC3    H1 6548   4.360   0.968  16.767 -0.4272  1.3820  0.4141
  439TMC3    H2 6549   4.687   0.975  16.492 -0.5641 -2.0916  0.6902
  439TMC3    C7 6550   4.611   0.871  16.723 -0.4317  0.1360  0.3674
  439TMC3    C8 6551   4.594   1.147  16.342  0.4663  0.5975  0.4563
  439TMC3    O1 6552   0.012   0.874  16.701  0.2154  0.6268 -0.2314
  439TMC3    O2 6553   4.713   1.169  16.359 -0.0794 -0.0668  0.3498
  440MPD2     C 6554   3.492   1.783  14.642 -0.0875 -0.2930 -0.1801
  440MPD2    C1 6555   3.514   1.899  14.710  0.3833 -0.3672 -0.3295
  440MPD2    C2 6556   3.642   1.950  14.717 -0.2500  0.2976  0.1572
  440MPD2    C3 6557   3.754   1.884  14.666 -0.5251 -0.0759 -0.2968
  440MPD2    C4 6558   3.730   1.765  14.596 -0.3323 -0.0067 -0.0301
  440MPD2    C5 6559   3.601   1.722  14.573 -0.8488  0.1300 -1.0712
  440MPD2     H 6560   3.657   2.045  14.766  2.6426  1.1360 -2.3672
  440MPD2    H1 6561   3.810   1.707  14.552 -0.2905  1.0053 -1.3017
  440MPD2    H2 6562   3.399   1.729  14.641  0.2475 -0.8955  1.6668
  440MPD2    H3 6563   3.602   1.633  14.510 -0.4784 -0.9911  0.5141
  440MPD2     N 6564   3.890   1.933  14.693  0.7421  0.0629 -0.2743
  440MPD2    H5 6565   3.966   1.873  14.662  1.5597  1.0741 -0.2463
  440MPD2    N1 6566   3.410   1.960  14.789  0.6399  0.0427  0.2891
  440MPD2    H7 6567   3.437   2.042  14.844 -1.3308  0.6744  0.3384
  441TMC3    C1 6568   4.052   2.033  14.833  0.3166 -0.3377 -0.9143
  441TMC3    C2 6569   4.076   2.136  14.926  0.0931 -0.1625  0.6059
  441TMC3    C3 6570   4.164   2.112  15.031 -0.3953 -0.1387  0.7039
  441TMC3    C4 6571   4.113   1.915  14.858 -0.8772 -0.0239  0.2930
  441TMC3    C5 6572   4.207   1.897  14.956 -0.0105 -0.4216  0.3359
  441TMC3    C6 6573   4.242   1.999  15.038  0.0650 -0.1142 -0.4036
  441TMC3     C 6574   3.921   2.045  14.761 -0.1409  0.2310 -0.4243
  441TMC3     O 6575   3.854   2.143  14.784  0.2438 -0.5589 -0.4353
  441TMC3     H 6576   4.020   2.227  14.913  0.0018 -0.6170 -2.2341
  441TMC3    H1 6577   4.076   1.829  14.803  0.9211 -0.4674 -0.2200
  441TMC3    H2 6578   4.317   1.970  15.111 -0.0055 -2.4332 -1.2594
  441TMC3    C7 6579   4.158   1.785  15.030 -0.7158  0.0130  0.1662
  441TMC3    C8 6580   4.141   2.178  15.149 -0.1211 -0.0274  0.1850
  441TMC3    O1 6581   4.039   1.756  15.010  0.0327  0.2165 -0.0399
  441TMC3    O2 6582   4.225   2.171  15.234  0.2853  0.2709  0.7509
  442MPD2     C 6583   1.282   1.855  16.812 -0.2240  0.4249  0.2587
  442MPD2    C1 6584   1.341   1.939  16.722 -0.4790 -0.0460  0.0789
  442MPD2    C2 6585   1.421   1.886  16.622  0.3139  0.1850 -0.5806
  442MPD2    C3 6586   1.446   1.751  16.611 -0.4198  0.2862  1.1291
  442MPD2    C4 6587   1.387   1.663  16.705 -1.0872  0.7286  0.5294
  442MPD2    C5 6588   1.315   1.722  16.807 -0.0486  0.3309  0.6589
  442MPD2     H 6589   1.459   1.960  16.552  1.1404 -0.0350 -0.3608
  442MPD2    H1 6590   1.407   1.557  16.696  0.3453  1.3507 -3.4119
  442MPD2    H2 6591   1.222   1.898  16.892  1.2197 -2.3813  2.8507
  442MPD2    H3 6592   1.267   1.654  16.877 -1.8794 -0.5892 -1.4988
  442MPD2     N 6593   1.505   1.690  16.495  0.3811  0.2078 -0.0913
  442MPD2    H5 6594   1.506   1.588  16.491 -0.4791  0.1589  1.3141
  442MPD2    N1 6595   1.304   2.074  16.709 -0.0272  0.4230  0.0873
  442MPD2    H7 6596   1.345   2.127  16.633 -0.2363 -1.1183 -1.0932
  443TMC3    C1 6597   1.180   2.270  16.749  0.2580 -0.4295  0.1330
  443TMC3    C2 6598   1.202   2.295  16.620 -0.2385  0.3229  0.2587
  443TMC3    C3 6599   1.136   2.406  16.565 -0.1155 -0.5381 -0.3031
  443TMC3    C4 6600   1.101   2.350  16.827  0.2211 -0.0226  0.3210
  443TMC3    C5 6601   1.041   2.461  16.772 -1.1837  0.5687 -0.4845
  443TMC3    C6 6602   1.055   2.492  16.641 -0.1331 -0.2975  0.5239
  443TMC3     C 6603   1.229   2.144  16.801 -0.2274  0.3864 -0.4096
  443TMC3     O 6604   1.179   2.107  16.903  0.3815 -0.4546  0.1566
  443TMC3     H 6605   1.244   2.225  16.548  1.0317  2.2717 -0.8938
  443TMC3    H1 6606   1.070   2.325  16.928 -0.7521 -2.0929 -0.5002
  443TMC3    H2 6607   0.985   2.565  16.602 -0.0044 -0.9577 -0.9220
  443TMC3    C7 6608   0.920   2.506  16.836 -0.5383  0.0515  0.5315
  443TMC3    C8 6609   1.118   2.407  16.422  0.1044 -0.1625  0.2835
  443TMC3    O1 6610   0.828   2.544  16.766 -0.0436  0.0679  0.7272
  443TMC3    O2 6611   1.104   2.293  16.379 -0.1900 -0.5961 -0.3860
  444MPD2     C 6612   1.805   1.333  16.640  0.0271 -0.0326 -0.4508
  444MPD2    C1 6613   1.741   1.214  16.604 -0.0122 -0.1319  0.0172
  444MPD2    C2 6614   1.829   1.102  16.609 -0.3216  0.0358  0.1153
  444MPD2    C3 6615   1.965   1.112  16.622 -0.8943  0.4001 -0.0725
  444MPD2    C4 6616   2.027   1.234  16.648  0.4247  0.0620 -0.4035
  444MPD2    C5 6617   1.943   1.345  16.656 -0.0226 -0.3883  1.4902
  444MPD2     H 6618   1.776   1.009  16.592  0.2817  0.0056 -1.6605
  444MPD2    H1 6619   2.134   1.247  16.660  0.8318 -1.7979 -2.0257
  444MPD2    H2 6620   1.747   1.424  16.648 -0.1784 -0.2389  0.4841
  444MPD2    H3 6621   1.988   1.442  16.673 -1.8750  0.5468  1.1394
  444MPD2     N 6622   2.048   0.997  16.607 -0.1271 -0.1190 -0.3000
  444MPD2    H5 6623   2.007   0.908  16.581  1.6569 -0.9900 -0.1472
  444MPD2    N1 6624   1.606   1.194  16.583 -0.6464 -0.3532  0.2141
  444MPD2    H7 6625   1.575   1.098  16.573  1.1289 -0.9250  0.2126
  445TMC3    C1 6626   2.251   0.859  16.606 -0.2679  0.1813 -0.2399
  445TMC3    C2 6627   2.177   0.746  16.572 -0.1172  0.3396 -0.4471
  445TMC3    C3 6628   2.249   0.636  16.531  0.0692  0.6101 -1.3654
  445TMC3    C4 6629   2.393   0.858  16.600 -0.5704 -0.1767 -0.7984
  445TMC3    C5 6630   2.457   0.752  16.538  0.6713 -0.7866  0.2494
  445TMC3    C6 6631   2.385   0.633  16.515  0.3222  0.0088  0.2354
  445TMC3     C 6632   2.183   0.989  16.632  0.3986  0.4787  0.9645
  445TMC3     O 6633   2.267   1.057  16.689  0.2640 -0.0226 -0.1410
  445TMC3     H 6634   2.069   0.745  16.580 -0.2560 -0.1764 -2.4197
  445TMC3    H1 6635   2.449   0.948  16.625  0.6785 -1.7210  1.8743
  445TMC3    H2 6636   2.433   0.553  16.460 -1.8006 -0.2199 -1.2594
  445TMC3    C7 6637   2.600   0.770  16.512  0.2650 -0.9691 -0.0680
  445TMC3    C8 6638   2.170   0.518  16.496  0.4635  0.0247  0.5368
  445TMC3    O1 6639   2.650   0.874  16.544  0.5292 -0.1175 -1.3736
  445TMC3    O2 6640   2.228   0.415  16.533  0.1868 -0.4811  0.0549
  446MPD2     C 6641   1.933   2.935  11.389 -0.3194  0.2687  0.7322
  446MPD2    C1 6642   1.895   2.986  11.271 -0.5572  0.9466  0.0357
  446MPD2    C2 6643   1.940   3.119  11.237  0.0814 -0.1252 -0.4572
  446MPD2    C3 6644   2.019   3.196  11.316  0.1448 -0.6737 -0.2494
  446MPD2    C4 6645   2.048   3.143  11.442 -0.6772 -0.2710  0.2420
  446MPD2    C5 6646   2.006   3.016  11.471 -0.4562 -0.6907 -0.0623
  446MPD2     H 6647   1.903   3.166  11.146 -0.7972  0.8354  0.3986
  446MPD2    H1 6648   2.108   3.196  11.515 -1.2348  2.4942 -1.3071
  446MPD2    H2 6649   1.889   2.845  11.431  1.6450 -0.6416  0.8328
  446MPD2    H3 6650   2.023   2.979  11.571 -3.0412  1.2278  1.0787
  446MPD2     N 6651   2.062   3.329  11.284  0.6133  0.2571 -0.0194
  446MPD2    H5 6652   2.027   3.359  11.194 -0.3975 -0.0874  0.2629
  446MPD2    N1 6653   1.815   2.917  11.176  0.5604 -0.8409 -0.2043
  446MPD2    H7 6654   1.780   2.975  11.100  1.4304  2.6552  2.0859
  447TMC3    C1 6655   2.190   3.531  11.281  0.3913  0.5443 -0.3817
  447TMC3    C2 6656   2.142   3.553  11.158 -0.2539 -0.3067 -0.1190
  447TMC3    C3 6657   2.186   3.658  11.084  0.3556  0.7965  0.2886
  447TMC3    C4 6658   2.281   3.607  11.336  0.3666  0.2278 -0.1689
  447TMC3    C5 6659   2.329   3.711  11.258  0.0022 -0.1904  0.4721
  447TMC3    C6 6660   2.287   3.731  11.128  0.3958  0.0487  0.6310
  447TMC3     C 6661   2.147   3.412  11.351  0.3521 -0.0265  0.2141
  447TMC3     O 6662   2.196   3.398  11.464 -0.3259 -0.0601 -0.0169
  447TMC3     H 6663   2.058   3.502  11.113 -2.1525  1.7675  1.0828
  447TMC3    H1 6664   2.301   3.608  11.442  4.1165  1.5709 -0.9231
  447TMC3    H2 6665   2.320   3.819  11.073 -0.6027 -0.4842 -0.8125
  447TMC3    C7 6666   2.470   3.722  11.264 -0.5320 -0.0920  0.4414
  447TMC3    C8 6667   2.191   3.629  10.947 -0.0918 -0.1080  0.2978
  447TMC3    O1 6668   2.524   3.759  11.157 -0.3133 -0.0788  0.1219
  447TMC3    O2 6669   2.149   3.713  10.868  0.1256  0.2518 -0.3399
  448TMC3    C1 6670   4.309   2.444  17.183  0.1992  0.2019  0.4190
  448TMC3    C2 6671   4.354   2.409  17.056 -0.4570  0.2320 -0.2053
  448TMC3    C3 6672   4.363   2.278  17.028 -0.3564 -0.4877 -0.0097
  448TMC3    C4 6673   4.292   2.354  17.279  0.4356  0.7240  0.7288
  448TMC3    C5 6674   4.304   2.221  17.249 -0.2338 -0.1383  0.6408
  448TMC3    C6 6675   4.335   2.179  17.123 -0.6135 -0.0788 -0.2491
  448TMC3     C 6676   4.298   2.582  17.214  0.4609  0.6496 -0.2435
  448TMC3     O 6677   4.311   2.625  17.329  0.6722 -0.4848  0.1609
  448TMC3     H 6678   4.365   2.482  16.976  0.8146  0.7499  0.4468
  448TMC3    H1 6679   4.259   2.394  17.374 -0.2077  0.0344  0.7982
  448TMC3    H2 6680   4.345   2.073  17.100 -1.2158 -0.1985  0.0534
  448TMC3    C7 6681   4.282   2.112  17.338 -0.0485 -0.3730  0.8054
  448TMC3    C8 6682   4.404   2.231  16.896 -0.0540 -0.8344  0.8099
  448TMC3    O1 6683   4.273   1.998  17.299 -0.2009  0.3144 -0.2088
  448TMC3    O2 6684   4.395   2.109  16.875 -0.7014  0.1592 -0.0595
  449MPD2     C 6685   1.133   1.216  13.897 -0.6773  0.1448 -0.4248
  449MPD2    C1 6686   1.144   1.242  13.762 -0.0204  0.0893 -0.2130
  449MPD2    C2 6687   1.176   1.139  13.677  0.2304  0.0398  1.3745
  449MPD2    C3 6688   1.205   1.009  13.717  0.2469 -0.1960  0.1747
  449MPD2    C4 6689   1.196   0.989  13.857 -0.3597  0.1991 -0.3931
  449MPD2    C5 6690   1.160   1.090  13.945  0.0024 -0.2819 -0.5606
  449MPD2     H 6691   1.181   1.171  13.573  0.0576 -1.5811  0.8740
  449MPD2    H1 6692   1.209   0.888  13.896 -3.2035  0.3759  1.0260
  449MPD2    H2 6693   1.099   1.296  13.963 -0.1505 -0.2787  0.3599
  449MPD2    H3 6694   1.146   1.057  14.048 -0.5139 -3.3272 -1.6168
  449MPD2     N 6695   1.236   0.915  13.621  0.0793 -0.3928  0.9688
  449MPD2    H5 6696   1.259   0.947  13.528  1.1349  0.4020  1.5085
  449MPD2    N1 6697   1.112   1.366  13.704  0.4865 -0.0406  0.5363
  449MPD2    H7 6698   1.105   1.363  13.602 -0.8242  0.5210  0.6156
  450TMC3    C1 6699   1.064   1.589  13.644  0.4400  0.5511  0.6651
  450TMC3    C2 6700   1.175   1.663  13.620 -0.1454 -0.0315  0.6433
  450TMC3    C3 6701   1.230   1.661  13.492  0.0951  0.6513  0.9189
  450TMC3    C4 6702   1.003   1.531  13.534  0.0143  0.1788 -0.0162
  450TMC3    C5 6703   1.052   1.528  13.405  0.1534  0.3090 -0.5873
  450TMC3    C6 6704   1.171   1.595  13.382 -0.3503  0.4631 -0.3934
  450TMC3     C 6705   1.084   1.491  13.755  0.2238  0.6447  0.3787
  450TMC3     O 6706   1.093   1.535  13.870 -0.6701  0.0711  0.3392
  450TMC3     H 6707   1.223   1.705  13.708  0.5907  1.1294 -0.3216
  450TMC3    H1 6708   0.915   1.470  13.552  1.3302 -2.1240 -1.3554
  450TMC3    H2 6709   1.201   1.607  13.278 -0.7141  1.4618 -0.3850
  450TMC3    C7 6710   1.044   1.395  13.356  0.4360  0.8509 -0.1400
  450TMC3    C8 6711   1.347   1.731  13.456 -0.4397 -1.2050  0.2747
  450TMC3    O1 6712   1.025   1.309  13.440 -0.4696  0.1686 -0.0794
  450TMC3    O2 6713   1.357   1.845  13.494  0.3724  0.2129  0.6664
  451MPD2     C 6714   2.778   0.371   0.768  0.1412  0.1214 -0.6367
  451MPD2    C1 6715   2.674   0.342   0.850  0.5043 -0.1676 -0.1645
  451MPD2    C2 6716   2.588   0.243   0.815 -0.2306  0.0064  0.5330
  451MPD2    C3 6717   2.619   0.155   0.706  0.9068 -0.3423  0.8186
  451MPD2    C4 6718   2.733   0.182   0.641 -0.1207  0.2499  0.2563
  451MPD2    C5 6719   2.805   0.290   0.662  0.0438 -0.4344  0.1161
  451MPD2     H 6720   2.502   0.223   0.878 -1.4084 -0.1767 -1.1383
  451MPD2    H1 6721   2.745   0.123   0.551  0.1798 -0.5963  0.8466
  451MPD2    H2 6722   2.841   0.458   0.778 -0.4574 -0.0746  5.1770
  451MPD2    H3 6723   2.888   0.311   0.596  0.3645  2.4507  1.4492
  451MPD2     N 6724   2.537   0.052   0.663  0.6895 -0.4376  0.1726
  451MPD2    H5 6725   2.557   4.718   0.579  0.0096 -1.6811  0.8008
  451MPD2    N1 6726   2.642   0.437   0.954 -0.4626 -0.3676 -0.2236
  451MPD2    H7 6727   2.701   0.519   0.961 -0.7313 -0.1479 -0.5559
  452TMC3    C1 6728   2.380   4.596   0.654 -0.4285 -1.2368  0.8891
  452TMC3    C2 6729   2.324   4.498   0.734  0.3754 -0.3972 -0.2944
  452TMC3    C3 6730   2.325   4.374   0.681  0.2938  0.0072 -0.5626
  452TMC3    C4 6731   2.424   4.576   0.528  0.5046  0.1764  0.3729
  452TMC3    C5 6732   2.407   4.451   0.474  0.4995 -0.2766  0.6330
  452TMC3    C6 6733   2.361   4.344   0.552  0.0075 -0.2730 -0.5444
  452TMC3     C 6734   2.436   4.712   0.732  0.2641  0.2845  0.1852
  452TMC3     O 6735   2.386   0.024   0.840  0.3775  1.3691 -0.3465
  452TMC3     H 6736   2.287   4.520   0.834 -0.5894 -1.7842 -0.3461
  452TMC3    H1 6737   2.440   4.662   0.464  0.5685  0.3876  0.6759
  452TMC3    H2 6738   2.372   4.245   0.511  0.0588  0.5215 -2.4273
  452TMC3    C7 6739   2.472   4.418   0.347  0.5974  0.8066  0.0885
  452TMC3    C8 6740   2.310   4.276   0.784 -0.1096 -0.2177  0.3990
  452TMC3    O1 6741   2.558   4.494   0.317 -0.2285  0.3479  0.4112
  452TMC3    O2 6742   2.275   4.311   0.898  0.0769  0.7085  0.6763
  453TMC3    C1 6743   3.926   1.679  11.160  0.4676  0.3740  0.6311
  453TMC3    C2 6744   3.821   1.628  11.230 -0.1265 -0.1626 -0.0889
  453TMC3    C3 6745   3.713   1.575  11.169 -0.2142  0.3369 -0.0480
  453TMC3    C4 6746   3.926   1.670  11.026 -0.0066  0.4100  0.4258
  453TMC3    C5 6747   3.817   1.619  10.961 -0.4760 -0.0731  0.0632
  453TMC3    C6 6748   3.706   1.583  11.034  0.8135  0.3615  0.1693
  453TMC3     C 6749   4.038   1.744  11.230  0.0213  0.1811 -0.3102
  453TMC3     O 6750   4.140   1.775  11.163 -0.0038  0.2001 -0.1668
  453TMC3     H 6751   3.808   1.643  11.337 -0.2511  0.8258 -0.2373
  453TMC3    H1 6752   3.992   1.734  10.969  1.3519 -1.9630 -0.6926
  453TMC3    H2 6753   3.617   1.543  10.986  0.1189 -1.1138  2.6647
  453TMC3    C7 6754   3.812   1.633  10.816 -0.3962 -0.2157  0.2220
  453TMC3    C8 6755   3.618   1.485  11.229  0.4892 -0.1091  0.1399
  453TMC3    O1 6756   3.904   1.690  10.758 -0.2354  0.2391 -0.2748
  453TMC3    O2 6757   3.516   1.456  11.168 -0.3304 -0.5491  0.3765
  454MPD2     C 6758   2.928   1.130  16.480  0.2155  0.1483  0.0394
  454MPD2    C1 6759   2.842   1.234  16.450  0.4305  0.5385  0.2139
  454MPD2    C2 6760   2.783   1.310  16.548 -0.4194  0.4864 -0.0347
  454MPD2    C3 6761   2.780   1.259  16.681  0.0563  0.7729 -0.3635
  454MPD2    C4 6762   2.860   1.147  16.709 -0.2048  0.6024  0.6921
  454MPD2    C5 6763   2.926   1.082  16.604 -0.0346 -0.2122 -0.6832
  454MPD2     H 6764   2.719   1.389  16.511 -0.1029  0.7113 -0.0989
  454MPD2    H1 6765   2.871   1.108  16.810  1.4000  0.1478  0.3572
  454MPD2    H2 6766   2.973   1.068  16.403 -0.6497  0.8110 -1.0132
  454MPD2    H3 6767   2.980   0.990  16.623  1.7020  1.0823  0.6282
  454MPD2     N 6768   2.711   1.315  16.794  0.8794  0.2907  0.8272
  454MPD2    H5 6769   2.739   1.280  16.885 -0.5182  0.0151  1.1493
  454MPD2    N1 6770   2.812   1.263  16.313 -0.0105  0.3868 -0.1447
  454MPD2    H7 6771   2.778   1.357  16.293  0.5488 -0.0023 -3.0502
  455TMC3    C1 6772   2.534   1.445  16.696 -0.0986  0.7559  0.5530
  455TMC3    C2 6773   2.475   1.568  16.693  0.2734 -0.0081 -0.9341
  455TMC3    C3 6774   2.358   1.585  16.620 -0.0161 -0.4912  0.8852
  455TMC3    C4 6775   2.482   1.334  16.627  0.2627  0.0428  0.3754
  455TMC3    C5 6776   2.369   1.358  16.551 -0.1181 -0.3273  0.0838
  455TMC3    C6 6777   2.310   1.481  16.543  0.4293  0.4919 -0.3422
  455TMC3     C 6778   2.628   1.423  16.804 -0.1241  0.3224  0.2778
  455TMC3     O 6779   2.613   1.500  16.900  0.0129 -0.2687 -0.1345
  455TMC3     H 6780   2.511   1.656  16.745  1.1270 -1.7297  1.3975
  455TMC3    H1 6781   2.516   1.233  16.649 -0.0141  0.2777  1.8746
  455TMC3    H2 6782   2.233   1.497  16.470  1.6922  0.4429 -1.6843
  455TMC3    C7 6783   2.328   1.267  16.447  0.3293  0.4829 -0.7726
  455TMC3    C8 6784   2.274   1.686  16.672  0.3315  0.4415 -0.1776
  455TMC3    O1 6785   2.221   1.289  16.397  0.1225 -0.2526  0.1952
  455TMC3    O2 6786   2.317   1.778  16.743  0.0626  0.1893 -0.1912
  456MPD2     C 6787   0.221   1.528  15.738 -0.2449 -0.9576  0.1841
  456MPD2    C1 6788   0.275   1.460  15.841  0.0318 -0.0079 -0.1872
  456MPD2    C2 6789   0.221   1.466  15.970 -1.2534 -0.3906 -0.3522
  456MPD2    C3 6790   0.101   1.535  15.984  0.3701  0.2115  0.1584
  456MPD2    C4 6791   0.037   1.582  15.878  0.6543  0.9241  0.4183
  456MPD2    C5 6792   0.107   1.593  15.759  0.1042  0.4545 -0.5387
  456MPD2     H 6793   0.276   1.435  16.058 -2.0694  0.8897  0.6110
  456MPD2    H1 6794   4.665   1.639  15.891  0.1474  0.1136  0.3944
  456MPD2    H2 6795   0.257   1.537  15.637  1.9797 -0.8823  0.9783
  456MPD2    H3 6796   0.058   1.640  15.675 -1.9460 -1.1871 -0.2499
  456MPD2     N 6797   0.060   1.550  16.118  0.2735  0.0332  0.3969
  456MPD2    H5 6798   0.123   1.510  16.187 -1.2380 -1.3164  1.0017
  456MPD2    N1 6799   0.410   1.407  15.810 -0.6210 -0.5957 -0.3106
  456MPD2    H7 6800   0.442   1.433  15.717 -1.7792  1.4372 -0.1375
  457TMC3    C1 6801   4.685   1.645  16.305  0.8320 -0.6635  0.2833
  457TMC3    C2 6802   4.678   1.768  16.354  0.2152 -0.1556  0.5729
  457TMC3    C3 6803   4.662   1.787  16.493 -0.1828  0.0263  0.8072
  457TMC3    C4 6804   4.662   1.539  16.385  0.5875  0.2700 -0.6888
  457TMC3    C5 6805   4.642   1.561  16.519 -0.6258 -0.0254 -0.9621
  457TMC3    C6 6806   4.650   1.683  16.580  0.6296 -0.0210 -0.0396
  457TMC3     C 6807   4.678   1.636  16.163  1.1896 -0.3935  0.0532
  457TMC3     O 6808   4.593   1.700  16.103  0.6686  0.1212 -0.0031
  457TMC3     H 6809   4.670   1.846  16.279  0.0526 -0.1029  0.6456
  457TMC3    H1 6810   4.639   1.440  16.348  2.1673 -0.0856 -0.7070
  457TMC3    H2 6811   4.641   1.684  16.688 -1.4425 -0.0394 -0.2194
  457TMC3    C7 6812   4.586   1.451  16.591  0.1436 -0.6556 -0.3118
  457TMC3    C8 6813   4.607   1.913  16.549 -0.0318 -0.3316  0.6840
  457TMC3    O1 6814   4.654   1.346  16.598 -0.6910  0.1951 -0.4603
  457TMC3    O2 6815   4.566   1.894  16.663 -0.8655 -0.2340 -0.0919
  458MPD2     C 6816   2.594   1.433  12.151  0.2829  0.0773  0.8273
  458MPD2    C1 6817   2.587   1.327  12.233 -0.3403 -0.0006  0.1562
  458MPD2    C2 6818   2.467   1.277  12.269  0.5500  0.9833 -1.0407
  458MPD2    C3 6819   2.354   1.320  12.203 -0.1763  0.1272  1.0156
  458MPD2    C4 6820   2.364   1.407  12.102  0.3722 -0.5116  0.1483
  458MPD2    C5 6821   2.483   1.469  12.083  0.1993  0.0029  0.8227
  458MPD2     H 6822   2.460   1.208  12.352 -1.7955  0.5703 -1.5797
  458MPD2    H1 6823   2.283   1.434  12.036 -0.5288  0.0419  1.4861
  458MPD2    H2 6824   2.687   1.483  12.124 -1.0871  2.3373  0.3039
  458MPD2    H3 6825   2.477   1.543  12.004 -0.0961 -1.0991 -0.2012
  458MPD2     N 6826   2.231   1.263  12.250 -0.5743  0.9114 -0.1257
  458MPD2    H5 6827   2.237   1.200  12.330  1.3719  1.6990  0.3714
  458MPD2    N1 6828   2.709   1.283  12.286 -0.0202  0.2399 -0.0460
  458MPD2    H7 6829   2.786   1.340  12.251  0.8165 -0.3531  0.8312
  459TMC3    C1 6830   2.872   1.168  12.407 -0.3612 -0.5818  0.7031
  459TMC3    C2 6831   2.961   1.221  12.315 -0.1716 -0.1279 -0.0520
  459TMC3    C3 6832   3.091   1.212  12.360  0.3916 -0.1146  0.7178
  459TMC3    C4 6833   2.894   1.135  12.535  0.7180  0.1714  1.3459
  459TMC3    C5 6834   3.021   1.148  12.577  0.3003 -0.2288 -0.0010
  459TMC3    C6 6835   3.121   1.184  12.495 -0.0249  0.2966 -0.1855
  459TMC3     C 6836   2.729   1.189  12.381 -0.9691  0.3840 -0.0008
  459TMC3     O 6837   2.651   1.123  12.449  0.3483 -0.5518  0.1215
  459TMC3     H 6838   2.937   1.242  12.211  0.9361 -3.2580 -0.9201
  459TMC3    H1 6839   2.818   1.121  12.611  0.4831 -2.8018  0.5938
  459TMC3    H2 6840   3.219   1.198  12.539  0.3491 -1.5634 -0.4472
  459TMC3    C7 6841   3.040   1.100  12.714 -0.6934  0.2505  0.1225
  459TMC3    C8 6842   3.194   1.269  12.278  0.2799  0.5331 -0.2995
  459TMC3    O1 6843   2.951   1.032  12.762  0.3873 -0.2614  0.2143
  459TMC3    O2 6844   3.313   1.241  12.299 -0.0482  0.0302  0.0715
  460MPD2     C 6845   2.382   3.352  10.828  0.1013  0.2122 -0.1596
  460MPD2    C1 6846   2.300   3.459  10.807  0.4319 -0.2462  0.5676
  460MPD2    C2 6847   2.263   3.495  10.677  0.0122 -0.0843 -0.5766
  460MPD2    C3 6848   2.298   3.412  10.567 -0.8078  0.3328 -0.1891
  460MPD2    C4 6849   2.374   3.305  10.586 -0.2731 -0.6108 -0.5966
  460MPD2    C5 6850   2.425   3.285  10.715  0.0241 -0.3809 -0.3240
  460MPD2     H 6851   2.211   3.590  10.676  0.9305  0.4243  3.2591
  460MPD2    H1 6852   2.412   3.238  10.511  0.6377  0.7082 -1.3173
  460MPD2    H2 6853   2.400   3.319  10.929  0.3573  1.4969  0.2211
  460MPD2    H3 6854   2.478   3.193  10.736  0.7981 -0.2629 -1.7606
  460MPD2     N 6855   2.251   3.452  10.439  0.2510  0.6981  0.8666
  460MPD2    H5 6856   2.201   3.540  10.433  1.2172  1.3668  2.6932
  460MPD2    N1 6857   2.261   3.520  10.930  0.2548 -0.0572 -0.4542
  460MPD2    H7 6858   2.276   3.466  11.015  2.0352 -0.5410 -1.0687
  461TMC3    C1 6859   2.240   3.444  10.197  0.2648  0.3610 -0.1871
  461TMC3    C2 6860   2.284   3.375  10.086  0.0936  0.0093  0.4632
  461TMC3    C3 6861   2.302   3.438   9.968  0.2627  0.4612 -0.2331
  461TMC3    C4 6862   2.221   3.583  10.205  0.2929 -0.4059  0.1876
  461TMC3    C5 6863   2.242   3.642  10.085  0.3951 -0.2662  0.5488
  461TMC3    C6 6864   2.276   3.569   9.967 -0.1007  0.1896 -0.4831
  461TMC3     C 6865   2.253   3.367  10.325  0.2595  0.0910 -0.1718
  461TMC3     O 6866   2.292   3.254  10.310  0.2292 -0.2608  0.4385
  461TMC3     H 6867   2.303   3.268  10.088 -1.1077 -0.2201  0.2013
  461TMC3    H1 6868   2.155   3.624  10.281  1.7007  2.5849 -0.2064
  461TMC3    H2 6869   2.295   3.631   9.880 -3.2595 -0.9095 -1.9624
  461TMC3    C7 6870   2.191   3.770  10.057  0.1291  0.1449 -0.5028
  461TMC3    C8 6871   2.310   3.343   9.857 -0.1152 -0.2676  0.2453
  461TMC3    O1 6872   2.180   3.811   9.942  0.0107  0.1808  0.0485
  461TMC3    O2 6873   2.384   3.243   9.862 -0.0224  0.0292 -0.0072
  462TMC3    C1 6874   1.533   3.637   0.636 -0.3675  0.1374 -0.1626
  462TMC3    C2 6875   1.624   3.678   0.534  0.2704  0.2347 -0.0266
  462TMC3    C3 6876   1.623   3.605   0.425  0.3435 -0.2683 -0.2099
  462TMC3    C4 6877   1.452   3.529   0.620  0.6420  0.5452 -0.1159
  462TMC3    C5 6878   1.465   3.455   0.501  0.7019 -1.1541 -0.4775
  462TMC3    C6 6879   1.551   3.489   0.401  0.1336 -0.0627 -0.3292
  462TMC3     C 6880   1.520   3.718   0.754  0.6349 -0.0863 -0.0317
  462TMC3     O 6881   1.480   3.665   0.857  0.0917 -0.2834  0.1508
  462TMC3     H 6882   1.694   3.760   0.548  0.3519  0.0188  0.8399
  462TMC3    H1 6883   1.381   3.502   0.697  0.2825  0.6957 -0.3923
  462TMC3    H2 6884   1.533   3.456   0.299  0.6565  0.1352 -0.4823
  462TMC3    C7 6885   1.373   3.343   0.476  0.3433  0.0416  0.6590
  462TMC3    C8 6886   1.678   3.670   0.316  0.2845  0.0396  0.4415
  462TMC3    O1 6887   1.327   3.324   0.363 -0.2925 -0.3144  0.0643
  462TMC3    O2 6888   1.684   3.792   0.319 -0.4389 -0.0284  0.2276
  463MPD2     C 6889   2.737   3.527   1.406 -0.2536 -0.8077  0.3456
  463MPD2    C1 6890   2.746   3.389   1.378  0.3990  0.0334 -0.1357
  463MPD2    C2 6891   2.862   3.342   1.324  0.2512  0.0837  0.1063
  463MPD2    C3 6892   2.968   3.435   1.298 -0.4344  0.7144 -0.0846
  463MPD2    C4 6893   2.948   3.568   1.332 -0.4810 -1.0277  0.5744
  463MPD2    C5 6894   2.832   3.616   1.384  0.3585  1.0600 -0.4586
  463MPD2     H 6895   2.867   3.238   1.294 -0.4817  0.9388 -2.9653
  463MPD2    H1 6896   3.036   3.631   1.327 -1.3346 -0.1126 -2.6802
  463MPD2    H2 6897   2.649   3.578   1.443 -0.0088 -0.7385  0.8403
  463MPD2    H3 6898   2.831   3.720   1.415 -2.4500  0.4187  1.5627
  463MPD2     N 6899   3.089   3.396   1.234 -0.2285 -0.3983 -0.6195
  463MPD2    H5 6900   3.157   3.470   1.221 -0.0489  0.1017  3.0073
  463MPD2    N1 6901   2.642   3.297   1.410  0.2819 -0.1358 -0.1934
  463MPD2    H7 6902   2.655   3.197   1.401  1.6558  0.2612 -2.6329
  464TMC3    C1 6903   2.431   3.210   1.481  0.5924 -0.3697 -0.5021
  464TMC3    C2 6904   2.298   3.223   1.464  0.4569 -0.2943  0.2334
  464TMC3    C3 6905   2.224   3.113   1.485 -0.3697 -0.4411 -0.4817
  464TMC3    C4 6906   2.489   3.091   1.526  0.7123 -0.1628 -0.0395
  464TMC3    C5 6907   2.406   2.981   1.535  0.8438 -1.1619 -0.2854
  464TMC3    C6 6908   2.272   2.988   1.512  0.0477  0.4640  0.0908
  464TMC3     C 6909   2.514   3.331   1.445 -0.4640 -0.0510  0.2149
  464TMC3     O 6910   2.460   3.437   1.467 -0.3298  0.2649  0.2367
  464TMC3     H 6911   2.253   3.315   1.430 -1.9347 -1.0851  1.2592
  464TMC3    H1 6912   2.593   3.083   1.555  0.9414 -1.8397 -1.3511
  464TMC3    H2 6913   2.218   2.896   1.492  1.0629 -0.1103 -0.0263
  464TMC3    C7 6914   2.459   2.857   1.591 -0.1399 -0.5043  0.4776
  464TMC3    C8 6915   2.106   3.113   1.399 -0.5323  0.7013  1.1910
  464TMC3    O1 6916   2.580   2.840   1.598 -0.0253  0.0197  0.2088
  464TMC3    O2 6917   2.116   3.172   1.291  0.1508  0.3200 -0.7221
  465MPD2     C 6918   4.080   2.343  16.722 -0.2076 -0.2250  0.5092
  465MPD2    C1 6919   4.010   2.239  16.774 -0.2735  0.1381 -0.1135
  465MPD2    C2 6920   3.962   2.146  16.689  0.3911 -0.5398  0.0632
  465MPD2    C3 6921   3.993   2.141  16.552 -0.8049  0.0156  0.6297
  465MPD2    C4 6922   4.084   2.231  16.503  0.3918  0.2708  0.4396
  465MPD2    C5 6923   4.115   2.337  16.588 -0.2179 -0.4473  0.6477
  465MPD2     H 6924   3.890   2.076  16.730 -2.6346  2.5746  0.1149
  465MPD2    H1 6925   4.121   2.223  16.401  2.5591 -0.8962  1.3414
  465MPD2    H2 6926   4.113   2.433  16.772 -1.4557 -0.2889  1.4492
  465MPD2    H3 6927   4.190   2.408  16.554 -0.5528 -0.2460  0.3331
  465MPD2     N 6928   3.932   2.038  16.476 -0.2320  0.1166 -0.5816
  465MPD2    H5 6929   3.886   1.958  16.516 -1.5071  2.6583  2.9891
  465MPD2    N1 6930   3.970   2.244  16.912 -0.3355  0.1825  0.2773
  465MPD2    H7 6931   3.900   2.182  16.951 -0.1694 -0.6977 -0.8003
  466TMC3    C1 6932   3.856   1.680  16.310  0.5972  0.4323 -0.2660
  466TMC3    C2 6933   3.778   1.689  16.196 -0.2889  0.2252 -0.1589
  466TMC3    C3 6934   3.761   1.803  16.128 -0.5489 -0.2729  0.6353
  466TMC3    C4 6935   3.926   1.789  16.355  0.4606 -0.5531 -0.3398
  466TMC3    C5 6936   3.896   1.907  16.288 -0.8092  0.3759 -0.0608
  466TMC3    C6 6937   3.812   1.919  16.182  0.1486  0.0940 -0.1611
  466TMC3     C 6938   3.787   1.614  16.420 -0.7494 -0.2794 -0.1834
  466TMC3     O 6939   3.847   1.590  16.524 -0.1134 -0.6204  0.1495
  466TMC3     H 6940   3.718   1.608  16.156  0.9464 -0.4639 -0.6561
  466TMC3    H1 6941   4.003   1.779  16.430  0.9736 -1.1126 -0.9399
  466TMC3    H2 6942   3.806   2.014  16.131 -1.4945 -0.5641 -1.2036
  466TMC3    C7 6943   3.945   2.037  16.344 -0.3910  0.4737 -0.2450
  466TMC3    C8 6944   3.640   1.807  16.050  0.5938 -0.5742  0.1364
  466TMC3    O1 6945   3.967   2.127  16.260  0.1123 -0.3569  0.3797
  466TMC3    O2 6946   3.613   1.719  15.970  0.3216 -0.1337  0.3378
  467TMC3    C1 6947   0.080   0.216  13.529 -0.0809 -0.2531 -0.4223
  467TMC3    C2 6948   0.003   0.300  13.449  0.0442 -1.2016  0.2052
  467TMC3    C3 6949   4.586   0.291  13.454 -0.2312  0.0249  0.3337
  467TMC3    C4 6950   0.025   0.153  13.636  0.3252 -0.3299 -1.0096
  467TMC3    C5 6951   4.605   0.156  13.640 -0.3250 -0.5511  0.5561
  467TMC3    C6 6952   4.528   0.210  13.547  0.6862  0.1170 -0.1444
  467TMC3     C 6953   0.225   0.237  13.531 -0.1379  0.6054  1.0560
  467TMC3     O 6954   0.286   0.208  13.636 -0.6200 -0.2437 -0.1574
  467TMC3     H 6955   0.053   0.352  13.369  1.3654 -1.1931  1.0292
  467TMC3    H1 6956   0.090   0.100  13.705  1.0841  1.8992 -0.0164
  467TMC3    H2 6957   4.420   0.217  13.553  0.7511 -0.1816  1.2837
  467TMC3    C7 6958   4.546   0.056  13.721 -0.3903 -0.0201 -0.0424
  467TMC3    C8 6959   4.508   0.333  13.344 -0.4155 -0.5747  0.8843
  467TMC3    O1 6960   4.629   4.704  13.778 -0.4149 -0.1943 -0.3357
  467TMC3    O2 6961   4.407   0.277  13.308  0.0649 -0.2496 -0.4652
  468MPD2     C 6962   4.657   3.500  10.645  0.2904  0.5978  0.5546
  468MPD2    C1 6963   4.658   3.497  10.789 -0.5022 -0.0434  0.1439
  468MPD2    C2 6964   4.643   3.376  10.850 -0.4504 -0.3209 -0.5035
  468MPD2    C3 6965   4.613   3.258  10.784 -0.1190 -0.9135 -0.6255
  468MPD2    C4 6966   4.609   3.267  10.646  0.4436 -0.8210 -0.3790
  468MPD2    C5 6967   4.631   3.385  10.575  0.2369 -0.2668  0.0951
  468MPD2     H 6968   4.664   3.376  10.956 -0.7214  0.8552 -0.4545
  468MPD2    H1 6969   4.582   3.179  10.589  1.1423 -1.5304  0.3684
  468MPD2    H2 6970   4.660   3.588  10.583 -0.9129 -0.9419 -1.6551
  468MPD2    H3 6971   4.620   3.395  10.467 -0.1024 -0.2984  0.1260
  468MPD2     N 6972   4.593   3.131  10.847  0.2685  0.3241 -0.7609
  468MPD2    H5 6973   4.580   3.054  10.782 -2.7723 -0.5337  0.8720
  468MPD2    N1 6974   4.679   3.611  10.878 -0.7638 -0.0686  0.0138
  468MPD2    H7 6975   4.694   3.602  10.978 -5.1829  1.0492  0.7907
  469TMC3    C1 6976   4.689   3.838  10.924  0.0280 -0.7376 -0.3775
  469TMC3    C2 6977   0.030   3.811  11.042  0.2221 -0.1843 -0.5184
  469TMC3    C3 6978   0.010   3.898  11.140  0.2958  0.2541 -0.6998
  469TMC3    C4 6979   4.624   3.957  10.898  0.1466  1.1523  0.1034
  469TMC3    C5 6980   4.621   4.046  11.003 -0.0296  0.0857  0.0783
  469TMC3    C6 6981   4.657   4.016  11.133 -0.1406 -0.9179 -0.0625
  469TMC3     C 6982   4.663   3.735  10.829 -0.5181 -0.2385  0.1019
  469TMC3     O 6983   4.634   3.769  10.717  0.0199  0.6708  0.2931
  469TMC3     H 6984   0.092   3.722  11.056  1.1257  0.5894  0.4550
  469TMC3    H1 6985   4.601   3.979  10.794 -2.3010  0.0842  0.4261
  469TMC3    H2 6986   4.669   4.090  11.212 -0.5247 -1.7431  0.7765
  469TMC3    C7 6987   4.549   4.166  10.981  0.0425  0.0226 -0.1365
  469TMC3    C8 6988   0.064   3.862  11.263 -0.3248  0.0424  0.2310
  469TMC3    O1 6989   4.530   4.210  10.867  0.3030  0.2612 -0.0019
  469TMC3    O2 6990   0.171   3.795  11.265  0.3801  0.4265 -0.3555
  470TMC3    C1 6991   1.945   4.124   0.785 -1.0916  0.1524 -0.5609
  470TMC3    C2 6992   1.918   4.250   0.748  0.1049 -0.5028  0.1680
  470TMC3    C3 6993   1.880   4.335   0.850  0.4149  0.0129 -0.6921
  470TMC3    C4 6994   1.946   4.080   0.917  0.1538  0.5988  0.1560
  470TMC3    C5 6995   1.933   4.178   1.014  0.0989 -0.2710  0.1713
  470TMC3    C6 6996   1.894   4.306   0.981  0.3656 -0.6421  0.2265
  470TMC3     C 6997   1.952   4.027   0.679  0.4820  0.0920  0.3990
  470TMC3     O 6998   1.964   4.067   0.563  0.2225 -0.0545 -0.1485
  470TMC3     H 6999   1.921   4.288   0.646 -0.6709 -0.6562  0.0873
  470TMC3    H1 7000   1.966   3.981   0.956  2.6545  0.5660 -1.2162
  470TMC3    H2 7001   1.848   4.362   1.061  0.5264  0.9283 -0.7935
  470TMC3    C7 7002   1.942   4.138   1.152 -0.4703  0.4029 -0.3028
  470TMC3    C8 7003   1.826   4.466   0.825  0.2497  0.0643  0.2794
  470TMC3    O1 7004   1.913   4.019   1.173 -0.0921 -0.0067 -0.2065
  470TMC3    O2 7005   1.839   4.548   0.915 -0.0051  0.1690 -0.2764
  471MPD2     C 7006   1.927   0.815  16.831  0.1208 -0.0641  0.9234
  471MPD2    C1 7007   1.919   0.674  16.844  0.0872  0.2885 -0.0604
  471MPD2    C2 7008   1.986   0.616  16.951  0.3112  0.5517  0.4344
  471MPD2    C3 7009   2.054   0.691  17.039 -0.1699 -0.2099  0.4340
  471MPD2    C4 7010   2.063   0.828  17.027  0.4393  0.8144 -0.4899
  471MPD2    C5 7011   2.004   0.890  16.915  0.6024  0.0087  1.0944
  471MPD2     H 7012   1.981   0.508  16.959  0.3718  0.3280 -2.5805
  471MPD2    H1 7013   2.119   0.871  17.109  1.1574  1.0220 -1.0885
  471MPD2    H2 7014   1.880   0.870  16.751  2.8211  1.1738  0.1729
  471MPD2    H3 7015   2.020   0.995  16.895 -0.3222  0.2034  1.3852
  471MPD2     N 7016   2.107   0.634  17.160  0.2317  0.9547 -0.0138
  471MPD2    H5 7017   2.171   0.683  17.221 -1.2574  0.7038  1.7394
  471MPD2    N1 7018   1.843   0.594  16.755  0.3121  0.4060 -0.2078
  471MPD2    H7 7019   1.838   0.495  16.779  3.5411  1.0322  3.0048
  472TMC3    C1 7020   1.674   0.543  16.594 -0.6323 -0.4266  0.1639
  472TMC3    C2 7021   1.601   0.592  16.485 -0.3099 -0.4935  0.2494
  472TMC3    C3 7022   1.495   0.508  16.451  0.2921  0.2593 -0.1832
  472TMC3    C4 7023   1.640   0.429  16.657  0.1366  0.3538  0.4478
  472TMC3    C5 7024   1.529   0.359  16.620 -0.2195  0.5247 -0.3095
  472TMC3    C6 7025   1.458   0.390  16.510  0.2896  0.0423  0.0063
  472TMC3     C 7026   1.771   0.637  16.651  0.6370  0.0792  0.1414
  472TMC3     O 7027   1.786   0.740  16.587  0.0666 -0.8063 -0.4192
  472TMC3     H 7028   1.634   0.680  16.431 -0.4942 -0.1920  0.6357
  472TMC3    H1 7029   1.689   0.395  16.747  0.5738  0.4559  0.2505
  472TMC3    H2 7030   1.392   0.317  16.464 -0.1836  0.7635 -0.4643
  472TMC3    C7 7031   1.501   0.235  16.689 -0.2141  0.0724  0.0404
  472TMC3    C8 7032   1.419   0.537  16.330  0.1936 -0.0586 -0.7464
  472TMC3    O1 7033   1.568   0.208  16.783 -0.0364 -0.4443  0.8813
  472TMC3    O2 7034   1.479   0.557  16.229  0.6503 -0.0359  0.3809
  473MPD2     C 7035   1.107   2.793  14.115 -1.2475 -0.0612  0.8358
  473MPD2    C1 7036   1.212   2.836  14.036  0.2843 -0.2557  0.2607
  473MPD2    C2 7037   1.322   2.887  14.097 -0.2363 -0.0370 -0.4034
  473MPD2    C3 7038   1.317   2.914  14.235  0.0692  0.2504  0.0180
  473MPD2    C4 7039   1.212   2.863  14.311 -0.0385 -0.2961 -0.1035
  473MPD2    C5 7040   1.105   2.809  14.249  0.0139 -0.0899 -0.1285
  473MPD2     H 7041   1.402   2.934  14.041  1.6553 -0.4561  1.9460
  473MPD2    H1 7042   1.213   2.865  14.420 -0.0111  2.8640 -0.1512
  473MPD2    H2 7043   1.019   2.748  14.072  0.7223 -0.2109 -2.9731
  473MPD2    H3 7044   1.021   2.767  14.303  0.5623 -1.3444 -0.2563
  473MPD2     N 7045   1.419   2.989  14.301  0.2905 -0.3694 -0.3713
  473MPD2    H5 7046   1.404   3.003  14.401  1.1115 -0.8016 -0.1894
  473MPD2    N1 7047   1.213   2.838  13.897  0.0038 -0.5751  0.3455
  473MPD2    H7 7048   1.300   2.878  13.863 -1.1522  3.3133  1.9873
  474TMC3    C1 7049   1.595   3.147  14.319 -0.4087 -0.5827 -0.3096
  474TMC3    C2 7050   1.516   3.254  14.350 -0.5395 -0.3395 -0.3596
  474TMC3    C3 7051   1.584   3.363  14.398  0.6292  0.0780  0.0686
  474TMC3    C4 7052   1.726   3.144  14.355  0.1733  0.0077  0.5417
  474TMC3    C5 7053   1.780   3.243  14.422  0.0034 -0.0159  0.3929
  474TMC3    C6 7054   1.716   3.362  14.442 -0.2753 -0.1291 -0.0219
  474TMC3     C 7055   1.538   3.033  14.249 -0.4610 -0.0400  0.5811
  474TMC3     O 7056   1.598   2.984  14.154  0.2042 -0.0567  0.2659
  474TMC3     H 7057   1.422   3.271  14.300 -1.2055 -0.3865  0.8763
  474TMC3    H1 7058   1.783   3.060  14.317 -0.9288  0.1144 -1.3335
  474TMC3    H2 7059   1.775   3.449  14.472 -2.4656  0.7794  1.6342
  474TMC3    C7 7060   1.923   3.229  14.447  0.5815 -0.9313  0.1048
  474TMC3    C8 7061   1.526   3.496  14.381  0.2646  0.2751  0.0899
  474TMC3    O1 7062   2.003   3.176  14.371 -0.0839  0.3831  0.0375
  474TMC3    O2 7063   1.406   3.492  14.369 -0.0162 -0.2972  0.4688
  475MPD2     C 7064   0.772   0.853   9.710  0.3399  0.6596  0.0314
  475MPD2    C1 7065   0.786   0.991   9.690 -0.6832  0.0018  0.3317
  475MPD2    C2 7066   0.674   1.068   9.702  0.2478  0.9623  0.3262
  475MPD2    C3 7067   0.558   1.006   9.753  0.4906 -0.0498  0.1988
  475MPD2    C4 7068   0.544   0.868   9.765 -0.4271 -0.3961 -0.0815
  475MPD2    C5 7069   0.656   0.796   9.740  0.0359  0.6057 -0.1204
  475MPD2     H 7070   0.676   1.176   9.696 -2.2993  0.9233 -1.2473
  475MPD2    H1 7071   0.462   0.811   9.808  0.3259 -1.9944 -0.7692
  475MPD2    H2 7072   0.855   0.787   9.686 -1.2792 -1.1806 -0.4157
  475MPD2    H3 7073   0.650   0.688   9.748 -1.8448  0.7124  0.1026
  475MPD2     N 7074   0.442   1.096   9.765  0.1319  0.7944  0.0849
  475MPD2    H5 7075   0.446   1.197   9.752 -0.9989  0.6074 -1.6569
  475MPD2    N1 7076   0.913   1.034   9.661  0.3200  0.0302  0.3945
  475MPD2    H7 7077   0.989   0.968   9.646 -0.2880 -0.4372 -0.6699
  476TMC3    C1 7078   1.083   1.196   9.666  0.1996  0.0205  0.1876
  476TMC3    C2 7079   1.104   1.173   9.532  0.2078 -0.2184  0.0278
  476TMC3    C3 7080   1.126   1.278   9.447  0.7562 -0.5847 -0.2630
  476TMC3    C4 7081   1.108   1.312   9.727  0.1395 -0.4135  0.6528
  476TMC3    C5 7082   1.149   1.414   9.642  0.2633  0.0246 -0.1589
  476TMC3    C6 7083   1.162   1.400   9.505 -0.6134 -0.1475 -0.3270
  476TMC3     C 7084   0.956   1.150   9.715 -0.1504 -0.6463 -0.8239
  476TMC3     O 7085   0.909   1.226   9.799 -0.3810  0.2568 -0.3636
  476TMC3     H 7086   1.087   1.077   9.484 -0.3000 -0.1404  0.0510
  476TMC3    H1 7087   1.096   1.322   9.834 -1.0757 -0.9976  0.5664
  476TMC3    H2 7088   1.179   1.491   9.448  1.8514 -0.4705 -0.0899
  476TMC3    C7 7089   1.241   1.510   9.696  0.6028 -0.0948  0.3216
  476TMC3    C8 7090   1.033   1.299   9.339  0.2969  0.7586 -0.7264
  476TMC3    O1 7091   1.301   1.576   9.614  0.4532 -0.7778  0.3875
  476TMC3    O2 7092   1.041   1.402   9.273  0.6476 -0.0704 -0.7747
  477MPD2     C 7093   2.704   2.967  12.103  0.3255  0.2248  0.5914
  477MPD2    C1 7094   2.694   2.891  11.993 -0.3264 -1.1011  0.5601
  477MPD2    C2 7095   2.740   2.757  11.995  0.0067 -0.8185 -0.3602
  477MPD2    C3 7096   2.801   2.702  12.107  0.4847 -0.5986  0.1731
  477MPD2    C4 7097   2.805   2.782  12.216  0.5964  0.2817 -0.3156
  477MPD2    C5 7098   2.756   2.910  12.217  0.0680 -0.6048  0.4016
  477MPD2     H 7099   2.745   2.698  11.905  0.6827  0.9538 -1.4685
  477MPD2    H1 7100   2.843   2.748  12.311 -2.1141 -0.3958  0.5389
  477MPD2    H2 7101   2.656   3.064  12.112  0.0603  0.2343 -0.8256
  477MPD2    H3 7102   2.774   2.963  12.309 -3.6339  2.5921 -0.7496
  477MPD2     N 7103   2.838   2.562  12.114 -0.1398 -0.5157  0.5979
  477MPD2    H5 7104   2.837   2.509  12.027  0.7655  0.2163  0.1362
  477MPD2    N1 7105   2.601   2.937  11.896  0.3027 -0.4967 -0.1773
  477MPD2    H7 7106   2.568   3.032  11.902 -0.7527 -1.1193  3.7425
  478TMC3    C1 7107   2.506   2.968  11.690 -0.0990  0.1974  0.7712
  478TMC3    C2 7108   2.415   3.060  11.736 -0.5660  0.3997 -0.8074
  478TMC3    C3 7109   2.392   3.160  11.644  0.2698 -0.7574  0.0276
  478TMC3    C4 7110   2.527   2.947  11.555  0.0624 -0.1655  0.2136
  478TMC3    C5 7111   2.469   3.034  11.466 -0.4842 -0.1667 -0.2310
  478TMC3    C6 7112   2.423   3.148  11.510 -0.7520 -0.2565 -0.2442
  478TMC3     C 7113   2.567   2.877  11.778 -0.1377  0.6060  0.4695
  478TMC3     O 7114   2.597   2.767  11.733 -0.0222  0.5198  0.8983
  478TMC3     H 7115   2.383   3.067  11.839  0.3086  0.2030 -0.5192
  478TMC3    H1 7116   2.585   2.860  11.524 -2.6285 -1.5796 -0.8478
  478TMC3    H2 7117   2.407   3.229  11.441 -1.3619 -1.1013 -1.0981
  478TMC3    C7 7118   2.491   3.009  11.322  0.4954 -0.3828 -0.2180
  478TMC3    C8 7119   2.440   3.285  11.700  0.4734  0.5543  0.4087
  478TMC3    O1 7120   2.590   2.951  11.286  0.5159 -0.6716 -0.4787
  478TMC3    O2 7121   2.545   3.270  11.762 -0.4083  0.1429  0.4286
  479MPD2     C 7122   1.437   4.694  15.341  0.6398 -0.0912 -0.0001
  479MPD2    C1 7123   1.373   4.680  15.459 -0.4717 -0.7379 -0.0026
  479MPD2    C2 7124   1.384   0.051  15.562 -0.7209  0.7810  0.2582
  479MPD2    C3 7125   1.485   0.149  15.546  0.1158  0.2052 -0.7690
  479MPD2    C4 7126   1.567   0.143  15.437 -0.4298 -0.0018  0.8524
  479MPD2    C5 7127   1.539   0.066  15.329 -0.3722 -0.1236 -0.1447
  479MPD2     H 7128   1.319   0.043  15.649  3.7612  1.8445  3.7497
  479MPD2    H1 7129   1.651   0.211  15.432  1.3745 -2.3173 -0.5669
  479MPD2    H2 7130   1.419   4.620  15.263 -2.4125  0.6410  0.0050
  479MPD2    H3 7131   1.609   0.068  15.247  1.6069 -2.8956  1.4781
  479MPD2     N 7132   1.519   0.254  15.640  0.4854  0.5277 -0.4794
  479MPD2    H5 7133   1.599   0.312  15.618 -0.6307  3.6691  3.6315
  479MPD2    N1 7134   1.261   4.590  15.450  0.9405  0.5725 -0.1527
  479MPD2    H7 7135   1.250   4.535  15.365  0.5082  0.6852 -0.1696
  480TMC3    C1 7136   1.138   0.151  15.901  0.0126 -0.2114 -0.0875
  480TMC3    C2 7137   1.042   0.181  15.805 -0.2542  0.0563  0.5180
  480TMC3    C3 7138   1.078   0.244  15.698  0.2807  0.2129 -0.1244
  480TMC3    C4 7139   1.268   0.192  15.889  0.0046 -0.0452 -0.2106
  480TMC3    C5 7140   1.303   0.258  15.772 -0.2266  0.0927 -0.0170
  480TMC3    C6 7141   1.212   0.283  15.674 -0.2181  0.0278  0.1571
  480TMC3     C 7142   1.097   0.076  16.016  0.4106 -0.3774 -0.1144
  480TMC3     O 7143   0.996   0.008  16.010 -0.1631 -0.4856 -0.0037
  480TMC3     H 7144   0.936   0.164  15.818 -0.0202 -0.2305  2.1134
  480TMC3    H1 7145   1.343   0.156  15.959  0.8718 -0.6956 -1.4757
  480TMC3    H2 7146   1.240   0.360  15.603 -1.6111 -1.2110 -1.7227
  480TMC3    C7 7147   1.445   0.302  15.750 -0.2649 -0.2575  0.1575
  480TMC3    C8 7148   1.006   0.220  15.575 -0.1845 -0.8605  0.7621
  480TMC3    O1 7149   1.492   0.364  15.844  0.0715 -0.4279  0.5695
  480TMC3    O2 7150   0.890   0.197  15.588  0.2477  0.0913 -0.2240
  481MPD2     C 7151   3.015   3.850  14.196  0.3062  0.4645 -0.6406
  481MPD2    C1 7152   2.955   3.960  14.259  0.0434 -0.4894 -0.3138
  481MPD2    C2 7153   2.955   3.969  14.398 -0.1087  0.1405  0.1445
  481MPD2    C3 7154   3.009   3.862  14.470  0.0302  0.0975 -0.2136
  481MPD2    C4 7155   3.082   3.758  14.412 -0.2069  0.1897 -0.7539
  481MPD2    C5 7156   3.075   3.753  14.272 -0.1097  0.6768  0.3759
  481MPD2     H 7157   2.905   4.054  14.442 -1.4038 -1.6629  2.1660
  481MPD2    H1 7158   3.138   3.683  14.467 -2.1042 -1.7433 -1.4811
  481MPD2    H2 7159   3.026   3.839  14.089 -1.2258  0.3376 -0.7853
  481MPD2    H3 7160   3.129   3.672  14.224 -2.0851 -2.0529  2.7384
  481MPD2     N 7161   3.008   3.861  14.610  0.0349  0.7556  0.0479
  481MPD2    H5 7162   3.073   3.802  14.661 -0.4545 -0.3491 -0.6027
  481MPD2    N1 7163   2.887   4.051  14.174  0.7857  0.1638  0.0513
  481MPD2    H7 7164   2.870   4.023  14.078  1.2985  1.4560 -0.4093
  482TMC3    C1 7165   2.711   4.209  14.134 -0.1102  0.2924 -0.3130
  482TMC3    C2 7166   2.651   4.118  14.046 -0.0714  0.3098  0.1542
  482TMC3    C3 7167   2.547   4.164  13.972 -0.8146  0.2865  0.2597
  482TMC3    C4 7168   2.674   4.339  14.136 -0.2444  0.3880 -0.0999
  482TMC3    C5 7169   2.563   4.380  14.065  0.5527  0.8899 -0.8083
  482TMC3    C6 7170   2.496   4.295  13.979  0.0882 -0.9443 -0.3457
  482TMC3     C 7171   2.818   4.166  14.213  0.3073  0.2135  0.2947
  482TMC3     O 7172   2.856   4.240  14.300 -0.0187  0.0737  0.1554
  482TMC3     H 7173   2.675   4.012  14.043 -1.3419 -0.0317  2.4889
  482TMC3    H1 7174   2.736   4.406  14.194 -2.0117  1.2958  0.7369
  482TMC3    H2 7175   2.416   4.330  13.914  0.6618 -2.9478 -2.1662
  482TMC3    C7 7176   2.567   4.518  14.008 -0.4289 -0.0731 -0.3882
  482TMC3    C8 7177   2.480   4.062  13.899  0.3624 -0.3234  0.1605
  482TMC3    O1 7178   2.551   4.616  14.077 -0.2421 -0.4414 -0.1735
  482TMC3    O2 7179   2.533   3.953  13.899 -0.2295  0.3315 -0.1420
  483TMC3    C1 7180   0.319   3.184   1.237  0.5510 -0.0538 -0.3382
  483TMC3    C2 7181   0.346   3.156   1.105 -0.7080 -0.0783  0.2906
  483TMC3    C3 7182   0.469   3.194   1.056 -0.3234 -0.2181  0.3478
  483TMC3    C4 7183   0.409   3.227   1.329  0.8933 -0.6988 -0.1008
  483TMC3    C5 7184   0.531   3.263   1.267  0.1385  0.4577  0.1055
  483TMC3    C6 7185   0.563   3.250   1.132 -0.5994 -0.1242  0.4014
  483TMC3     C 7186   0.192   3.150   1.293  0.4955  0.4468  0.3564
  483TMC3     O 7187   0.159   3.219   1.387  0.1523  0.0849  0.8351
  483TMC3     H 7188   0.261   3.127   1.045 -1.0677 -0.2489  0.8855
  483TMC3    H1 7189   0.397   3.224   1.437 -2.8925  0.5131 -0.5016
  483TMC3    H2 7190   0.658   3.277   1.088  0.7794 -1.7269  2.3759
  483TMC3    C7 7191   0.652   3.245   1.350  0.7193 -0.3337 -0.7515
  483TMC3    C8 7192   0.491   3.200   0.914 -0.1028  0.7828 -0.3720
  483TMC3    O1 7193   0.738   3.180   1.294 -0.1802 -0.7073  0.1975
  483TMC3    O2 7194   0.612   3.193   0.885 -0.0241  0.0498 -0.0608
  484MPD2     C 7195   3.127   1.489  11.992 -0.0936  0.4675 -0.1369
  484MPD2    C1 7196   3.211   1.420  12.074 -0.0031  0.0565  0.9740
  484MPD2    C2 7197   3.349   1.417  12.062 -0.1968 -0.8035 -0.0978
  484MPD2    C3 7198   3.401   1.488  11.958  0.4491  0.6808 -0.3905
  484MPD2    C4 7199   3.323   1.552  11.872 -0.1144 -0.2241  0.4171
  484MPD2    C5 7200   3.186   1.552  11.890 -0.4353  0.8518  0.2049
  484MPD2     H 7201   3.409   1.375  12.142  0.3667  2.1125  1.0122
  484MPD2    H1 7202   3.360   1.594  11.780 -1.8006 -0.5882 -0.4342
  484MPD2    H2 7203   3.019   1.493  11.991 -0.1838 -1.5077  0.3519
  484MPD2    H3 7204   3.120   1.609  11.825  0.9286  1.6267 -0.5060
  484MPD2     N 7205   3.537   1.479  11.918 -0.2026 -0.1744  0.0392
  484MPD2    H5 7206   3.578   1.537  11.846  1.9074 -1.2437  0.3527
  484MPD2    N1 7207   3.143   1.355  12.183 -0.1789 -0.7414  0.1101
  484MPD2    H7 7208   3.048   1.391  12.190 -0.7829 -1.7476 -2.9910
  485TMC3    C1 7209   3.757   1.419  11.926  0.2458  0.3147  0.6872
  485TMC3    C2 7210   3.867   1.384  12.005 -0.6841  0.2871 -0.9098
  485TMC3    C3 7211   3.989   1.442  11.980  0.0242 -0.2428 -0.4276
  485TMC3    C4 7212   3.780   1.491  11.811 -0.8079  0.2245  0.2001
  485TMC3    C5 7213   3.906   1.543  11.788 -0.0918  0.3749  0.9027
  485TMC3    C6 7214   4.007   1.535  11.878 -0.7111 -0.2562 -0.3472
  485TMC3     C 7215   3.627   1.397  11.979  0.7090  0.1455 -0.1275
  485TMC3     O 7216   3.615   1.328  12.081  0.1671  0.3046 -0.6954
  485TMC3     H 7217   3.862   1.307  12.081  0.8046  0.4466 -0.6488
  485TMC3    H1 7218   3.712   1.497  11.727  2.0760 -1.0126 -2.2247
  485TMC3    H2 7219   4.103   1.581  11.862 -0.0400 -1.9361 -1.0944
  485TMC3    C7 7220   3.953   1.516  11.652 -0.1065 -0.3966  0.1462
  485TMC3    C8 7221   4.105   1.359  11.994  0.1153  0.5122  0.1087
  485TMC3    O1 7222   3.876   1.524  11.558 -0.2917 -0.1607  0.7666
  485TMC3    O2 7223   4.172   1.359  11.892 -0.0172  0.0108 -0.0664
  486MPD2     C 7224   1.139   0.340  12.455 -0.2102  0.0883 -0.5880
  486MPD2    C1 7225   1.040   0.290  12.372 -0.4389  0.0993  0.5800
  486MPD2    C2 7226   0.938   0.370  12.327 -0.2013 -0.1210  0.4268
  486MPD2    C3 7227   0.945   0.507  12.356 -0.1443 -0.0482 -0.3628
  486MPD2    C4 7228   1.050   0.561  12.429  0.2763 -0.5787  0.4133
  486MPD2    C5 7229   1.146   0.477  12.476 -0.4835 -0.1520  0.7467
  486MPD2     H 7230   0.853   0.334  12.271 -0.2338  0.3499  0.1702
  486MPD2    H1 7231   1.053   0.661  12.471  0.8106 -0.9370  1.2236
  486MPD2    H2 7232   1.224   0.283  12.489 -0.7538 -2.0476 -2.7687
  486MPD2    H3 7233   1.222   0.507  12.546  0.0341  0.9811 -0.3042
  486MPD2     N 7234   0.840   0.592  12.300  0.6271  0.6776  0.0263
  486MPD2    H5 7235   0.786   0.545  12.228 -2.1241 -0.0522  2.5575
  486MPD2    N1 7236   1.036   0.149  12.360 -0.2368  0.9063 -0.2037
  486MPD2    H7 7237   1.119   0.105  12.399  0.0647  1.4086 -0.2826
  487TMC3    C1 7238   0.986   4.644  12.308  0.5109 -0.5000 -0.1353
  487TMC3    C2 7239   0.945   4.551  12.214  0.5065  0.3200 -0.3114
  487TMC3    C3 7240   0.978   4.422  12.236 -0.8847 -0.4354 -0.5444
  487TMC3    C4 7241   1.032   4.608  12.434  0.1374  0.5146 -0.7885
  487TMC3    C5 7242   1.045   4.474  12.462  0.0705  0.9645 -0.2639
  487TMC3    C6 7243   1.019   4.377  12.364  0.2362  0.4381  0.2308
  487TMC3     C 7244   0.951   0.061  12.301 -0.4465 -0.4725  0.3497
  487TMC3     O 7245   0.862   0.093  12.226 -0.3554  0.4798 -0.1904
  487TMC3     H 7246   0.897   4.569  12.118  0.5404  3.8703  0.3293
  487TMC3    H1 7247   1.025   4.684  12.511 -2.5942  1.6952 -2.1924
  487TMC3    H2 7248   1.007   4.274  12.395  0.5031  1.3470  3.3150
  487TMC3    C7 7249   1.019   4.453  12.605 -0.3411  0.3054 -0.3473
  487TMC3    C8 7250   0.873   4.332  12.198 -0.4025 -0.3969  0.1401
  487TMC3    O1 7251   1.019   4.549  12.684 -1.1913 -0.4516  0.4370
  487TMC3    O2 7252   0.908   4.247  12.116 -0.9873  0.1282  0.1359
  488MPD2     C 7253   0.391   1.731  16.255  0.1808 -1.3403 -0.4783
  488MPD2    C1 7254   0.400   1.866  16.259  0.2138 -0.4921  0.5990
  488MPD2    C2 7255   0.334   1.933  16.364 -0.4525 -0.3773  0.3011
  488MPD2    C3 7256   0.275   1.862  16.462  0.5419 -0.2003 -0.1666
  488MPD2    C4 7257   0.274   1.722  16.455  0.3166 -0.5187 -0.0975
  488MPD2    C5 7258   0.326   1.659  16.349 -0.1664  0.1391 -1.1291
  488MPD2     H 7259   0.337   2.042  16.366  0.7202 -0.4248  1.0476
  488MPD2    H1 7260   0.232   1.655  16.529  0.0468 -0.3050 -0.0565
  488MPD2    H2 7261   0.445   1.675  16.179  2.1423 -0.3733  0.2241
  488MPD2    H3 7262   0.322   1.551  16.351  1.7370  0.0597 -1.7738
  488MPD2     N 7263   0.227   1.927  16.579 -0.1380  0.5045 -0.3425
  488MPD2    H5 7264   0.209   1.870  16.662  0.5999 -3.0985 -2.6684
  488MPD2    N1 7265   0.480   1.942  16.171  0.4588  0.1143  0.0328
  488MPD2    H7 7266   0.485   2.041  16.193  1.1050  0.2880 -0.9150
  489TMC3    C1 7267   0.203   2.120  16.720 -0.1898  0.0157  0.4277
  489TMC3    C2 7268   0.285   2.224  16.747 -0.0860 -0.0534  0.0492
  489TMC3    C3 7269   0.296   2.272  16.873  0.2232  0.3063 -0.1521
  489TMC3    C4 7270   0.125   2.061  16.818  0.2725 -0.1820  0.0920
  489TMC3    C5 7271   0.132   2.114  16.946 -0.0984 -0.4853 -0.8226
  489TMC3    C6 7272   0.210   2.223  16.970 -0.4277 -0.2237 -0.7182
  489TMC3     C 7273   0.220   2.063  16.587 -0.5275 -0.4713  0.3399
  489TMC3     O 7274   0.229   2.145  16.497 -0.1870  0.0772 -0.1679
  489TMC3     H 7275   0.345   2.265  16.667 -0.3687  0.5438  0.1395
  489TMC3    H1 7276   0.063   1.979  16.786 -0.5863  0.4167  0.2168
  489TMC3    H2 7277   0.223   2.250  17.075  0.5178 -0.3806 -0.7941
  489TMC3    C7 7278   0.047   2.058  17.048  0.3697 -0.3415 -0.1440
  489TMC3    C8 7279   0.416   2.355  16.900  0.5523  0.2357  0.2469
  489TMC3    O1 7280   0.007   2.141  17.131 -0.1726 -0.0154 -0.0269
  489TMC3    O2 7281   0.459   2.417  16.806 -0.2240 -0.6882 -0.2726
  490MPD2     C 7282   1.559   1.217  16.915 -0.0625 -0.1022 -0.6059
  490MPD2    C1 7283   1.679   1.149  16.938  0.6749  0.5838 -0.1694
  490MPD2    C2 7284   1.792   1.225  16.977 -0.6294  0.1737 -0.0435
  490MPD2    C3 7285   1.794   1.360  16.959  0.2244  0.0968  0.2856
  490MPD2    C4 7286   1.677   1.428  16.928 -0.4135  0.2782 -0.2384
  490MPD2    C5 7287   1.559   1.356  16.910 -0.0110 -0.5270  0.1157
  490MPD2     H 7288   1.880   1.167  17.002 -1.6714 -1.3773  0.0434
  490MPD2    H1 7289   1.668   1.536  16.932 -2.7177  0.0972 -0.6610
  490MPD2    H2 7290   1.465   1.163  16.907 -0.6206  0.8958 -0.6598
  490MPD2    H3 7291   1.471   1.417  16.889 -0.5689 -0.8966  1.3972
  490MPD2     N 7292   1.900   1.442  17.001 -0.5928 -0.8142 -0.2394
  490MPD2    H5 7293   1.882   1.541  17.014 -1.0230 -1.1793  1.8679
  490MPD2    N1 7294   1.683   1.007  16.955  0.4454 -0.3458  0.3817
  490MPD2    H7 7295   1.754   0.963  17.012  0.8973 -1.7685 -1.2927
  491TMC3    C1 7296   1.597   0.789  16.957 -0.0288 -0.0070 -0.8050
  491TMC3    C2 7297   1.622   0.779  17.093 -0.0290  0.1643 -0.8807
  491TMC3    C3 7298   1.589   0.668  17.161  0.8171  0.3533 -0.7288
  491TMC3    C4 7299   1.551   0.683  16.884  0.2211 -0.0144 -0.3206
  491TMC3    C5 7300   1.524   0.570  16.954  0.6069  0.0027  0.3553
  491TMC3    C6 7301   1.541   0.561  17.092 -0.2703 -0.3129 -0.2539
  491TMC3     C 7302   1.593   0.918  16.896  0.2461 -0.7278 -0.1914
  491TMC3     O 7303   1.520   0.934  16.799  0.2508 -0.1212  0.1752
  491TMC3     H 7304   1.633   0.872  17.147  0.3675  0.2426 -1.0938
  491TMC3    H1 7305   1.519   0.685  16.780  3.4460 -2.0966 -1.3457
  491TMC3    H2 7306   1.507   0.483  17.159 -0.8638 -1.3572 -1.7596
  491TMC3    C7 7307   1.402   0.493  16.914  0.2269  0.0745 -0.4075
  491TMC3    C8 7308   1.532   0.682  17.293  0.0339 -0.2644 -0.7101
  491TMC3    O1 7309   1.333   0.538  16.825 -0.0494  0.2119  0.2676
  491TMC3    O2 7310   1.433   0.617  17.323 -0.1156 -0.4097  0.6414
  492MPD2     C 7311   2.335   1.487  11.417  0.0032 -0.1028  0.0279
  492MPD2    C1 7312   2.334   1.378  11.330 -0.4214  0.0753 -0.6973
  492MPD2    C2 7313   2.261   1.268  11.375 -0.1895  0.6870 -0.6937
  492MPD2    C3 7314   2.208   1.263  11.504 -0.3142  0.3879  0.0449
  492MPD2    C4 7315   2.215   1.374  11.579 -0.4912  0.8540  0.2620
  492MPD2    C5 7316   2.275   1.483  11.539 -0.1019  0.5255 -0.0383
  492MPD2     H 7317   2.245   1.179  11.316  1.9870 -0.4361  0.4242
  492MPD2    H1 7318   2.178   1.374  11.681 -1.5724 -0.5737 -0.1425
  492MPD2    H2 7319   2.397   1.573  11.394 -0.9696  0.3575 -0.9204
  492MPD2    H3 7320   2.289   1.556  11.617  0.3675  1.2418 -0.8032
  492MPD2     N 7321   2.154   1.151  11.571 -0.2658  0.2424  0.6742
  492MPD2    H5 7322   2.143   1.174  11.670  0.6065  2.4692  0.2571
  492MPD2    N1 7323   2.385   1.387  11.202  0.4932  0.7396 -0.3764
  492MPD2    H7 7324   2.453   1.459  11.179  1.6383  0.0929  0.9609
  493TMC3    C1 7325   2.420   1.356  10.977  0.1020  0.3538  0.1806
  493TMC3    C2 7326   2.526   1.444  10.984  0.2116 -0.6000  0.1510
  493TMC3    C3 7327   2.550   1.536  10.888 -0.5569 -0.1640  0.0256
  493TMC3    C4 7328   2.354   1.340  10.861 -0.0864 -0.0716  0.6230
  493TMC3    C5 7329   2.375   1.439  10.768  0.2059 -0.0158 -0.0668
  493TMC3    C6 7330   2.463   1.540  10.782  0.2392 -0.6487  0.2716
  493TMC3     C 7331   2.346   1.311  11.098  0.2509 -0.6096 -0.2915
  493TMC3     O 7332   2.258   1.229  11.090 -0.6206 -0.4187 -0.4373
  493TMC3     H 7333   2.589   1.442  11.072  0.3690 -0.1090  0.0528
  493TMC3    H1 7334   2.272   1.270  10.871  0.2986 -0.3451  1.8383
  493TMC3    H2 7335   2.470   1.619  10.708  0.0341  1.2224  2.2644
  493TMC3    C7 7336   2.271   1.464  10.665  0.0354  0.4968  0.2660
  493TMC3    C8 7337   2.655   1.630  10.910 -0.3218  0.2070  0.0080
  493TMC3    O1 7338   2.288   1.553  10.584  0.0857  0.6548 -0.0631
  493TMC3    O2 7339   2.695   1.633  11.024  0.1476  0.5159 -0.5056
  494TMC3    C1 7340   2.619   2.801   0.279 -0.0174  0.3362 -0.8629
  494TMC3    C2 7341   2.716   2.700   0.299  0.0159 -0.6207  0.0638
  494TMC3    C3 7342   2.781   2.666   0.182  1.0034 -0.4965 -0.0399
  494TMC3    C4 7343   2.598   2.862   0.159 -0.0200  0.7101 -0.7401
  494TMC3    C5 7344   2.680   2.832   0.055  0.1475  0.5919 -0.2381
  494TMC3    C6 7345   2.771   2.734   0.064  0.6005 -0.0402  0.1589
  494TMC3     C 7346   2.507   2.813   0.382  0.2348  0.5586 -0.1241
  494TMC3     O 7347   2.401   2.860   0.344 -0.3049 -0.0157  0.6862
  494TMC3     H 7348   2.722   2.623   0.375  1.4015 -2.9582 -2.4469
  494TMC3    H1 7349   2.522   2.935   0.138 -0.7946 -0.3003 -1.4732
  494TMC3    H2 7350   2.838   2.720  17.658  0.5726  0.7166  0.0087
  494TMC3    C7 7351   2.653   2.887  17.599  0.4395  0.3747  0.1908
  494TMC3    C8 7352   2.889   2.573   0.199  0.5962  0.3370  0.2449
  494TMC3    O1 7353   2.677   2.814  17.509 -0.2299  0.5037 -0.3131
  494TMC3    O2 7354   2.925   2.539   0.316  0.1677 -0.3861  0.1095
  495TMC3    C1 7355   1.588   0.171  14.746 -0.1840  0.2833 -0.1574
  495TMC3    C2 7356   1.513   0.196  14.636 -0.2724  0.4509  0.1391
  495TMC3    C3 7357   1.378   0.209  14.652  0.1627 -0.3175  0.6933
  495TMC3    C4 7358   1.524   0.142  14.864  0.3963 -0.3011  0.4330
  495TMC3    C5 7359   1.392   0.163  14.881 -0.0590 -0.4819  0.0050
  495TMC3    C6 7360   1.317   0.206  14.773 -0.7562  0.1716  0.4707
  495TMC3     C 7361   1.665   0.060  14.703  0.0373  0.0903 -0.1532
  495TMC3     O 7362   1.616   4.670  14.694 -0.1683 -0.4339 -0.4337
  495TMC3     H 7363   1.565   0.218  14.544  1.8637  0.0707  1.2665
  495TMC3    H1 7364   1.594   0.116  14.943 -1.3341 -0.7381  1.8250
  495TMC3    H2 7365   1.210   0.216  14.791 -0.7509  0.5119  0.3054
  495TMC3    C7 7366   1.334   0.184  15.012 -0.0486 -0.7625 -0.1840
  495TMC3    C8 7367   1.294   0.160  14.555  0.0188 -0.6024 -0.3472
  495TMC3    O1 7368   1.401   0.250  15.091  0.5878  0.3224  0.1166
  495TMC3    O2 7369   1.173   0.177  14.574  0.1141  0.4867 -0.3311
  496MPD2     C 7370   3.160   4.637  14.913  1.0380 -0.2577  0.1101
  496MPD2    C1 7371   3.205   4.551  15.004 -0.4015  0.7403 -0.2743
  496MPD2    C2 7372   3.127   4.511  15.115  0.1526  0.0104 -0.1193
  496MPD2    C3 7373   3.003   4.573  15.134  0.5118  0.7419  0.1818
  496MPD2    C4 7374   2.960   4.657  15.041  0.5002  0.1542 -0.8951
  496MPD2    C5 7375   3.038   4.688  14.933  0.6088  0.2879 -0.4013
  496MPD2     H 7376   3.165   4.444  15.192 -1.1981  1.1801  1.5614
  496MPD2    H1 7377   2.859   4.697  15.040  0.2902 -0.3368  0.6853
  496MPD2    H2 7378   3.219   4.676  14.831 -2.0817  1.4569 -1.3118
  496MPD2    H3 7379   3.004   0.036  14.855  0.2359 -0.9660 -1.3138
  496MPD2     N 7380   2.928   4.531  15.247 -0.3372  0.2734 -0.6242
  496MPD2    H5 7381   2.837   4.573  15.268 -1.1776 -0.9335 -1.8691
  496MPD2    N1 7382   3.321   4.483  14.965 -0.2833  0.3701  0.2688
  496MPD2    H7 7383   3.388   4.512  14.894  0.0787 -2.1756 -0.4205
  497TMC3    C1 7384   2.862   4.467  15.453 -0.2894  0.2832 -0.7264
  497TMC3    C2 7385   2.731   4.491  15.417  0.6933  0.0634  1.2532
  497TMC3    C3 7386   2.642   4.521  15.520 -0.5046  0.1572 -0.2615
  497TMC3    C4 7387   2.901   4.461  15.585  0.2139 -0.1444  0.9000
  497TMC3    C5 7388   2.809   4.475  15.679  0.7077  0.5953 -0.3574
  497TMC3    C6 7389   2.681   4.513  15.651  0.3986  0.3255 -0.0687
  497TMC3     C 7390   2.966   4.454  15.355 -0.3288  0.4468 -0.8414
  497TMC3     O 7391   3.075   4.400  15.388  0.3928  0.1657 -0.2516
  497TMC3     H 7392   2.693   4.473  15.317 -0.7284 -0.2799  1.8530
  497TMC3    H1 7393   3.005   4.432  15.600 -0.3681 -1.9676  1.4191
  497TMC3    H2 7394   2.612   4.536  15.731  0.6612 -0.9769  0.5366
  497TMC3    C7 7395   2.844   4.482  15.812  0.1596  0.8429 -0.3951
  497TMC3    C8 7396   2.538   4.609  15.489 -1.0082 -0.2565  0.3970
  497TMC3    O1 7397   2.762   4.437  15.892 -0.3053  0.0526 -0.5956
  497TMC3    O2 7398   2.490   4.604  15.376 -0.3663  0.1835 -0.1417
  498MPD2     C 7399   4.322   1.211   9.392  0.0881  0.7833 -0.2649
  498MPD2    C1 7400   4.394   1.119   9.455 -0.0497 -0.3063  0.2814
  498MPD2    C2 7401   4.340   1.055   9.567 -0.0399  0.3086  0.5706
  498MPD2    C3 7402   4.213   1.081   9.600  0.0709  0.5516  0.1493
  498MPD2    C4 7403   4.141   1.171   9.528 -0.3474 -0.3719  0.5671
  498MPD2    C5 7404   4.197   1.242   9.425  0.3056 -0.4887 -0.2158
  498MPD2     H 7405   4.394   0.975   9.616 -0.5896 -1.6596 -2.0081
  498MPD2    H1 7406   4.045   1.207   9.562  0.5013 -0.1372  2.6918
  498MPD2    H2 7407   4.358   1.253   9.299  0.5642 -3.0736 -1.8203
  498MPD2    H3 7408   4.148   1.329   9.382  3.6828  1.9669  0.8550
  498MPD2     N 7409   4.158   1.011   9.707  0.1061  0.4259  0.2686
  498MPD2    H5 7410   4.213   0.958   9.774 -1.5871  0.1798  1.4885
  498MPD2    N1 7411   4.523   1.077   9.419 -0.1364  0.9041 -0.3242
  498MPD2    H7 7412   4.560   0.994   9.464  0.1724  0.3428 -1.6142
  499TMC3    C1 7413   4.715   1.044   9.266 -0.1694  0.3424  0.0633
  499TMC3    C2 7414   4.703   0.909   9.280 -0.5952 -0.6909  0.2111
  499TMC3    C3 7415   0.069   0.833   9.204 -0.2756  0.3304 -0.0222
  499TMC3    C4 7416   0.094   1.099   9.188  0.3476 -0.2806 -0.3574
  499TMC3    C5 7417   0.180   1.019   9.122 -1.0118  0.3242  0.3925
  499TMC3    C6 7418   0.172   0.885   9.135 -0.0133 -0.5482 -0.4762
  499TMC3     C 7419   4.602   1.127   9.315 -0.0678 -0.1438 -0.2941
  499TMC3     O 7420   4.593   1.233   9.257 -0.3144  0.8670  0.1650
  499TMC3     H 7421   4.625   0.858   9.335  0.1825 -1.2918  0.7540
  499TMC3    H1 7422   0.096   1.208   9.182 -0.8134 -0.1872  0.9523
  499TMC3    H2 7423   0.212   0.824   9.054  0.4095 -0.4345 -0.3537
  499TMC3    C7 7424   0.291   1.076   9.048  0.4100 -0.5500  1.4052
  499TMC3    C8 7425   0.065   0.685   9.220 -0.5499 -0.4595 -0.5717
  499TMC3    O1 7426   0.396   1.019   9.056 -0.2098 -0.4904 -0.7548
  499TMC3    O2 7427   4.678   0.634   9.259  0.0291  0.8492 -0.2287
  500MPD2     C 7428   1.357   2.489  10.323  0.4767 -0.3955  0.1020
  500MPD2    C1 7429   1.460   2.467  10.246  0.0676  0.2624 -1.1301
  500MPD2    C2 7430   1.444   2.415  10.118 -0.0794  0.2776 -0.0108
  500MPD2    C3 7431   1.316   2.374  10.081 -0.0385 -0.1763  0.1060
  500MPD2    C4 7432   1.205   2.388  10.170  0.5578 -0.4777 -0.2876
  500MPD2    C5 7433   1.229   2.448  10.287  0.5556  0.4021 -0.1810
  500MPD2     H 7434   1.534   2.399  10.060  1.1154  0.7006  1.7263
  500MPD2    H1 7435   1.103   2.365  10.141 -0.0937 -1.5640  2.7899
  500MPD2    H2 7436   1.376   2.542  10.416  1.2156  1.1846 -0.9512
  500MPD2    H3 7437   1.145   2.464  10.355  1.4528 -2.9246  1.7090
  500MPD2     N 7438   1.285   2.289   9.972 -0.5238 -0.6585 -0.3273
  500MPD2    H5 7439   1.190   2.254   9.966 -0.4489 -1.0392  0.7885
  500MPD2    N1 7440   1.592   2.493  10.284  0.2002  0.0074 -0.4983
  500MPD2    H7 7441   1.660   2.499  10.209  0.7726  0.6597  0.0661
  501TMC3    C1 7442   1.788   2.542  10.407 -0.0853  0.6565 -0.0971
  501TMC3    C2 7443   1.820   2.629  10.308 -0.2643 -0.0145  0.1575
  501TMC3    C3 7444   1.951   2.660  10.291 -0.6826  0.1145  0.1795
  501TMC3    C4 7445   1.883   2.491  10.502 -0.4071 -0.3158 -0.1687
  501TMC3    C5 7446   2.016   2.520  10.472 -0.5948  0.1950 -0.2199
  501TMC3    C6 7447   2.046   2.593  10.365 -0.5869  0.0332 -0.1728
  501TMC3     C 7448   1.645   2.507  10.414  0.3705 -0.3805 -0.8543
  501TMC3     O 7449   1.603   2.468  10.524 -0.4472 -1.0624  0.9448
  501TMC3     H 7450   1.742   2.681  10.254  1.2862 -0.0221 -2.0665
  501TMC3    H1 7451   1.858   2.419  10.578  0.1627 -3.0204 -2.5355
  501TMC3    H2 7452   2.148   2.621  10.342  0.7188 -2.4912  2.5277
  501TMC3    C7 7453   2.123   2.486  10.571  1.2669  0.3657 -0.1710
  501TMC3    C8 7454   1.981   2.804  10.261 -0.0507 -0.6438  0.1105
  501TMC3    O1 7455   2.095   2.402  10.659 -0.3344 -0.0923 -0.4398
  501TMC3    O2 7456   2.062   2.851  10.336 -0.2285  0.5403 -0.3594
  502TMC3    C1 7457   0.051   1.052  15.087  0.3623 -0.5193  0.1920
  502TMC3    C2 7458   0.102   1.175  15.068  0.5771  1.2694 -0.0786
  502TMC3    C3 7459   0.013   1.279  15.062 -0.3770  0.2016 -0.2422
  502TMC3    C4 7460   4.641   1.023  15.099 -0.4887 -0.5589  0.2747
  502TMC3    C5 7461   4.554   1.125  15.103 -0.3072 -1.0506  1.0945
  502TMC3    C6 7462   4.601   1.255  15.093 -0.0835 -0.5508 -0.2410
  502TMC3     C 7463   0.139   0.938  15.110 -0.6958 -0.0349  0.7057
  502TMC3     O 7464   0.089   0.828  15.091 -0.4023 -0.2804 -0.4165
  502TMC3     H 7465   0.209   1.188  15.053  0.7996 -0.6707 -0.0989
  502TMC3    H1 7466   4.605   0.921  15.108 -0.3652 -0.6659 -0.4432
  502TMC3    H2 7467   4.525   1.332  15.094 -2.0537 -2.5195  1.2216
  502TMC3    C7 7468   4.416   1.091  15.128 -0.9406  0.3919  0.0945
  502TMC3    C8 7469   0.062   1.404  15.025 -0.2394 -0.5237  0.3930
  502TMC3    O1 7470   4.406   0.979  15.176 -0.5951  0.1091 -0.2403
  502TMC3    O2 7471   0.179   1.420  15.001  0.1516  0.1449 -0.4089
  503MPD2     C 7472   2.632   2.008  16.545 -0.1460 -0.3989 -0.8642
  503MPD2    C1 7473   2.631   2.020  16.684  0.4723 -0.4533 -0.0568
  503MPD2    C2 7474   2.708   1.932  16.754 -0.3903  0.0471  0.0253
  503MPD2    C3 7475   2.783   1.830  16.680  0.0648  0.1009  0.8203
  503MPD2    C4 7476   2.784   1.836  16.547 -1.0342 -1.1822 -0.2841
  503MPD2    C5 7477   2.707   1.920  16.476  0.7197  0.3568 -0.3495
  503MPD2     H 7478   2.692   1.926  16.861  1.7980 -0.3184  0.3463
  503MPD2    H1 7479   2.848   1.771  16.489  0.1870 -0.4868  0.2882
  503MPD2    H2 7480   2.569   2.068  16.480 -0.6605 -0.0940 -0.0845
  503MPD2    H3 7481   2.716   1.922  16.368 -3.3940  0.3875 -0.6628
  503MPD2     N 7482   2.867   1.736  16.750 -0.4397  0.1747  0.7306
  503MPD2    H5 7483   2.870   1.740  16.851 -4.4264  1.3218  0.8060
  503MPD2    N1 7484   2.559   2.123  16.746  0.5629 -0.1328 -0.4556
  503MPD2    H7 7485   2.571   2.130  16.846  0.8178 -0.7011 -0.4476
  504TMC3    C1 7486   3.017   1.556  16.786  0.0867 -0.3615 -0.0466
  504TMC3    C2 7487   3.018   1.589  16.919 -0.2831 -0.4478  0.2600
  504TMC3    C3 7488   3.049   1.491  17.011  0.1487 -0.2321 -0.2009
  504TMC3    C4 7489   3.078   1.439  16.737  0.3511 -0.2873 -0.5332
  504TMC3    C5 7490   3.120   1.350  16.835 -0.5898  0.2131  0.5570
  504TMC3    C6 7491   3.106   1.372  16.974  0.1528 -0.2498  0.5070
  504TMC3     C 7492   2.940   1.637  16.690  0.4705  1.1106 -0.5427
  504TMC3     O 7493   2.930   1.588  16.575  0.0122  0.1173 -0.0859
  504TMC3     H 7494   3.009   1.691  16.953  1.5841  0.5805 -2.3330
  504TMC3    H1 7495   3.080   1.412  16.632  1.1518  1.0362 -0.8493
  504TMC3    H2 7496   3.148   1.305  17.049 -3.6895 -2.3648  0.7621
  504TMC3    C7 7497   3.229   1.265  16.787  0.0411  0.1779  0.0885
  504TMC3    C8 7498   3.085   1.533  17.148  0.4427  0.3400 -0.0264
  504TMC3    O1 7499   3.259   1.267  16.671 -0.4372  0.0987 -0.6072
  504TMC3    O2 7500   3.181   1.475  17.195  0.1506  0.0056  0.0344
  505MPD2     C 7501   3.864   0.789  10.934 -0.0582  0.0747 -0.9241
  505MPD2    C1 7502   3.809   0.663  10.926 -0.2077  0.0733  1.2872
  505MPD2    C2 7503   3.901   0.556  10.926  0.4777 -0.1943 -0.8617
  505MPD2    C3 7504   4.039   0.576  10.947  0.2205  0.0529 -0.8552
  505MPD2    C4 7505   4.090   0.702  10.968  0.3762  0.0724  0.3198
  505MPD2    C5 7506   3.998   0.807  10.959 -0.0248 -0.1675  0.0890
  505MPD2     H 7507   3.867   0.454  10.915 -0.1626 -0.0918  0.1655
  505MPD2    H1 7508   4.194   0.733  10.970  0.7404 -1.0679 -0.9843
  505MPD2    H2 7509   3.803   0.878  10.943  0.8267  0.4315  1.6068
  505MPD2    H3 7510   4.039   0.907  10.972  0.7046 -0.5853  1.1143
  505MPD2     N 7511   4.133   0.468  10.926  0.3264  0.4520 -0.3976
  505MPD2    H5 7512   4.228   0.501  10.921  0.5079 -0.0668 -0.3832
  505MPD2    N1 7513   3.667   0.656  10.921 -0.4505 -0.0316  0.4563
  505MPD2    H7 7514   3.609   0.739  10.923  1.2694  1.1589  0.8963
  506TMC3    C1 7515   3.459   0.539  10.897 -0.4070 -0.0018  0.0937
  506TMC3    C2 7516   3.416   0.615  10.795  0.9020  0.1350  0.2652
  506TMC3    C3 7517   3.328   0.553  10.716  0.1475  0.1006  0.7029
  506TMC3    C4 7518   3.415   0.411  10.921  0.4420  0.0560 -0.5464
  506TMC3    C5 7519   3.333   0.351  10.828  0.2427 -0.8610  0.0175
  506TMC3    C6 7520   3.286   0.422  10.726 -0.9465 -0.3368  0.2989
  506TMC3     C 7521   3.600   0.538  10.918 -0.6304  0.3793  0.8639
  506TMC3     O 7522   3.647   0.427  10.928  0.0234  0.2549  0.3865
  506TMC3     H 7523   3.457   0.712  10.769 -1.3702  0.9299 -0.3098
  506TMC3    H1 7524   3.464   0.366  11.006 -2.5552 -0.1039  1.0951
  506TMC3    H2 7525   3.232   0.379  10.642 -0.9095 -0.7349  0.4792
  506TMC3    C7 7526   3.378   0.218  10.775  0.0165  0.3633  0.0637
  506TMC3    C8 7527   3.300   0.615  10.592 -1.1571  0.3036  0.4894
  506TMC3    O1 7528   3.298   0.157  10.713 -0.4831 -0.0388 -1.3089
  506TMC3    O2 7529   3.191   0.585  10.548  0.2529 -0.4279 -0.2797
  507TMC3    C1 7530   4.168   0.932  14.187  0.1048 -0.1067  0.4222
  507TMC3    C2 7531   4.085   0.865  14.093 -0.3708  0.4607  0.8610
  507TMC3    C3 7532   4.066   0.920  13.970 -0.0313 -0.2731  0.3845
  507TMC3    C4 7533   4.221   1.051  14.162 -0.4631  0.9735  0.0999
  507TMC3    C5 7534   4.196   1.107  14.045 -0.1466 -0.3788 -0.0332
  507TMC3    C6 7535   4.136   1.035  13.947  0.1634  0.3975  1.2059
  507TMC3     C 7536   4.162   0.892  14.327  0.4479  0.5362 -0.2191
  507TMC3     O 7537   4.061   0.833  14.360 -0.5839 -0.4141 -0.2139
  507TMC3     H 7538   4.029   0.775  14.114  0.9874 -0.6934 -0.5266
  507TMC3    H1 7539   4.277   1.103  14.239 -1.3950 -1.6693  2.5754
  507TMC3    H2 7540   4.116   1.085  13.853 -0.2229 -0.4261  0.8482
  507TMC3    C7 7541   4.138   1.236  14.054 -0.4255 -0.2831  1.5248
  507TMC3    C8 7542   3.926   0.957  13.962  0.3613 -0.0721 -0.2755
  507TMC3    O1 7543   4.037   1.259  13.990 -0.0521  0.0625 -0.1395
  507TMC3    O2 7544   3.873   0.961  14.075 -0.6603 -0.5689  0.5216
  508MPD2     C 7545   0.425   2.961  16.003  0.6611  0.3142 -0.1497
  508MPD2    C1 7546   0.377   3.074  16.068  0.2533 -0.9411 -0.2887
  508MPD2    C2 7547   0.358   3.186  15.992 -0.1377 -0.0355  0.1375
  508MPD2    C3 7548   0.392   3.184  15.857  0.1363 -0.0699 -0.5011
  508MPD2    C4 7549   0.438   3.069  15.799  0.2785  1.1753 -0.5861
  508MPD2    C5 7550   0.462   2.960  15.875 -0.1265 -0.9084 -0.6293
  508MPD2     H 7551   0.304   3.270  16.033 -0.4606  0.1389 -0.6697
  508MPD2    H1 7552   0.466   3.060  15.694 -1.6355 -0.5834 -0.9326
  508MPD2    H2 7553   0.441   2.867  16.055 -1.0501  0.7919  1.2553
  508MPD2    H3 7554   0.505   2.867  15.841  1.4011  0.3219 -2.0899
  508MPD2     N 7555   0.366   3.305  15.788  0.5165  0.5569  0.1685
  508MPD2    H5 7556   0.323   3.374  15.848 -0.5833 -0.9471  1.0886
  508MPD2    N1 7557   0.352   3.063  16.206  0.1170 -0.3316 -0.1184
  508MPD2    H7 7558   0.393   2.982  16.251 -0.7139  1.1092  3.2196
  509TMC3    C1 7559   0.340   3.639  15.471 -0.3088  0.4094 -0.3266
  509TMC3    C2 7560   0.378   3.741  15.555  0.3352 -0.3803 -0.3874
  509TMC3    C3 7561   0.424   3.692  15.674 -0.4061 -0.0611 -0.2362
  509TMC3    C4 7562   0.355   3.514  15.500  0.2522 -0.3517 -0.2008
  509TMC3    C5 7563   0.397   3.464  15.619  0.6645  0.2119 -0.4668
  509TMC3    C6 7564   0.434   3.558  15.707  0.1251  0.4830 -0.2587
  509TMC3     C 7565   0.280   3.661  15.348  0.0263  0.3086  0.4293
  509TMC3     O 7566   0.271   3.573  15.265 -0.1627  0.0041 -0.3137
  509TMC3     H 7567   0.382   3.845  15.524 -1.7223  0.7584  3.1853
  509TMC3    H1 7568   0.340   3.438  15.424  2.5383  0.0331 -1.0517
  509TMC3    H2 7569   0.486   3.533  15.799 -0.5248  1.6092  0.4097
  509TMC3    C7 7570   0.389   3.327  15.654 -0.2488  1.6085  0.7183
  509TMC3    C8 7571   0.456   3.778  15.786  0.0916 -0.8268  0.1667
  509TMC3    O1 7572   0.421   3.252  15.563  0.2653  0.0138 -0.0715
  509TMC3    O2 7573   0.466   3.731  15.895  0.0982 -0.6268 -0.2886
  510MPD2     C 7574   2.789   0.655  14.493  0.0420 -0.0637 -0.0588
  510MPD2    C1 7575   2.844   0.545  14.555  0.1082 -0.0438  0.3192
  510MPD2    C2 7576   2.964   0.492  14.492  0.3310  0.1565 -0.2495
  510MPD2    C3 7577   3.021   0.555  14.385 -0.6412  0.3155  0.3918
  510MPD2    C4 7578   2.968   0.666  14.331 -0.2455  0.6332 -0.1724
  510MPD2    C5 7579   2.850   0.708  14.382 -0.2737 -0.0887  0.1081
  510MPD2     H 7580   3.004   0.395  14.519  0.9204  0.5418  0.2686
  510MPD2    H1 7581   3.008   0.723  14.248  0.3199  2.6056  1.4526
  510MPD2    H2 7582   2.690   0.691  14.517 -1.5281 -3.3982 -1.4533
  510MPD2    H3 7583   2.799   0.780  14.319  2.9625  1.3795 -0.8944
  510MPD2     N 7584   3.138   0.500  14.325  0.0555  0.3076  0.1893
  510MPD2    H5 7585   3.163   0.409  14.364 -0.7102  0.5878  1.3602
  510MPD2    N1 7586   2.785   0.497  14.675  0.4439 -0.1059 -0.5120
  510MPD2    H7 7587   2.693   0.531  14.701  0.6627  1.9100 -2.4273
  511TMC3    C1 7588   2.727   0.337  14.834 -0.1963 -0.2486  0.2687
  511TMC3    C2 7589   2.632   0.412  14.891  0.5323  0.3526  0.1175
  511TMC3    C3 7590   2.529   0.344  14.953 -0.1375  0.0301 -0.4642
  511TMC3    C4 7591   2.720   0.202  14.827  0.6395  0.0001  0.4689
  511TMC3    C5 7592   2.612   0.137  14.879 -0.7012 -0.4899 -0.3210
  511TMC3    C6 7593   2.515   0.205  14.947 -0.2434  0.9888  0.5921
  511TMC3     C 7594   2.826   0.387  14.744 -0.0267 -0.7152  1.1749
  511TMC3     O 7595   2.923   0.314  14.727 -0.2415  0.1364 -0.2475
  511TMC3     H 7596   2.645   0.517  14.910  0.1966  0.5967 -0.9845
  511TMC3    H1 7597   2.785   0.151  14.757 -0.4331  1.1138 -1.3620
  511TMC3    H2 7598   2.428   0.152  14.984 -0.0267 -1.3349 -2.2035
  511TMC3    C7 7599   2.594   4.716  14.859 -0.0368 -0.3835  0.1641
  511TMC3    C8 7600   2.447   0.415  15.045  0.3086  0.1904 -0.4069
  511TMC3    O1 7601   2.636   4.664  14.758 -0.1031  0.0220 -0.4425
  511TMC3    O2 7602   2.487   0.526  15.081  0.8406 -0.6049  0.2288
  512TMC3    C1 7603   1.229   4.444  13.258  0.7853 -0.0161  0.4244
  512TMC3    C2 7604   1.352   4.448  13.326 -0.6544  0.1144 -0.6583
  512TMC3    C3 7605   1.371   4.386  13.447 -0.6246  0.1095 -0.5916
  512TMC3    C4 7606   1.126   4.375  13.322  0.3666 -0.5783 -0.3353
  512TMC3    C5 7607   1.145   4.319  13.442 -0.2528 -0.0182 -0.3185
  512TMC3    C6 7608   1.269   4.320  13.496  0.5695  0.6200  0.3802
  512TMC3     C 7609   1.197   4.531  13.143  0.2611  0.1881  0.0527
  512TMC3     O 7610   1.089   4.509  13.090 -0.5935 -0.0892 -0.1740
  512TMC3     H 7611   1.440   4.483  13.274  0.9485 -0.3938  1.7375
  512TMC3    H1 7612   1.034   4.358  13.268  1.5574 -1.7821 -2.0055
  512TMC3    H2 7613   1.284   4.288  13.598  0.3800  2.0409  0.8482
  512TMC3    C7 7614   1.076   4.198  13.453  0.2086 -0.0633 -0.3235
  512TMC3    C8 7615   1.501   4.366  13.508 -0.1554  0.3212  0.4092
  512TMC3    O1 7616   0.962   4.186  13.412 -0.2033  0.0116 -0.0214
  512TMC3    O2 7617   1.514   4.274  13.592 -0.2971 -0.1744  0.2793
  513MPD2     C 7618   3.470   0.144  12.981  0.5297  1.0742 -0.6506
  513MPD2    C1 7619   3.497   0.026  12.927  1.1091  0.8027  0.1711
  513MPD2    C2 7620   3.556   4.652  13.009 -0.7759 -0.8745 -0.0796
  513MPD2    C3 7621   3.568   4.675  13.141 -0.7099 -0.2780  0.1446
  513MPD2    C4 7622   3.518   0.067  13.202  0.2369 -0.9375 -0.3651
  513MPD2    C5 7623   3.474   0.163  13.119 -0.3501  0.6408 -0.4843
  513MPD2     H 7624   3.600   4.563  12.966  2.7090  0.2372  1.1560
  513MPD2    H1 7625   3.536   0.089  13.306 -0.5035 -3.1954  0.2543
  513MPD2    H2 7626   3.425   0.225  12.924 -2.1470 -1.7125 -2.5287
  513MPD2    H3 7627   3.454   0.264  13.152 -1.6466  0.0858  0.4613
  513MPD2     N 7628   3.639   4.576  13.211  0.1674  0.1617  0.3839
  513MPD2    H5 7629   3.671   4.497  13.155  3.0661  2.2930 -0.9292
  513MPD2    N1 7630   3.472   0.011  12.783  0.7758  0.0439 -0.3787
  513MPD2    H7 7631   3.438   0.097  12.740 -0.3152  0.0839  0.5543
  514TMC3    C1 7632   3.450   4.621  12.569  0.7365 -0.0784  0.8226
  514TMC3    C2 7633   3.508   0.006  12.497  0.2266  0.3238 -0.0684
  514TMC3    C3 7634   3.603   4.686  12.407  0.0007 -0.6330  0.1581
  514TMC3    C4 7635   3.460   4.489  12.526 -0.0605 -0.1055 -0.0070
  514TMC3    C5 7636   3.560   4.458  12.430  0.3640  0.0399  0.0767
  514TMC3    C6 7637   3.628   4.557  12.364  0.3495 -0.4634 -0.2546
  514TMC3     C 7638   3.474   4.610  12.714 -0.2733 -0.3399 -0.1798
  514TMC3     O 7639   3.510   4.498  12.757  0.5693 -0.2086 -0.4780
  514TMC3     H 7640   3.488   0.109  12.522  0.3313  0.2178  0.4532
  514TMC3    H1 7641   3.402   4.418  12.583 -1.5437  0.3932 -0.8833
  514TMC3    H2 7642   3.720   4.534  12.312 -0.6676 -0.1321 -2.1989
  514TMC3    C7 7643   3.641   4.340  12.453  0.0926 -0.1436 -0.2221
  514TMC3    C8 7644   3.624   0.064  12.308  0.3264 -0.3343  0.5168
  514TMC3    O1 7645   3.711   4.298  12.361 -0.2961  0.2491 -0.1099
  514TMC3    O2 7646   3.627   0.013  12.196  0.0351  0.0678 -0.1982
  515MPD2     C 7647   1.252   1.820  14.520  0.5326  0.2626 -0.4909
  515MPD2    C1 7648   1.290   1.694  14.545 -0.4755  0.3308  0.4330
  515MPD2    C2 7649   1.386   1.674  14.651  0.1913 -0.6626 -0.1344
  515MPD2    C3 7650   1.461   1.776  14.705  0.7645  0.3290 -0.2009
  515MPD2    C4 7651   1.423   1.897  14.667 -0.2176  0.3339 -0.5406
  515MPD2    C5 7652   1.316   1.923  14.587  0.1265  0.2894 -0.2698
  515MPD2     H 7653   1.398   1.570  14.680 -3.1415 -1.1571 -0.5939
  515MPD2    H1 7654   1.489   1.976  14.699  0.7302 -0.4055 -0.6843
  515MPD2    H2 7655   1.168   1.838  14.454  0.6294  1.4429 -0.2958
  515MPD2    H3 7656   1.287   2.022  14.551 -0.7252  0.1454  0.0146
  515MPD2     N 7657   1.567   1.763  14.798 -0.0512 -0.2037  0.2102
  515MPD2    H5 7658   1.622   1.846  14.819  0.7658 -0.8730  0.7127
  515MPD2    N1 7659   1.230   1.581  14.486 -0.4145 -0.6214  0.0374
  515MPD2    H7 7660   1.264   1.489  14.512  1.8913 -0.4369 -2.3066
  516TMC3    C1 7661   1.075   1.465  14.359  0.4140 -0.5852 -0.0744
  516TMC3    C2 7662   1.001   1.456  14.246  0.4485 -0.6329 -0.4367
  516TMC3    C3 7663   0.929   1.343  14.226 -0.0428  0.2700 -0.1681
  516TMC3    C4 7664   1.070   1.361  14.450 -0.5666 -0.2073  0.6904
  516TMC3    C5 7665   0.988   1.254  14.436  0.2739 -0.1944  0.3087
  516TMC3    C6 7666   0.917   1.246  14.321  0.4726  0.7231  0.3625
  516TMC3     C 7667   1.146   1.586  14.382  0.2942  0.2737 -0.6716
  516TMC3     O 7668   1.129   1.679  14.304  0.0026 -1.2027 -0.3923
  516TMC3     H 7669   1.003   1.534  14.171  5.2650  0.6617  1.0293
  516TMC3    H1 7670   1.125   1.372  14.543 -1.7954  3.5596  0.9646
  516TMC3    H2 7671   0.845   1.167  14.299  0.7882  0.3342  0.7280
  516TMC3    C7 7672   0.974   1.175  14.557 -0.6617 -0.3577  0.3627
  516TMC3    C8 7673   0.847   1.327  14.106  0.8500  0.6969  0.1544
  516TMC3    O1 7674   1.021   1.217  14.661  0.3086 -0.6784  0.2445
  516TMC3    O2 7675   0.818   1.210  14.071 -0.1755  0.4325 -0.3219
  517MPD2     C 7676   0.488   2.199  17.541 -0.3279 -0.3769  0.0716
  517MPD2    C1 7677   0.624   2.228  17.547  0.0489  0.5082 -0.0497
  517MPD2    C2 7678   0.660   2.336  17.615  0.1121  0.2805 -0.2419
  517MPD2    C3 7679   0.562   2.405   0.009 -0.6962  0.1226  0.3549
  517MPD2    C4 7680   0.427   2.378  17.670 -0.3155  0.7623 -0.2223
  517MPD2    C5 7681   0.389   2.276  17.591  0.1619  0.1720 -0.0534
  517MPD2     H 7682   0.767   2.352  17.623 -0.0087  2.0027 -1.8831
  517MPD2    H1 7683   0.352   2.432   0.048 -0.9385  0.4231 -0.7182
  517MPD2    H2 7684   0.457   2.099  17.511 -0.7868 -1.0011  2.6051
  517MPD2    H3 7685   0.283   2.254  17.597  0.2636 -0.4018 -0.3669
  517MPD2     N 7686   0.599   2.505   0.104 -0.3347 -0.6168 -0.6897
  517MPD2    H5 7687   0.529   2.566   0.144  0.4092  0.8827 -1.6758
  517MPD2    N1 7688   0.725   2.135  17.513  0.3164  0.2663  1.3363
  517MPD2    H7 7689   0.822   2.157  17.535  0.8425 -0.0281 -0.6301
  518TMC3    C1 7690   0.832   1.947  17.415  0.0299 -0.1491 -0.4091
  518TMC3    C2 7691   0.860   1.896  17.294  0.4626  0.6081 -0.1055
  518TMC3    C3 7692   0.982   1.832  17.277  0.3516  0.2009  0.3087
  518TMC3    C4 7693   0.917   1.945  17.525  0.0615 -0.0162  0.2632
  518TMC3    C5 7694   1.035   1.882  17.500 -0.2566  0.3960 -0.5651
  518TMC3    C6 7695   1.070   1.824  17.384 -0.7160  1.0362  0.8314
  518TMC3     C 7696   0.710   2.030  17.421 -0.1136 -0.6473  0.0508
  518TMC3     O 7697   0.606   1.997  17.356  0.1958 -0.4040 -0.3264
  518TMC3     H 7698   0.791   1.907  17.212 -0.2956 -0.0414  0.4492
  518TMC3    H1 7699   0.885   1.985  17.620 -0.4571  0.3092 -0.0482
  518TMC3    H2 7700   1.172   1.792  17.365 -0.5029  1.2901  1.5493
  518TMC3    C7 7701   1.137   1.941  17.592 -0.3829 -0.5496  0.6978
  518TMC3    C8 7702   0.988   1.744  17.161  0.3132  0.7206  0.0228
  518TMC3    O1 7703   1.097   1.972   0.024  0.2249  1.1070  0.0677
  518TMC3    O2 7704   1.065   1.647  17.159  0.3260 -0.1948  0.3473
  519MPD2     C 7705   2.976   1.324  14.521  0.5216  0.0473  0.3202
  519MPD2    C1 7706   2.958   1.365  14.395  0.1058 -0.2658  0.2328
  519MPD2    C2 7707   3.049   1.326  14.300 -0.1146  0.0047 -0.7387
  519MPD2    C3 7708   3.155   1.241  14.323 -0.6114 -1.0379 -0.7534
  519MPD2    C4 7709   3.174   1.185  14.454  0.8981 -0.0859 -0.0445
  519MPD2    C5 7710   3.085   1.239  14.542  0.3125  0.1736  0.3565
  519MPD2     H 7711   3.017   1.361  14.202 -2.1182  0.8872  0.2169
  519MPD2    H1 7712   3.251   1.115  14.484  1.8677  1.2520  0.6253
  519MPD2    H2 7713   2.906   1.359  14.596 -2.1809 -2.2867 -1.1263
  519MPD2    H3 7714   3.099   1.209  14.646 -0.5121 -1.2212  0.0492
  519MPD2     N 7715   3.228   1.190  14.214 -0.0928 -0.2319  0.0514
  519MPD2    H5 7716   3.314   1.137  14.226  0.2229 -0.1908 -1.9345
  519MPD2    N1 7717   2.828   1.418  14.368 -0.0649 -0.1411 -0.5993
  519MPD2    H7 7718   2.760   1.415  14.443  1.0621  1.1923  0.4609
  520TMC3    C1 7719   3.255   1.108  13.993  0.7701  0.9029 -0.7374
  520TMC3    C2 7720   3.244   1.129  13.858 -0.8986  0.0235 -0.6284
  520TMC3    C3 7721   3.295   1.045  13.770 -0.1382  0.4101  0.2706
  520TMC3    C4 7722   3.331   0.998  14.037 -0.1514 -0.4228 -0.5415
  520TMC3    C5 7723   3.396   0.915  13.948  0.4800  0.2643 -0.2979
  520TMC3    C6 7724   3.372   0.936  13.809 -0.5362  0.3778 -0.2090
  520TMC3     C 7725   3.188   1.203  14.084  0.1681  0.5636  0.1438
  520TMC3     O 7726   3.125   1.286  14.025  0.0750  0.0648 -0.3461
  520TMC3     H 7727   3.192   1.215  13.818 -0.4665  0.8851  0.6585
  520TMC3    H1 7728   3.328   0.975  14.143 -1.5154 -2.5475 -1.0467
  520TMC3    H2 7729   3.389   0.858  13.735 -2.3752  0.6730 -0.9564
  520TMC3    C7 7730   3.490   0.822  13.995  0.4967 -0.0648 -0.0530
  520TMC3    C8 7731   3.240   1.063  13.631  0.2548  0.6507 -0.2539
  520TMC3    O1 7732   3.505   0.807  14.115 -0.2240 -0.1319 -0.4408
  520TMC3    O2 7733   3.315   1.089  13.541  0.3078  0.0284 -0.6332
  521MPD2     C 7734   3.664   4.255  17.210  0.2051  1.0184  0.3089
  521MPD2    C1 7735   3.653   4.141  17.132 -0.2056  0.6188  0.2241
  521MPD2    C2 7736   3.768   4.078  17.088 -0.0841 -0.2100 -0.1356
  521MPD2    C3 7737   3.895   4.129  17.122 -0.5848 -0.0900 -0.5875
  521MPD2    C4 7738   3.911   4.230  17.210 -0.5905 -0.5972 -0.0354
  521MPD2    C5 7739   3.790   4.280  17.257  0.7133 -0.2797 -0.2112
  521MPD2     H 7740   3.770   3.985  17.034  0.9450  0.8640 -1.9674
  521MPD2    H1 7741   3.999   4.270  17.258  0.8395 -2.2026 -1.3438
  521MPD2    H2 7742   3.583   4.310  17.256 -0.7626 -1.3314  1.4248
  521MPD2    H3 7743   3.801   4.363  17.326  0.6577 -1.0234  0.6923
  521MPD2     N 7744   3.999   4.055  17.058  0.9209 -0.6315 -0.1783
  521MPD2    H5 7745   3.959   4.000  16.983  0.4376 -1.7062  0.8776
  521MPD2    N1 7746   3.527   4.092  17.097  0.2177 -0.4624 -0.3798
  521MPD2    H7 7747   3.452   4.149  17.135  0.5405 -0.2727 -0.0337
  522TMC3    C1 7748   4.208   3.972  17.006 -0.6433  0.3930  0.0056
  522TMC3    C2 7749   4.339   3.943  17.042  0.5059 -0.0974 -0.0835
  522TMC3    C3 7750   4.426   3.892  16.945  0.1667 -0.0238  0.1481
  522TMC3    C4 7751   4.166   3.968  16.874  0.4191 -0.2379 -0.1934
  522TMC3    C5 7752   4.258   3.923  16.787  0.0660  0.3222  0.6192
  522TMC3    C6 7753   4.379   3.867  16.820  0.5922  0.7729  0.4998
  522TMC3     C 7754   4.129   4.060  17.093  0.3244  0.1512 -0.2609
  522TMC3     O 7755   4.190   4.137  17.169  0.0881 -0.4348 -0.2335
  522TMC3     H 7756   4.368   3.967  17.143  0.8117 -0.7126 -0.0210
  522TMC3    H1 7757   4.071   4.014  16.848 -0.1732 -0.0907  2.1927
  522TMC3    H2 7758   4.446   3.822  16.749  0.1378 -0.8223  1.0789
  522TMC3    C7 7759   4.228   3.951  16.640  0.3089 -0.0008 -0.0171
  522TMC3    C8 7760   4.554   3.846  16.993  0.4332  0.1386  0.4701
  522TMC3    O1 7761   4.323   3.954  16.565 -0.0539 -1.0388 -0.5118
  522TMC3    O2 7762   4.606   3.891  17.094  0.1666 -0.1698 -0.5208
  523MPD2     C 7763   2.200   4.045  10.298  0.2586 -0.0107  0.3028
  523MPD2    C1 7764   2.155   3.982  10.183  0.1555 -0.3166 -0.3056
  523MPD2    C2 7765   2.089   4.050  10.084  0.1909 -0.0185  0.3262
  523MPD2    C3 7766   2.077   4.188  10.104  0.5294  0.1149 -0.0465
  523MPD2    C4 7767   2.133   4.249  10.217  0.9257 -0.5012  0.3273
  523MPD2    C5 7768   2.190   4.180  10.313 -0.3167  0.3638  0.0540
  523MPD2     H 7769   2.042   3.997  10.002 -2.5605 -0.1067  1.9610
  523MPD2    H1 7770   2.117   4.354  10.238 -0.7711 -0.2869 -2.0087
  523MPD2    H2 7771   2.248   3.980  10.370  3.1167  1.8293  0.0762
  523MPD2    H3 7772   2.235   4.227  10.400  0.7490 -2.2545  0.9143
  523MPD2     N 7773   2.002   4.263  10.007  0.2944  0.2776 -0.4769
  523MPD2    H5 7774   1.996   4.363  10.019 -1.5262 -0.1381  2.0727
  523MPD2    N1 7775   2.183   3.845  10.174 -0.9583  0.2693  0.0977
  523MPD2    H7 7776   2.205   3.802  10.263  0.8678  0.5267 -0.2416
  524TMC3    C1 7777   1.907   4.323   9.795  0.6262 -0.4219 -0.8176
  524TMC3    C2 7778   1.945   4.333   9.662  0.4386  0.5762 -0.6023
  524TMC3    C3 7779   1.888   4.436   9.597 -0.5015  0.0436 -0.1191
  524TMC3    C4 7780   1.816   4.404   9.866  0.6773 -0.0319  0.2592
  524TMC3    C5 7781   1.755   4.502   9.786 -0.2652 -0.1389  0.2339
  524TMC3    C6 7782   1.799   4.520   9.653 -0.2289 -0.5639 -0.9544
  524TMC3     C 7783   1.972   4.215   9.878 -0.0446  0.2727  0.0962
  524TMC3     O 7784   1.995   4.107   9.817 -0.1954  0.4457  0.3601
  524TMC3     H 7785   2.030   4.275   9.631  0.8116  0.3927  0.7620
  524TMC3    H1 7786   1.798   4.390   9.972  1.4018  1.7856  0.6181
  524TMC3    H2 7787   1.786   4.613   9.598 -0.4069  1.0733  1.8687
  524TMC3    C7 7788   1.623   4.540   9.831  1.1886  0.2409 -1.1766
  524TMC3    C8 7789   1.883   4.425   9.455 -0.5979 -0.0273 -0.2875
  524TMC3    O1 7790   1.586   4.507   9.945  0.4735 -0.6696  0.6843
  524TMC3    O2 7791   1.808   4.499   9.392  0.4462 -0.1499 -0.3791
  525MPD2     C 7792   4.415   0.472  14.319 -0.7146  0.5356 -0.1596
  525MPD2    C1 7793   4.490   0.536  14.416  0.1044  0.8796 -0.6684
  525MPD2    C2 7794   4.542   0.662  14.390  0.3478  0.2909 -0.3084
  525MPD2    C3 7795   4.522   0.722  14.268 -0.4711 -0.2778  0.3735
  525MPD2    C4 7796   4.437   0.668  14.175 -0.1758 -0.5756 -0.1298
  525MPD2    C5 7797   4.386   0.545  14.209  0.1188 -0.2642 -0.2577
  525MPD2     H 7798   4.583   0.722  14.470 -1.6783  0.9719  0.2170
  525MPD2    H1 7799   4.411   0.730  14.090 -1.2079 -0.0168  0.5952
  525MPD2    H2 7800   4.359   0.380  14.332  0.3176 -0.2911 -1.5803
  525MPD2    H3 7801   4.311   0.503  14.144 -0.2375  0.4991 -0.3419
  525MPD2     N 7802   4.589   0.845  14.238  0.2993 -0.2418  0.1704
  525MPD2    H5 7803   4.549   0.887  14.155  1.4249 -0.6100 -0.5667
  525MPD2    N1 7804   4.518   0.471  14.535 -0.3659 -0.4889  0.1474
  525MPD2    H7 7805   4.555   0.529  14.610  0.4084 -1.0241  0.1741
  526TMC3    C1 7806   4.487   0.306  14.705  0.1943  0.2075 -1.0748
  526TMC3    C2 7807   4.440   0.397  14.791  0.0940 -0.2203 -0.0589
  526TMC3    C3 7808   4.477   0.391  14.920  1.1127  0.7371 -0.1024
  526TMC3    C4 7809   4.595   0.227  14.736 -0.3583  0.5050  0.3077
  526TMC3    C5 7810   4.646   0.236  14.860  0.2490 -0.3552 -0.6449
  526TMC3    C6 7811   4.586   0.311  14.954 -0.1963  0.1849  1.0524
  526TMC3     C 7812   4.487   0.338  14.563 -0.5348  0.1323  0.3874
  526TMC3     O 7813   4.440   0.251  14.495  0.1481 -0.1852 -0.3899
  526TMC3     H 7814   4.374   0.477  14.762 -1.3606 -0.8433  1.5368
  526TMC3    H1 7815   4.636   0.159  14.662 -2.6673 -1.0723  0.4791
  526TMC3    H2 7816   4.629   0.313  15.053  0.7584  0.0652  0.6417
  526TMC3    C7 7817   0.058   0.184  14.880  0.1305 -0.0797 -0.1685
  526TMC3    C8 7818   4.422   0.467  15.023 -0.3981  0.0329 -0.3932
  526TMC3    O1 7819   0.098   0.194  14.996  0.4719  0.6235  0.1323
  526TMC3    O2 7820   4.487   0.488  15.125 -0.0379  0.0502 -0.7818
  527MPD2     C 7821   1.734   3.241   0.674 -0.4074  0.1086  0.3985
  527MPD2    C1 7822   1.793   3.251   0.801  0.2466 -0.9125 -0.1545
  527MPD2    C2 7823   1.924   3.207   0.804 -0.3948 -0.3753  0.3812
  527MPD2    C3 7824   2.008   3.184   0.693 -1.0137  0.6022 -0.0698
  527MPD2    C4 7825   1.948   3.190   0.564  0.3047  0.2598  0.1121
  527MPD2    C5 7826   1.811   3.213   0.561 -0.0716 -0.5863  0.4796
  527MPD2     H 7827   1.977   3.215   0.898 -0.5651 -0.9606  0.5319
  527MPD2    H1 7828   1.987   3.149   0.472 -1.2474 -0.8527 -0.0547
  527MPD2    H2 7829   1.627   3.252   0.663 -0.3573 -0.2886 -0.4933
  527MPD2    H3 7830   1.767   3.203   0.463 -0.6553  1.9016  0.4843
  527MPD2     N 7831   2.147   3.162   0.720 -1.0469 -0.6586 -0.3678
  527MPD2    H5 7832   2.171   3.167   0.819  1.1995 -2.1094 -0.8415
  527MPD2    N1 7833   1.725   3.287   0.918  0.0109  0.4836  0.2175
  527MPD2    H7 7834   1.770   3.286   1.009 -0.2987  1.9866  0.3768
  528TMC3    C1 7835   1.550   3.365   1.055 -0.3178 -0.6724 -0.5607
  528TMC3    C2 7836   1.618   3.332   1.169 -0.1230  0.3184 -0.0187
  528TMC3    C3 7837   1.577   3.392   1.283  0.4130  0.1047 -0.7305
  528TMC3    C4 7838   1.442   3.445   1.049  0.3452  0.4335  0.3743
  528TMC3    C5 7839   1.404   3.507   1.165  0.3235  0.4373 -0.5196
  528TMC3    C6 7840   1.471   3.478   1.281 -0.0050 -0.0661  0.3888
  528TMC3     C 7841   1.590   3.325   0.926  0.1477 -0.3169  0.2277
  528TMC3     O 7842   1.503   3.323   0.839  0.1162  0.4662  0.4974
  528TMC3     H 7843   1.713   3.279   1.164  0.4928  1.2933  1.4662
  528TMC3    H1 7844   1.383   3.452   0.958 -0.7592 -1.2236  0.9818
  528TMC3    H2 7845   1.442   3.532   1.371  0.7936  0.2747  0.4429
  528TMC3    C7 7846   1.292   3.602   1.172 -0.3836 -0.1871 -0.3054
  528TMC3    C8 7847   1.688   3.451   1.353  0.6134 -0.3591 -0.7907
  528TMC3    O1 7848   1.242   3.622   1.278 -0.1511 -0.3664  0.0104
  528TMC3    O2 7849   1.693   3.572   1.349 -0.0714  0.7308  0.3099
  529MPD2     C 7850   4.306   2.244   1.339 -0.7433  0.0914 -0.1522
  529MPD2    C1 7851   4.320   2.136   1.251  0.5481 -0.0690 -0.6454
  529MPD2    C2 7852   4.300   2.160   1.118  0.5575  0.4479  0.2967
  529MPD2    C3 7853   4.265   2.278   1.071  0.3889  0.2261 -0.6930
  529MPD2    C4 7854   4.252   2.382   1.156 -0.0616 -0.2544 -0.3942
  529MPD2    C5 7855   4.277   2.365   1.287 -0.2826  0.4246 -0.6279
  529MPD2     H 7856   4.298   2.069   1.060  1.1386  0.7977 -0.2621
  529MPD2    H1 7857   4.254   2.485   1.122  0.0280  0.1312  0.7839
  529MPD2    H2 7858   4.320   2.245   1.447  0.8230 -0.9336 -0.3302
  529MPD2    H3 7859   4.262   2.452   1.350  0.8188  0.4844 -0.4568
  529MPD2     N 7860   4.245   2.306   0.937 -0.2641  0.5877  0.0351
  529MPD2    H5 7861   4.213   2.398   0.909 -1.4692  0.7247  1.8596
  529MPD2    N1 7862   4.352   2.006   1.281 -0.1917 -0.3691  0.1374
  529MPD2    H7 7863   4.359   1.937   1.207  0.8213  1.1122 -1.1378
  530TMC3    C1 7864   4.429   1.825   1.413 -0.3099  0.0282 -0.1531
  530TMC3    C2 7865   4.531   1.814   1.502  0.0529  0.1083 -0.4585
  530TMC3    C3 7866   4.635   1.719   1.475  0.5229  0.7648 -0.4721
  530TMC3    C4 7867   4.434   1.747   1.301  0.7077  0.1861 -0.0800
  530TMC3    C5 7868   4.542   1.663   1.280  0.0887  1.6265 -0.3464
  530TMC3    C6 7869   4.651   1.654   1.363  0.0044 -0.6752 -0.4239
  530TMC3     C 7870   4.361   1.951   1.404  0.3352 -0.4255 -0.4584
  530TMC3     O 7871   4.342   2.013   1.505 -0.1746 -0.2815 -0.8589
  530TMC3     H 7872   4.514   1.870   1.593 -1.3882  0.8611 -1.1922
  530TMC3    H1 7873   4.358   1.751   1.224 -0.6294 -0.3331  1.2105
  530TMC3    H2 7874   4.708   1.562   1.364 -0.5685 -1.0412 -2.0772
  530TMC3    C7 7875   4.524   1.550   1.185 -0.2017 -0.2151 -0.1949
  530TMC3    C8 7876   0.003   1.703   1.586  0.3184 -0.1073 -0.2001
  530TMC3    O1 7877   4.621   1.501   1.124 -0.7145  0.1203  0.0852
  530TMC3    O2 7878   4.660   1.688   1.688 -0.6059 -0.0802  0.4446
  531MPD2     C 7879   3.860   4.039  12.814 -0.8250  0.1231  0.0982
  531MPD2    C1 7880   3.801   4.151  12.873  0.5774 -0.0343 -0.3282
  531MPD2    C2 7881   3.726   4.241  12.794  0.1152 -0.5272 -0.9556
  531MPD2    C3 7882   3.709   4.212  12.660  0.3215  0.1178  0.9904
  531MPD2    C4 7883   3.776   4.104  12.601  0.2223 -0.2041  0.1981
  531MPD2    C5 7884   3.850   4.022  12.681  0.3149  0.0792 -0.2362
  531MPD2     H 7885   3.686   4.332  12.835 -0.3840 -1.0653 -0.2437
  531MPD2    H1 7886   3.761   4.097  12.494  2.0677 -0.5516 -0.0317
  531MPD2    H2 7887   3.916   3.967  12.872  0.0796  0.4325 -0.4050
  531MPD2    H3 7888   3.893   3.929  12.644 -1.6356 -0.9426  0.0936
  531MPD2     N 7889   3.632   4.308  12.590 -0.4894 -0.1738  0.0289
  531MPD2    H5 7890   3.576   4.372  12.645 -1.5298 -0.1702 -1.0219
  531MPD2    N1 7891   3.827   4.176  13.007 -0.0317  0.7157  0.1004
  531MPD2    H7 7892   3.875   4.106  13.062  2.4764  1.0966 -1.6256
  532TMC3    C1 7893   3.811   4.291  13.217 -0.0620 -0.0143  0.1379
  532TMC3    C2 7894   3.714   4.353  13.289 -0.4311  0.3361 -0.5896
  532TMC3    C3 7895   3.743   4.445  13.382  0.1960 -0.9138  0.1358
  532TMC3    C4 7896   3.940   4.322  13.240 -0.5223  0.8680 -0.5994
  532TMC3    C5 7897   3.967   4.411  13.341  0.2640 -0.5439 -0.1266
  532TMC3    C6 7898   3.872   4.467  13.418  0.2228  0.2926 -0.1166
  532TMC3     C 7899   3.765   4.273  13.078  0.7787 -0.6859 -0.0830
  532TMC3     O 7900   3.680   4.353  13.052 -0.1712  0.2290 -0.2153
  532TMC3     H 7901   3.613   4.317  13.274  0.0450 -0.9408 -0.7587
  532TMC3    H1 7902   4.013   4.279  13.174 -1.6067 -2.2991  0.2615
  532TMC3    H2 7903   3.905   4.544  13.486  2.3888 -0.0099 -0.8178
  532TMC3    C7 7904   4.104   4.400  13.394 -0.1227  0.1743 -0.1419
  532TMC3    C8 7905   3.687   4.576  13.341  0.3530 -0.3800  0.8171
  532TMC3    O1 7906   4.152   4.493  13.462 -0.4250 -0.3179  0.4052
  532TMC3    O2 7907   3.710   4.676  13.410 -0.5455 -0.1007  0.2160
  533TMC3    C1 7908   0.027   1.019  14.257  0.2909  0.0141  0.0769
  533TMC3    C2 7909   0.150   1.065  14.300  0.1836  0.0310 -0.3121
  533TMC3    C3 7910   0.174   1.195  14.280 -0.1630 -0.1695  1.0235
  533TMC3    C4 7911   4.653   1.102  14.189 -0.1325 -0.0482  0.7993
  533TMC3    C5 7912   4.681   1.232  14.172 -0.4907 -0.0840  0.2354
  533TMC3    C6 7913   0.088   1.273  14.209 -0.4512 -0.5450  0.1790
  533TMC3     C 7914   4.709   0.882  14.293  0.6639 -0.6044  0.0260
  533TMC3     O 7915   0.061   0.833  14.382  0.3735 -0.0931 -0.1962
  533TMC3     H 7916   0.210   1.002  14.365 -0.7085  0.4131  0.8820
  533TMC3    H1 7917   4.556   1.064  14.160 -0.2983  0.9392  0.0719
  533TMC3    H2 7918   0.111   1.375  14.178  0.1494 -0.4985  0.7811
  533TMC3    C7 7919   4.577   1.314  14.240 -0.3800 -0.2552  0.0657
  533TMC3    C8 7920   0.265   1.273  14.370  0.1076  0.1615 -0.4310
  533TMC3    O1 7921   4.463   1.270  14.220  0.5523 -0.0511 -0.0073
  533TMC3    O2 7922   0.224   1.388  14.391 -0.2838 -0.3273 -0.0633
  534MPD2     C 7923   2.484   2.551   1.627 -0.3461  0.0370 -0.1392
  534MPD2    C1 7924   2.366   2.627   1.624  0.2739  0.2055  0.4403
  534MPD2    C2 7925   2.247   2.551   1.622 -0.0436 -0.5289 -0.0531
  534MPD2    C3 7926   2.240   2.413   1.624 -0.7332  0.1450  0.2358
  534MPD2    C4 7927   2.359   2.340   1.619 -0.1898  0.0757  0.2980
  534MPD2    C5 7928   2.476   2.406   1.623 -0.1253 -0.6661  0.5978
  534MPD2     H 7929   2.155   2.609   1.614  0.3516  0.2401  0.9298
  534MPD2    H1 7930   2.364   2.233   1.606  2.8533 -0.0066  2.1111
  534MPD2    H2 7931   2.576   2.605   1.638  0.5011 -1.2198 -0.9817
  534MPD2    H3 7932   2.568   2.350   1.609  0.4961  0.5106 -0.0650
  534MPD2     N 7933   2.123   2.336   1.624 -0.3492 -0.2805  0.3671
  534MPD2    H5 7934   2.138   2.236   1.611  0.9125 -0.0210 -0.1588
  534MPD2    N1 7935   2.358   2.767   1.618  0.3817 -0.1336  0.8475
  534MPD2    H7 7936   2.263   2.802   1.615  0.0712 -0.9443  1.0688
  535TMC3    C1 7937   1.903   2.275   1.594 -0.6149 -0.6351  0.3977
  535TMC3    C2 7938   1.780   2.284   1.652  0.4350 -0.6210 -0.1611
  535TMC3    C3 7939   1.673   2.241   1.570  0.2729  0.1801  0.1980
  535TMC3    C4 7940   1.926   2.232   1.470 -0.1711 -0.2305 -0.3028
  535TMC3    C5 7941   1.818   2.191   1.402 -0.7568  0.1270  0.4431
  535TMC3    C6 7942   1.690   2.194   1.445  0.1689  0.6131  0.9313
  535TMC3     C 7943   1.995   2.381   1.638  0.4754  0.0652  0.1815
  535TMC3     O 7944   1.962   2.482   1.703  0.1078  0.0060  0.5853
  535TMC3     H 7945   1.768   2.335   1.746  0.6014  0.3569 -0.6724
  535TMC3    H1 7946   2.026   2.233   1.427  0.3649  0.8384  0.9464
  535TMC3    H2 7947   1.606   2.164   1.383  0.3572 -0.2251  1.0892
  535TMC3    C7 7948   1.847   2.168   1.266  0.7108 -0.2611 -0.4573
  535TMC3    C8 7949   1.551   2.196   1.626  0.8559  0.4591 -0.1634
  535TMC3    O1 7950   1.958   2.126   1.235  0.2636 -0.1770 -0.3307
  535TMC3    O2 7951   1.489   2.108   1.572 -0.3192 -0.5486 -0.7179
  536MPD2     C 7952   0.924   0.633  16.441 -0.5171  0.1453  0.3553
  536MPD2    C1 7953   0.784   0.644  16.467 -0.3502  0.9748  0.4521
  536MPD2    C2 7954   0.705   0.723  16.381  0.5785  1.0104 -0.1870
  536MPD2    C3 7955   0.750   0.784  16.269 -0.3048  0.3082  0.0678
  536MPD2    C4 7956   0.890   0.773  16.239 -0.5319  0.2092  1.2455
  536MPD2    C5 7957   0.967   0.705  16.329  0.6245  0.0012 -0.2959
  536MPD2     H 7958   0.601   0.741  16.407 -0.0845 -0.4519 -1.8476
  536MPD2    H1 7959   0.943   0.811  16.152  1.4084 -0.9787  1.9017
  536MPD2    H2 7960   0.996   0.570  16.492 -0.8218 -0.9306 -0.5360
  536MPD2    H3 7961   1.074   0.704  16.313  1.0181 -1.3281  2.4264
  536MPD2     N 7962   0.658   0.846  16.177 -0.0522  0.0813  0.5189
  536MPD2    H5 7963   0.561   0.854  16.206 -0.5613 -0.0196 -1.1661
  536MPD2    N1 7964   0.742   0.572  16.578  0.4050 -0.0090 -0.4129
  536MPD2    H7 7965   0.808   0.513  16.627  0.0918  0.2491  0.3173
  537TMC3    C1 7966   0.584   0.473  16.727 -0.4643 -0.2387 -0.9916
  537TMC3    C2 7967   0.688   0.435  16.809  0.1060 -0.6164 -0.2788
  537TMC3    C3 7968   0.660   0.349  16.913 -0.5142  0.3022 -0.1742
  537TMC3    C4 7969   0.452   0.439  16.748  0.7730  0.5940 -0.6704
  537TMC3    C5 7970   0.434   0.346  16.850 -0.1812  0.1930  0.0034
  537TMC3    C6 7971   0.537   0.300  16.929  0.4155 -0.0683 -0.0172
  537TMC3     C 7972   0.613   0.558  16.615  0.9864 -0.0615  0.4398
  537TMC3     O 7973   0.514   0.609  16.562  0.6862 -0.8541  0.0617
  537TMC3     H 7974   0.786   0.478  16.789  0.1086  0.3133  1.7389
  537TMC3    H1 7975   0.367   0.473  16.690 -1.3543 -2.0167  0.9245
  537TMC3    H2 7976   0.525   0.232  17.013 -0.7476 -0.7362 -0.7339
  537TMC3    C7 7977   0.303   0.285  16.867  0.1536 -0.9873 -0.6182
  537TMC3    C8 7978   0.765   0.289  16.995 -0.5977 -0.0282  0.3234
  537TMC3    O1 7979   0.212   0.350  16.818  0.8614 -0.0195 -0.9461
  537TMC3    O2 7980   0.734   0.202  17.076 -0.0953  0.6684  0.0464
  538TMC3    C1 7981   2.379   4.114  10.991  0.0949 -0.5537 -0.2375
  538TMC3    C2 7982   2.464   4.036  10.910  0.3436 -0.1639  0.6136
  538TMC3    C3 7983   2.406   3.982  10.797 -0.2109 -1.2078  0.4022
  538TMC3    C4 7984   2.266   4.167  10.944 -0.3409 -0.7491 -0.1036
  538TMC3    C5 7985   2.223   4.133  10.822  1.3134 -0.0611 -0.0707
  538TMC3    C6 7986   2.289   4.031  10.748 -0.8535  1.1723 -0.6994
  538TMC3     C 7987   2.391   4.111  11.133  0.5029  0.2743 -0.2041
  538TMC3     O 7988   2.290   4.138  11.204 -0.2966  0.1564 -0.1733
  538TMC3     H 7989   2.543   3.984  10.963 -2.2300 -2.6507  1.9629
  538TMC3    H1 7990   2.221   4.243  11.006  2.6917  1.9711 -1.1856
  538TMC3    H2 7991   2.256   4.009  10.647 -0.2239  0.0141 -0.6502
  538TMC3    C7 7992   2.159   4.236  10.742 -0.4321 -0.4980  0.4425
  538TMC3    C8 7993   2.476   3.880  10.730 -0.4708 -0.2593  0.0142
  538TMC3    O1 7994   2.091   4.188  10.651  0.9103  0.2699  0.2695
  538TMC3    O2 7995   2.413   3.823  10.640 -0.0918  0.1986 -0.2469
  539MPD2     C 7996   2.518   3.543  11.826 -0.0360 -0.2156 -0.6064
  539MPD2    C1 7997   2.420   3.532  11.734  0.8058  0.3230  0.2268
  539MPD2    C2 7998   2.350   3.639  11.701 -0.1220  0.7626  0.2925
  539MPD2    C3 7999   2.378   3.770  11.744  0.2484 -0.8976  0.2591
  539MPD2    C4 8000   2.481   3.780  11.830  0.0898 -0.2014  0.0044
  539MPD2    C5 8001   2.547   3.670  11.870  0.0478  0.7346  0.0533
  539MPD2     H 8002   2.266   3.614  11.637  0.6188  0.0044 -0.3827
  539MPD2    H1 8003   2.512   3.877  11.867  1.8085  0.1161 -2.2932
  539MPD2    H2 8004   2.584   3.464  11.860 -1.4790 -1.8843 -1.6821
  539MPD2    H3 8005   2.623   3.681  11.947  0.6372  0.3230 -0.4679
  539MPD2     N 8006   2.304   3.886  11.721  0.0021 -0.2055 -0.0427
  539MPD2    H5 8007   2.329   3.969  11.773  1.3281  0.4711 -1.7557
  539MPD2    N1 8008   2.370   3.408  11.687  0.1796 -0.4667  0.2416
  539MPD2    H7 8009   2.292   3.400  11.623  0.1346 -0.1292  0.2511
  540TMC3    C1 8010   2.144   4.021  11.585 -0.2140  0.2906  0.6201
  540TMC3    C2 8011   2.090   4.029  11.456  0.0799  0.0614 -0.0634
  540TMC3    C3 8012   1.991   4.125  11.443  0.0305  0.3809  0.8277
  540TMC3    C4 8013   2.098   4.092  11.693  0.1171  0.3780 -0.0692
  540TMC3    C5 8014   2.006   4.189  11.669  0.0213  0.5851 -0.3414
  540TMC3    C6 8015   1.957   4.210  11.548 -0.4173  0.0199  0.6449
  540TMC3     C 8016   2.212   3.894  11.617  0.2211  0.3342  0.3584
  540TMC3     O 8017   2.186   3.811  11.531  0.0621  0.0325 -0.1461
  540TMC3     H 8018   2.135   3.975  11.373 -0.7161 -0.1569 -0.3545
  540TMC3    H1 8019   2.132   4.066  11.793 -1.4582 -1.1323  0.0722
  540TMC3    H2 8020   1.891   4.294  11.528  0.8412  0.9243  0.2931
  540TMC3    C7 8021   1.909   4.206  11.775  0.2005 -0.2465 -0.1598
  540TMC3    C8 8022   1.925   4.131  11.318  0.5907 -1.0356 -0.1682
  540TMC3    O1 8023   1.886   4.114  11.854 -0.1080 -0.2186 -0.3154
  540TMC3    O2 8024   1.863   4.233  11.293 -0.6976  0.0775 -0.2750
  541MPD2     C 8025   0.266   4.690  13.010 -0.8942 -0.2458  0.7926
  541MPD2    C1 8026   0.330   4.630  12.914 -0.7145 -0.2394  0.2696
  541MPD2    C2 8027   0.385   4.693  12.808 -0.1257  0.0062  0.4652
  541MPD2    C3 8028   0.367   0.113  12.790  0.0483 -0.0176  0.7194
  541MPD2    C4 8029   0.308   0.175  12.897  0.3748  0.8863 -0.1636
  541MPD2    C5 8030   0.265   0.107  13.007 -0.1192 -0.6570  0.2040
  541MPD2     H 8031   0.426   4.632  12.729 -0.4181  1.8007 -1.0789
  541MPD2    H1 8032   0.289   0.282  12.899  1.8174  1.1724 -1.4768
  541MPD2    H2 8033   0.227   4.645  13.101 -0.3377 -0.5494  0.8802
  541MPD2    H3 8034   0.204   0.158  13.080 -1.2102 -1.4633 -0.1567
  541MPD2     N 8035   0.398   0.192  12.681 -0.1357  0.0222  0.2985
  541MPD2    H5 8036   0.362   0.287  12.685  0.3537  0.3759 -3.5830
  541MPD2    N1 8037   0.360   4.496  12.917 -0.1867 -0.7013  0.0795
  541MPD2    H7 8038   0.422   4.457  12.847 -0.4488 -0.1914 -0.4271
  542TMC3    C1 8039   0.466   0.251  12.464 -0.4540 -1.2810  0.1277
  542TMC3    C2 8040   0.529   0.218  12.345 -0.4544  1.0660  0.4520
  542TMC3    C3 8041   0.495   0.284  12.225 -0.6438 -0.0764 -0.2520
  542TMC3    C4 8042   0.361   0.346  12.460 -0.6024  0.5530  0.4246
  542TMC3    C5 8043   0.330   0.404  12.336  0.5027  0.5393 -0.3453
  542TMC3    C6 8044   0.394   0.380  12.221 -0.3883  0.0419  0.1654
  542TMC3     C 8045   0.463   0.150  12.568 -0.8531 -0.3125 -0.3686
  542TMC3     O 8046   0.521   0.039  12.550  0.7696  0.4021 -0.4228
  542TMC3     H 8047   0.604   0.139  12.348 -0.8532  0.6102 -1.6717
  542TMC3    H1 8048   0.294   0.377  12.539 -0.1946 -0.2850  1.0958
  542TMC3    H2 8049   0.364   0.422  12.126 -2.4021  0.5247  0.9970
  542TMC3    C7 8050   0.222   0.504  12.339 -0.3747 -0.5165 -0.7080
  542TMC3    C8 8051   0.511   0.208  12.102  0.8739  0.2126  0.2039
  542TMC3    O1 8052   0.142   0.482  12.430  0.9304  0.2328 -0.3939
  542TMC3    O2 8053   0.501   0.270  11.997  0.0475  0.2584  0.2158
  543TMC3    C1 8054   3.833   0.865  17.297  1.3433  0.1350  0.6658
  543TMC3    C2 8055   3.864   0.737  17.332  0.0826  0.5541 -0.3933
  543TMC3    C3 8056   3.817   0.688  17.447 -0.1759  0.7647 -0.4703
  543TMC3    C4 8057   3.787   0.956  17.393 -0.5502 -0.0441  0.3258
  543TMC3    C5 8058   3.750   0.902  17.512  0.6293 -0.4337  0.2938
  543TMC3    C6 8059   3.753   0.769  17.534 -0.0473  0.4419  0.2932
  543TMC3     C 8060   3.885   0.902  17.169 -0.0107  0.5222 -0.2752
  543TMC3     O 8061   3.931   0.823  17.090 -0.2826  0.0631 -0.1155
  543TMC3     H 8062   3.908   0.677  17.253  1.4885  2.8954 -1.3951
  543TMC3    H1 8063   3.769   1.060  17.368 -3.1879  0.1308  3.0141
  543TMC3    H2 8064   3.702   0.730  17.621  2.4577 -2.7580  0.3113
  543TMC3    C7 8065   3.807   0.965  17.625 -0.0177 -0.2371 -0.0038
  543TMC3    C8 8066   3.900   0.591  17.512  0.1401  0.1444  0.9485
  543TMC3    O1 8067   3.789   0.902   0.054 -0.2569 -0.4706  0.3468
  543TMC3    O2 8068   3.963   0.515  17.447  0.6409 -0.2166 -0.2196
  544MPD2     C 8069   4.133   0.442   0.273 -0.4336  0.2011  0.2987
  544MPD2    C1 8070   4.155   0.396   0.145 -0.1311  0.3748 -0.4903
  544MPD2    C2 8071   4.081   0.446   0.037 -0.3212  0.5630  0.2305
  544MPD2    C3 8072   3.984   0.547   0.066 -0.8905 -0.2380  0.1775
  544MPD2    C4 8073   3.969   0.596   0.201  0.0267 -0.3338 -0.4730
  544MPD2    C5 8074   4.042   0.539   0.299  0.6858 -0.5108  0.2528
  544MPD2     H 8075   4.083   0.403  17.616  1.3836  0.5057  0.2842
  544MPD2    H1 8076   3.906   0.680   0.227  0.1982  0.3876 -2.4215
  544MPD2    H2 8077   4.187   0.398   0.356  0.2345 -1.1961 -0.8673
  544MPD2    H3 8078   4.035   0.577   0.401 -0.5591  0.3979 -0.1711
  544MPD2     N 8079   3.905   0.613  17.649 -0.1280 -0.1825 -0.1808
  544MPD2    H5 8080   3.853   0.693   0.005 -1.0834 -1.3469  1.0351
  544MPD2    N1 8081   4.252   0.295   0.128  0.0583 -0.4033 -0.4352
  544MPD2    H7 8082   4.308   0.264   0.207  0.1217 -0.9996 -0.7118
  545TMC3    C1 8083   4.384   0.141   0.005  0.2814 -0.3596 -0.4295
  545TMC3    C2 8084   4.486   0.162   0.098  0.4648  0.1306  0.5612
  545TMC3    C3 8085   4.583   0.064   0.100  0.7848  0.5682 -0.3472
  545TMC3    C4 8086   4.382   0.028  17.604  0.0602 -0.3373  0.4805
  545TMC3    C5 8087   4.484   4.660  17.604  1.0822  0.7417 -0.4930
  545TMC3    C6 8088   4.582   4.674   0.013 -1.2005 -0.2790  0.1552
  545TMC3     C 8089   4.265   0.223   0.008 -0.3470  0.5156  0.5409
  545TMC3     O 8090   4.201   0.230  17.584  0.6281 -0.1937  0.0192
  545TMC3     H 8091   4.486   0.241   0.173  2.1109  0.2996  0.3685
  545TMC3    H1 8092   4.296   0.006  17.542 -0.9281  1.9755  1.0281
  545TMC3    H2 8093   4.662   4.601   0.018 -0.8899  0.1384  1.3867
  545TMC3    C7 8094   4.465   4.538  17.534 -0.6211  0.8144  0.7159
  545TMC3    C8 8095   4.693   0.072   0.193 -0.4172  0.8805 -0.6142
  545TMC3    O1 8096   4.392   4.548  17.434  0.3180 -0.4600  0.2864
  545TMC3    O2 8097   0.079   0.012   0.185  0.2900 -0.1747 -0.0917
  546MPD2     C 8098   1.114   0.811  17.197  0.2906 -0.4154 -0.0392
  546MPD2    C1 8099   1.030   0.799  17.094  0.0580  0.3958 -0.6420
  546MPD2    C2 8100   1.064   0.870  16.978  0.2388 -0.1051 -0.1863
  546MPD2    C3 8101   1.188   0.934  16.963 -0.9345  0.2395  0.2588
  546MPD2    C4 8102   1.283   0.923  17.065  0.7750 -0.2595 -0.5125
  546MPD2    C5 8103   1.243   0.858  17.179  0.1602  1.1232 -0.2119
  546MPD2     H 8104   0.989   0.859  16.900 -1.4180 -1.5353  1.6234
  546MPD2    H1 8105   1.379   0.971  17.053  0.7619 -0.6519 -2.1063
  546MPD2    H2 8106   1.088   0.769  17.293  1.7745 -0.4548  0.3504
  546MPD2    H3 8107   1.314   0.838  17.258 -2.5070  1.4713  2.2768
  546MPD2     N 8108   1.231   1.005  16.845 -0.5148  0.3587  0.2433
  546MPD2    H5 8109   1.324   1.046  16.855 -0.8713  1.2644 -0.1843
  546MPD2    N1 8110   0.905   0.740  17.122 -0.3137  0.2936  0.0537
  546MPD2    H7 8111   0.884   0.739  17.221 -1.6905  2.5980 -0.2083
  547TMC3    C1 8112   0.681   0.685  17.107 -0.1493  0.8596  0.0373
  547TMC3    C2 8113   0.560   0.707  17.045 -0.3738 -0.4438  0.7769
  547TMC3    C3 8114   0.444   0.650  17.094  0.5087 -0.2860 -0.8301
  547TMC3    C4 8115   0.690   0.601  17.217 -0.0125  0.1890  0.2046
  547TMC3    C5 8116   0.573   0.547  17.262  0.4771  0.2389  0.1058
  547TMC3    C6 8117   0.449   0.571  17.205  0.0960  0.1987 -0.3297
  547TMC3     C 8118   0.804   0.722  17.034  0.2367  0.3902  1.5742
  547TMC3     O 8119   0.806   0.733  16.914  0.1232  0.0498  0.3656
  547TMC3     H 8120   0.554   0.773  16.959  0.2252  0.2675  1.2784
  547TMC3    H1 8121   0.784   0.567  17.259  0.3426  1.7016  0.6189
  547TMC3    H2 8122   0.356   0.524  17.236 -1.0829  1.9790 -1.1519
  547TMC3    C7 8123   0.555   0.486  17.390 -0.3485  0.0284  0.4432
  547TMC3    C8 8124   0.321   0.658  17.005  0.1980  1.0077  0.9570
  547TMC3    O1 8125   0.442   0.475  17.432  0.3355  0.1656 -0.0661
  547TMC3    O2 8126   0.341   0.699  16.891  0.2822 -0.3191 -0.3072
  548MPD2     C 8127   1.010   1.925  12.045 -0.2619 -0.2026  0.3866
  548MPD2    C1 8128   0.974   1.866  12.162 -0.2108 -0.9271  0.7761
  548MPD2    C2 8129   1.045   1.758  12.208  0.0760 -0.0699  0.2467
  548MPD2    C3 8130   1.160   1.721  12.136 -0.2872 -0.4838 -0.0054
  548MPD2    C4 8131   1.199   1.789  12.027 -0.5668  0.3524 -0.7493
  548MPD2    C5 8132   1.126   1.888  11.979  0.1274  0.6777  0.0026
  548MPD2     H 8133   1.018   1.706  12.299 -1.6953  1.7270  0.7476
  548MPD2    H1 8134   1.282   1.767  11.960  1.3978  2.7993  0.8764
  548MPD2    H2 8135   0.945   1.996  11.994  0.3892 -1.7568 -2.6343
  548MPD2    H3 8136   1.151   1.935  11.884 -1.0719  2.3402  0.5039
  548MPD2     N 8137   1.237   1.612  12.190  0.4061 -0.2790  0.1392
  548MPD2    H5 8138   1.213   1.573  12.280 -0.2801 -0.0925  0.0327
  548MPD2    N1 8139   0.846   1.907  12.218 -0.1144  0.2719 -0.2212
  548MPD2    H7 8140   0.803   1.983  12.166  1.2565  0.8101 -0.5614
  549TMC3    C1 8141   0.662   1.917  12.366 -0.2791  0.6827  0.2521
  549TMC3    C2 8142   0.605   2.011  12.282 -0.4756  0.6058 -0.3744
  549TMC3    C3 8143   0.472   2.006  12.265  0.2992  0.2249 -0.3903
  549TMC3    C4 8144   0.589   1.839  12.451 -0.4614 -0.0654 -1.0875
  549TMC3    C5 8145   0.454   1.838  12.431  0.0863  0.2766  0.0624
  549TMC3    C6 8146   0.388   1.921  12.339 -0.1473  0.2985 -0.2295
  549TMC3     C 8147   0.795   1.868  12.344  0.4747 -0.3852  0.2060
  549TMC3     O 8148   0.840   1.783  12.417 -0.5419 -0.1177  0.9560
  549TMC3     H 8149   0.666   2.070  12.214  0.4138 -0.0456 -0.1397
  549TMC3    H1 8150   0.632   1.764  12.517  1.3728  2.5343  0.6657
  549TMC3    H2 8151   0.285   1.919  12.308 -0.1563  2.6638 -0.3537
  549TMC3    C7 8152   0.369   1.732  12.465  0.1529  0.1445 -0.1302
  549TMC3    C8 8153   0.414   2.059  12.138 -0.2269 -0.3321  0.1104
  549TMC3    O1 8154   0.257   1.756  12.509 -0.8190  0.0747  0.2328
  549TMC3    O2 8155   0.336   1.982  12.083  1.0095 -0.2142 -0.2676
  550TMC3    C1 8156   4.104   4.304  12.354 -0.4111  0.1484 -0.1877
  550TMC3    C2 8157   4.047   4.333  12.474 -0.4885 -0.0234 -0.0019
  550TMC3    C3 8158   3.987   4.461  12.481 -0.4310  0.6768  0.4108
  550TMC3    C4 8159   4.107   4.389  12.244  0.3200  0.4575 -0.0825
  550TMC3    C5 8160   4.033   4.502  12.259  0.3725  0.3506  0.4790
  550TMC3    C6 8161   3.974   4.536  12.374  0.5133  0.0244 -0.1974
  550TMC3     C 8162   4.174   4.177  12.346  0.1639  0.9386 -0.4937
  550TMC3     O 8163   4.136   4.094  12.426 -0.1642 -0.1394  0.0025
  550TMC3     H 8164   4.051   4.268  12.561 -1.6006 -0.9257 -0.6186
  550TMC3    H1 8165   4.130   4.351  12.145 -2.3807 -1.4606  0.0300
  550TMC3    H2 8166   3.961   4.643  12.390 -0.8246  0.1046 -1.7672
  550TMC3    C7 8167   4.020   4.591  12.146 -0.0783  0.3814 -0.0364
  550TMC3    C8 8168   3.942   4.524  12.601  0.8015 -0.2727 -0.2433
  550TMC3    O1 8169   3.923   4.666  12.145  0.0878  0.1696  0.0948
  550TMC3    O2 8170   3.874   4.628  12.592  0.3224 -0.2698  0.0185
  551TMC3    C1 8171   2.134   2.075  13.213  0.6775  0.3704 -0.6271
  551TMC3    C2 8172   2.261   2.094  13.174  0.5783 -0.4208 -0.0356
  551TMC3    C3 8173   2.340   2.190  13.229 -0.3157 -0.0804 -0.0470
  551TMC3    C4 8174   2.090   2.150  13.321 -0.6791  0.1459  0.4284
  551TMC3    C5 8175   2.163   2.243  13.376  0.0327  0.4803 -0.0392
  551TMC3    C6 8176   2.291   2.265  13.335  0.1756 -0.3214 -0.0272
  551TMC3     C 8177   2.039   2.026  13.108 -0.7995  0.2811 -0.5752
  551TMC3     O 8178   1.926   2.077  13.100 -0.0944 -0.3014  0.4256
  551TMC3     H 8179   2.297   2.040  13.087  2.6553  2.0669 -0.7348
  551TMC3    H1 8180   1.995   2.124  13.365 -0.5066  0.2003  0.8263
  551TMC3    H2 8181   2.362   2.332  13.382  0.7472 -0.6520 -0.4146
  551TMC3    C7 8182   2.127   2.304  13.499  0.7805  0.1977  0.5382
  551TMC3    C8 8183   2.464   2.223  13.160  0.9339  0.0501  0.1085
  551TMC3    O1 8184   2.220   2.342  13.568  0.5463  0.1791  0.2178
  551TMC3    O2 8185   2.526   2.135  13.098  0.2873  0.4295  0.7633
  552MPD2     C 8186   4.195   4.245  13.720  0.0026  0.1583  0.8510
  552MPD2    C1 8187   4.181   4.115  13.753  0.0875 -0.2341 -0.1280
  552MPD2    C2 8188   4.283   4.046  13.822 -0.2031  0.4924  0.0854
  552MPD2    C3 8189   4.402   4.102  13.849  0.0315 -0.3851  0.4081
  552MPD2    C4 8190   4.417   4.233  13.813  0.0921 -0.7122  0.3617
  552MPD2    C5 8191   4.318   4.300  13.745  0.0525 -1.1567 -1.0853
  552MPD2     H 8192   4.254   3.947  13.855 -0.6098  0.0204 -1.6909
  552MPD2    H1 8193   4.498   4.298  13.842  0.1116 -0.5331 -0.0962
  552MPD2    H2 8194   4.128   4.304  13.658  0.0830 -0.4084  0.2273
  552MPD2    H3 8195   4.348   4.399  13.716  0.3126 -1.3490 -1.4752
  552MPD2     N 8196   4.502   4.041  13.928 -0.1133  0.1911 -0.0272
  552MPD2    H5 8197   4.584   4.098  13.950 -1.4023  1.9817  0.1203
  552MPD2    N1 8198   4.063   4.047  13.723 -0.1943 -0.5970 -0.7872
  552MPD2    H7 8199   4.063   3.948  13.748  1.8999 -0.9991 -2.4140
  553TMC3    C1 8200   3.889   3.984  13.587  0.0791  0.1055 -0.4635
  553TMC3    C2 8201   3.834   4.013  13.466 -0.0379 -0.3473  0.9734
  553TMC3    C3 8202   3.773   3.916  13.392  0.1801 -0.7010 -0.8173
  553TMC3    C4 8203   3.896   3.858  13.637  0.1563  0.1003 -0.6914
  553TMC3    C5 8204   3.845   3.761  13.553  0.2804  0.9593 -0.2559
  553TMC3    C6 8205   3.763   3.789  13.444 -0.4879  0.1786 -0.0040
  553TMC3     C 8206   3.964   4.093  13.640 -0.1796 -0.2517 -0.4031
  553TMC3     O 8207   3.935   4.206  13.601  0.0423 -0.1186  0.0671
  553TMC3     H 8208   3.839   4.117  13.433 -1.5844 -1.3955 -2.5638
  553TMC3    H1 8209   3.938   3.828  13.732 -3.4568 -1.3751  0.4588
  553TMC3    H2 8210   3.707   3.710  13.394 -1.3740  0.4287  0.5886
  553TMC3    C7 8211   3.869   3.620  13.584  0.1881  0.3574  0.4465
  553TMC3    C8 8212   3.810   3.924  13.254 -0.1258 -0.0047  0.1800
  553TMC3    O1 8213   3.767   3.553  13.591  0.2518 -0.1796  0.1015
  553TMC3    O2 8214   3.904   3.992  13.220 -0.4391  0.4658 -0.2456
  554TMC3    C1 8215   1.406   3.660  11.208 -0.0734 -0.2152 -0.0977
  554TMC3    C2 8216   1.433   3.562  11.112 -0.2555  0.8067 -0.4862
  554TMC3    C3 8217   1.498   3.602  10.998 -0.7066  0.3990 -0.3230
  554TMC3    C4 8218   1.416   3.792  11.179 -0.5738  0.1343 -0.1300
  554TMC3    C5 8219   1.477   3.829  11.059 -0.3439 -0.2955 -0.5764
  554TMC3    C6 8220   1.517   3.733  10.965  0.2280 -0.0993  0.0977
  554TMC3     C 8221   1.374   3.616  11.341 -0.2075  0.0359  0.6038
  554TMC3     O 8222   1.425   3.669  11.439  0.3237 -0.4804  0.3021
  554TMC3     H 8223   1.422   3.455  11.129 -4.6779  1.0426 -2.0034
  554TMC3    H1 8224   1.373   3.860  11.252  1.7640  1.2075  0.2596
  554TMC3    H2 8225   1.552   3.767  10.868 -1.0506  1.4921  0.1930
  554TMC3    C7 8226   1.433   3.954  10.997 -0.2907  0.1243 -0.9835
  554TMC3    C8 8227   1.507   3.520  10.876  0.1500 -0.2550  0.7661
  554TMC3    O1 8228   1.424   3.956  10.876  0.5526 -0.0602  0.2952
  554TMC3    O2 8229   1.560   3.569  10.782  0.0736  0.7348  0.1418
  555TMC3    C1 8230   0.056   2.867  14.750  0.2300 -0.5181 -0.1155
  555TMC3    C2 8231   0.055   2.969  14.842 -0.0919  0.0395 -0.2832
  555TMC3    C3 8232   0.029   2.939  14.971 -0.2712 -0.4616 -0.5105
  555TMC3    C4 8233   0.024   2.743  14.784  0.2021  0.6187  0.7076
  555TMC3    C5 8234   4.712   2.712  14.916  0.0986 -0.4567  0.0240
  555TMC3    C6 8235   4.708   2.814  15.011 -0.5593  0.5241 -0.1051
  555TMC3     C 8236   0.079   2.907  14.613  0.0404  0.3904 -0.3541
  555TMC3     O 8237   0.154   3.002  14.596  0.7973 -0.4199 -0.2244
  555TMC3     H 8238   0.064   3.074  14.815  3.1936  0.0164  0.6421
  555TMC3    H1 8239   0.022   2.667  14.707 -0.6019  0.9380  0.4195
  555TMC3    H2 8240   4.693   2.778  15.112 -0.6406  1.5855  0.2557
  555TMC3    C7 8241   4.711   2.575  14.962  0.3318 -0.4828 -0.9697
  555TMC3    C8 8242   0.041   3.038  15.079 -0.1768 -0.0782  0.1096
  555TMC3    O1 8243   4.647   2.557  15.066 -0.2270  0.7525  0.1326
  555TMC3    O2 8244   0.051   3.153  15.043  0.0275  0.1226  0.5781
  556MPD2     C 8245   3.525   4.467  10.846  0.1263  0.0659 -0.5903
  556MPD2    C1 8246   3.405   4.416  10.884 -0.4586  0.5281  0.1882
  556MPD2    C2 8247   3.357   4.288  10.835 -0.0340  0.2771  0.7358
  556MPD2    C3 8248   3.445   4.204  10.763  0.0421 -0.4507  0.6520
  556MPD2    C4 8249   3.566   4.264  10.718  0.2039 -0.2015 -0.4515
  556MPD2    C5 8250   3.598   4.387  10.757  0.3562 -0.8690 -0.4573
  556MPD2     H 8251   3.259   4.252  10.865  0.4273 -2.7448 -1.3798
  556MPD2    H1 8252   3.638   4.223  10.648  1.4651  2.0338 -0.4552
  556MPD2    H2 8253   3.574   4.557  10.880 -0.5405  0.8626 -1.7452
  556MPD2    H3 8254   3.691   4.429  10.720 -0.8449  1.4485 -0.8803
  556MPD2     N 8255   3.409   4.070  10.720 -0.3667  0.4484  0.7041
  556MPD2    H5 8256   3.314   4.039  10.705 -1.4693  3.9646  0.4111
  556MPD2    N1 8257   3.324   4.493  10.975  0.0222 -0.0279 -0.3404
  556MPD2    H7 8258   3.245   4.450  11.021  1.0563  1.1811  2.5086
  557TMC3    C1 8259   3.438   3.869  10.594 -0.3656  0.5558 -0.1614
  557TMC3    C2 8260   3.529   3.797  10.519  0.0683 -0.4897  0.0852
  557TMC3    C3 8261   3.483   3.676  10.465 -0.2466 -0.1880 -0.3126
  557TMC3    C4 8262   3.323   3.821  10.636 -0.1778  0.2474 -0.0364
  557TMC3    C5 8263   3.273   3.711  10.578 -0.2854  0.4724  0.0340
  557TMC3    C6 8264   3.354   3.643  10.496  0.1147 -0.2607  0.4589
  557TMC3     C 8265   3.501   3.983  10.663  0.6145 -0.6852  0.1034
  557TMC3     O 8266   3.623   3.988  10.670  0.3655  0.1184 -0.2305
  557TMC3     H 8267   3.622   3.835  10.478  1.8133  1.2397  5.7415
  557TMC3    H1 8268   3.262   3.870  10.711  0.8892 -0.8328  1.5267
  557TMC3    H2 8269   3.334   3.539  10.470  0.9667 -0.6023  1.1683
  557TMC3    C7 8270   3.148   3.643  10.622  0.4238  0.1263  0.1418
  557TMC3    C8 8271   3.556   3.623  10.347 -0.0011 -0.5481  0.7568
  557TMC3    O1 8272   3.133   3.530  10.579  0.0481 -0.5836  0.1351
  557TMC3    O2 8273   3.655   3.677  10.305 -0.0557 -0.1597 -0.0124
  558TMC3    C1 8274   1.309   2.154   9.792  1.2360  0.0263 -0.1554
  558TMC3    C2 8275   1.203   2.076   9.845  0.4724  0.1434  0.0683
  558TMC3    C3 8276   1.182   1.955   9.785 -0.3745  0.7001 -0.7215
  558TMC3    C4 8277   1.386   2.103   9.690  0.0657 -0.2224  0.1997
  558TMC3    C5 8278   1.362   1.978   9.644 -0.1191  0.3713 -0.7804
  558TMC3    C6 8279   1.255   1.905   9.684  0.6950 -0.4711 -0.0531
  558TMC3     C 8280   1.372   2.258   9.871  0.1790  0.5476  0.3723
  558TMC3     O 8281   1.486   2.296   9.854 -0.4406 -0.6330  0.6980
  558TMC3     H 8282   1.147   2.115   9.929 -0.8167 -0.4989 -0.5056
  558TMC3    H1 8283   1.474   2.160   9.661  0.3201 -1.2437 -1.0371
  558TMC3    H2 8284   1.237   1.800   9.665  0.6285 -0.8833  2.2100
  558TMC3    C7 8285   1.443   1.933   9.535 -1.0952  0.2413  0.3325
  558TMC3    C8 8286   1.079   1.867   9.847  0.1343  0.2077  0.3965
  558TMC3    O1 8287   1.553   1.982   9.521  0.1619 -0.1330  0.6460
  558TMC3    O2 8288   1.033   1.782   9.771 -0.2287 -0.1101  0.1349
  559MPD2     C 8289   1.377   2.888  10.326  0.1002 -0.0205 -0.5213
  559MPD2    C1 8290   1.313   2.818  10.423  0.9079 -0.1413  0.4428
  559MPD2    C2 8291   1.382   2.777  10.531 -1.1171 -0.7653 -0.2015
  559MPD2    C3 8292   1.516   2.801  10.547  0.3848  0.8651  0.0144
  559MPD2    C4 8293   1.579   2.882  10.454 -0.2937  0.6288 -0.3941
  559MPD2    C5 8294   1.511   2.911  10.342 -0.3436  0.1037  0.3895
  559MPD2     H 8295   1.341   2.725  10.616 -0.6925 -1.4214 -0.3961
  559MPD2    H1 8296   1.679   2.923  10.467  0.0707 -0.4756  0.2463
  559MPD2    H2 8297   1.334   2.915  10.230 -1.9703  2.5928  1.1487
  559MPD2    H3 8298   1.558   2.963  10.259  1.9542  0.2457  1.7712
  559MPD2     N 8299   1.576   2.752  10.662  0.0731  0.4456  0.4456
  559MPD2    H5 8300   1.520   2.696  10.724 -0.9311 -0.0238 -0.8755
  559MPD2    N1 8301   1.177   2.801  10.409 -0.1391  0.7642 -0.1903
  559MPD2    H7 8302   1.125   2.848  10.336 -1.8059 -0.5615  0.1367
  560TMC3    C1 8303   1.732   2.708  10.831 -0.0687 -0.2652  0.0915
  560TMC3    C2 8304   1.671   2.584  10.838 -0.3290  0.3012 -0.2160
  560TMC3    C3 8305   1.632   2.535  10.956 -0.2247 -0.0882 -0.0818
  560TMC3    C4 8306   1.748   2.792  10.937  0.2284  0.4881  0.0398
  560TMC3    C5 8307   1.725   2.732  11.058  0.1500  0.3842  0.0163
  560TMC3    C6 8308   1.659   2.610  11.065 -0.4723 -0.0191 -0.1377
  560TMC3     C 8309   1.705   2.778  10.706  0.1725  0.1395 -0.0675
  560TMC3     O 8310   1.797   2.852  10.664 -0.9525 -0.5073 -0.0547
  560TMC3     H 8311   1.662   2.525  10.748  1.3314  0.7002 -0.6459
  560TMC3    H1 8312   1.793   2.889  10.921  1.0698  0.3306  1.4561
  560TMC3    H2 8313   1.657   2.563  11.163 -0.8417 -1.6773 -0.9278
  560TMC3    C7 8314   1.784   2.780  11.180 -0.4623  0.0810  0.0373
  560TMC3    C8 8315   1.543   2.412  10.953  0.3444  0.2253 -1.2814
  560TMC3    O1 8316   1.807   2.700  11.270 -0.1662  0.0310  0.3921
  560TMC3    O2 8317   1.546   2.366  10.837 -0.0442  0.1139  0.1359
  561TMC3    C1 8318   3.606   2.263  11.166 -0.0718 -0.1667  1.0679
  561TMC3    C2 8319   3.499   2.194  11.227 -0.2992  0.5404  0.3489
  561TMC3    C3 8320   3.490   2.219  11.359  0.1426  0.3681  0.0141
  561TMC3    C4 8321   3.694   2.343  11.227 -0.0561  0.1192  0.8568
  561TMC3    C5 8322   3.675   2.358  11.359  0.7311 -0.3783 -0.3724
  561TMC3    C6 8323   3.573   2.301  11.426  0.5084 -0.6237  0.7893
  561TMC3     C 8324   3.594   2.276  11.024 -0.0053 -0.0292  0.3360
  561TMC3     O 8325   3.481   2.288  10.978 -0.1793 -0.0376  0.3129
  561TMC3     H 8326   3.415   2.147  11.176  0.5217 -1.5597  0.9644
  561TMC3    H1 8327   3.765   2.406  11.174 -1.5510  1.3593  0.2976
  561TMC3    H2 8328   3.576   2.305  11.535 -1.0960 -2.9887  0.9006
  561TMC3    C7 8329   3.770   2.437  11.443 -0.1492  0.3808  0.5789
  561TMC3    C8 8330   3.415   2.121  11.425  0.1175 -0.2684  0.6328
  561TMC3    O1 8331   3.761   2.413  11.565  0.3232  0.2660  0.1019
  561TMC3    O2 8332   3.402   2.014  11.366  0.8794  0.3594  0.1143
  562TMC3    C1 8333   4.293   3.163  16.095  0.5962 -0.7859  0.8014
  562TMC3    C2 8334   4.350   3.270  16.028  0.4786 -0.5273  0.1717
  562TMC3    C3 8335   4.414   3.236  15.908 -0.9476 -0.0312 -0.7083
  562TMC3    C4 8336   4.291   3.032  16.047  0.4237  0.2304  0.7336
  562TMC3    C5 8337   4.362   3.003  15.925  1.1245  0.4744 -0.2830
  562TMC3    C6 8338   4.429   3.108  15.860  0.1739  0.5262 -0.1029
  562TMC3     C 8339   4.218   3.189  16.223 -0.1204 -0.6850 -0.0739
  562TMC3     O 8340   4.173   3.102  16.299  0.5318 -0.4244  0.2996
  562TMC3     H 8341   4.350   3.373  16.060  2.2977 -0.5435  0.2630
  562TMC3    H1 8342   4.249   2.955  16.111  2.1363 -0.9339  0.4581
  562TMC3    H2 8343   4.487   3.089  15.770 -0.6436  0.3785 -0.5970
  562TMC3    C7 8344   4.378   2.870  15.874  0.0303  0.1273  0.0482
  562TMC3    C8 8345   4.476   3.339  15.829 -0.8359 -0.0615 -0.3333
  562TMC3    O1 8346   4.467   2.860  15.788 -0.0682  1.0217  0.7490
  562TMC3    O2 8347   4.508   3.444  15.890 -0.0922 -0.0542 -0.3132
  563MPD2     C 8348   1.719   3.733  16.141 -0.1721 -0.1146 -0.2163
  563MPD2    C1 8349   1.704   3.843  16.063 -1.1917 -0.5840  0.2880
  563MPD2    C2 8350   1.814   3.921  16.039  0.0324 -0.7616 -0.2279
  563MPD2    C3 8351   1.946   3.883  16.070  0.8361 -0.1608 -0.9653
  563MPD2    C4 8352   1.959   3.777  16.150  0.2879 -0.6361  0.2737
  563MPD2    C5 8353   1.846   3.703  16.184 -0.0540 -0.9099 -0.2174
  563MPD2     H 8354   1.804   4.019  15.993 -2.9853 -0.4620  1.1077
  563MPD2    H1 8355   2.053   3.749  16.196  1.3185  2.3451  0.0330
  563MPD2    H2 8356   1.636   3.674  16.178 -2.0512  2.7325  0.0884
  563MPD2    H3 8357   1.856   3.619  16.252 -4.3952  0.3654  2.0243
  563MPD2     N 8358   2.051   3.963  16.042 -0.6180 -0.4444  0.1486
  563MPD2    H5 8359   2.031   4.043  15.983  1.5898  1.0804  1.4780
  563MPD2    N1 8360   1.568   3.875  16.024 -0.3711 -0.0951 -0.4318
  563MPD2    H7 8361   1.494   3.811  16.052 -1.1998  1.4340  0.8798
  564TMC3    C1 8362   1.436   4.059  16.067 -0.1330  0.1781  0.9256
  564TMC3    C2 8363   1.370   3.973  16.144  0.6990  0.4056 -0.6909
  564TMC3    C3 8364   1.347   3.993  16.279 -0.4889  0.1371 -0.0877
  564TMC3    C4 8365   1.494   4.162  16.130  0.2200 -0.2144  0.0779
  564TMC3    C5 8366   1.485   4.176  16.271  0.0986  1.0174  0.1382
  564TMC3    C6 8367   1.401   4.090  16.346  0.0099  0.3598 -0.2398
  564TMC3     C 8368   1.535   3.997  15.976  0.1830  0.4685  0.2915
  564TMC3     O 8369   1.599   4.088  15.924 -0.3884 -0.3836  0.1560
  564TMC3     H 8370   1.332   3.880  16.105 -0.6915  1.7091 -2.4704
  564TMC3    H1 8371   1.542   4.244  16.078 -0.9143  0.2710 -0.2196
  564TMC3    H2 8372   1.360   4.117  16.443  3.1771  3.4742  0.1967
  564TMC3    C7 8373   1.627   4.173  16.317 -0.2190 -0.3166 -0.5923
  564TMC3    C8 8374   1.338   3.875  16.371  0.3354  1.4232  0.5510
  564TMC3    O1 8375   1.709   4.252  16.273  0.1155  0.3137 -0.0806
  564TMC3    O2 8376   1.405   3.885  16.472  0.4910  0.0998  0.5244
  565TMC3    C1 8377   2.752   1.318   9.800  0.4006 -0.9274 -0.5085
  565TMC3    C2 8378   2.705   1.223   9.886 -1.0595 -0.1947  0.3586
  565TMC3    C3 8379   2.600   1.148   9.835 -0.9416  0.2289 -0.5943
  565TMC3    C4 8380   2.698   1.337   9.671 -0.5621 -0.5938 -0.3340
  565TMC3    C5 8381   2.583   1.277   9.637  0.3173  0.2111 -0.6380
  565TMC3    C6 8382   2.531   1.179   9.719  0.8170  0.7205 -0.2104
  565TMC3     C 8383   2.881   1.393   9.831  0.2431  0.2147 -1.0623
  565TMC3     O 8384   2.911   1.479   9.749 -0.1882  0.0695 -0.4566
  565TMC3     H 8385   2.755   1.202   9.980  2.4215 -0.7036 -1.6165
  565TMC3    H1 8386   2.742   1.407   9.601 -1.7276 -0.4522 -0.9180
  565TMC3    H2 8387   2.423   1.170   9.719  1.1817 -3.7944  0.5750
  565TMC3    C7 8388   2.511   1.329   9.512  0.9541  0.1230 -0.6415
  565TMC3    C8 8389   2.532   1.069   9.936 -0.6791 -0.3150  0.2100
  565TMC3    O1 8390   2.543   1.437   9.462 -0.3615 -0.0473 -0.2533
  565TMC3    O2 8391   2.551   1.085  10.053  0.1717 -0.1400  0.7363
  566MPD2     C 8392   4.150   2.023  14.099  0.0916  0.7734 -0.6108
  566MPD2    C1 8393   4.136   2.147  14.041 -0.3184 -0.1270 -0.1262
  566MPD2    C2 8394   4.009   2.191  13.994 -0.1762  0.0455 -0.7137
  566MPD2    C3 8395   3.906   2.099  14.000 -0.6809 -0.0703 -0.1231
  566MPD2    C4 8396   3.928   1.973  14.056 -0.2999 -0.0638  0.4348
  566MPD2    C5 8397   4.045   1.940  14.110 -0.0079 -0.1091  0.1791
  566MPD2     H 8398   3.992   2.295  13.969  0.5229  0.9241  2.3877
  566MPD2    H1 8399   3.853   1.895  14.060 -1.5725  1.2144  1.3683
  566MPD2    H2 8400   4.241   2.001  14.153  0.2584 -0.7216 -1.5065
  566MPD2    H3 8401   4.066   1.847  14.162 -0.4427  0.0608  0.6599
  566MPD2     N 8402   3.779   2.123  13.938  0.0365 -0.1376  0.4031
  566MPD2    H5 8403   3.705   2.066  13.979 -0.6806  0.1391 -0.5037
  566MPD2    N1 8404   4.248   2.223  14.018  0.0765  0.4980 -0.1666
  566MPD2    H7 8405   4.329   2.187  14.067  0.3814 -1.0190 -1.8114
  567TMC3    C1 8406   4.377   2.409  13.966  0.0791  0.1009  0.9056
  567TMC3    C2 8407   4.409   2.512  13.872 -0.0971 -0.5504 -0.1482
  567TMC3    C3 8408   4.528   2.579  13.900 -0.1960 -0.3065 -0.3932
  567TMC3    C4 8409   4.446   2.405  14.087 -0.0283 -0.0683 -0.2408
  567TMC3    C5 8410   4.557   2.482  14.106 -0.4533  0.1894 -0.5288
  567TMC3    C6 8411   4.606   2.561  14.013 -0.6875  0.0349  0.0999
  567TMC3     C 8412   4.259   2.332  13.940 -0.1024  0.3802 -0.5317
  567TMC3     O 8413   4.185   2.364  13.848  0.2103  0.3925 -0.1852
  567TMC3     H 8414   4.353   2.540  13.783 -0.6938 -1.2862 -0.0061
  567TMC3    H1 8415   4.413   2.333  14.161  0.4524  1.0373  1.0612
  567TMC3    H2 8416   4.696   2.617  14.037  0.3595 -1.5266 -0.1626
  567TMC3    C7 8417   4.614   2.481  14.244  0.2991  0.3342 -0.2501
  567TMC3    C8 8418   4.565   2.667  13.789  0.3957 -0.1839  0.2493
  567TMC3    O1 8419   0.020   2.473  14.252 -0.5609 -0.1110 -0.1474
  567TMC3    O2 8420   4.484   2.677  13.692  0.1608  0.1998  0.1303
  568MPD2     C 8421   1.867   2.940  17.228  0.0570 -0.6572 -0.3583
  568MPD2    C1 8422   1.735   2.942  17.282  0.5715 -0.6111 -0.6919
  568MPD2    C2 8423   1.643   3.029  17.225  0.4605 -0.2288  0.4391
  568MPD2    C3 8424   1.680   3.115  17.126  0.4618 -0.2969 -0.5271
  568MPD2    C4 8425   1.811   3.118  17.074 -0.4404 -0.3860  0.3972
  568MPD2    C5 8426   1.904   3.029  17.125 -0.1521 -0.0804 -0.5537
  568MPD2     H 8427   1.538   3.019  17.251  0.7611 -0.0803  1.7163
  568MPD2    H1 8428   1.839   3.190  16.999 -1.2184  0.6339  1.0946
  568MPD2    H2 8429   1.941   2.865  17.250 -1.0532 -1.4008  0.8335
  568MPD2    H3 8430   2.007   3.031  17.093  0.8194  1.3932  2.6751
  568MPD2     N 8431   1.583   3.211  17.094  0.1396  0.7620 -0.2038
  568MPD2    H5 8432   1.489   3.192  17.125  0.8361  0.4313  1.6571
  568MPD2    N1 8433   1.697   2.831  17.363 -0.4181 -0.1396  0.0179
  568MPD2    H7 8434   1.774   2.766  17.376  0.9468  1.1552 -1.4109
  569TMC3    C1 8435   1.485   3.419  17.036 -0.1099 -0.5325  0.8458
  569TMC3    C2 8436   1.496   3.552  17.046  0.0741  0.0707  0.1276
  569TMC3    C3 8437   1.389   3.631  17.009  0.5876 -0.5967  0.3676
  569TMC3    C4 8438   1.368   3.361  16.980 -0.4105 -0.3326 -0.0148
  569TMC3    C5 8439   1.264   3.450  16.949  0.3753  0.4621 -0.6192
  569TMC3    C6 8440   1.270   3.583  16.973  0.1037  0.1523 -0.5927
  569TMC3     C 8441   1.607   3.339  17.055  0.3822  0.3027  0.4482
  569TMC3     O 8442   1.713   3.401  17.050  0.1399  0.0802 -0.0514
  569TMC3     H 8443   1.585   3.596  17.089 -0.7626  1.0066  0.9375
  569TMC3    H1 8444   1.353   3.256  16.956 -2.7839  0.3748 -1.5133
  569TMC3    H2 8445   1.194   3.656  16.948  0.6320  0.7918 -0.3087
  569TMC3    C7 8446   1.211   3.416  16.821  0.2616 -0.1587 -1.2536
  569TMC3    C8 8447   1.414   3.764  16.954 -0.3614 -0.3203 -0.5646
  569TMC3    O1 8448   1.171   3.299  16.799  0.2658  0.2644  0.1166
  569TMC3    O2 8449   1.318   3.812  16.891  0.2918  0.5455  0.1469
  570TMC3    C1 8450   0.611   2.002  15.984 -0.7063  0.3382  0.4090
  570TMC3    C2 8451   0.656   1.969  15.866 -0.0838 -0.0240  0.1813
  570TMC3    C3 8452   0.737   2.056  15.801 -0.3830 -0.0523 -0.4088
  570TMC3    C4 8453   0.642   2.120  16.049 -0.0770  0.3391 -0.2519
  570TMC3    C5 8454   0.724   2.208  15.982 -0.1624  0.2347 -0.1570
  570TMC3    C6 8455   0.773   2.174  15.860 -0.3288 -0.2438 -0.3892
  570TMC3     C 8456   0.539   1.896  16.051  0.2379 -0.3072  1.3172
  570TMC3     O 8457   0.531   1.788  16.000 -0.1224 -0.3828 -0.0702
  570TMC3     H 8458   0.614   1.885  15.811 -3.0996  0.2908  1.9871
  570TMC3    H1 8459   0.637   2.132  16.156  0.4290  0.3891 -0.2315
  570TMC3    H2 8460   0.845   2.238  15.810  1.0782 -1.8498 -0.4217
  570TMC3    C7 8461   0.767   2.320  16.054 -0.4457 -0.2857 -0.0173
  570TMC3    C8 8462   0.780   2.035  15.662  0.8555  0.5028 -0.1819
  570TMC3    O1 8463   0.719   2.331  16.167 -0.2102 -0.5495  0.6067
  570TMC3    O2 8464   0.714   1.978  15.574  0.7681  0.4394  0.1229
  571MPD2     C 8465   4.297   3.444  17.057 -0.5426  0.2127 -0.0005
  571MPD2    C1 8466   4.183   3.468  17.124  0.0533 -0.0207 -0.6054
  571MPD2    C2 8467   4.192   3.561  17.231 -0.3148  0.3548 -0.3346
  571MPD2    C3 8468   4.313   3.618  17.275  0.1159  0.3527  0.2556
  571MPD2    C4 8469   4.429   3.590  17.207 -0.9387  0.2203  0.2499
  571MPD2    C5 8470   4.414   3.513  17.100 -0.1491 -0.7743 -0.1127
  571MPD2     H 8471   4.098   3.587  17.278 -0.6859 -1.3293 -0.1167
  571MPD2    H1 8472   4.521   3.641  17.228 -1.7439  2.5375 -1.8869
  571MPD2    H2 8473   4.297   3.387  16.965  1.0986  1.3655 -0.7007
  571MPD2    H3 8474   4.510   3.504  17.052 -1.1413  0.3788 -2.3151
  571MPD2     N 8475   4.323   3.712  17.382  0.4791 -0.1320  0.3046
  571MPD2    H5 8476   4.413   3.741  17.419  0.0116  0.5875  0.8859
  571MPD2    N1 8477   4.062   3.403  17.085  0.0403 -0.3837 -0.0620
  571MPD2    H7 8478   4.066   3.329  17.016  1.0824 -1.3879  1.0780
  572TMC3    C1 8479   4.272   3.879  17.533  0.1531  0.1528 -0.1016
  572TMC3    C2 8480   4.364   3.845  17.630 -0.0189  0.4328 -0.3206
  572TMC3    C3 8481   4.397   3.944   0.042 -0.0076 -0.4014  0.0333
  572TMC3    C4 8482   4.213   4.000  17.529  0.2698 -0.0080  0.2598
  572TMC3    C5 8483   4.257   4.092  17.619  0.4373  0.3681 -0.2391
  572TMC3    C6 8484   4.352   4.070   0.037 -0.4946 -0.1084  0.1033
  572TMC3     C 8485   4.224   3.785  17.435 -0.4063 -0.1599 -0.7805
  572TMC3     O 8486   4.108   3.798  17.398  0.0798  0.1911 -0.1583
  572TMC3     H 8487   4.392   3.741  17.645  0.2008  0.3192 -1.5715
  572TMC3    H1 8488   4.164   4.035  17.439 -0.8688  0.5009  1.0854
  572TMC3    H2 8489   4.386   4.144   0.109  0.6009 -1.1110  0.6012
  572TMC3    C7 8490   4.183   4.216  17.622  0.9078 -0.2368  0.7803
  572TMC3    C8 8491   4.503   3.925   0.141 -0.0965  0.0492  0.2654
  572TMC3    O1 8492   4.079   4.214  17.553  0.5420 -0.6510 -0.4785
  572TMC3    O2 8493   4.574   4.020   0.169  0.5332  0.2733 -0.4136
  573MPD2     C 8494   0.490   3.690   0.710 -0.6842  0.3032 -0.2668
  573MPD2    C1 8495   0.434   3.800   0.659  0.2687  0.2582 -0.3850
  573MPD2    C2 8496   0.400   3.804   0.526  0.0988  0.1580 -0.3698
  573MPD2    C3 8497   0.404   3.692   0.450 -0.7755 -0.4935  0.2753
  573MPD2    C4 8498   0.450   3.574   0.512 -0.0771 -0.4887  0.5282
  573MPD2    C5 8499   0.500   3.574   0.639  0.7794 -0.3451 -0.5980
  573MPD2     H 8500   0.374   3.901   0.486 -1.5050 -0.3892 -0.6699
  573MPD2    H1 8501   0.483   3.486   0.458 -3.8794 -1.2745 -0.5171
  573MPD2    H2 8502   0.510   3.681   0.817  0.8147 -0.7793 -0.6369
  573MPD2    H3 8503   0.531   3.482   0.686 -1.6297 -0.9978 -0.3140
  573MPD2     N 8504   0.387   3.681   0.310 -0.1340 -0.1675  0.2808
  573MPD2    H5 8505   0.405   3.587   0.277 -0.7196 -0.3615  0.5110
  573MPD2    N1 8506   0.433   3.912   0.745  0.0748  0.3892 -0.9618
  573MPD2    H7 8507   0.494   3.903   0.826  1.7072  3.7734 -1.8444
  574TMC3    C1 8508   0.295   3.748   0.100  0.3582 -0.2723  0.1688
  574TMC3    C2 8509   0.244   3.846   0.019 -0.6012  0.1596  0.4615
  574TMC3    C3 8510   0.217   3.817  17.563 -0.1909 -0.0328 -0.3813
  574TMC3    C4 8511   0.302   3.617   0.056 -0.3592  0.6048 -0.4080
  574TMC3    C5 8512   0.259   3.597  17.612 -0.0334  0.2834  1.0370
  574TMC3    C6 8513   0.230   3.692  17.520 -0.3539 -0.2189  1.0207
  574TMC3     C 8514   0.345   3.788   0.232  0.3886  0.5664 -0.8252
  574TMC3     O 8515   0.340   3.909   0.262  0.0888  0.1535  0.2540
  574TMC3     H 8516   0.230   3.948   0.053  0.6103 -0.4647  2.7906
  574TMC3    H1 8517   0.341   3.533   0.112  0.3889 -0.8580 -3.1353
  574TMC3    H2 8518   0.180   3.662  17.429 -1.7081 -1.3452  2.1201
  574TMC3    C7 8519   0.242   3.459  17.568 -0.0564  0.5524 -0.4665
  574TMC3    C8 8520   0.114   3.897  17.496 -0.2531  0.3736 -0.0373
  574TMC3    O1 8521   0.259   3.428  17.449  0.0548  0.2997 -0.3591
  574TMC3    O2 8522   0.062   3.836  17.403  0.0035  0.0992 -0.8956
  575TMC3    C1 8523   2.419   0.627  10.703  0.1125  0.1681  0.5007
  575TMC3    C2 8524   2.289   0.575  10.733  0.7769  0.1322  0.2044
  575TMC3    C3 8525   2.181   0.597  10.647  0.0863  0.3791  0.0724
  575TMC3    C4 8526   2.441   0.691  10.582 -0.5043 -0.1202  0.4828
  575TMC3    C5 8527   2.332   0.721  10.508 -0.1313 -0.2527  0.3243
  575TMC3    C6 8528   2.203   0.684  10.540 -0.0807 -0.2979  0.5460
  575TMC3     C 8529   2.528   0.596  10.792  0.3618  0.5022  0.2186
  575TMC3     O 8530   2.502   0.548  10.902  0.2135  0.0872  0.3781
  575TMC3     H 8531   2.278   0.514  10.822  0.4410  0.6162  0.4927
  575TMC3    H1 8532   2.527   0.749  10.551  0.0169 -1.8704 -1.3376
  575TMC3    H2 8533   2.121   0.730  10.486 -0.0607  0.1132  0.8654
  575TMC3    C7 8534   2.353   0.775  10.372 -0.4010  0.7977 -0.0437
  575TMC3    C8 8535   2.047   0.573  10.707 -1.0377  0.1309  0.2963
  575TMC3    O1 8536   2.458   0.831  10.351  0.2456  0.2104 -0.4085
  575TMC3    O2 8537   2.040   0.574  10.829  0.6294 -0.0221 -0.4122
  576MPD2     C 8538   2.496   2.017  12.626 -0.2646  0.4768  1.1386
  576MPD2    C1 8539   2.535   2.144  12.576  0.7727  0.0685  0.3532
  576MPD2    C2 8540   2.478   2.253  12.636  0.0054  0.0850  0.1168
  576MPD2    C3 8541   2.392   2.234  12.741  0.1148 -0.5098  0.9785
  576MPD2    C4 8542   2.373   2.109  12.789  0.2264  0.5085 -0.3398
  576MPD2    C5 8543   2.421   1.997  12.734  0.3443 -0.4046 -0.1881
  576MPD2     H 8544   2.504   2.356  12.616 -0.7165  0.3645  0.6021
  576MPD2    H1 8545   2.312   2.092  12.877  1.0058  2.1695  0.5206
  576MPD2    H2 8546   2.536   1.928  12.578 -0.0063  1.6474 -0.8541
  576MPD2    H3 8547   2.408   1.896  12.771  1.5554 -0.1979  0.7992
  576MPD2     N 8548   2.333   2.354  12.795  0.2747 -0.5037  0.2801
  576MPD2    H5 8549   2.383   2.440  12.776  0.6177 -0.6584  0.4795
  576MPD2    N1 8550   2.613   2.171  12.463  1.2876 -0.0472  0.2742
  576MPD2    H7 8551   2.633   2.270  12.451  2.6518 -0.4826 -1.0182
  577TMC3    C1 8552   2.763   2.153  12.288  0.2495 -0.5217 -0.1961
  577TMC3    C2 8553   2.790   2.087  12.170 -0.9964  0.0338 -0.1958
  577TMC3    C3 8554   2.871   2.149  12.079 -0.4449 -0.1737  0.2468
  577TMC3    C4 8555   2.807   2.279  12.310 -0.8341  0.1090  0.1013
  577TMC3    C5 8556   2.879   2.343  12.216 -0.4400 -0.1280  0.7450
  577TMC3    C6 8557   2.906   2.277  12.096  0.0369 -0.3376  0.1878
  577TMC3     C 8558   2.678   2.080  12.385  0.8955  0.3555 -0.3601
  577TMC3     O 8559   2.684   1.957  12.383  0.1990 -0.1631 -0.4076
  577TMC3     H 8560   2.763   1.984  12.154 -3.3362  0.7636 -0.9498
  577TMC3    H1 8561   2.803   2.322  12.409  0.4366 -0.7088  0.5180
  577TMC3    H2 8562   2.968   2.330  12.025 -0.2313  0.0603  0.2530
  577TMC3    C7 8563   2.879   2.489  12.227 -0.5354 -0.0635 -0.2973
  577TMC3    C8 8564   2.929   2.064  11.976 -0.7189  0.5547  0.8068
  577TMC3    O1 8565   2.889   2.530  12.341 -0.1237 -0.3099  0.3840
  577TMC3    O2 8566   2.907   1.943  11.988 -0.2681 -0.4071  0.7189
  578MPD2     C 8567   0.067   2.042   1.823  0.5736  0.1224  0.3855
  578MPD2    C1 8568   0.113   2.038   1.698 -0.1382 -0.2907  0.1686
  578MPD2    C2 8569   0.245   2.002   1.677 -0.1211 -0.2323  0.2398
  578MPD2    C3 8570   0.332   1.976   1.786 -0.6192 -0.1405  0.0136
  578MPD2    C4 8571   0.280   1.975   1.919 -0.4630  0.3067  0.2034
  578MPD2    C5 8572   0.150   2.014   1.933  0.7116  0.4770  0.7881
  578MPD2     H 8573   0.287   1.994   1.578  0.8298  0.5335  0.5701
  578MPD2    H1 8574   0.339   1.945   2.005  3.9896  1.1408 -2.5487
  578MPD2    H2 8575   4.682   2.070   1.836  0.8084  0.4505  1.5565
  578MPD2    H3 8576   0.113   2.029   2.033  1.4878  0.3929  1.0836
  578MPD2     N 8577   0.461   1.928   1.758  0.3590  0.2874 -0.4203
  578MPD2    H5 8578   0.502   1.953   1.668 -0.5603  1.2835 -0.5675
  578MPD2    N1 8579   0.022   2.084   1.594 -0.4259 -0.6836 -0.4746
  578MPD2    H7 8580   4.649   2.121   1.619  0.7836  0.3308  2.5449
  579TMC3    C1 8581   0.682   1.877   1.794  0.2074  0.3489 -0.3536
  579TMC3    C2 8582   0.783   1.903   1.880 -0.5745 -0.0214 -1.1079
  579TMC3    C3 8583   0.902   1.909   1.827 -0.5505 -0.6607  0.1983
  579TMC3    C4 8584   0.703   1.843   1.659  0.1708  1.0035  0.8278
  579TMC3    C5 8585   0.829   1.834   1.617  0.2986  0.1740 -0.1483
  579TMC3    C6 8586   0.931   1.871   1.702  0.0697  0.0274  0.0563
  579TMC3     C 8587   0.549   1.874   1.845  0.2797  0.4764 -0.2671
  579TMC3     O 8588   0.526   1.837   1.961 -0.2325 -0.9691  0.0252
  579TMC3     H 8589   0.758   1.931   1.982 -2.1421  0.4770 -1.6206
  579TMC3    H1 8590   0.622   1.789   1.610  2.6844 -0.3155 -1.8464
  579TMC3    H2 8591   1.028   1.853   1.657 -0.6578  0.3029 -1.6171
  579TMC3    C7 8592   0.863   1.827   1.477 -0.0295 -0.2052  0.2814
  579TMC3    C8 8593   1.000   1.974   1.904  0.4087 -0.7137 -0.0636
  579TMC3    O1 8594   0.983   1.811   1.443  0.0520  0.3073  0.2706
  579TMC3    O2 8595   0.972   1.987   2.020 -0.4577 -0.0271 -0.6021
  580TMC3    C1 8596   0.532   1.396  11.391 -0.2922  0.2200  1.6735
  580TMC3    C2 8597   0.586   1.317  11.292  0.3658  0.4619 -0.2483
  580TMC3    C3 8598   0.525   1.198  11.255  0.0137  0.8687  1.2308
  580TMC3    C4 8599   0.434   1.349  11.468 -0.6541 -0.4547 -0.3754
  580TMC3    C5 8600   0.385   1.224  11.439  0.2003 -0.4937 -0.3052
  580TMC3    C6 8601   0.417   1.152  11.324  0.3224  0.0367  0.8408
  580TMC3     C 8602   0.609   1.505  11.421  1.0107  0.2239  0.3707
  580TMC3     O 8603   0.728   1.504  11.382 -0.5265  0.0763 -0.5075
  580TMC3     H 8604   0.654   1.365  11.223  0.8026  2.2315  1.4170
  580TMC3    H1 8605   0.397   1.407  11.552  0.8462  1.4150 -1.0024
  580TMC3    H2 8606   0.370   1.060  11.292 -2.0669  1.7666 -0.5928
  580TMC3    C7 8607   0.308   1.160  11.543 -0.1476 -0.8503 -0.6689
  580TMC3    C8 8608   0.586   1.118  11.154  0.1322  0.1380 -0.1724
  580TMC3    O1 8609   0.302   1.214  11.656 -0.4176  0.0733  0.1768
  580TMC3    O2 8610   0.523   1.033  11.093  0.0827  0.1964  0.1618
  581MPD2     C 8611   3.231   0.735  14.778  0.0867  0.6196 -1.3568
  581MPD2    C1 8612   3.143   0.664  14.849 -0.4608 -0.1938  0.3664
  581MPD2    C2 8613   3.018   0.709  14.869  0.5627 -0.1364  0.0281
  581MPD2    C3 8614   2.976   0.828  14.805 -0.1872 -0.0639  0.3200
  581MPD2    C4 8615   3.065   0.891  14.725  0.5210  0.3182  0.5879
  581MPD2    C5 8616   3.196   0.855  14.725 -0.0715  0.6854 -0.4036
  581MPD2     H 8617   2.945   0.645  14.917 -1.3780  2.1888  0.1972
  581MPD2    H1 8618   3.030   0.977  14.669 -1.2662 -1.1635 -0.6036
  581MPD2    H2 8619   3.331   0.700  14.758 -0.8003 -2.6995  0.0218
  581MPD2    H3 8620   3.258   0.930  14.677  1.8533 -0.8129 -0.2618
  581MPD2     N 8621   2.842   0.858  14.817 -0.5603  0.2742 -0.1488
  581MPD2    H5 8622   2.798   0.806  14.893 -0.8923  2.0425  0.8762
  581MPD2    N1 8623   3.195   0.548  14.910 -0.0588 -0.5258 -0.3609
  581MPD2    H7 8624   3.283   0.512  14.875  1.0312 -0.0739  1.9592
  582TMC3    C1 8625   3.186   0.364  15.062 -0.5536  0.7190  0.9633
  582TMC3    C2 8626   3.275   0.409  15.154 -0.0260  0.4278  0.3419
  582TMC3    C3 8627   3.268   0.359  15.282 -0.3460 -0.6330  0.5307
  582TMC3    C4 8628   3.099   0.267  15.095  0.1287 -0.1265 -0.5886
  582TMC3    C5 8629   3.109   0.205  15.221  0.5446  0.4941 -0.0377
  582TMC3    C6 8630   3.196   0.248  15.315  0.8033  0.2309 -0.6242
  582TMC3     C 8631   3.120   0.471  14.990  0.3223  0.7435  1.5481
  582TMC3     O 8632   3.015   0.491  15.045 -0.0923 -0.4048  0.6418
  582TMC3     H 8633   3.330   0.499  15.131 -0.4934  0.0951 -2.1597
  582TMC3    H1 8634   3.026   0.227  15.026 -1.2462  1.3320  0.0137
  582TMC3    H2 8635   3.195   0.220  15.419  0.6755  0.2351 -0.6241
  582TMC3    C7 8636   2.975   0.209  15.280 -0.4035  0.0311  0.5917
  582TMC3    C8 8637   3.292   0.450  15.389  0.1004 -0.3120 -0.4838
  582TMC3    O1 8638   2.950   0.129  15.368  0.8811 -0.1442 -0.6890
  582TMC3    O2 8639   3.233   0.434  15.500  0.4481 -0.3440  0.6133
  583MPD2     C 8640   2.723   2.391  16.279 -0.3773  0.8235  0.5289
  583MPD2    C1 8641   2.808   2.501  16.252  0.0993  1.1846 -0.0247
  583MPD2    C2 8642   2.789   2.620  16.322  0.1898  0.6040  0.4214
  583MPD2    C3 8643   2.706   2.619  16.439  0.8021  0.6356 -0.2730
  583MPD2    C4 8644   2.629   2.509  16.460  0.5266  0.0515  0.1186
  583MPD2    C5 8645   2.637   2.395  16.380 -0.8498  0.3136  0.0101
  583MPD2     H 8646   2.849   2.707  16.298 -0.5634  1.2439  0.8444
  583MPD2    H1 8647   2.561   2.499  16.545 -1.7651  0.0273 -1.7157
  583MPD2    H2 8648   2.707   2.301  16.221  0.3598  1.7049 -1.0514
  583MPD2    H3 8649   2.583   2.306  16.410  2.1811 -1.4205  0.3665
  583MPD2     N 8650   2.698   2.740  16.519 -0.1294  0.5378  0.1281
  583MPD2    H5 8651   2.745   2.817  16.472 -0.8665  0.1674 -1.2034
  583MPD2    N1 8652   2.912   2.495  16.152  0.2772 -0.3820  0.8010
  583MPD2    H7 8653   2.963   2.578  16.126  1.6234 -2.7509 -4.2566
  584TMC3    C1 8654   2.646   2.880  16.696 -0.3529  0.6020 -0.8354
  584TMC3    C2 8655   2.679   2.993  16.622  0.6869  0.5635 -0.6282
  584TMC3    C3 8656   2.705   3.108  16.682  1.1512 -1.0479  0.3359
  584TMC3    C4 8657   2.660   2.887  16.835  0.0257 -0.3279 -0.1440
  584TMC3    C5 8658   2.667   3.007  16.897 -0.4286  0.0588 -0.0595
  584TMC3    C6 8659   2.704   3.117  16.823 -0.5645  0.6842  0.0817
  584TMC3     C 8660   2.621   2.753  16.633 -0.4526 -0.1106  0.3745
  584TMC3     O 8661   2.555   2.672  16.700  0.3929  0.1942  0.4106
  584TMC3     H 8662   2.664   2.989  16.514 -3.1173 -1.2057 -0.0418
  584TMC3    H1 8663   2.621   2.806  16.896  0.5030  0.0975  0.7153
  584TMC3    H2 8664   2.722   3.211  16.875 -1.3934  1.3685 -0.8638
  584TMC3    C7 8665   2.672   3.008  17.044  0.1198  0.0692 -0.5570
  584TMC3    C8 8666   2.773   3.210  16.609  0.1485  0.1021  0.1897
  584TMC3    O1 8667   2.673   2.900  17.109  0.9066  0.4451 -0.7381
  584TMC3    O2 8668   2.773   3.199  16.488 -0.6484 -0.0622 -0.1078
  585MPD2     C 8669   1.715   1.838   0.048  0.3609  0.1983 -0.5053
  585MPD2    C1 8670   1.849   1.836   0.062 -0.0805 -0.4392  0.6110
  585MPD2    C2 8671   1.923   1.798  17.626 -0.2910 -0.2425 -0.0757
  585MPD2    C3 8672   1.865   1.754  17.507  0.3019  0.4357  0.1656
  585MPD2    C4 8673   1.729   1.759  17.499 -0.3711 -0.5561  0.0901
  585MPD2    C5 8674   1.654   1.800  17.608 -0.3942  0.0414  0.6211
  585MPD2     H 8675   2.031   1.811  17.634 -0.5623  0.8242  1.7338
  585MPD2    H1 8676   1.680   1.730  17.407 -0.0944  0.0375 -0.2437
  585MPD2    H2 8677   1.657   1.876   0.131  0.1298 -1.0184 -0.1122
  585MPD2    H3 8678   1.548   1.823  17.597 -0.5014  0.0495  1.6566
  585MPD2     N 8679   1.943   1.721  17.394 -0.6243  0.0222 -0.6573
  585MPD2    H5 8680   1.889   1.691  17.313 -0.0613  0.0001 -1.0229
  585MPD2    N1 8681   1.920   1.888   0.180  0.3184 -1.0398  0.0046
  585MPD2    H7 8682   1.856   1.909   0.255 -0.2516  0.2819 -0.8479
  586TMC3    C1 8683   2.135   1.628  17.281  0.2358 -0.2813 -0.2195
  586TMC3    C2 8684   2.271   1.618  17.277 -0.2644  0.1876  0.1136
  586TMC3    C3 8685   2.327   1.535  17.183 -0.1467  0.6829 -0.2141
  586TMC3    C4 8686   2.058   1.554  17.193 -0.0595 -0.2333 -0.1121
  586TMC3    C5 8687   2.117   1.482  17.094 -0.1695  0.0198 -0.6494
  586TMC3    C6 8688   2.255   1.485  17.078  0.3990  0.3488 -0.0790
  586TMC3     C 8689   2.078   1.698  17.400 -0.3413  0.1607 -0.2714
  586TMC3     O 8690   2.158   1.718  17.493 -0.2383 -0.2727 -0.3917
  586TMC3     H 8691   2.334   1.656  17.356  0.7035  0.0111 -0.5805
  586TMC3    H1 8692   1.951   1.561  17.203 -0.0985 -0.6524 -0.2386
  586TMC3    H2 8693   2.304   1.423  17.004  1.9046  1.0591  0.3321
  586TMC3    C7 8694   2.027   1.384  17.029  0.1375  0.4663  0.2896
  586TMC3    C8 8695   2.469   1.500  17.197 -0.4192  0.0043  0.0505
  586TMC3    O1 8696   2.073   1.271  17.013  0.2358  0.0587  0.3396
  586TMC3    O2 8697   2.532   1.568  17.277 -0.2488 -0.2321  0.3903
  587TMC3    C1 8698   0.001   0.262  16.366  0.2936 -0.3557 -0.5960
  587TMC3    C2 8699   4.694   0.393  16.355  0.1353 -0.2477  0.1875
  587TMC3    C3 8700   0.083   0.476  16.351  0.4431  0.1159  0.2073
  587TMC3    C4 8701   0.129   0.215  16.397 -0.3664  0.1812  0.3074
  587TMC3    C5 8702   0.229   0.310  16.406  0.2958 -0.2109  0.4535
  587TMC3    C6 8703   0.212   0.443  16.374 -0.2524 -0.7700  0.6048
  587TMC3     C 8704   4.616   0.167  16.381  0.7668 -0.0442 -0.3113
  587TMC3     O 8705   4.647   0.056  16.423  0.6956  0.2365  0.2005
  587TMC3     H 8706   4.593   0.425  16.333  0.2002  0.0058  0.2567
  587TMC3    H1 8707   0.150   0.109  16.390 -1.2591  0.2370 -2.9766
  587TMC3    H2 8708   0.292   0.516  16.375  1.4413 -2.5774 -1.0890
  587TMC3    C7 8709   0.356   0.262  16.454  0.1319 -0.3354  0.0474
  587TMC3    C8 8710   0.064   0.615  16.295  0.2700 -0.2492  0.7018
  587TMC3    O1 8711   0.454   0.326  16.429 -0.0589 -0.1286  0.0602
  587TMC3    O2 8712   0.156   0.667  16.233  0.6039 -0.0532 -0.8309
  588TMC3    C1 8713   2.673   3.171   9.672 -0.4061  0.9489  0.4232
  588TMC3    C2 8714   2.625   3.040   9.663 -0.3169  0.3361  0.6845
  588TMC3    C3 8715   2.614   2.966   9.779  0.3978  0.1111 -0.1422
  588TMC3    C4 8716   2.715   3.218   9.802 -0.2559 -0.1290  0.1572
  588TMC3    C5 8717   2.702   3.141   9.913  0.6475 -0.9920  0.1325
  588TMC3    C6 8718   2.647   3.009   9.906 -0.0808 -0.3617 -1.2149
  588TMC3     C 8719   2.620   3.266   9.574 -0.8200  1.0597  0.2123
  588TMC3     O 8720   2.563   3.223   9.476 -0.5407 -0.0748  0.3383
  588TMC3     H 8721   2.590   2.999   9.570 -1.8367  2.1768  0.4688
  588TMC3    H1 8722   2.798   3.288   9.797 -0.6438  0.2280 -1.1858
  588TMC3    H2 8723   2.639   2.942   9.991  0.5201 -0.2191 -1.0503
  588TMC3    C7 8724   2.688   3.210  10.047  0.7551 -0.6058 -0.2076
  588TMC3    C8 8725   2.568   2.833   9.762 -0.1478 -0.6713 -0.2346
  588TMC3    O1 8726   2.666   3.144  10.149 -0.1246  0.1613 -0.2688
  588TMC3    O2 8727   2.501   2.803   9.663  0.4169 -0.4507 -0.7531
  589TMC3    C1 8728   1.319   0.453   1.031 -0.4839 -0.0935  0.2798
  589TMC3    C2 8729   1.379   0.527   1.127  0.4364  0.4299 -0.5218
  589TMC3    C3 8730   1.518   0.507   1.138 -0.3754  0.4855 -0.0165
  589TMC3    C4 8731   1.381   0.355   0.943  0.0197  0.5249 -0.2522
  589TMC3    C5 8732   1.516   0.340   0.972 -0.7156 -0.1834 -0.2052
  589TMC3    C6 8733   1.586   0.413   1.061  0.6088  0.3956 -0.2260
  589TMC3     C 8734   1.175   0.482   1.008 -0.2497 -0.0177 -0.4089
  589TMC3     O 8735   1.130   0.428   0.909  0.0692  0.1226  1.1307
  589TMC3     H 8736   1.344   0.616   1.179 -0.8971  0.9147 -2.2386
  589TMC3    H1 8737   1.321   0.282   0.890 -1.1650  0.9321  0.5194
  589TMC3    H2 8738   1.690   0.383   1.074  0.2458 -0.3391  1.0529
  589TMC3    C7 8739   1.586   0.231   0.905  0.5150 -0.2566 -0.0335
  589TMC3    C8 8740   1.587   0.598   1.225  0.1783 -0.2161  0.4728
  589TMC3    O1 8741   1.691   0.186   0.951  0.6267 -0.5314  0.1200
  589TMC3    O2 8742   1.529   0.678   1.293  0.2734 -0.2234  0.0717
  590MPD2     C 8743   0.813   3.438  16.837 -0.3213 -1.0149 -0.4893
  590MPD2    C1 8744   0.749   3.437  16.714 -0.4389  0.3156  0.4018
  590MPD2    C2 8745   0.777   3.536  16.617 -0.4820  0.0793 -0.4748
  590MPD2    C3 8746   0.844   3.648  16.662 -0.3834  0.2444 -0.5224
  590MPD2    C4 8747   0.902   3.649  16.785  0.3954 -0.4288 -0.1410
  590MPD2    C5 8748   0.895   3.539  16.868  0.3965  0.6774 -0.3523
  590MPD2     H 8749   0.730   3.541  16.520 -1.5806 -1.6300 -0.0323
  590MPD2    H1 8750   0.958   3.732  16.827  1.1962 -1.2153  0.3527
  590MPD2    H2 8751   0.801   3.362  16.913  0.7067 -0.1171  0.5741
  590MPD2    H3 8752   0.942   3.544  16.966  0.1993  2.0139 -0.3279
  590MPD2     N 8753   0.844   3.752  16.566 -0.0150 -0.2146  0.0369
  590MPD2    H5 8754   0.790   3.737  16.481  1.1369 -0.3718 -0.6703
  590MPD2    N1 8755   0.648   3.343  16.684 -0.0603  0.0766 -0.0456
  590MPD2    H7 8756   0.598   3.297  16.760 -2.3990  1.5677 -0.6897
  591TMC3    C1 8757   0.924   3.952  16.474 -0.0234  0.1406  0.4124
  591TMC3    C2 8758   0.934   3.911  16.346 -1.1793  0.1766 -0.1537
  591TMC3    C3 8759   0.969   3.997  16.237 -0.1678  0.3595  0.4003
  591TMC3    C4 8760   0.948   4.083  16.504  1.0091  0.5082  0.0445
  591TMC3    C5 8761   0.982   4.167  16.394 -0.4019  0.0381  0.2802
  591TMC3    C6 8762   1.001   4.127  16.266 -0.3320 -0.0250 -0.4419
  591TMC3     C 8763   0.908   3.868  16.588 -0.0567 -0.6805  0.3750
  591TMC3     O 8764   0.936   3.922  16.699 -0.4724 -0.1801 -0.2386
  591TMC3     H 8765   0.902   3.811  16.318 -1.8935  0.2077  0.5733
  591TMC3    H1 8766   0.937   4.123  16.604 -0.9629  1.2238 -0.4549
  591TMC3    H2 8767   1.046   4.197  16.197  0.2496  0.0505  0.0175
  591TMC3    C7 8768   1.051   4.289  16.435 -0.4546  0.2385  0.5061
  591TMC3    C8 8769   1.016   3.942  16.116  0.4035 -0.1047  0.6294
  591TMC3    O1 8770   1.115   4.280  16.540 -0.0825 -0.6117 -0.1122
  591TMC3    O2 8771   1.047   3.825  16.119  0.1541 -0.3915  0.6461
  592MPD2     C 8772   1.720   0.962  11.192 -0.1611  0.4192 -0.4303
  592MPD2    C1 8773   1.682   0.996  11.319 -0.1562 -0.0318 -0.6859
  592MPD2    C2 8774   1.582   0.925  11.388 -0.0545 -0.0540  0.7230
  592MPD2    C3 8775   1.519   0.825  11.333 -0.7101  0.5801  0.0177
  592MPD2    C4 8776   1.551   0.786  11.207 -0.0261 -0.3874  0.1920
  592MPD2    C5 8777   1.652   0.847  11.144  0.1294 -0.2251 -0.0115
  592MPD2     H 8778   1.543   0.966  11.481 -2.5217 -3.1410  1.0071
  592MPD2    H1 8779   1.521   0.692  11.163 -2.1774  1.1944 -1.7309
  592MPD2    H2 8780   1.786   1.016  11.125  1.1593 -0.2523  0.3248
  592MPD2    H3 8781   1.686   0.806  11.050 -0.0037  0.3492 -0.3104
  592MPD2     N 8782   1.403   0.777  11.394  0.2181  0.7156 -0.1378
  592MPD2    H5 8783   1.379   0.811  11.487 -1.2610  0.0970 -0.2839
  592MPD2    N1 8784   1.753   1.104  11.364  0.4049  0.2982  0.0527
  592MPD2    H7 8785   1.817   1.151  11.301  0.6789  0.5429  0.5151
  593TMC3    C1 8786   1.801   1.271  11.532 -0.0872 -0.2388 -0.1661
  593TMC3    C2 8787   1.740   1.341  11.630  0.6694 -0.5673 -0.9101
  593TMC3    C3 8788   1.758   1.479  11.628 -0.6666 -0.3163 -0.2230
  593TMC3    C4 8789   1.877   1.329  11.431 -0.6851 -1.9057 -0.3515
  593TMC3    C5 8790   1.891   1.464  11.443 -0.0531 -0.0068  0.4940
  593TMC3    C6 8791   1.833   1.547  11.535  0.2153  0.7168 -0.0071
  593TMC3     C 8792   1.743   1.140  11.496  0.4314  0.0641  0.0474
  593TMC3     O 8793   1.718   1.076  11.597 -0.6143  0.1090 -1.0067
  593TMC3     H 8794   1.675   1.296  11.704 -0.7058  0.6816 -1.3719
  593TMC3    H1 8795   1.939   1.265  11.370  0.3794 -0.6559 -0.5793
  593TMC3    H2 8796   1.838   1.655  11.532 -1.2229  0.7575 -1.1751
  593TMC3    C7 8797   1.991   1.527  11.364  0.0585  1.1663  0.8408
  593TMC3    C8 8798   1.695   1.565  11.731  0.4363  0.2588 -0.1558
  593TMC3    O1 8799   2.032   1.631  11.418  0.1019 -0.3229  0.7844
  593TMC3    O2 8800   1.582   1.528  11.762 -0.1085 -0.1422  0.4647
  594MPD2     C 8801   0.379   4.131  13.701 -0.0267  0.0087  0.0996
  594MPD2    C1 8802   0.363   4.107  13.836  0.8627 -0.4675 -0.0919
  594MPD2    C2 8803   0.422   4.194  13.931 -0.7346  0.1855 -0.6093
  594MPD2    C3 8804   0.480   4.314  13.888  0.0081  0.2507 -0.1441
  594MPD2    C4 8805   0.482   4.336  13.751  0.1835 -0.6902 -0.7159
  594MPD2    C5 8806   0.443   4.243  13.658 -0.1805  0.0555 -0.0643
  594MPD2     H 8807   0.399   4.180  14.036  0.7667 -0.0185 -0.3169
  594MPD2    H1 8808   0.519   4.428  13.705 -0.4207 -0.5862 -1.0000
  594MPD2    H2 8809   0.328   4.061  13.634 -1.5557  0.2394  1.0195
  594MPD2    H3 8810   0.438   4.281  13.557 -1.1825 -1.2961 -0.5192
  594MPD2     N 8811   0.514   4.409  13.987  0.1008 -0.0684 -0.7757
  594MPD2    H5 8812   0.485   4.386  14.081  0.0541  0.1920 -0.7254
  594MPD2    N1 8813   0.279   4.005  13.877  0.2706  0.5932 -0.0360
  594MPD2    H7 8814   0.216   3.974  13.804 -0.5596  1.6649  0.2250
  595TMC3    C1 8815   0.745   4.682  14.241 -0.7995  0.7925  0.2995
  595TMC3    C2 8816   0.714   4.658  14.102  0.1057  0.7494  0.3305
  595TMC3    C3 8817   0.584   4.612  14.077 -0.0099 -0.1620 -0.8477
  595TMC3    C4 8818   0.638   4.673  14.338  0.0865 -0.0489 -0.1661
  595TMC3    C5 8819   0.517   4.619  14.305  0.5238  0.3733 -0.0120
  595TMC3    C6 8820   0.493   4.585  14.176  0.0444  0.0736 -0.5420
  595TMC3     C 8821   0.877   4.699  14.289  0.1946 -0.6791  0.8393
  595TMC3     O 8822   0.891   4.691  14.411 -0.4892  0.2945  0.1329
  595TMC3     H 8823   0.786   4.663  14.021 -0.4173  1.4614 -0.0929
  595TMC3    H1 8824   0.649   4.719  14.436  0.6655 -0.5065 -0.0174
  595TMC3    H2 8825   0.390   4.570  14.145  0.0485  0.7005 -0.8657
  595TMC3    C7 8826   0.413   4.608  14.402  0.1090 -0.1346  0.0277
  595TMC3    C8 8827   0.594   4.523  13.963  0.5537 -0.4318  0.6410
  595TMC3    O1 8828   0.297   4.601  14.362 -0.3825 -0.2842 -0.3214
  595TMC3    O2 8829   0.660   4.557  13.871 -0.2019 -0.0134 -0.2291
  596MPD2     C 8830   3.528   2.411  16.399  0.0502  0.2676  0.1788
  596MPD2    C1 8831   3.590   2.522  16.336  0.1133  0.4029  0.2989
  596MPD2    C2 8832   3.639   2.504  16.211 -0.3508 -0.2326 -0.6584
  596MPD2    C3 8833   3.653   2.382  16.144 -0.0121 -0.1758  0.0213
  596MPD2    C4 8834   3.601   2.276  16.213  0.3849 -0.4085  0.4910
  596MPD2    C5 8835   3.539   2.290  16.338  0.2786  0.2384 -0.8795
  596MPD2     H 8836   3.669   2.592  16.155 -0.0969 -0.7936 -1.4040
  596MPD2    H1 8837   3.594   2.181  16.162 -0.8377 -0.1262  0.1408
  596MPD2    H2 8838   3.475   2.406  16.493 -1.1410 -2.1416 -0.6065
  596MPD2    H3 8839   3.502   2.202  16.388  0.1980  1.3006  0.9432
  596MPD2     N 8840   3.697   2.372  16.013 -0.8018 -0.7704  0.3362
  596MPD2    H5 8841   3.675   2.288  15.960 -3.4817  0.1385  0.0556
  596MPD2    N1 8842   3.585   2.653  16.381 -0.4942  0.5333 -0.0308
  596MPD2    H7 8843   3.633   2.716  16.318  0.1544  0.3250  0.2605
  597TMC3    C1 8844   3.542   2.837  16.525  0.1430  0.2616  0.2371
  597TMC3    C2 8845   3.619   2.918  16.451  0.5774  0.2968  0.1934
  597TMC3    C3 8846   3.646   3.040  16.492  1.0818  0.0640  0.7588
  597TMC3    C4 8847   3.480   2.884  16.640  0.2343  0.1641  0.4784
  597TMC3    C5 8848   3.510   3.010  16.680 -0.5043  0.4936 -0.3671
  597TMC3    C6 8849   3.579   3.093  16.597 -0.5789  0.2915  0.4657
  597TMC3     C 8850   3.528   2.696  16.496 -0.2104  0.6302 -0.0216
  597TMC3     O 8851   3.469   2.625  16.574 -0.3319 -0.0933 -0.5125
  597TMC3     H 8852   3.648   2.886  16.351  1.2074 -0.3027  0.5712
  597TMC3    H1 8853   3.414   2.824  16.702 -1.0949  1.2136  0.0835
  597TMC3    H2 8854   3.606   3.194  16.628 -0.1831  1.4860 -3.7674
  597TMC3    C7 8855   3.444   3.056  16.794  0.5136 -0.5798  0.0793
  597TMC3    C8 8856   3.677   3.142  16.388  0.6540  0.6273  0.3099
  597TMC3    O1 8857   3.419   2.971  16.880 -0.3536  0.3029  0.0939
  597TMC3    O2 8858   3.609   3.247  16.399  0.1193 -0.2443 -0.6614
  598TMC3    C1 8859   2.052   4.359  15.580 -0.5505 -0.0867  0.0668
  598TMC3    C2 8860   1.995   4.242  15.630 -0.4795 -0.3366  0.5715
  598TMC3    C3 8861   1.988   4.135  15.549 -0.4548  0.8974  1.0414
  598TMC3    C4 8862   2.107   4.370  15.453 -0.7399 -0.1989 -0.4087
  598TMC3    C5 8863   2.093   4.258  15.374  0.0867 -0.4477  0.5703
  598TMC3    C6 8864   2.033   4.141  15.416  0.1077 -0.1420 -0.6646
  598TMC3     C 8865   2.086   4.464  15.677  0.3162  0.2338  0.2015
  598TMC3     O 8866   2.185   4.530  15.646  0.4667 -0.9565  0.2736
  598TMC3     H 8867   1.974   4.230  15.735  4.5508 -1.0594  1.4929
  598TMC3    H1 8868   2.140   4.465  15.415 -0.3357 -1.1574 -2.4385
  598TMC3    H2 8869   2.028   4.058  15.347 -1.1205 -0.7918  0.2018
  598TMC3    C7 8870   2.137   4.263  15.234  0.0289 -0.5353  0.2597
  598TMC3    C8 8871   1.981   4.012  15.621  0.5087  0.3219  0.3957
  598TMC3    O1 8872   2.088   4.185  15.157  0.6273  0.0900  0.5226
  598TMC3    O2 8873   2.016   4.010  15.739 -0.1392 -0.3889 -0.4566
  599MPD2     C 8874   2.446   1.691  16.310 -0.6554 -0.6119 -0.0239
  599MPD2    C1 8875   2.398   1.596  16.217  0.1514 -0.0642 -0.3125
  599MPD2    C2 8876   2.260   1.585  16.196 -1.0086  0.1405  0.1290
  599MPD2    C3 8877   2.168   1.663  16.270  0.2921  0.2618 -0.0728
  599MPD2    C4 8878   2.219   1.770  16.340  0.8027  0.5619 -0.3093
  599MPD2    C5 8879   2.355   1.778  16.363 -0.9086 -0.1937  0.3185
  599MPD2     H 8880   2.228   1.504  16.131  1.0408  0.8333 -1.7420
  599MPD2    H1 8881   2.147   1.833  16.391  0.9488  0.3556  0.1511
  599MPD2    H2 8882   2.550   1.694  16.342 -0.5672  0.6833 -0.4321
  599MPD2    H3 8883   2.389   1.861  16.425  0.8276  0.1671 -1.1032
  599MPD2     N 8884   2.025   1.649  16.262 -0.2155  0.6031 -0.2238
  599MPD2    H5 8885   1.968   1.727  16.295 -0.1473  0.2431  0.7397
  599MPD2    N1 8886   2.497   1.511  16.157  0.0682  0.5748  0.0798
  599MPD2    H7 8887   2.576   1.489  16.217  0.2517 -0.5427 -0.5735
  600TMC3    C1 8888   1.809   1.537  16.237 -0.4454 -0.7789 -0.1709
  600TMC3    C2 8889   1.737   1.427  16.199  0.1669 -0.5498  0.8436
  600TMC3    C3 8890   1.604   1.428  16.227  0.0570  0.6198 -0.9430
  600TMC3    C4 8891   1.749   1.649  16.283 -0.0324  0.6803 -0.6363
  600TMC3    C5 8892   1.616   1.650  16.302 -0.2680 -0.1500  0.3598
  600TMC3    C6 8893   1.537   1.537  16.279 -0.3162  0.5850  0.2378
  600TMC3     C 8894   1.957   1.537  16.214  0.2142  0.0803  0.4812
  600TMC3     O 8895   2.001   1.433  16.164 -0.0223  0.4684 -0.0481
  600TMC3     H 8896   1.787   1.346  16.147  1.3444  1.8212 -1.7704
  600TMC3    H1 8897   1.800   1.738  16.319 -1.0182  1.7550 -1.9170
  600TMC3    H2 8898   1.433   1.550  16.306 -0.6569  0.5263 -1.0659
  600TMC3    C7 8899   1.582   1.753  16.396  0.5010 -0.0162 -0.4102
  600TMC3    C8 8900   1.545   1.297  16.242  0.3742  0.2076 -0.7070
  600TMC3    O1 8901   1.638   1.860  16.388  0.1739 -0.1713  0.2042
  600TMC3    O2 8902   1.621   1.198  16.251 -0.0343 -0.4783  0.6771
  601MPD2     C 8903   4.092   4.678   0.132  0.0528 -0.7381  0.1921
  601MPD2    C1 8904   4.018   4.607   0.037 -0.3638 -0.2465 -0.1228
  601MPD2    C2 8905   4.059   4.481   0.012  1.1471  0.1170 -0.1753
  601MPD2    C3 8906   4.179   4.431   0.057  0.6095 -0.4947 -0.2717
  601MPD2    C4 8907   4.256   4.509   0.142 -0.1177  0.1956  0.0203
  601MPD2    C5 8908   4.213   4.635   0.180 -0.6624  0.1098  0.0723
  601MPD2     H 8909   3.995   4.415  17.634 -0.5120  0.7062  1.0342
  601MPD2    H1 8910   4.354   4.473   0.173 -0.0447  0.7145  0.3873
  601MPD2    H2 8911   4.054   0.058   0.156 -0.1992 -1.4370  2.5690
  601MPD2    H3 8912   4.271   4.698   0.246 -0.4197  0.4131 -0.4289
  601MPD2     N 8913   4.232   4.300   0.037  0.1428 -0.0026 -0.5281
  601MPD2    H5 8914   4.308   4.270   0.096 -0.7568 -0.0834  0.5824
  601MPD2    N1 8915   3.891   4.664  17.669  0.6667  0.4226 -0.4366
  601MPD2    H7 8916   3.863   0.037   0.024 -1.9300 -0.8343  0.7613
  602TMC3    C1 8917   3.707   4.690  17.528  0.0588 -0.5379 -1.6269
  602TMC3    C2 8918   3.707   0.105  17.547 -0.0596  0.0802 -0.1250
  602TMC3    C3 8919   3.619   0.174  17.479 -1.1492  0.1922  0.3371
  602TMC3    C4 8920   3.611   4.625  17.457 -0.2694 -0.5566 -0.2562
  602TMC3    C5 8921   3.521   4.702  17.387  0.3491  0.0870  0.4634
  602TMC3    C6 8922   3.518   0.117  17.403  0.0087  0.0209 -0.6931
  602TMC3     C 8923   3.797   4.597  17.591  0.6589 -0.2077 -0.3143
  602TMC3     O 8924   3.805   4.482  17.546 -0.0050  0.6988 -0.7111
  602TMC3     H 8925   3.791   0.157  17.593  0.1538 -1.5654  1.3398
  602TMC3    H1 8926   3.629   4.521  17.432  2.0793 -0.5194  1.2676
  602TMC3    H2 8927   3.453   0.186  17.351 -0.3883  0.4716  0.3969
  602TMC3    C7 8928   3.471   4.645  17.261 -0.3160  0.2224 -0.5169
  602TMC3    C8 8929   3.619   0.320  17.487 -0.1617 -0.1381 -0.4236
  602TMC3    O1 8930   3.450   4.526  17.260 -0.1405 -0.8170 -0.5940
  602TMC3    O2 8931   3.631   0.360  17.601  0.7667 -0.2533 -0.1332
  603TMC3    C1 8932   2.075   0.561  11.171 -0.7169  0.1274 -0.1863
  603TMC3    C2 8933   2.152   0.485  11.258  0.1334 -0.2460  0.0363
  603TMC3    C3 8934   2.259   0.543  11.316  0.6778 -0.0055  0.4878
  603TMC3    C4 8935   2.124   0.670  11.112 -0.6208 -0.0798  0.3685
  603TMC3    C5 8936   2.245   0.722  11.167 -0.0808 -0.9982 -0.2074
  603TMC3    C6 8937   2.297   0.672  11.281 -0.3043 -0.7941  0.0748
  603TMC3     C 8938   1.934   0.534  11.148 -0.5758  0.1214 -0.7025
  603TMC3     O 8939   1.879   0.620  11.083 -0.6210 -0.7162  0.0745
  603TMC3     H 8940   2.126   0.391  11.305 -0.0166 -0.0689  0.3051
  603TMC3    H1 8941   2.057   0.731  11.051 -0.7412  0.7616  1.3340
  603TMC3    H2 8942   2.396   0.711  11.303 -0.2152 -2.4898  2.6273
  603TMC3    C7 8943   2.322   0.820  11.098 -0.8793  0.6076  0.3919
  603TMC3    C8 8944   2.298   0.504  11.449  0.6847  0.2856 -0.3793
  603TMC3    O1 8945   2.426   0.866  11.153 -0.3849  0.0891  0.0328
  603TMC3    O2 8946   2.282   0.386  11.485 -0.5381 -0.3720  0.0637
  604MPD2     C 8947   2.967   3.947  16.371 -0.4353  0.4597  0.2243
  604MPD2    C1 8948   2.853   3.931  16.309  0.1852  0.1881 -0.0931
  604MPD2    C2 8949   2.830   3.855  16.194 -0.5534 -0.3079 -0.2120
  604MPD2    C3 8950   2.948   3.799  16.144 -0.3023  0.8980  0.2756
  604MPD2    C4 8951   3.069   3.819  16.200  0.0066  0.3863  0.6398
  604MPD2    C5 8952   3.082   3.897  16.313  0.5761  0.6834  0.3069
  604MPD2     H 8953   2.735   3.855  16.142 -0.3081 -2.4680 -0.6525
  604MPD2    H1 8954   3.163   3.777  16.165  0.9847  3.1469 -0.0870
  604MPD2    H2 8955   2.968   3.999  16.466  2.3676 -0.1931  0.5671
  604MPD2    H3 8956   3.178   3.908  16.361  0.5502  0.8833  0.3121
  604MPD2     N 8957   2.934   3.729  16.023  0.4676  0.7892  0.2648
  604MPD2    H5 8958   2.842   3.710  15.984  1.0387 -1.3153 -0.0470
  604MPD2    N1 8959   2.750   4.003  16.369 -0.0542  0.6625 -0.1664
  604MPD2    H7 8960   2.766   4.072  16.441 -2.2230  1.0023  0.0033
  605TMC3    C1 8961   2.538   4.107  16.373 -0.0289  0.3505  0.2308
  605TMC3    C2 8962   2.595   4.218  16.413 -0.4954 -0.1419 -0.0125
  605TMC3    C3 8963   2.516   4.331  16.451 -0.2582  0.4035 -0.0890
  605TMC3    C4 8964   2.399   4.102  16.370  0.3384 -0.0254 -0.7732
  605TMC3    C5 8965   2.322   4.206  16.417  0.2411 -0.1804  0.0695
  605TMC3    C6 8966   2.376   4.331  16.452  0.2747 -0.0654  0.0128
  605TMC3     C 8967   2.616   3.994  16.328 -0.2288  0.3544 -0.1910
  605TMC3     O 8968   2.559   3.907  16.264  0.0690  0.4824 -0.4759
  605TMC3     H 8969   2.702   4.230  16.404 -0.5602  0.0825 -0.5013
  605TMC3    H1 8970   2.355   4.011  16.331  0.4296  0.1331 -1.2450
  605TMC3    H2 8971   2.308   4.409  16.482 -1.1602 -0.8945 -1.0866
  605TMC3    C7 8972   2.177   4.188  16.418  0.1223 -0.0419 -0.7406
  605TMC3    C8 8973   2.588   4.444  16.516  0.8563  0.0267 -0.7893
  605TMC3    O1 8974   2.096   4.282  16.401  0.0923  0.4448  0.0552
  605TMC3    O2 8975   2.533   4.553  16.513 -0.5579  0.6791  0.0869
  606TMC3    C1 8976   3.217   2.748   0.240 -0.2068 -0.2029 -0.3282
  606TMC3    C2 8977   3.282   2.660   0.321 -0.7532 -0.3225  0.9236
  606TMC3    C3 8978   3.362   2.564   0.255  0.1991  0.3586  0.5501
  606TMC3    C4 8979   3.226   2.747   0.104 -0.0398  0.4484 -0.7903
  606TMC3    C5 8980   3.313   2.657   0.043 -0.0200  0.0901 -0.2828
  606TMC3    C6 8981   3.389   2.570   0.122  0.2257 -0.4306  0.0486
  606TMC3     C 8982   3.113   2.825   0.287 -0.8024  0.1036  0.2257
  606TMC3     O 8983   3.077   2.911   0.212 -0.1426  0.3937  0.8164
  606TMC3     H 8984   3.284   2.675   0.428  0.6993  2.1700  0.5414
  606TMC3    H1 8985   3.176   2.818   0.039 -1.0084  0.7770  0.3326
  606TMC3    H2 8986   3.468   2.509   0.081  3.0543  1.5672  2.5262
  606TMC3    C7 8987   3.346   2.663  17.581  0.8470 -0.6292  0.3362
  606TMC3    C8 8988   3.450   2.480   0.338 -0.2380 -0.4337  0.2069
  606TMC3    O1 8989   3.362   2.767  17.526 -0.3291 -0.0730 -0.4292
  606TMC3    O2 8990   3.540   2.416   0.279  0.0915  0.3170 -0.6885
  607MPD2     C 8991   1.581   0.514  11.494 -0.3232 -0.0533  0.6073
  607MPD2    C1 8992   1.609   0.589  11.608 -0.3545 -0.6209 -0.0416
  607MPD2    C2 8993   1.527   0.571  11.725 -0.4785  0.0487 -0.1238
  607MPD2    C3 8994   1.436   0.466  11.732  0.2897 -0.1310 -0.4382
  607MPD2    C4 8995   1.411   0.392  11.621 -0.0405 -0.0816  0.0605
  607MPD2    C5 8996   1.489   0.410  11.511 -0.1635 -0.4290 -0.2198
  607MPD2     H 8997   1.546   0.642  11.805  1.2024 -1.0039  0.4164
  607MPD2    H1 8998   1.339   0.312  11.621 -1.4850  1.2137 -0.4808
  607MPD2    H2 8999   1.641   0.521  11.404 -1.0807  0.3604  0.1373
  607MPD2    H3 9000   1.473   0.334  11.435  1.4120 -1.1698  0.1770
  607MPD2     N 9001   1.381   0.449  11.862 -0.4049 -0.5791 -0.1912
  607MPD2    H5 9002   1.385   0.525  11.930  0.1190  0.1033 -0.9808
  607MPD2    N1 9003   1.707   0.693  11.610  0.8199  0.1220 -0.3893
  607MPD2    H7 9004   1.691   0.760  11.684 -2.0421 -0.9361 -0.0419
  608TMC3    C1 9005   1.917   0.768  11.622  0.1932 -0.0998 -0.0493
  608TMC3    C2 9006   1.905   0.790  11.755 -0.2675  0.2379 -0.2511
  608TMC3    C3 9007   1.982   0.883  11.814  0.7768 -0.4132 -0.8803
  608TMC3    C4 9008   1.999   0.839  11.545  0.7962 -0.6108 -0.5201
  608TMC3    C5 9009   2.074   0.937  11.604  1.1735  0.2182  0.1327
  608TMC3    C6 9010   2.068   0.959  11.734  0.5771 -0.0450  0.4121
  608TMC3     C 9011   1.828   0.684  11.548 -0.5280 -0.0032  0.0728
  608TMC3     O 9012   1.880   0.611  11.463  0.0013  0.2020 -0.0443
  608TMC3     H 9013   1.843   0.717  11.806 -0.8630  0.7601 -0.2253
  608TMC3    H1 9014   2.008   0.821  11.438  0.4304  0.9455 -0.8189
  608TMC3    H2 9015   2.140   1.019  11.787  1.9928 -1.9722  0.6634
  608TMC3    C7 9016   2.132   1.030  11.514  0.3778  0.7475  0.0463
  608TMC3    C8 9017   1.966   0.919  11.955  0.5951  1.0272 -0.8688
  608TMC3    O1 9018   2.129   0.997  11.395  0.6509  0.0758 -0.1973
  608TMC3    O2 9019   2.070   0.948  12.018  0.0860 -0.3610  0.0694
  609TMC3    C1 9020   0.889   4.227   9.005  0.0696  0.1267  0.3289
  609TMC3    C2 9021   0.893   4.286   8.883  0.0411  0.5163 -0.2823
  609TMC3    C3 9022   1.013   4.296   8.816  0.2887 -0.4889  0.4807
  609TMC3    C4 9023   1.001   4.186   9.070  0.6374  0.6691  0.1170
  609TMC3    C5 9024   1.113   4.190   8.996 -0.2495 -0.1626  1.2172
  609TMC3    C6 9025   1.124   4.248   8.874  0.5706 -0.3523 -0.3435
  609TMC3     C 9026   0.771   4.237   9.095  0.0654  0.1814  0.4100
  609TMC3     O 9027   0.767   4.162   9.190 -0.2413 -0.8696  0.0799
  609TMC3     H 9028   0.802   4.321   8.835 -0.4240  0.8236  0.8247
  609TMC3    H1 9029   0.992   4.145   9.169 -0.8089 -1.1340 -0.7535
  609TMC3    H2 9030   1.214   4.277   8.821  0.3149  0.0063 -0.5835
  609TMC3    C7 9031   1.234   4.169   9.073  0.8073 -0.1243  0.3182
  609TMC3    C8 9032   1.025   4.351   8.681 -0.1552 -0.2777 -0.2406
  609TMC3    O1 9033   1.220   4.202   9.192 -0.4172  0.1881  0.2956
  609TMC3    O2 9034   1.126   4.327   8.615  0.4134 -0.1358 -0.1196
  610TMC3    C1 9035   1.978   0.546  13.171 -0.7846 -0.3622  0.5483
  610TMC3    C2 9036   2.015   0.639  13.075 -0.2888  0.7885  0.3599
  610TMC3    C3 9037   2.107   0.591  12.984  0.2399  0.3299 -0.7160
  610TMC3    C4 9038   2.038   0.423  13.176  0.5759  0.2738  0.3709
  610TMC3    C5 9039   2.127   0.379  13.086  0.7552  0.3421 -0.3560
  610TMC3    C6 9040   2.169   0.466  12.987 -0.0340 -0.5138  0.1671
  610TMC3     C 9041   1.885   0.572  13.279 -0.1407 -0.4908 -0.1782
  610TMC3     O 9042   1.841   0.475  13.338 -0.0526  0.3174 -0.6214
  610TMC3     H 9043   1.979   0.741  13.074  1.7886  1.5229  1.0597
  610TMC3    H1 9044   2.005   0.351  13.250 -1.3784 -2.3742 -3.0409
  610TMC3    H2 9045   2.257   0.443  12.927 -0.3869 -1.3032 -0.0578
  610TMC3    C7 9046   2.157   0.237  13.078  0.8821 -0.4883  0.2483
  610TMC3    C8 9047   2.174   0.706  12.922 -0.9971 -0.7669  0.3537
  610TMC3    O1 9048   2.189   0.174  13.179  0.5540  0.0487  0.9018
  610TMC3    O2 9049   2.114   0.810  12.909 -0.2380 -0.4394  0.1600
  611MPD2     C 9050   1.411   0.927  10.424  0.3805 -0.4331  0.1939
  611MPD2    C1 9051   1.460   0.865  10.309  0.6016  1.4519  0.7179
  611MPD2    C2 9052   1.597   0.878  10.276 -0.1711 -0.4005  0.2523
  611MPD2    C3 9053   1.679   0.946  10.355 -0.7916  0.0978  0.0226
  611MPD2    C4 9054   1.631   0.987  10.482 -0.6120 -0.1576 -0.2255
  611MPD2    C5 9055   1.494   0.977  10.513 -0.1541  0.2508  0.4916
  611MPD2     H 9056   1.620   0.845  10.176 -0.6421 -0.6298  0.2197
  611MPD2    H1 9057   1.698   1.030  10.555  0.4262  1.1480 -1.9207
  611MPD2    H2 9058   1.306   0.923  10.451  0.3820  0.3111  0.3132
  611MPD2    H3 9059   1.463   1.010  10.611 -0.2517  0.7900  0.2836
  611MPD2     N 9060   1.815   0.963  10.323 -0.1060  0.4975  0.0268
  611MPD2    H5 9061   1.868   1.008  10.396 -1.8708  1.0009  1.0101
  611MPD2    N1 9062   1.364   0.805  10.227 -0.1432  0.0686 -0.3872
  611MPD2    H7 9063   1.270   0.800  10.265  0.0595 -2.2551 -0.1458
  612TMC3    C1 9064   2.002   0.997  10.195  0.0100 -0.6861  0.0008
  612TMC3    C2 9065   2.072   1.018  10.309 -0.0576  0.8120  0.4394
  612TMC3    C3 9066   2.185   1.096  10.311  0.2757 -0.6420  0.5171
  612TMC3    C4 9067   2.043   1.059  10.082 -0.3841 -0.4408  0.4325
  612TMC3    C5 9068   2.150   1.144  10.086  0.0374 -0.5021  0.0432
  612TMC3    C6 9069   2.222   1.165  10.202  0.1970  0.2035  0.0694
  612TMC3     C 9070   1.868   0.944  10.201 -0.1776  0.3154 -0.3351
  612TMC3     O 9071   1.810   0.934  10.095 -0.2741 -0.1554 -0.1642
  612TMC3     H 9072   2.058   0.960  10.399  0.1316 -2.5562 -1.6782
  612TMC3    H1 9073   1.980   1.050   9.994 -0.4632 -2.1216  0.6558
  612TMC3    H2 9074   2.309   1.229  10.207 -0.1275  0.5816  0.9443
  612TMC3    C7 9075   2.177   1.222   9.959 -0.3329 -0.2493 -0.4099
  612TMC3    C8 9076   2.262   1.125  10.429  0.2113  0.4511  0.4641
  612TMC3    O1 9077   2.102   1.201   9.861  0.4919 -0.0070  0.3242
  612TMC3    O2 9078   2.350   1.205  10.417  0.5745 -0.2791 -0.0357
  613MPD2     C 9079   4.403   2.755  16.297  0.0833 -0.0876  0.1245
  613MPD2    C1 9080   4.496   2.681  16.231  0.9084 -0.2143  0.6966
  613MPD2    C2 9081   4.465   2.546  16.202 -0.7177 -0.1931 -0.7949
  613MPD2    C3 9082   4.339   2.493  16.232 -0.9714 -0.1560  0.6741
  613MPD2    C4 9083   4.240   2.573  16.297  1.0105 -0.3284  0.0656
  613MPD2    C5 9084   4.280   2.704  16.319  0.7897  0.2800 -1.0769
  613MPD2     H 9085   4.542   2.481  16.160 -1.2260 -0.3300 -1.5168
  613MPD2    H1 9086   4.136   2.551  16.318  0.8048  0.1526 -0.4192
  613MPD2    H2 9087   4.418   2.860  16.318 -0.4599 -0.2538  1.3308
  613MPD2    H3 9088   4.205   2.769  16.362  0.7732 -0.3424 -0.1544
  613MPD2     N 9089   4.304   2.366  16.189 -0.9471  0.4287 -0.6082
  613MPD2    H5 9090   4.206   2.339  16.203 -0.5760 -0.5627  0.1233
  613MPD2    N1 9091   4.623   2.730  16.185 -0.4750 -0.3686 -0.0191
  613MPD2    H7 9092   4.679   2.666  16.129  0.2680  0.2905 -0.0308
  614TMC3    C1 9093   0.071   2.868  16.118 -0.3097  0.2797 -0.2304
  614TMC3    C2 9094   0.143   2.760  16.085 -0.5107 -0.9118 -0.2540
  614TMC3    C3 9095   0.167   2.734  15.955  0.1329  0.7013  0.2489
  614TMC3    C4 9096   0.048   2.968  16.028  0.1907 -0.1044 -0.3592
  614TMC3    C5 9097   0.075   2.941  15.896 -1.1843 -0.1141 -0.2314
  614TMC3    C6 9098   0.136   2.825  15.856  0.1879 -1.3750 -0.2193
  614TMC3     C 9099   4.677   2.852  16.203 -0.4644  0.7396 -1.2751
  614TMC3     O 9100   4.637   2.953  16.263  0.0550 -0.1945 -0.1579
  614TMC3     H 9101   0.181   2.687  16.156  1.4149  1.2499  0.9061
  614TMC3    H1 9102   4.706   3.054  16.053 -1.1525 -1.9763  2.7643
  614TMC3    H2 9103   0.153   2.790  15.754 -0.0491 -2.3469  0.0672
  614TMC3    C7 9104   0.051   3.054  15.804 -0.3929 -0.3086 -0.6755
  614TMC3    C8 9105   0.130   2.601  15.920 -0.9046  0.2092 -0.5039
  614TMC3    O1 9106   0.046   3.168  15.843 -0.0718  0.0537  0.7297
  614TMC3    O2 9107   0.057   2.556  16.006 -0.4671  0.3737 -0.0131
  615MPD2     C 9108   4.386   4.194  16.154 -0.0876 -0.6898 -0.8504
  615MPD2    C1 9109   4.389   4.250  16.024 -0.4172  0.2380  0.0869
  615MPD2    C2 9110   4.387   4.170  15.910  0.2921  0.5319  0.2124
  615MPD2    C3 9111   4.398   4.029  15.923  0.1086  0.2941  0.7007
  615MPD2    C4 9112   4.397   3.975  16.051  0.0921 -0.0006 -0.2571
  615MPD2    C5 9113   4.395   4.059  16.167 -0.1666  0.5401  0.3843
  615MPD2     H 9114   4.364   4.221  15.817  1.9128 -0.8572 -0.9442
  615MPD2    H1 9115   4.409   3.867  16.056  0.1756  0.0590  0.7693
  615MPD2    H2 9116   4.379   4.258  16.241 -1.0093 -0.6386 -0.9536
  615MPD2    H3 9117   4.414   4.012  16.263  2.5917 -0.6853 -0.7453
  615MPD2     N 9118   4.410   3.938  15.820  0.0443  0.2868 -0.4588
  615MPD2    H5 9119   4.421   3.843  15.854  1.6698  0.2257 -1.1540
  615MPD2    N1 9120   4.375   4.389  16.005 -0.0686  0.6951 -0.0223
  615MPD2    H7 9121   4.341   4.417  15.913  1.7736  1.4888 -0.4608
  616TMC3    C1 9122   4.357   4.609  16.052  0.0333  0.3399 -0.1680
  616TMC3    C2 9123   4.457   4.710  16.057 -0.5643  0.3269  0.5114
  616TMC3    C3 9124   4.462   0.100  15.970  0.9714 -0.5088 -0.4644
  616TMC3    C4 9125   4.248   4.620  15.970  1.1734  0.2417  0.0336
  616TMC3    C5 9126   4.242   0.020  15.902  0.5603 -0.1351  0.1559
  616TMC3    C6 9127   4.344   0.118  15.899  0.8081 -0.4702 -0.1813
  616TMC3     C 9128   4.390   4.481  16.104 -0.5112  0.6383 -0.1920
  616TMC3     O 9129   4.442   4.467  16.214 -0.6096  0.1203 -0.6301
  616TMC3     H 9130   4.539   4.683  16.123 -0.7647 -1.2805  0.1081
  616TMC3    H1 9131   4.170   4.544  15.969  0.5297  0.9027 -0.1649
  616TMC3    H2 9132   4.334   0.202  15.832  0.8836  0.3231  0.7960
  616TMC3    C7 9133   4.157   0.028  15.786  0.2547  0.0933 -1.0237
  616TMC3    C8 9134   4.573   0.189  15.969 -0.1801 -0.0074 -0.3519
  616TMC3    O1 9135   4.093   0.132  15.770 -0.6143 -0.0391  0.3254
  616TMC3    O2 9136   4.568   0.306  15.931 -0.6482 -0.4658  0.1711
  617MPD2     C 9137   2.491   2.391  13.932 -0.0974  0.4958  0.1879
  617MPD2    C1 9138   2.541   2.314  14.037  0.4060 -0.2441  0.2505
  617MPD2    C2 9139   2.455   2.232  14.104 -0.2899  0.8496 -1.1614
  617MPD2    C3 9140   2.320   2.224  14.069  0.5102 -0.3558  0.1753
  617MPD2    C4 9141   2.279   2.307  13.973  0.3615  0.4185 -0.6147
  617MPD2    C5 9142   2.360   2.389  13.905  0.2926  0.8394 -0.5053
  617MPD2     H 9143   2.488   2.169  14.186 -3.9322  0.2754 -0.1475
  617MPD2    H1 9144   2.176   2.316  13.941  0.8886  1.5170 -1.9858
  617MPD2    H2 9145   2.558   2.453  13.874  0.4231 -1.3170 -1.1181
  617MPD2    H3 9146   2.331   2.461  13.829  1.6805 -0.2282 -2.0411
  617MPD2     N 9147   2.226   2.132  14.132  0.4837 -0.1956 -0.3954
  617MPD2    H5 9148   2.131   2.139  14.096  0.3104  0.7449  0.2572
  617MPD2    N1 9149   2.681   2.324  14.068 -0.0935 -0.1115  0.5994
  617MPD2    H7 9150   2.724   2.396  14.010 -0.4909  0.3849  0.9161
  618TMC3    C1 9151   2.886   2.222  14.114  0.0795 -0.0208 -0.0971
  618TMC3    C2 9152   2.938   2.103  14.084 -0.0999  0.1811  0.4500
  618TMC3    C3 9153   3.063   2.098  14.029 -0.0004 -0.3579  0.1298
  618TMC3    C4 9154   2.957   2.338  14.104 -0.2954 -0.2057  0.4942
  618TMC3    C5 9155   3.081   2.336  14.048 -0.6606 -0.3423  0.4065
  618TMC3    C6 9156   3.138   2.213  14.014 -0.0087  0.6786 -0.2358
  618TMC3     C 9157   2.746   2.228  14.148  0.1546  0.2635  0.2347
  618TMC3     O 9158   2.703   2.141  14.224 -0.0379  0.3813 -0.1858
  618TMC3     H 9159   2.879   2.013  14.098  2.1026 -1.1454  1.3041
  618TMC3    H1 9160   2.914   2.433  14.132 -1.9157 -1.0879  1.0054
  618TMC3    H2 9161   3.230   2.210  13.957  0.5871 -1.5554  0.8473
  618TMC3    C7 9162   3.165   2.446  14.089  0.0128 -1.0429  0.1886
  618TMC3    C8 9163   3.100   1.976  13.968  1.0292 -0.1627 -0.5493
  618TMC3    O1 9164   3.142   2.498  14.198 -0.0685 -0.1853  0.7372
  618TMC3    O2 9165   3.015   1.887  13.958 -0.1831  0.0063 -0.1615
  619MPD2     C 9166   4.284   3.331  13.512 -0.3857 -0.2593 -0.1647
  619MPD2    C1 9167   4.230   3.380  13.396  0.2123  0.3948 -0.6270
  619MPD2    C2 9168   4.097   3.363  13.355  0.0686 -0.2907  0.3905
  619MPD2    C3 9169   4.014   3.296  13.442  0.2112 -0.1654 -0.5801
  619MPD2    C4 9170   4.067   3.248  13.562 -0.1640 -0.3982  0.1112
  619MPD2    C5 9171   4.200   3.258  13.592  0.4340 -0.1419 -0.1363
  619MPD2     H 9172   4.060   3.413  13.266 -0.9521  0.4981  1.2639
  619MPD2    H1 9173   4.000   3.195  13.630 -1.0492  2.8060  1.7440
  619MPD2    H2 9174   4.386   3.351  13.544 -1.1720  1.1611  1.4571
  619MPD2    H3 9175   4.233   3.207  13.681 -0.7257  1.9394  1.5007
  619MPD2     N 9176   3.877   3.280  13.418 -0.3916 -0.0923 -0.2535
  619MPD2    H5 9177   3.823   3.245  13.497  1.2030 -0.9592  0.4502
  619MPD2    N1 9178   4.310   3.440  13.295  0.2942 -0.0054  0.0605
  619MPD2    H7 9179   4.256   3.482  13.220  0.7593  0.9699  0.2710
  620TMC3    C1 9180   4.474   3.565  13.189 -0.8581  0.2021  0.1332
  620TMC3    C2 9181   4.383   3.571  13.090  0.3392 -0.2741 -0.7982
  620TMC3    C3 9182   4.380   3.676  13.002  0.0064  0.1293  0.0708
  620TMC3    C4 9183   4.568   3.671  13.206  0.3376  0.5767 -0.7779
  620TMC3    C5 9184   4.561   3.776  13.124 -0.5413 -0.2646  0.5684
  620TMC3    C6 9185   4.475   3.776  13.022 -0.4105  0.3959  0.1178
  620TMC3     C 9186   4.441   3.483  13.303  0.0832  0.2707  0.6158
  620TMC3     O 9187   4.526   3.446  13.380  0.3098 -0.3497 -0.3238
  620TMC3     H 9188   4.304   3.500  13.071 -1.4796  1.8814 -1.2240
  620TMC3    H1 9189   4.604   3.690  13.307  0.1066  2.2769 -1.0244
  620TMC3    H2 9190   4.437   3.866  12.975 -0.1380  0.6017  0.2895
  620TMC3    C7 9191   4.593   3.902  13.188 -0.1736  0.4923  0.2381
  620TMC3    C8 9192   4.251   3.746  13.001 -0.5290 -0.2394 -0.2485
  620TMC3    O1 9193   4.700   3.919  13.243 -0.5852  0.0546 -0.9275
  620TMC3    O2 9194   4.243   3.825  13.093  0.1058  0.1773  0.3902
  621MPD2     C 9195   0.335   3.026  10.377 -0.3330  0.1570  0.4098
  621MPD2    C1 9196   0.419   2.995  10.279 -0.5045 -0.0743  0.4449
  621MPD2    C2 9197   0.455   3.091  10.191 -0.1441  0.2845 -0.6178
  621MPD2    C3 9198   0.403   3.221  10.206 -0.5968  0.3023  1.1118
  621MPD2    C4 9199   0.325   3.254  10.313 -0.0903  0.6653  0.1831
  621MPD2    C5 9200   0.287   3.150  10.390 -0.2161 -0.0181 -0.5337
  621MPD2     H 9201   0.521   3.069  10.107 -0.6152 -1.8306 -0.4429
  621MPD2    H1 9202   0.265   3.343  10.322 -1.8049 -0.6058  1.4140
  621MPD2    H2 9203   0.300   2.953  10.450 -0.8744 -0.4881 -0.4939
  621MPD2    H3 9204   0.208   3.166  10.463  0.6571  0.9236  0.2015
  621MPD2     N 9205   0.440   3.323  10.112 -0.9232 -0.2831 -0.1802
  621MPD2    H5 9206   0.520   3.317  10.051 -0.4206 -0.3255  0.4771
  621MPD2    N1 9207   0.458   2.858  10.251  0.0803  0.5517 -0.0377
  621MPD2    H7 9208   0.508   2.845  10.163 -1.1531 -1.4827 -0.4474
  622TMC3    C1 9209   0.488   2.614  10.294  1.0037 -0.6339  0.3821
  622TMC3    C2 9210   0.431   2.510  10.366 -0.3689 -0.8685  0.4180
  622TMC3    C3 9211   0.425   2.393  10.295  0.6919 -0.0408  0.4150
  622TMC3    C4 9212   0.539   2.589  10.169  0.7759  0.2421 -0.8834
  622TMC3    C5 9213   0.539   2.468  10.114  1.0466  0.2849 -0.0822
  622TMC3    C6 9214   0.487   2.365  10.174 -0.4071  0.3121  0.7590
  622TMC3     C 9215   0.430   2.746  10.332 -0.1612 -0.2858  0.1379
  622TMC3     O 9216   0.384   2.753  10.446  0.0330 -0.4734  0.0559
  622TMC3     H 9217   0.363   2.524  10.449 -0.7086 -2.5081  0.4193
  622TMC3    H1 9218   0.590   2.660  10.106 -0.0863  0.6793 -1.0759
  622TMC3    H2 9219   0.474   2.269  10.125  0.4764  0.5134  0.1337
  622TMC3    C7 9220   0.574   2.449   9.970  0.1869  0.3913 -0.1191
  622TMC3    C8 9221   0.347   2.281  10.340  0.4562  0.7104  0.1240
  622TMC3    O1 9222   0.599   2.334   9.942  0.2156  0.4069 -0.0153
  622TMC3    O2 9223   0.406   2.177  10.326  0.1594  0.7376 -0.5935
  623MPD2     C 9224   2.901   4.033  15.853 -0.8249 -0.2968  0.0430
  623MPD2    C1 9225   2.853   4.106  15.962 -0.1257  0.1211 -0.0291
  623MPD2    C2 9226   2.950   4.173  16.037 -0.3937  0.3814  0.5099
  623MPD2    C3 9227   3.086   4.156  16.011  0.2200 -0.0345  0.4142
  623MPD2    C4 9228   3.129   4.091  15.899  0.3647 -0.0535  0.5271
  623MPD2    C5 9229   3.032   4.037  15.819 -0.7936 -0.4799 -0.0546
  623MPD2     H 9230   2.927   4.240  16.118 -0.4097 -0.0065  0.8266
  623MPD2    H1 9231   3.234   4.093  15.870 -0.2816 -2.0502 -1.8893
  623MPD2    H2 9232   2.841   3.983  15.778 -0.8503  0.2788 -0.3175
  623MPD2    H3 9233   3.057   3.990  15.725  2.2784 -0.8201  0.9617
  623MPD2     N 9234   3.170   4.208  16.108 -0.1717  0.2013  0.2753
  623MPD2    H5 9235   3.123   4.248  16.189  0.2737 -0.0780  0.6700
  623MPD2    N1 9236   2.715   4.132  15.990  0.5420  0.4511  0.0477
  623MPD2    H7 9237   2.695   4.197  16.066  0.6579  0.9122 -0.3138
  624TMC3    C1 9238   3.482   4.117  16.393  0.2149  0.9608 -0.6687
  624TMC3    C2 9239   3.415   4.194  16.490  0.6758 -0.3014 -0.5908
  624TMC3    C3 9240   3.339   4.297  16.444  0.3045 -0.0202  0.3724
  624TMC3    C4 9241   3.465   4.138  16.262 -0.8006  0.1942  0.1563
  624TMC3    C5 9242   3.373   4.227  16.223 -0.3786 -0.7643  0.3854
  624TMC3    C6 9243   3.319   4.317  16.310  0.2721  0.4297  0.0131
  624TMC3     C 9244   3.612   4.073  16.445  0.0793  0.1187 -0.5934
  624TMC3     O 9245   3.621   4.043  16.559 -0.5610 -0.1914  0.2130
  624TMC3     H 9246   3.438   4.177  16.595  1.3204  0.0567 -0.6755
  624TMC3    H1 9247   3.513   4.074  16.189 -2.5096 -1.1070  0.1807
  624TMC3    H2 9248   3.244   4.383  16.268 -1.8787 -1.4239  1.0186
  624TMC3    C7 9249   3.307   4.193  16.099 -0.1491 -0.0021  0.1731
  624TMC3    C8 9250   3.210   4.317  16.507  0.5927 -0.0832 -0.7252
  624TMC3    O1 9251   3.381   4.139  16.018  0.2524  0.6267 -0.3846
  624TMC3    O2 9252   3.143   4.216  16.525  0.0807  0.6235 -0.3175
  625MPD2     C 9253   3.048   0.947   0.387 -0.0970  0.1171  0.1282
  625MPD2    C1 9254   3.137   1.026   0.459  0.0748 -0.2254  0.0929
  625MPD2    C2 9255   3.196   0.970   0.568  0.1778  0.2067  0.6781
  625MPD2    C3 9256   3.152   0.846   0.622 -0.5327  0.3237 -0.6190
  625MPD2    C4 9257   3.053   0.777   0.557  1.0028 -0.5758 -0.6787
  625MPD2    C5 9258   3.007   0.828   0.439 -0.9500  0.1352 -0.1563
  625MPD2     H 9259   3.266   1.028   0.627  0.7399  0.5169 -0.3017
  625MPD2    H1 9260   3.022   0.678   0.587 -0.9677 -0.0155 -0.8640
  625MPD2    H2 9261   3.001   0.977   0.294 -1.9750 -2.1323  0.3648
  625MPD2    H3 9262   2.934   0.767   0.386 -2.4802  2.4498 -0.7037
  625MPD2     N 9263   3.202   0.807   0.747  0.4285  0.0569  0.4827
  625MPD2    H5 9264   3.277   0.863   0.785  1.2847 -0.5128 -0.3862
  625MPD2    N1 9265   3.188   1.149   0.406  0.8207 -0.3186 -0.1693
  625MPD2    H7 9266   3.272   1.190   0.447 -0.6339  1.4270  1.0507
  626TMC3    C1 9267   3.233   1.332   0.261 -0.5120  0.8129  0.0595
  626TMC3    C2 9268   3.226   1.389   0.132  0.5472 -0.0422  0.3091
  626TMC3    C3 9269   3.297   1.493   0.093  0.6883  0.5837 -0.2847
  626TMC3    C4 9270   3.312   1.398   0.354  0.8132  0.6751 -0.2043
  626TMC3    C5 9271   3.394   1.498   0.311 -0.4927 -0.1653 -0.3290
  626TMC3    C6 9272   3.379   1.557   0.185  0.3704 -0.3474 -0.4630
  626TMC3     C 9273   3.146   1.217   0.292 -0.0762 -0.6341  0.2083
  626TMC3     O 9274   3.077   1.167   0.199 -0.4553 -0.1608  0.2282
  626TMC3     H 9275   3.164   1.343   0.055 -1.0432  1.9092  0.4486
  626TMC3    H1 9276   3.319   1.360   0.456 -1.6616 -0.7825 -0.5730
  626TMC3    H2 9277   3.433   1.646   0.152  1.4148 -1.4609 -1.7621
  626TMC3    C7 9278   3.488   1.557   0.404  0.3299  0.6322  0.2494
  626TMC3    C8 9279   3.248   1.576  17.663 -0.3738  0.1608 -0.8366
  626TMC3    O1 9280   3.557   1.645   0.355  0.8469 -0.1252  0.2167
  626TMC3    O2 9281   3.315   1.618  17.574  0.1150 -0.1544 -0.8807
  627MPD2     C 9282   2.158   0.560  14.807  0.0610  0.3839  0.0531
  627MPD2    C1 9283   2.172   0.630  14.684 -0.8588  0.4606 -0.0390
  627MPD2    C2 9284   2.086   0.602  14.577  0.2858 -0.0518 -0.1922
  627MPD2    C3 9285   1.971   0.526  14.602  0.2021  0.1379 -0.4256
  627MPD2    C4 9286   1.953   0.468  14.728 -0.0834  0.0812 -0.3825
  627MPD2    C5 9287   2.049   0.481  14.827 -0.4741 -0.0556 -0.0848
  627MPD2     H 9288   2.087   0.636  14.474  0.2041 -0.1972 -0.2412
  627MPD2    H1 9289   1.862   0.417  14.759 -0.0560  1.4643  1.9638
  627MPD2    H2 9290   2.220   0.558  14.896 -0.1938 -0.2666  0.2199
  627MPD2    H3 9291   2.027   0.445  14.927  2.0317 -0.3514  0.3407
  627MPD2     N 9292   1.879   0.490  14.498  0.2000  0.6276  0.1541
  627MPD2    H5 9293   1.898   0.530  14.406 -1.9772 -1.0909 -1.0467
  627MPD2    N1 9294   2.281   0.716  14.668 -0.1853  0.7187 -0.1473
  627MPD2    H7 9295   2.283   0.763  14.578  1.9952  0.7061 -0.1070
  628TMC3    C1 9296   2.464   0.852  14.706  0.6696 -0.5658 -0.1296
  628TMC3    C2 9297   2.582   0.856  14.769  0.0122  0.8222  0.4741
  628TMC3    C3 9298   2.642   0.974  14.788 -0.4183  0.5432  0.6136
  628TMC3    C4 9299   2.397   0.963  14.672 -0.0265 -0.2100  0.5396
  628TMC3    C5 9300   2.453   1.081  14.708  0.0327 -0.2161 -0.0585
  628TMC3    C6 9301   2.577   1.093  14.769  0.1426  0.4183  0.0547
  628TMC3     C 9302   2.377   0.746  14.754  0.1173  0.4873 -0.8100
  628TMC3     O 9303   2.417   0.686  14.852  0.1986 -0.6248 -0.6377
  628TMC3     H 9304   2.641   0.765  14.773 -0.0865  0.6660 -1.6276
  628TMC3    H1 9305   2.291   0.968  14.650 -0.2503  1.6109  2.0505
  628TMC3    H2 9306   2.637   1.184  14.771  1.2418 -0.2714 -1.2832
  628TMC3    C7 9307   2.382   1.206  14.682  0.3229  0.4746  0.5392
  628TMC3    C8 9308   2.780   0.970  14.767 -0.1878 -0.1822  0.2356
  628TMC3    O1 9309   2.332   1.211  14.573 -0.7210 -0.4891 -0.1309
  628TMC3    O2 9310   2.829   1.056  14.693 -0.5433  0.8440 -0.4736
  629MPD2     C 9311   0.352   0.293  16.050 -1.0816 -0.3822 -0.0131
  629MPD2    C1 9312   0.325   0.165  16.091 -0.2115  1.0131 -0.5753
  629MPD2    C2 9313   0.207   0.103  16.068 -0.4829  0.7488  0.2905
  629MPD2    C3 9314   0.097   0.187  16.035 -0.6901 -0.2820  0.3327
  629MPD2    C4 9315   0.117   0.314  16.007 -0.1126 -0.3760  0.7933
  629MPD2    C5 9316   0.245   0.365  16.001  0.6883 -0.1777  0.7438
  629MPD2     H 9317   0.180   0.000  16.091 -0.9733  0.7008 -0.5000
  629MPD2    H1 9318   0.049   0.394  15.980 -0.6242 -0.9718  0.3185
  629MPD2    H2 9319   0.450   0.339  16.056  0.0311 -2.4744 -2.2058
  629MPD2    H3 9320   0.275   0.457  15.953  1.1265 -1.4627 -1.4110
  629MPD2     N 9321   4.687   0.131  16.029 -0.1394 -0.4285 -0.6898
  629MPD2    H5 9322   4.674   0.031  16.043 -0.8493 -0.0722  1.2132
  629MPD2    N1 9323   0.442   0.108  16.141  0.0597 -0.3977 -0.0176
  629MPD2    H7 9324   0.531   0.154  16.125  1.2618 -1.9483  2.2409
  630TMC3    C1 9325   0.592   4.685  16.248 -0.3094 -0.0075 -0.8574
  630TMC3    C2 9326   0.682   0.074  16.252  0.4401  0.7333 -0.5712
  630TMC3    C3 9327   0.791   0.054  16.330 -0.7230  0.1327 -0.6000
  630TMC3    C4 9328   0.607   4.568  16.318  0.0291  0.4261  0.0192
  630TMC3    C5 9329   0.719   4.557  16.399 -0.0780  0.1059  0.3938
  630TMC3    C6 9330   0.812   4.660  16.407  0.0664 -0.1867 -0.3933
  630TMC3     C 9331   0.458   4.698  16.193 -0.0315  0.2679  0.1319
  630TMC3     O 9332   0.375   4.605  16.204 -0.1869 -0.0353 -0.6708
  630TMC3     H 9333   0.658   0.172  16.212 -1.0936  0.6539  0.1669
  630TMC3    H1 9334   0.557   4.478  16.284 -0.0457  0.8560 -1.0156
  630TMC3    H2 9335   0.902   4.659  16.468 -0.1154 -1.1430 -0.1315
  630TMC3    C7 9336   0.715   4.453  16.503 -0.4023 -0.1728  0.2014
  630TMC3    C8 9337   0.892   0.155  16.337  0.0299 -0.0933  0.0928
  630TMC3    O1 9338   0.615   4.388  16.515 -0.5838 -0.0965  0.6739
  630TMC3    O2 9339   0.938   0.168  16.451 -0.5729  0.1335 -0.4226
  631MPD2     C 9340   3.645   3.866  15.400  0.1895 -0.3393 -0.4884
  631MPD2    C1 9341   3.733   3.948  15.326 -0.4052  1.0127  0.0146
  631MPD2    C2 9342   3.874   3.937  15.343 -0.0208  0.0703 -0.5169
  631MPD2    C3 9343   3.923   3.831  15.413 -0.1104 -0.1595  0.7310
  631MPD2    C4 9344   3.831   3.755  15.488  0.4291  0.1913 -0.3270
  631MPD2    C5 9345   3.696   3.776  15.492 -0.4454  0.3253  0.2721
  631MPD2     H 9346   3.940   3.993  15.278  2.7499 -3.2486 -0.5038
  631MPD2    H1 9347   3.880   3.676  15.544 -0.1125 -0.8805 -1.3639
  631MPD2    H2 9348   3.539   3.869  15.379  0.0495  1.5916  0.5114
  631MPD2    H3 9349   3.631   3.704  15.540  2.7989 -2.5418  0.3345
  631MPD2     N 9350   4.063   3.813  15.416  0.6514 -0.0412  0.4032
  631MPD2    H5 9351   4.118   3.871  15.353  0.3982  0.1877  0.3960
  631MPD2    N1 9352   3.668   4.032  15.227  0.8716  0.0205 -0.1819
  631MPD2    H7 9353   3.569   4.051  15.239  0.6651 -0.1471 -1.6146
  632TMC3    C1 9354   3.662   4.176  15.024  0.0629 -1.3389 -0.0147
  632TMC3    C2 9355   3.575   4.273  15.073  0.3674 -0.0656 -0.1782
  632TMC3    C3 9356   3.504   4.341  14.986 -0.2058 -0.0859  0.0614
  632TMC3    C4 9357   3.694   4.179  14.889 -0.1524 -0.3735 -0.1439
  632TMC3    C5 9358   3.627   4.259  14.804 -0.2232  0.3550 -0.4525
  632TMC3    C6 9359   3.524   4.341  14.850 -0.3365  0.4929 -0.0764
  632TMC3     C 9360   3.733   4.080  15.113 -0.6018 -0.4709 -0.2162
  632TMC3     O 9361   3.849   4.055  15.071 -0.4428  0.0326 -0.1287
  632TMC3     H 9362   3.561   4.281  15.180 -0.0746 -0.3726 -0.2129
  632TMC3    H1 9363   3.764   4.102  14.858  1.5365  1.2706 -0.4340
  632TMC3    H2 9364   3.460   4.386  14.775  1.5441 -1.0676 -2.6160
  632TMC3    C7 9365   3.635   4.251  14.658 -0.1932 -0.0111 -0.5377
  632TMC3    C8 9366   3.369   4.372  15.029 -0.1617  0.3759  0.1105
  632TMC3    O1 9367   3.546   4.310  14.594  0.0878 -0.9410  0.2061
  632TMC3    O2 9368   3.312   4.293  15.096  0.3647  0.2662  0.4891
  633MPD2     C 9369   2.886   2.095  17.018  0.0394  0.7031 -0.7710
  633MPD2    C1 9370   2.998   2.067  16.939 -0.6108 -0.5283  0.9757
  633MPD2    C2 9371   3.089   1.978  16.988  0.4392 -0.0653 -0.6139
  633MPD2    C3 9372   3.082   1.932  17.113  0.0831 -0.1129  0.7707
  633MPD2    C4 9373   2.987   1.974  17.194 -0.6298 -0.5899  0.1575
  633MPD2    C5 9374   2.888   2.058  17.142  0.4406 -0.6580  0.0367
  633MPD2     H 9375   3.172   1.944  16.928 -1.2270 -2.5004 -1.5549
  633MPD2    H1 9376   2.988   1.955  17.301 -0.2485 -1.0303  0.0710
  633MPD2    H2 9377   2.809   2.169  16.995  0.1732  0.9049 -0.5686
  633MPD2    H3 9378   2.823   2.097  17.220  2.6258  0.9675  1.0451
  633MPD2     N 9379   3.188   1.864  17.166  0.3729  0.6912  0.1006
  633MPD2    H5 9380   3.193   1.867  17.268  1.8113  2.8329 -0.0345
  633MPD2    N1 9381   3.014   2.125  16.809  0.5519 -0.0463 -0.2787
  633MPD2    H7 9382   3.090   2.092  16.751  0.0005 -1.3081 -0.2802
  634TMC3    C1 9383   2.984   2.275  16.625  0.3719  0.3070  0.4395
  634TMC3    C2 9384   3.014   2.185  16.531  0.4533  0.3561 -0.6789
  634TMC3    C3 9385   3.062   2.229  16.412  0.8408  0.2816 -1.0335
  634TMC3    C4 9386   3.016   2.410  16.619 -0.0163 -0.0144 -0.5209
  634TMC3    C5 9387   3.079   2.446  16.504  0.4757  0.8831 -0.6842
  634TMC3    C6 9388   3.097   2.358  16.400 -0.1502 -0.2226  0.2255
  634TMC3     C 9389   2.937   2.233  16.757  0.0649  0.7110 -0.4267
  634TMC3     O 9390   2.855   2.305  16.810  0.4759  0.2111 -0.1780
  634TMC3     H 9391   2.990   2.080  16.545 -1.7765  0.8570 -0.7273
  634TMC3    H1 9392   2.976   2.482  16.690  0.2207 -0.8699  0.4758
  634TMC3    H2 9393   3.142   2.395  16.308 -0.1667 -2.1414 -0.5566
  634TMC3    C7 9394   3.120   2.584  16.485  0.4327  0.6268 -0.5834
  634TMC3    C8 9395   3.158   2.135  16.356 -0.0443 -0.0367  0.1147
  634TMC3    O1 9396   3.158   2.611  16.371 -0.3271  0.1949 -0.3256
  634TMC3    O2 9397   3.244   2.093  16.435  0.5874 -0.4833  0.5379
  635TMC3    C1 9398   3.836   3.322  17.090  0.6053 -0.0640 -0.4901
  635TMC3    C2 9399   3.861   3.235  16.989  0.3782  0.1993  0.6042
  635TMC3    C3 9400   3.784   3.123  16.987  0.4426 -0.0284 -1.2203
  635TMC3    C4 9401   3.729   3.306  17.172 -0.0734  0.7071 -0.1086
  635TMC3    C5 9402   3.648   3.198  17.157  0.2224  0.0799  0.3011
  635TMC3    C6 9403   3.677   3.100  17.067 -0.7186  0.1170  0.2989
  635TMC3     C 9404   3.938   3.416  17.149  0.1781  0.5910  0.8102
  635TMC3     O 9405   3.896   3.499  17.225 -0.2606 -0.1821  0.1645
  635TMC3     H 9406   3.954   3.237  16.932 -0.5394 -0.2073 -0.9062
  635TMC3    H1 9407   3.719   3.369  17.260 -1.1209  1.4913 -0.7823
  635TMC3    H2 9408   3.609   3.016  17.065  2.5581 -2.5005 -0.4946
  635TMC3    C7 9409   3.578   3.150  17.277 -0.6140  0.3561  0.3311
  635TMC3    C8 9410   3.811   3.030  16.884  0.2241 -0.6159  0.4415
  635TMC3    O1 9411   3.568   3.023  17.289  0.0792  1.2595 -0.2894
  635TMC3    O2 9412   3.891   3.067  16.795  0.2052 -0.1497 -0.2732
  636MPD2     C 9413   4.299   2.642  15.702  0.3017  0.4121  0.5025
  636MPD2    C1 9414   4.255   2.660  15.835  0.5248  0.7740 -0.1982
  636MPD2    C2 9415   4.192   2.555  15.893  0.4292 -0.1477 -0.4733
  636MPD2    C3 9416   4.164   2.443  15.820 -0.1100  0.3097 -0.4494
  636MPD2    C4 9417   4.200   2.433  15.685 -0.1600  0.5190  0.2446
  636MPD2    C5 9418   4.268   2.532  15.625  0.3921  1.0015  0.3443
  636MPD2     H 9419   4.164   2.569  15.997  0.7717 -0.5457 -0.3268
  636MPD2    H1 9420   4.169   2.349  15.625 -0.3666 -0.0184  1.1090
  636MPD2    H2 9421   4.348   2.725  15.653  3.1451 -0.8004  1.2205
  636MPD2    H3 9422   4.305   2.530  15.523 -0.6890  2.2956 -0.0656
  636MPD2     N 9423   4.102   2.340  15.885  0.8961 -0.6111 -0.1873
  636MPD2    H5 9424   4.108   2.347  15.986  1.4330 -2.2598 -0.0991
  636MPD2    N1 9425   4.278   2.780  15.910  0.3316  0.3645  0.1707
  636MPD2    H7 9426   4.217   2.803  15.989 -1.2307  0.9824 -1.2191
  637TMC3    C1 9427   4.150   2.115  15.905 -0.0326  0.4969 -0.2496
  637TMC3    C2 9428   4.184   2.161  16.030  0.2727  0.5633  0.1824
  637TMC3    C3 9429   4.312   2.152  16.080 -1.2718  0.1564  0.4026
  637TMC3    C4 9430   4.238   2.057  15.827 -0.2082 -0.7482 -0.2761
  637TMC3    C5 9431   4.369   2.056  15.870  0.2412 -0.5811  0.0363
  637TMC3    C6 9432   4.404   2.080  15.998  0.4834 -0.0216 -0.3843
  637TMC3     C 9433   4.071   2.215  15.837  0.3834 -0.1904 -0.4410
  637TMC3     O 9434   4.041   2.185  15.727 -0.8359  0.1262  0.5106
  637TMC3     H 9435   4.103   2.204  16.088 -0.2537  0.4273 -0.4466
  637TMC3    H1 9436   4.213   2.041  15.723 -0.0586  0.2640 -0.4648
  637TMC3    H2 9437   4.510   2.083  16.020  0.0484 -1.2938  1.9594
  637TMC3    C7 9438   4.457   2.092  15.769  0.2405  0.0527 -0.1017
  637TMC3    C8 9439   4.378   2.280  16.118  0.3265  0.2049 -0.9047
  637TMC3    O1 9440   4.438   2.046  15.659  0.3155 -0.2847  0.4708
  637TMC3    O2 9441   4.484   2.295  16.064 -0.2361  0.3053  0.1075
  638MPD2     C 9442   4.639   1.537  14.533  0.0347  0.3243 -0.2803
  638MPD2    C1 9443   4.569   1.449  14.450  0.6377 -0.2432 -0.4284
  638MPD2    C2 9444   4.435   1.428  14.478 -0.3186 -0.1440 -0.6002
  638MPD2    C3 9445   4.374   1.490  14.586 -0.7856  0.4627 -0.1689
  638MPD2    C4 9446   4.440   1.579  14.658 -0.5122  0.0588  0.1811
  638MPD2    C5 9447   4.572   1.598  14.634 -0.4339 -0.5031  0.0623
  638MPD2     H 9448   4.370   1.361  14.424 -1.9071  1.0993 -0.2349
  638MPD2    H1 9449   4.379   1.632  14.731  0.8934 -0.8800  2.0555
  638MPD2    H2 9450   0.025   1.556  14.518  0.3513 -1.3219 -0.1082
  638MPD2    H3 9451   4.624   1.672  14.695 -1.0322  0.3564 -0.4763
  638MPD2     N 9452   4.235   1.465  14.603 -0.4707 -0.4021 -0.5104
  638MPD2    H5 9453   4.181   1.419  14.530  0.0081  0.4454 -1.3977
  638MPD2    N1 9454   4.634   1.393  14.335  0.3544  0.5248  0.0002
  638MPD2    H7 9455   0.013   1.411  14.317  0.4314 -0.3827 -0.5091
  639TMC3    C1 9456   4.008   1.510  14.671  0.3014 -0.5956 -0.4814
  639TMC3    C2 9457   3.960   1.434  14.571 -0.8996 -0.1421 -0.4658
  639TMC3    C3 9458   3.837   1.377  14.582  0.0160 -0.7255  0.1207
  639TMC3    C4 9459   3.923   1.550  14.777 -0.3229  0.3784 -0.3872
  639TMC3    C5 9460   3.802   1.491  14.782 -0.3113 -0.1042  0.2806
  639TMC3    C6 9461   3.760   1.409  14.681 -0.4850 -0.1880  0.0261
  639TMC3     C 9462   4.153   1.508  14.705 -0.6980 -0.7817  0.2141
  639TMC3     O 9463   4.190   1.560  14.809 -0.4578 -1.0555 -0.0006
  639TMC3     H 9464   4.025   1.410  14.486  0.6207  3.6298 -0.3589
  639TMC3    H1 9465   3.962   1.612  14.857 -1.1325 -0.6761  0.8184
  639TMC3    H2 9466   3.654   1.388  14.686 -0.7231  1.2803  1.3745
  639TMC3    C7 9467   3.800   1.403  14.896 -0.6079  0.3597  0.0004
  639TMC3    C8 9468   3.837   1.231  14.552  0.1962  0.0027  0.1477
  639TMC3    O1 9469   3.706   1.322  14.901  0.2353  0.0687  0.3902
  639TMC3    O2 9470   3.917   1.180  14.474  0.1741 -0.3240  0.0981
  640MPD2     C 9471   0.524   0.099   9.887 -0.3839 -0.0577 -0.3381
  640MPD2    C1 9472   0.556   0.130   9.759 -0.5507  0.1046 -0.0126
  640MPD2    C2 9473   0.510   0.250   9.708 -0.1158 -0.0239 -0.7083
  640MPD2    C3 9474   0.444   0.352   9.785  0.0693 -0.5149  0.3286
  640MPD2    C4 9475   0.429   0.323   9.921 -0.3021  0.3062  0.7181
  640MPD2    C5 9476   0.473   0.204   9.962  0.5807 -0.1472  0.5678
  640MPD2     H 9477   0.521   0.283   9.606  3.3434  0.3684 -0.2198
  640MPD2    H1 9478   0.374   0.388   9.989  1.4990  1.4764  1.0471
  640MPD2    H2 9479   0.546   0.001   9.928  0.3562  0.9883  1.7806
  640MPD2    H3 9480   0.464   0.181  10.068  1.5137  0.1496  0.7097
  640MPD2     N 9481   0.397   0.473   9.733  0.7807  0.4360 -0.1348
  640MPD2    H5 9482   0.327   0.523   9.788  1.1126  1.4746 -0.6516
  640MPD2    N1 9483   0.614   0.030   9.678  0.0230  0.4268  0.3616
  640MPD2    H7 9484   0.629   4.660   9.725  0.6302  0.6183  0.5272
  641TMC3    C1 9485   0.718   4.654   9.483  0.0620 -0.7684 -0.1465
  641TMC3    C2 9486   0.795   4.569   9.563 -0.6019 -0.1040  0.2972
  641TMC3    C3 9487   0.878   4.479   9.496  0.5915  0.3316  0.2297
  641TMC3    C4 9488   0.737   4.659   9.348  0.1879 -0.6295  0.5160
  641TMC3    C5 9489   0.820   4.570   9.289 -0.5986 -0.3535  0.3083
  641TMC3    C6 9490   0.891   4.476   9.359  0.0430  0.3812  0.1431
  641TMC3     C 9491   0.664   0.050   9.548 -0.0981  0.4804 -0.5097
  641TMC3     O 9492   0.668   0.148   9.475  0.1001  0.8269  0.2567
  641TMC3     H 9493   0.812   4.593   9.667 -1.5186  0.2875  0.3565
  641TMC3    H1 9494   0.678   0.014   9.294  0.5996  0.2422  1.2512
  641TMC3    H2 9495   0.966   4.411   9.316  1.9000  0.6798  2.9058
  641TMC3    C7 9496   0.867   4.612   9.159  0.2095  0.0466 -0.0142
  641TMC3    C8 9497   0.968   4.390   9.573 -0.2827  0.4424 -0.3142
  641TMC3    O1 9498   0.792   4.685   9.095  0.0286 -0.1150  0.0816
  641TMC3    O2 9499   1.038   4.313   9.506  0.3761  0.0115 -0.4823
  642TMC3    C1 9500   1.404   1.435  12.180 -0.0997 -0.4172 -0.6092
  642TMC3    C2 9501   1.412   1.437  12.322 -0.1526 -0.1713 -0.1254
  642TMC3    C3 9502   1.464   1.319  12.377  0.0619  0.0573 -0.0636
  642TMC3    C4 9503   1.461   1.339  12.106  0.3580  0.0053  0.2726
  642TMC3    C5 9504   1.519   1.228  12.171 -0.1870  0.0841 -0.1815
  642TMC3    C6 9505   1.521   1.218  12.305  0.3223  0.0359  0.3180
  642TMC3     C 9506   1.333   1.542  12.113  0.2099 -0.2164 -0.5960
  642TMC3     O 9507   1.345   1.542  11.992 -0.7798 -0.7680  0.0714
  642TMC3     H 9508   1.374   1.515  12.386 -0.1221 -0.7737  0.6141
  642TMC3    H1 9509   1.461   1.343  11.998  0.1118  2.4651  0.3638
  642TMC3    H2 9510   1.571   1.139  12.360 -0.2997 -0.3349  0.3519
  642TMC3    C7 9511   1.513   1.105  12.097  0.2093 -0.0056  0.1472
  642TMC3    C8 9512   1.487   1.315  12.515 -0.3778  0.4679  0.5288
  642TMC3    O1 9513   1.553   1.089  11.979 -0.1375 -0.4131 -0.0285
  642TMC3    O2 9514   1.588   1.259  12.557 -0.4833  0.1100 -0.0113
  643TMC3    C1 9515   0.294   0.579   0.546  0.1269 -0.3773  0.0326
  643TMC3    C2 9516   0.162   0.564   0.544 -0.6089 -0.0810 -0.7274
  643TMC3    C3 9517   0.111   0.502   0.433  0.5173 -0.1624  0.2463
  643TMC3    C4 9518   0.380   0.513   0.463  0.4535  0.1237  0.2976
  643TMC3    C5 9519   0.326   0.454   0.349  0.0095  0.6277 -1.5097
  643TMC3    C6 9520   0.188   0.453   0.331  0.9205 -0.3011  0.6762
  643TMC3     C 9521   0.344   0.678   0.635  0.2354  0.4419 -0.4027
  643TMC3     O 9522   0.277   0.704   0.735 -0.0104 -0.2270 -0.0760
  643TMC3     H 9523   0.105   0.623   0.615  0.3028  0.1632 -0.1933
  643TMC3    H1 9524   0.488   0.518   0.475  0.7146 -0.6098 -1.7414
  643TMC3    H2 9525   0.148   0.407   0.241  0.3143  0.6928  0.4312
  643TMC3    C7 9526   0.400   0.440   0.226  0.0754 -0.9601  0.2079
  643TMC3    C8 9527   4.690   0.509   0.401 -0.2407 -0.2774 -0.3789
  643TMC3    O1 9528   0.340   0.457   0.122  0.6640 -0.5906 -0.0600
  643TMC3    O2 9529   4.606   0.519   0.487  0.3178  0.0492  0.0945
  644MPD2     C 9530   0.493   0.182   9.064 -0.5758 -0.0707  0.1718
  644MPD2    C1 9531   0.583   0.284   9.065 -0.1336 -0.1862  0.0645
  644MPD2    C2 9532   0.549   0.406   9.007 -0.3190 -0.3292  0.2101
  644MPD2    C3 9533   0.423   0.420   8.948 -0.9511  0.3341 -0.1852
  644MPD2    C4 9534   0.334   0.315   8.955 -0.3813 -1.0904 -0.1610
  644MPD2    C5 9535   0.364   0.193   9.012  0.0256 -0.1332  0.2307
  644MPD2     H 9536   0.617   0.490   9.010  0.2522 -0.7183 -1.7504
  644MPD2    H1 9537   0.238   0.317   8.906 -0.7934 -0.9555  0.6561
  644MPD2    H2 9538   0.530   0.090   9.107  0.5882 -0.1746 -1.0377
  644MPD2    H3 9539   0.293   0.112   9.002  0.5379 -0.3245 -1.8478
  644MPD2     N 9540   0.381   0.543   8.888  0.1606  0.5198  0.6621
  644MPD2    H5 9541   0.455   0.613   8.885 -0.6401  1.3503  0.3412
  644MPD2    N1 9542   0.717   0.263   9.121  0.3650 -0.3449  0.1874
  644MPD2    H7 9543   0.731   0.166   9.146  0.0673 -0.2627  0.6771
  645TMC3    C1 9544   0.232   0.712   8.785  0.0350  0.7417  0.5910
  645TMC3    C2 9545   0.111   0.775   8.794  0.7729 -0.5603  0.1709
  645TMC3    C3 9546   0.104   0.912   8.760  0.1040 -0.2438  0.2712
  645TMC3    C4 9547   0.342   0.789   8.745  0.1651  0.3645  0.1991
  645TMC3    C5 9548   0.330   0.925   8.719  0.9426 -0.5116  0.3129
  645TMC3    C6 9549   0.211   0.990   8.724 -0.1107  0.5237  0.0369
  645TMC3     C 9550   0.247   0.580   8.855 -0.2733  0.9545 -0.2453
  645TMC3     O 9551   0.141   0.541   8.903  0.9729  0.1291  0.5987
  645TMC3     H 9552   0.027   0.715   8.826  1.2046 -2.1885 -1.7539
  645TMC3    H1 9553   0.437   0.740   8.725 -1.3051 -2.2488 -0.3992
  645TMC3    H2 9554   0.204   1.098   8.720 -0.9750  0.5095  1.1563
  645TMC3    C7 9555   0.452   0.999   8.692 -0.0854  0.5723 -0.3990
  645TMC3    C8 9556   4.710   0.981   8.812 -0.2299 -1.1361 -0.5990
  645TMC3    O1 9557   0.554   0.955   8.741 -0.3940 -0.2067  0.0295
  645TMC3    O2 9558   4.664   0.931   8.915  0.2484  0.0919 -0.6623
  646MPD2     C 9559   4.377   4.464  14.704 -0.0607 -0.7296 -0.0728
  646MPD2    C1 9560   4.419   4.568  14.787 -0.5610  0.5464 -0.5029
  646MPD2    C2 9561   4.349   4.687  14.757  0.7183 -0.5745 -0.2217
  646MPD2    C3 9562   4.247   4.699  14.660  0.2671 -0.5891 -0.0268
  646MPD2    C4 9563   4.220   4.598  14.577 -0.6665  0.8972  0.5573
  646MPD2    C5 9564   4.287   4.477  14.600  0.0382 -0.5601  0.1699
  646MPD2     H 9565   4.382   0.054  14.816 -1.9296  0.6005 -0.4664
  646MPD2    H1 9566   4.139   4.591  14.506  0.6302 -0.2862 -0.7944
  646MPD2    H2 9567   4.416   4.364  14.715  0.6535 -0.1757  2.4338
  646MPD2    H3 9568   4.262   4.389  14.541 -0.6199 -0.2521 -0.0069
  646MPD2     N 9569   4.195   0.107  14.628  0.3038  0.6959 -0.0444
  646MPD2    H5 9570   4.212   0.183  14.692 -0.9325  1.7092 -0.9143
  646MPD2    N1 9571   4.523   4.539  14.882 -0.2029  0.2454 -0.0353
  646MPD2    H7 9572   4.563   4.445  14.884 -0.2515  0.2485  1.1493
  647TMC3    C1 9573   4.631   4.547  15.082 -0.1566  0.0496  0.5218
  647TMC3    C2 9574   4.598   4.420  15.118  0.4547 -0.1753  0.2359
  647TMC3    C3 9575   4.643   4.382  15.244 -0.0552  0.6532 -0.1201
  647TMC3    C4 9576   4.707   4.632  15.164 -0.2745  0.3054 -0.3473
  647TMC3    C5 9577   0.022   4.587  15.295  0.2221  0.1590  0.2448
  647TMC3    C6 9578   4.705   4.464  15.331 -0.6712 -0.3720  0.0488
  647TMC3     C 9579   4.556   4.616  14.984  0.8305  0.6606 -0.8090
  647TMC3     O 9580   4.535   0.012  15.003 -0.2479  0.1214  0.1293
  647TMC3     H 9581   4.546   4.342  15.063 -2.4467  1.3123  0.8465
  647TMC3    H1 9582   0.011   0.012  15.126  0.5997 -0.4089 -1.6856
  647TMC3    H2 9583   0.018   4.420  15.424 -0.0253  0.2265  0.1125
  647TMC3    C7 9584   0.166   4.608  15.336  0.0336  0.2038 -0.0559
  647TMC3    C8 9585   4.679   4.240  15.274 -0.7706  0.1219  0.0812
  647TMC3    O1 9586   0.233   4.508  15.364  0.2720 -0.2201 -0.0546
  647TMC3    O2 9587   4.694   4.204  15.392  0.4206  0.5190 -0.2689
  648TMC3    C1 9588   3.746   2.465  15.803  0.0523  0.1235 -0.1786
  648TMC3    C2 9589   3.745   2.344  15.735 -0.2448  0.0842 -0.0200
  648TMC3    C3 9590   3.677   2.331  15.616 -0.0508  0.2489  0.5084
  648TMC3    C4 9591   3.680   2.569  15.751 -0.0601 -0.3243 -0.0712
  648TMC3    C5 9592   3.595   2.555  15.648 -0.2621 -0.1320 -1.1327
  648TMC3    C6 9593   3.600   2.439  15.573 -0.3318 -0.1534 -0.1434
  648TMC3     C 9594   3.769   2.472  15.945 -0.3558  0.0138  0.4145
  648TMC3     O 9595   3.829   2.566  15.996  0.5276 -0.2143  0.1236
  648TMC3     H 9596   3.784   2.255  15.782  0.0706  0.4399  0.3880
  648TMC3    H1 9597   3.682   2.660  15.810  0.4631  0.0670 -0.6949
  648TMC3    H2 9598   3.539   2.436  15.484  3.1370 -0.7432 -2.5099
  648TMC3    C7 9599   3.550   2.675  15.591  0.1540  0.0086 -0.2107
  648TMC3    C8 9600   3.698   2.217  15.537 -0.2225  0.4342 -0.7803
  648TMC3    O1 9601   3.553   2.697  15.470  0.2717  0.6888  0.0751
  648TMC3    O2 9602   3.614   2.183  15.453  0.5305  0.7338 -0.0421
  649TMC3    C1 9603   2.809   3.856  12.970 -0.1795  0.2814 -0.0357
  649TMC3    C2 9604   2.939   3.856  12.922  0.3812  0.3097 -0.4995
  649TMC3    C3 9605   3.022   3.770  12.992 -0.6026  0.0978  0.0048
  649TMC3    C4 9606   2.761   3.787  13.077 -0.1834 -0.0185  0.9309
  649TMC3    C5 9607   2.856   3.712  13.147 -1.1395 -0.4994 -0.6787
  649TMC3    C6 9608   2.984   3.696  13.103  0.1568  0.7998 -0.4537
  649TMC3     C 9609   2.705   3.927  12.888 -0.2829  0.2135 -0.5935
  649TMC3     O 9610   2.610   3.964  12.955  0.0714 -0.2363  0.7653
  649TMC3     H 9611   2.972   3.913  12.837 -0.1111 -0.2151 -1.0428
  649TMC3    H1 9612   2.663   3.807  13.120 -0.0931 -1.6525  1.9344
  649TMC3    H2 9613   3.054   3.631  13.155 -0.3564 -1.5601 -2.7131
  649TMC3    C7 9614   2.795   3.641  13.256  0.1168  0.3192 -0.2083
  649TMC3    C8 9615   3.161   3.738  12.948 -0.4053  0.0137 -0.2199
  649TMC3    O1 9616   2.674   3.667  13.285  0.0212 -0.0602 -0.3981
  649TMC3    O2 9617   3.232   3.665  13.014 -0.4877  0.6738 -0.5755
  650TMC3    C1 9618   0.711   0.792  12.274 -0.3077 -0.8165 -0.2738
  650TMC3    C2 9619   0.695   0.920  12.295  0.6305  0.2522 -0.0025
  650TMC3    C3 9620   0.592   0.986  12.238 -0.0272 -0.6788  0.2637
  650TMC3    C4 9621   0.624   0.714  12.193 -0.3673  0.7885  0.4272
  650TMC3    C5 9622   0.534   0.791  12.123 -0.3806  0.0970 -0.4874
  650TMC3    C6 9623   0.506   0.926  12.152 -0.3093 -0.1660  0.6484
  650TMC3     C 9624   0.812   0.721  12.345  0.6472 -0.1888 -0.1103
  650TMC3     O 9625   0.854   0.792  12.430  0.1414 -0.1374  0.3350
  650TMC3     H 9626   0.758   0.978  12.362  1.0548 -0.8578  0.5567
  650TMC3    H1 9627   0.636   0.610  12.166 -0.4390  1.3411 -1.7357
  650TMC3    H2 9628   0.421   0.976  12.108  2.1445  0.8532 -2.9228
  650TMC3    C7 9629   0.480   0.737  12.007  0.1221 -0.2132 -0.3466
  650TMC3    C8 9630   0.570   1.130  12.271  0.4792  0.2922 -0.5124
  650TMC3    O1 9631   0.471   0.620  12.000 -0.5208  0.2384 -0.4279
  650TMC3    O2 9632   0.664   1.204  12.291 -0.2969  0.4475  0.5650
  651MPD2     C 9633   0.218   2.462  10.874  0.2630  0.8562  0.4831
  651MPD2    C1 9634   0.201   2.584  10.816  0.4412  0.5625 -0.3445
  651MPD2    C2 9635   0.302   2.645  10.737 -0.1580 -0.8020  0.5044
  651MPD2    C3 9636   0.421   2.580  10.724  0.0527 -0.5003 -0.8841
  651MPD2    C4 9637   0.439   2.454  10.775 -0.0471  0.2177 -0.6774
  651MPD2    C5 9638   0.340   2.395  10.846 -0.4628 -0.3506 -0.5091
  651MPD2     H 9639   0.276   2.738  10.689 -1.4186 -0.2638  2.2107
  651MPD2    H1 9640   0.537   2.407  10.772 -1.2117 -2.1244 -2.7777
  651MPD2    H2 9641   0.142   2.423  10.941 -1.3380  0.1152 -1.7662
  651MPD2    H3 9642   0.360   2.309  10.909  1.9177  1.1839  0.8739
  651MPD2     N 9643   0.527   2.641  10.655 -0.5594 -0.7383 -0.0984
  651MPD2    H5 9644   0.507   2.728  10.607 -0.3328 -0.5208  0.2112
  651MPD2    N1 9645   0.089   2.669  10.842 -0.2060 -0.6354 -0.2291
  651MPD2    H7 9646   0.065   2.744  10.779  0.9199 -0.2084 -0.1384
  652TMC3    C1 9647   0.959   2.755  10.493  0.2531 -0.4505 -0.3570
  652TMC3    C2 9648   0.878   2.667  10.566 -0.0649  0.3486  0.7739
  652TMC3    C3 9649   0.748   2.702  10.596  0.8559  0.1539  0.5753
  652TMC3    C4 9650   0.906   2.876  10.458 -0.7050 -0.0805  0.2575
  652TMC3    C5 9651   0.777   2.910  10.491 -1.0430 -0.5480  0.7291
  652TMC3    C6 9652   0.689   2.817  10.544 -1.2509 -0.3066  0.0716
  652TMC3     C 9653   1.102   2.726  10.497 -0.3014  0.5740  0.8623
  652TMC3     O 9654   1.135   2.633  10.567 -0.0809 -0.3545 -0.0680
  652TMC3     H 9655   0.914   2.570  10.600  1.3884 -0.0785 -1.9905
  652TMC3    H1 9656   0.972   2.949  10.413  0.0639 -1.4486 -0.8085
  652TMC3    H2 9657   0.594   2.855  10.580 -0.3230  1.0364  1.0954
  652TMC3    C7 9658   0.758   3.043  10.540  0.0191 -0.2217  0.6066
  652TMC3    C8 9659   0.661   2.604  10.653 -0.0862  0.3328 -0.0294
  652TMC3    O1 9660   0.650   3.058  10.593 -0.0165  0.1753 -0.1391
  652TMC3    O2 9661   0.710   2.500  10.691 -0.0465 -0.1757 -0.3666
  653MPD2     C 9662   3.046   2.584  17.261  0.7887 -0.2690  0.5743
  653MPD2    C1 9663   2.936   2.659  17.273 -0.6739 -0.0663  0.7813
  653MPD2    C2 9664   2.827   2.620  17.190 -0.3146 -0.3759  0.1288
  653MPD2    C3 9665   2.831   2.507  17.117 -0.2298 -0.0776 -0.5552
  653MPD2    C4 9666   2.947   2.437  17.095  0.0311 -1.0279 -0.3475
  653MPD2    C5 9667   3.050   2.476  17.180 -0.5253 -0.5290 -0.3348
  653MPD2     H 9668   2.737   2.681  17.195  1.6352  2.4145  1.4282
  653MPD2    H1 9669   2.957   2.348  17.033 -0.0983 -1.5333  0.3447
  653MPD2    H2 9670   3.140   2.616  17.304 -0.1135 -1.4364  3.3948
  653MPD2    H3 9671   3.143   2.421  17.172  0.5235  1.0068  1.2848
  653MPD2     N 9672   2.719   2.458  17.040  0.2167 -0.4513 -0.1410
  653MPD2    H5 9673   2.738   2.393  16.965  0.2042  1.3683 -1.7216
  653MPD2    N1 9674   2.933   2.783  17.340 -0.5558 -0.2567 -0.0014
  653MPD2    H7 9675   2.854   2.846  17.330 -0.8732 -0.6047  0.2993
  654TMC3    C1 9676   2.489   2.439  16.969 -0.9708  0.7305 -0.1472
  654TMC3    C2 9677   2.360   2.461  17.002  0.1471 -0.5065  0.1348
  654TMC3    C3 9678   2.263   2.405  16.917 -0.7168  0.2924  1.2120
  654TMC3    C4 9679   2.527   2.361  16.866  0.9811 -0.5212  0.1374
  654TMC3    C5 9680   2.429   2.307  16.790 -0.8045  0.1333  0.0648
  654TMC3    C6 9681   2.292   2.323  16.810 -0.5640 -0.6729 -0.1905
  654TMC3     C 9682   2.586   2.496  17.062  0.0508 -0.0092  0.5466
  654TMC3     O 9683   2.543   2.567  17.152  0.4195 -0.0902 -1.1592
  654TMC3     H 9684   2.331   2.513  17.092 -2.6995 -1.1396 -0.4182
  654TMC3    H1 9685   2.630   2.338  16.843  0.6000 -1.4166 -0.6597
  654TMC3    H2 9686   2.224   2.275  16.741  0.2049 -1.3001 -0.5128
  654TMC3    C7 9687   2.471   2.209  16.690 -0.9151 -0.2854  0.7906
  654TMC3    C8 9688   2.129   2.409  16.968  0.2056 -0.7267 -0.3366
  654TMC3    O1 9689   2.403   2.194  16.586 -0.6282 -0.3727  0.3626
  654TMC3    O2 9690   2.111   2.466  17.077 -0.1969 -0.6299  0.7458
  655MPD2     C 9691   4.338   2.904  15.471 -0.1837  0.3050 -0.3705
  655MPD2    C1 9692   4.202   2.882  15.470 -0.1232  0.3560 -0.0483
  655MPD2    C2 9693   4.147   2.797  15.380 -0.7974  0.6155 -0.2735
  655MPD2    C3 9694   4.231   2.748  15.276 -0.3010 -0.2454  0.3744
  655MPD2    C4 9695   4.367   2.770  15.276 -0.1196  0.3551 -0.4755
  655MPD2    C5 9696   4.416   2.840  15.383 -0.6269 -0.3127  0.4820
  655MPD2     H 9697   4.040   2.787  15.371 -0.7655  1.8487 -2.0166
  655MPD2    H1 9698   4.438   2.723  15.209 -0.3883 -0.3538 -0.2639
  655MPD2    H2 9699   4.389   2.952  15.555  0.9153 -0.9776 -0.3114
  655MPD2    H3 9700   4.524   2.838  15.392 -0.6629 -2.1789  0.4972
  655MPD2     N 9701   4.181   2.672  15.166  0.1305  0.5189 -0.1604
  655MPD2    H5 9702   4.251   2.635  15.103  0.3751  0.6338  0.0429
  655MPD2    N1 9703   4.118   2.946  15.569 -0.4202 -0.6960 -0.2349
  655MPD2    H7 9704   4.025   2.912  15.589 -0.4960 -0.2540  0.1696
  656TMC3    C1 9705   4.041   3.108  15.695 -0.3606  0.1535 -0.2736
  656TMC3    C2 9706   3.959   3.015  15.759  0.5146 -0.8004  0.1782
  656TMC3    C3 9707   3.827   3.050  15.787 -0.4392 -0.4582  0.2319
  656TMC3    C4 9708   3.996   3.230  15.662  0.2337 -0.4820 -0.4456
  656TMC3    C5 9709   3.862   3.258  15.670  0.1662 -0.0324 -0.1406
  656TMC3    C6 9710   3.779   3.164  15.736 -0.4241  0.0295  0.1789
  656TMC3     C 9711   4.154   3.060  15.628  0.1886  0.0579 -0.7972
  656TMC3     O 9712   4.245   3.136  15.593  0.0290 -0.7760  0.2487
  656TMC3     H 9713   3.998   2.921  15.796 -0.6986 -1.1962  0.4491
  656TMC3    H1 9714   4.068   3.294  15.611 -0.6383 -0.6831 -1.9379
  656TMC3    H2 9715   3.673   3.179  15.753 -0.0110  1.6446  1.3843
  656TMC3    C7 9716   3.801   3.342  15.565 -0.1940  0.2292  0.0492
  656TMC3    C8 9717   3.743   2.956  15.862 -0.2672  0.1155 -0.0806
  656TMC3    O1 9718   3.865   3.358  15.460  0.3996  0.6021 -0.2108
  656TMC3    O2 9719   3.785   2.843  15.883 -0.4454  0.2780 -0.2025
  657TMC3    C1 9720   3.189   2.014  14.856  0.3503  1.0259  0.1198
  657TMC3    C2 9721   3.233   2.049  14.977 -0.0654 -0.4744 -0.3399
  657TMC3    C3 9722   3.142   2.112  15.063  0.2148 -0.8934  0.0607
  657TMC3    C4 9723   3.063   2.030  14.813 -0.4246 -0.2976 -0.3308
  657TMC3    C5 9724   2.973   2.087  14.898  0.0563 -0.0142 -0.6410
  657TMC3    C6 9725   3.012   2.131  15.027 -0.0773  0.5323  0.8036
  657TMC3     C 9726   3.273   1.935  14.774 -0.3136 -0.3035 -0.1469
  657TMC3     O 9727   3.217   1.864  14.692  0.0801  0.3831 -0.2140
  657TMC3     H 9728   3.332   2.029  15.016  0.5219  0.4387 -1.3575
  657TMC3    H1 9729   3.029   1.991  14.718 -0.3807  0.5777 -0.7149
  657TMC3    H2 9730   2.933   2.155  15.098 -2.2451 -1.6158 -0.8504
  657TMC3    C7 9731   2.864   2.140  14.841 -0.1526  0.4189  0.2461
  657TMC3    C8 9732   3.199   2.179  15.181 -0.1256 -0.0714  0.3534
  657TMC3    O1 9733   2.863   2.166  14.722  0.2264 -0.0051  0.0852
  657TMC3    O2 9734   3.299   2.129  15.226 -0.2791  0.0700 -0.8427
  658MPD2     C 9735   4.559   2.386  14.743  0.8978 -0.2460  0.3251
  658MPD2    C1 9736   4.433   2.412  14.690 -0.4549 -0.2608 -0.6643
  658MPD2    C2 9737   4.421   2.447  14.554 -0.0538  0.0957 -0.0034
  658MPD2    C3 9738   4.534   2.448  14.475 -0.6416  0.0430 -0.0701
  658MPD2    C4 9739   4.658   2.436  14.533 -0.2615  0.1827 -0.2136
  658MPD2    C5 9740   4.666   2.383  14.658  0.3829  0.2961 -0.5694
  658MPD2     H 9741   4.325   2.471  14.511  1.0625  2.2065 -1.3146
  658MPD2    H1 9742   0.028   2.448  14.471 -2.4030 -0.6015 -3.4718
  658MPD2    H2 9743   4.569   2.356  14.847 -0.9327 -1.9103  0.0290
  658MPD2    H3 9744   0.050   2.361  14.685 -0.6023 -0.7216  2.3594
  658MPD2     N 9745   4.517   2.458  14.334  0.1455  0.6181 -0.2041
  658MPD2    H5 9746   4.420   2.465  14.305  0.1534 -0.3764 -0.4757
  658MPD2    N1 9747   4.322   2.417  14.776  0.1948  0.1731  0.0038
  658MPD2    H7 9748   4.343   2.436  14.874 -2.8039 -2.3900  1.1266
  659TMC3    C1 9749   4.099   2.483  14.814 -0.3757 -0.3246  0.4133
  659TMC3    C2 9750   4.132   2.525  14.941 -0.0506 -0.0317 -0.4087
  659TMC3    C3 9751   4.025   2.582  15.018 -0.7841 -0.0210 -0.3426
  659TMC3    C4 9752   3.970   2.480  14.772  0.4139 -0.0337  1.1895
  659TMC3    C5 9753   3.878   2.542  14.850  0.3973 -0.4594  0.0887
  659TMC3    C6 9754   3.903   2.602  14.965 -0.1927  0.6598  0.1264
  659TMC3     C 9755   4.201   2.426  14.727  0.0286 -0.3613  0.2714
  659TMC3     O 9756   4.165   2.362  14.628 -0.0727  0.4057  0.1690
  659TMC3     H 9757   4.232   2.509  14.980  0.2195  2.6998  0.0842
  659TMC3    H1 9758   3.952   2.445  14.671 -0.8417 -1.7802  2.0224
  659TMC3    H2 9759   3.825   2.654  15.019  0.1284  0.7546  0.4959
  659TMC3    C7 9760   3.734   2.513  14.833 -0.1988  0.3350 -0.2081
  659TMC3    C8 9761   4.052   2.661  15.129  0.0626  0.0080 -0.4858
  659TMC3    O1 9762   3.655   2.587  14.892  0.3398 -0.8369 -0.2824
  659TMC3    O2 9763   3.962   2.728  15.171 -0.2016  0.0254  1.1448
  660MPD2     C 9764   2.564   1.468  12.557  0.4285  0.3194 -0.2470
  660MPD2    C1 9765   2.429   1.505  12.540 -0.2385 -0.2826  0.1275
  660MPD2    C2 9766   2.335   1.450  12.627  0.0548 -0.1815 -0.5119
  660MPD2    C3 9767   2.370   1.355  12.726 -0.0453 -0.1575  0.4560
  660MPD2    C4 9768   2.498   1.315  12.732 -0.8808 -0.2748  0.6534
  660MPD2    C5 9769   2.588   1.375  12.651  0.0571  0.6910  0.2054
  660MPD2     H 9770   2.230   1.471  12.611 -0.3340 -1.2937  0.6571
  660MPD2    H1 9771   2.536   1.241  12.801  0.6790 -1.8270 -1.8369
  660MPD2    H2 9772   2.645   1.498  12.493  0.9693 -1.7525 -0.5194
  660MPD2    H3 9773   2.685   1.331  12.671  0.2631  1.8370  1.7218
  660MPD2     N 9774   2.277   1.296  12.819 -0.2777 -0.4815  0.6368
  660MPD2    H5 9775   2.317   1.219  12.872 -0.5868 -3.3839 -3.3710
  660MPD2    N1 9776   2.404   1.590  12.433 -0.1883  0.0302  0.8517
  660MPD2    H7 9777   2.483   1.645  12.401 -0.8864  0.4925 -0.0726
  661TMC3    C1 9778   2.278   1.727  12.291  0.3043  0.6172  0.1376
  661TMC3    C2 9779   2.398   1.752  12.221 -0.5684  0.5093  0.0663
  661TMC3    C3 9780   2.403   1.862  12.144 -0.1558 -0.4700 -0.4552
  661TMC3    C4 9781   2.163   1.804  12.281 -0.5453 -0.5554  0.6551
  661TMC3    C5 9782   2.176   1.913  12.197  0.3171  0.0247  0.6868
  661TMC3    C6 9783   2.291   1.940  12.133  0.2412 -0.0433  0.0666
  661TMC3     C 9784   2.279   1.617  12.389  0.3606  0.0638 -0.4062
  661TMC3     O 9785   2.170   1.568  12.415  0.2825  0.2409  0.5229
  661TMC3     H 9786   2.488   1.691  12.218 -1.5462 -0.9665  1.1637
  661TMC3    H1 9787   2.078   1.777  12.344  0.4896 -0.2079  2.2154
  661TMC3    H2 9788   2.290   2.021  12.061 -1.1231  1.2626  1.5644
  661TMC3    C7 9789   2.059   1.941  12.107 -0.1114  0.9886  0.8409
  661TMC3    C8 9790   2.508   1.886  12.047 -0.4077 -0.0030  0.1866
  661TMC3    O1 9791   2.079   1.970  11.990 -0.1630  0.0338 -0.4478
  661TMC3    O2 9792   2.582   1.794  12.017 -0.0966  0.5340  0.1125
  662MPD2     C 9793   2.834   1.156  17.229 -0.4636 -0.2191  0.0324
  662MPD2    C1 9794   2.732   1.113  17.144  0.0592 -0.3000 -0.6307
  662MPD2    C2 9795   2.630   1.199  17.102  0.0517 -0.7158 -0.8071
  662MPD2    C3 9796   2.631   1.323  17.152 -0.0891  0.1508 -0.5598
  662MPD2    C4 9797   2.735   1.377  17.230 -0.0339  0.0712  0.3535
  662MPD2    C5 9798   2.836   1.289  17.273  0.2988 -0.4227  0.5586
  662MPD2     H 9799   2.550   1.161  17.040 -0.5704  0.9765 -1.0446
  662MPD2    H1 9800   2.735   1.482  17.255  3.9232 -0.0748  0.9785
  662MPD2    H2 9801   2.912   1.090  17.268  0.6334  0.9264 -0.2353
  662MPD2    H3 9802   2.907   1.326  17.345  0.7690  1.0515 -0.6605
  662MPD2     N 9803   2.505   1.386  17.132 -0.9069  0.2035 -0.0870
  662MPD2    H5 9804   2.440   1.333  17.075  0.6190 -0.1635 -1.4733
  662MPD2    N1 9805   2.727   0.975  17.101 -0.0800  0.1968  0.5191
  662MPD2    H7 9806   2.644   0.952  17.047  0.3770 -3.0945  1.2509
  663TMC3    C1 9807   2.772   0.750  17.122 -0.0947  0.8605  0.0888
  663TMC3    C2 9808   2.643   0.735  17.160  0.3456  0.3388  0.4211
  663TMC3    C3 9809   2.576   0.619  17.156  1.1418  0.0918  0.3005
  663TMC3    C4 9810   2.835   0.644  17.050  0.1520 -0.4244 -0.5308
  663TMC3    C5 9811   2.758   0.533  17.038 -0.2274 -0.3394 -0.1486
  663TMC3    C6 9812   2.623   0.527  17.069  0.8858  0.7150 -0.2979
  663TMC3     C 9813   2.830   0.885  17.121 -0.3445 -0.1381 -0.1576
  663TMC3     O 9814   2.952   0.892  17.137  0.1237  0.2323  0.2011
  663TMC3     H 9815   2.594   0.806  17.225 -1.3338 -0.1348 -0.3503
  663TMC3    H1 9816   2.941   0.660  17.034 -0.2546  2.0932 -0.7904
  663TMC3    H2 9817   2.566   0.438  17.046 -0.1525  1.7820 -1.8318
  663TMC3    C7 9818   2.817   0.406  17.010 -0.5108 -0.2536 -0.7176
  663TMC3    C8 9819   2.567   0.551  17.281  0.0756 -0.1016  0.3085
  663TMC3    O1 9820   2.902   0.395  16.920 -0.4106  0.4660 -0.1815
  663TMC3    O2 9821   2.577   0.430  17.278 -0.8896  0.0725 -0.0478
  664MPD2     C 9822   0.551   3.702  17.356  0.0571  0.1664 -0.8386
  664MPD2    C1 9823   0.524   3.828  17.406  0.6033 -0.0208  0.0620
  664MPD2    C2 9824   0.554   3.866  17.533  0.1489  0.1436  0.4094
  664MPD2    C3 9825   0.612   3.773  17.620  0.4846  0.5719 -0.8421
  664MPD2    C4 9826   0.637   3.649  17.570 -0.0296 -0.4192 -0.2493
  664MPD2    C5 9827   0.607   3.614  17.446  0.3976  0.2093 -0.2737
  664MPD2     H 9828   0.534   3.969  17.560 -0.9221 -0.0740  0.4133
  664MPD2    H1 9829   0.697   3.581  17.629 -3.2097 -3.2043 -0.2261
  664MPD2    H2 9830   0.520   3.661  17.261 -2.2234 -1.6156  0.6727
  664MPD2    H3 9831   0.628   3.512  17.416  1.1043  0.4505 -0.6041
  664MPD2     N 9832   0.664   3.822   0.066  0.3301  0.0810 -0.3640
  664MPD2    H5 9833   0.668   3.923   0.070 -1.1301  0.1237  0.1164
  664MPD2    N1 9834   0.457   3.918  17.316  0.0138 -0.4797  0.1288
  664MPD2    H7 9835   0.453   3.892  17.218 -0.0853  0.2435 -0.0614
  665TMC3    C1 9836   0.731   3.836   0.301  0.2581 -0.6200 -0.4290
  665TMC3    C2 9837   0.797   3.781   0.404  0.6191 -0.1929 -0.4408
  665TMC3    C3 9838   0.791   3.847   0.532 -0.1023 -0.2965  0.4709
  665TMC3    C4 9839   0.660   3.951   0.320 -0.4492 -0.0636 -0.6131
  665TMC3    C5 9840   0.669   4.020   0.437  0.1318  0.3735  0.4087
  665TMC3    C6 9841   0.732   3.969   0.553 -0.1817 -0.2627 -0.5467
  665TMC3     C 9842   0.703   3.756   0.182 -0.4259  0.6011 -0.1512
  665TMC3     O 9843   0.727   3.639   0.195  0.0138 -0.2898  0.2539
  665TMC3     H 9844   0.823   3.677   0.392 -0.1819 -0.3463 -0.8929
  665TMC3    H1 9845   0.589   3.993   0.250 -0.9546  2.6968  1.6051
  665TMC3    H2 9846   0.733   4.026   0.645 -3.2543 -2.8565  1.1267
  665TMC3    C7 9847   0.588   4.133   0.451 -0.2097  0.2232 -0.0742
  665TMC3    C8 9848   0.817   3.775   0.656 -0.0368  0.0697 -0.1258
  665TMC3    O1 9849   0.497   4.151   0.366 -0.4023 -0.1610 -0.0693
  665TMC3    O2 9850   0.765   3.829   0.752  0.1100  0.5752  0.6252
  666TMC3    C1 9851   0.447   3.536  10.032  0.2665  0.0033  0.1931
  666TMC3    C2 9852   0.585   3.525  10.022 -0.3769  0.7412 -0.0796
  666TMC3    C3 9853   0.654   3.627   9.960  0.7036  0.1268 -0.4644
  666TMC3    C4 9854   0.376   3.630   9.957  0.7022 -0.6899 -0.6268
  666TMC3    C5 9855   0.445   3.725   9.898 -0.0395 -0.6211 -0.2309
  666TMC3    C6 9856   0.581   3.726   9.902 -0.1919 -0.0453 -0.2920
  666TMC3     C 9857   0.365   3.431  10.090 -0.4915  0.1136 -0.0865
  666TMC3     O 9858   0.251   3.453  10.123 -0.6196  0.1339 -0.2547
  666TMC3     H 9859   0.638   3.453  10.083 -1.1724 -0.3971 -0.7192
  666TMC3    H1 9860   0.269   3.646   9.973  1.1561  1.0766  0.6444
  666TMC3    H2 9861   0.628   3.824   9.895  2.2558 -1.2713 -1.0822
  666TMC3    C7 9862   0.379   3.842   9.854  0.7551 -0.2963  0.1426
  666TMC3    C8 9863   0.796   3.647   9.988  0.3807  0.1025  0.1967
  666TMC3    O1 9864   0.256   3.850   9.877  0.1387 -0.4687  0.3135
  666TMC3    O2 9865   0.841   3.588  10.086  0.3431  0.4263  0.2133
  667MPD2     C 9866   1.914   4.268  14.415 -0.0504 -0.3228 -0.1078
  667MPD2    C1 9867   1.852   4.305  14.535  0.0114  0.6177 -0.1095
  667MPD2    C2 9868   1.725   4.260  14.563  0.1459  0.0617  0.5517
  667MPD2    C3 9869   1.654   4.193  14.467  0.2203 -0.2159 -0.4215
  667MPD2    C4 9870   1.710   4.158  14.348  0.2558 -0.0509 -0.2018
  667MPD2    C5 9871   1.835   4.197  14.327 -0.6454  0.0962  0.7958
  667MPD2     H 9872   1.683   4.283  14.660 -0.1444  2.3772 -0.1317
  667MPD2    H1 9873   1.658   4.101  14.271 -0.8991  0.2067  0.3800
  667MPD2    H2 9874   2.015   4.299  14.392  0.7251 -1.5156  1.6827
  667MPD2    H3 9875   1.893   4.180  14.237  1.4055  0.0426  2.1345
  667MPD2     N 9876   1.518   4.153  14.485  0.0735  0.3941  0.3369
  667MPD2    H5 9877   1.476   4.094  14.413  1.1396 -1.4928  1.2505
  667MPD2    N1 9878   1.914   4.393  14.628  0.1005  0.1315 -0.4172
  667MPD2    H7 9879   1.857   4.412  14.709 -0.4398  1.1507 -1.0285
  668TMC3    C1 9880   2.058   4.555  14.700 -0.1482  0.7573  0.8943
  668TMC3    C2 9881   2.159   4.646  14.668  1.0026 -0.2020  0.3424
  668TMC3    C3 9882   2.212   0.005  14.769  0.3914 -0.3480 -0.2317
  668TMC3    C4 9883   2.033   4.530  14.839  0.2921 -0.3596  0.8518
  668TMC3    C5 9884   2.092   4.616  14.931  0.8324 -0.4623  0.1018
  668TMC3    C6 9885   2.181   4.717  14.899 -0.8040 -0.2900  0.2214
  668TMC3     C 9886   2.025   4.464  14.596 -0.2695 -0.1377  0.4463
  668TMC3     O 9887   2.113   4.456  14.508  0.0438  0.1036 -0.6402
  668TMC3     H 9888   2.168   4.670  14.563 -2.3200 -0.7756 -0.0914
  668TMC3    H1 9889   1.964   4.452  14.871 -1.8180  1.4259  0.6813
  668TMC3    H2 9890   2.232   0.056  14.976  0.6104  1.1375 -1.7885
  668TMC3    C7 9891   2.048   4.630  15.074  0.7924  0.6375  0.0819
  668TMC3    C8 9892   2.261   0.138  14.725 -1.2543  0.2702 -0.1153
  668TMC3    O1 9893   2.108   4.711  15.143  0.1212 -0.0829  0.6306
  668TMC3    O2 9894   2.258   0.229  14.803  0.2692  0.8000  0.3649
  669TMC3    C1 9895   0.037   3.744  14.191  0.4212  0.0518 -0.7826
  669TMC3    C2 9896   4.641   3.763  14.123 -0.0707 -0.2432 -0.0394
  669TMC3    C3 9897   4.642   3.868  14.029 -0.1410  0.0645 -0.1097
  669TMC3    C4 9898   0.153   3.809  14.157  0.4079  0.3430 -1.2431
  669TMC3    C5 9899   0.148   3.892  14.049 -0.2167 -0.4037 -0.3165
  669TMC3    C6 9900   0.036   3.935  13.986  0.3355  0.3988 -0.0653
  669TMC3     C 9901   0.021   3.670  14.310 -0.6045 -0.4924 -0.1640
  669TMC3     O 9902   4.649   3.587  14.316  0.3862  0.0091  0.5785
  669TMC3     H 9903   4.556   3.705  14.155 -1.2992  0.5160 -1.8924
  669TMC3    H1 9904   0.251   3.791  14.200 -1.0165 -2.4409  0.8086
  669TMC3    H2 9905   0.038   4.003  13.901  2.8039  0.9137  0.3921
  669TMC3    C7 9906   0.277   3.952  14.004 -0.2089 -0.1372  0.0798
  669TMC3    C8 9907   4.513   3.911  13.972  0.2882  0.9903 -0.2890
  669TMC3    O1 9908   0.369   3.952  14.090  0.3647  0.2753  0.4521
  669TMC3    O2 9909   4.429   3.827  13.985 -0.3899 -0.0996  0.6784
  670MPD2     C 9910   2.382   1.911  13.624  0.2450  0.1236 -0.3736
  670MPD2    C1 9911   2.510   1.923  13.681 -0.5818 -0.1964  0.2451
  670MPD2    C2 9912   2.531   1.861  13.802  0.3837  0.5660 -0.6735
  670MPD2    C3 9913   2.434   1.780  13.866  0.0680 -0.3210  0.5178
  670MPD2    C4 9914   2.310   1.765  13.806 -0.0360  0.0412 -0.2708
  670MPD2    C5 9915   2.292   1.832  13.688  0.0718  0.5242 -0.7638
  670MPD2     H 9916   2.622   1.878  13.859 -0.7383 -2.2225  1.9729
  670MPD2    H1 9917   2.227   1.705  13.841  0.2670  0.3249  0.9631
  670MPD2    H2 9918   2.342   1.958  13.536  0.2917  2.1723  0.6873
  670MPD2    H3 9919   2.198   1.809  13.640 -0.0992  0.0993 -0.2233
  670MPD2     N 9920   2.458   1.727  13.994  0.5385  0.0011 -0.2764
  670MPD2    H5 9921   2.546   1.747  14.042 -0.3974  0.2852  1.3048
  670MPD2    N1 9922   2.612   1.997  13.622  0.2032 -0.1060 -0.0675
  670MPD2    H7 9923   2.691   2.021  13.681 -0.0275  0.4597  0.0157
  671TMC3    C1 9924   2.443   1.567  14.171  0.3106 -0.6053 -0.1209
  671TMC3    C2 9925   2.575   1.570  14.184 -0.0816 -0.1339 -0.1307
  671TMC3    C3 9926   2.637   1.482  14.269 -0.0016 -0.0940  0.2038
  671TMC3    C4 9927   2.369   1.463  14.225 -0.2769 -0.4771 -0.0435
  671TMC3    C5 9928   2.438   1.360  14.284  0.6641 -0.2798 -0.3209
  671TMC3    C6 9929   2.570   1.374  14.318 -0.3915 -0.2602  0.3820
  671TMC3     C 9930   2.380   1.630  14.056 -0.1812 -0.3750  0.4033
  671TMC3     O 9931   2.286   1.567  14.012 -0.0932 -0.1168  0.4635
  671TMC3     H 9932   2.630   1.661  14.163 -0.7470  0.4037  0.4682
  671TMC3    H1 9933   2.264   1.456  14.201  0.2922  0.1185 -2.7177
  671TMC3    H2 9934   2.618   1.298  14.380 -0.6632 -3.2615 -3.0796
  671TMC3    C7 9935   2.405   1.233  14.224 -0.7008  0.2657 -0.5388
  671TMC3    C8 9936   2.782   1.473  14.253 -0.3788  1.1337  0.1382
  671TMC3    O1 9937   2.317   1.244  14.140  0.0063 -0.3998 -0.2124
  671TMC3    O2 9938   2.844   1.518  14.155  1.3401 -0.0523 -0.2748
  672MPD2     C 9939   3.057   1.835   0.820 -0.5413 -0.1140 -0.0133
  672MPD2    C1 9940   3.145   1.937   0.815 -0.3962 -0.2392 -0.5616
  672MPD2    C2 9941   3.147   2.045   0.899  0.2653 -0.3852 -0.0053
  672MPD2    C3 9942   3.044   2.050   0.998  0.0755 -0.1731  0.4429
  672MPD2    C4 9943   2.957   1.939   1.008  0.4164 -0.5406 -0.5065
  672MPD2    C5 9944   2.964   1.838   0.919  0.1942  0.0041  0.2486
  672MPD2     H 9945   3.215   2.127   0.878  0.4434 -0.5336  0.0012
  672MPD2    H1 9946   2.874   1.935   1.078 -0.1688  1.1610 -1.0934
  672MPD2    H2 9947   3.065   1.751   0.751 -2.0456 -0.6288  0.4259
  672MPD2    H3 9948   2.910   1.744   0.927  1.5286 -0.7640  0.3231
  672MPD2     N 9949   3.033   2.170   1.080  0.0594  0.5750  0.4583
  672MPD2    H5 9950   3.113   2.232   1.079 -0.5676  1.4055  2.1754
  672MPD2    N1 9951   3.248   1.937   0.718  0.3117 -0.4271 -0.2317
  672MPD2    H7 9952   3.319   2.009   0.733  0.2419 -0.2477 -0.7659
  673TMC3    C1 9953   3.366   1.900   0.531  0.7691  0.4680  0.4322
  673TMC3    C2 9954   3.479   1.948   0.593  0.0944  0.1156  0.3586
  673TMC3    C3 9955   3.546   2.055   0.536  0.7595  0.0078 -0.0558
  673TMC3    C4 9956   3.327   1.964   0.420  0.2808  0.0127  0.4551
  673TMC3    C5 9957   3.399   2.064   0.359 -0.0864 -0.0745  0.0920
  673TMC3    C6 9958   3.512   2.109   0.413 -0.0591  0.0185 -0.1609
  673TMC3     C 9959   3.248   1.866   0.606  0.1535 -0.0441  0.1829
  673TMC3     O 9960   3.174   1.781   0.559 -0.5832  0.2830  0.3741
  673TMC3     H 9961   3.518   1.905   0.684 -1.7482 -0.7165  0.7467
  673TMC3    H1 9962   3.221   1.951   0.401  0.3650 -1.5694  1.1068
  673TMC3    H2 9963   3.572   2.182   0.361  0.7617  0.8566  1.9819
  673TMC3    C7 9964   3.364   2.113   0.230  0.6147  1.0524  0.8993
  673TMC3    C8 9965   3.692   2.068   0.559  0.6511 -0.1181  0.0798
  673TMC3    O1 9966   3.404   2.057   0.132  0.3894  0.0100  0.3078
  673TMC3    O2 9967   3.761   2.085   0.461  0.2335  0.3866  0.2810
  674MPD2     C 9968   2.799   1.713   0.616 -0.7629 -0.2905 -0.2417
  674MPD2    C1 9969   2.713   1.629   0.547  0.8686 -0.0360 -0.5800
  674MPD2    C2 9970   2.593   1.675   0.509  0.2014  0.6437  0.0144
  674MPD2    C3 9971   2.549   1.800   0.548  0.2668  0.0689  0.3144
  674MPD2    C4 9972   2.641   1.882   0.613 -0.7292 -0.8303 -0.6369
  674MPD2    C5 9973   2.768   1.845   0.648  0.2555 -0.0878 -0.7133
  674MPD2     H 9974   2.523   1.616   0.451 -0.7784  2.3571 -0.5636
  674MPD2    H1 9975   2.611   1.984   0.635  0.4603 -0.9280  1.3930
  674MPD2    H2 9976   2.885   1.663   0.660 -0.4107  1.7310  1.4461
  674MPD2    H3 9977   2.829   1.906   0.713  0.5653  1.2498 -2.2604
  674MPD2     N 9978   2.417   1.837   0.517  0.2866 -0.3393  0.0156
  674MPD2    H5 9979   2.362   1.771   0.463 -1.9768  0.3096  1.5253
  674MPD2    N1 9980   2.759   1.500   0.520  0.2134  0.5034 -0.1172
  674MPD2    H7 9981   2.856   1.485   0.547  0.2126  0.1692 -0.2990
  675TMC3    C1 9982   2.754   1.272   0.484 -0.5060  0.6651  0.3439
  675TMC3    C2 9983   2.847   1.260   0.592  0.4995 -0.5728 -0.1960
  675TMC3    C3 9984   2.839   1.142   0.664 -0.8077 -0.1272  0.3171
  675TMC3    C4 9985   2.687   1.166   0.433 -0.4695  0.6444 -0.6365
  675TMC3    C5 9986   2.687   1.050   0.506 -0.4026  0.4216 -0.6616
  675TMC3    C6 9987   2.763   1.038   0.618 -0.7290 -0.1489  0.3090
  675TMC3     C 9988   2.689   1.402   0.464  0.0749 -0.1586  0.1790
  675TMC3     O 9989   2.576   1.400   0.416 -0.1850 -0.2274 -0.7104
  675TMC3     H 9990   2.900   1.346   0.630 -3.9403  1.8594  0.3964
  675TMC3    H1 9991   2.610   1.182   0.358 -0.5701  1.9353 -0.2670
  675TMC3    H2 9992   2.772   0.942   0.667  0.2569  0.1348  0.6887
  675TMC3    C7 9993   2.668   0.940   0.422  0.5078 -0.0630 -0.0486
  675TMC3    C8 9994   2.933   1.129   0.770  0.2849  0.0868  0.2026
  675TMC3    O1 9995   2.676   0.829   0.472  0.0153  0.5961 -0.0608
  675TMC3    O2 9996   3.016   1.220   0.781 -0.1560 -0.5692  0.1761
  676MPD2     C 9997   0.652   0.501  10.691  0.9659 -0.5465  0.2536
  676MPD2    C1 9998   0.640   0.429  10.801  0.0206  0.5380 -0.8633
  676MPD2    C2 9999   0.658   0.289  10.790 -0.3155  0.1810 -0.1653
  676MPD2    C310000   0.681   0.230  10.668  0.5103  0.1520  0.6861
  676MPD2    C410001   0.692   0.305  10.552 -0.7401  0.6322 -0.3475
  676MPD2    C510002   0.676   0.442  10.567 -0.7651  0.5448  0.0941
  676MPD2     H10003   0.656   0.227  10.879 -0.6250  0.3265 -0.0713
  676MPD2    H110004   0.709   0.256  10.456 -1.5001  2.4905 -1.4390
  676MPD2    H210005   0.640   0.609  10.684  1.9378 -0.5856 -2.0233
  676MPD2    H310006   0.668   0.517  10.489  0.3747  0.4894 -0.0663
  676MPD2     N10007   0.706   0.095  10.656 -0.0646 -0.2836 -0.0723
  676MPD2    H510008   0.711   0.049  10.565  0.9263  1.9781 -1.1830
  676MPD2    N110009   0.599   0.494  10.919 -0.4422 -0.1935 -0.2619
  676MPD2    H710010   0.568   0.436  10.996  2.4631 -1.1620  0.1857
  677TMC3    C110011   0.570   0.659  11.084 -0.2173  0.0447  0.5550
  677TMC3    C210012   0.457   0.597  11.131 -0.2259 -0.0828  0.7645
  677TMC3    C310013   0.409   0.641  11.247 -0.1028  0.0176  0.3940
  677TMC3    C410014   0.629   0.764  11.151  0.3571 -0.8586 -0.4823
  677TMC3    C510015   0.577   0.799  11.273 -1.0358  0.6011  0.1469
  677TMC3    C610016   0.467   0.738  11.325 -0.5964  0.4458 -0.2029
  677TMC3     C10017   0.606   0.632  10.948  0.9215 -0.4353  0.5491
  677TMC3     O10018   0.679   0.710  10.896  0.0726 -0.2762 -0.3250
  677TMC3     H10019   0.406   0.525  11.067 -1.2549  1.4048 -0.0846
  677TMC3    H110020   0.705   0.826  11.104 -1.0942  1.1236 -0.1986
  677TMC3    H210021   0.411   0.765  11.415 -1.2014 -2.0274  0.1610
  677TMC3    C710022   0.665   0.864  11.373  0.2079  0.1389  0.5947
  677TMC3    C810023   0.298   0.569  11.293  0.4963  0.2633 -0.7551
  677TMC3    O110024   0.611   0.906  11.476  0.1894 -0.1509 -0.0091
  677TMC3    O210025   0.194   0.577  11.230  0.2837 -0.2471  0.4390
  678MPD2     C10026   2.024   0.801   1.431  0.7019  0.7193  0.1564
  678MPD2    C110027   2.055   0.716   1.324  0.1174 -0.0478  0.2018
  678MPD2    C210028   1.956   0.660   1.247  0.6747 -0.3594 -0.3349
  678MPD2    C310029   1.824   0.670   1.285 -0.3838  0.0910 -0.2772
  678MPD2    C410030   1.791   0.733   1.401  0.0160  0.0493  0.2039
  678MPD2    C510031   1.889   0.798   1.468 -0.3716  0.0272 -0.6261
  678MPD2     H10032   1.974   0.583   1.172 -1.8675 -0.4745 -0.8330
  678MPD2    H110033   1.694   0.732   1.449 -0.3636  0.4093 -0.5658
  678MPD2    H210034   2.100   0.850   1.490  1.1703 -0.6414  0.6661
  678MPD2    H310035   1.856   0.863   1.548  0.2660  0.4572 -0.7166
  678MPD2     N10036   1.723   0.593   1.215 -0.6591  0.3602  0.4628
  678MPD2    H510037   1.749   0.529   1.139  0.1908 -1.0288  1.9171
  678MPD2    N110038   2.186   0.700   1.273 -0.3500  0.1518 -0.0964
  678MPD2    H710039   2.192   0.640   1.192  1.4324  0.5751 -0.2610
  679TMC3    C110040   2.511   0.584   1.087 -0.4216 -0.2823  0.0865
  679TMC3    C210041   2.415   0.615   1.180  0.2881  0.2415 -0.6303
  679TMC3    C310042   2.413   0.745   1.226 -0.1545  0.3527 -0.8260
  679TMC3    C410043   2.579   0.689   1.036  0.3339  0.0608  0.3074
  679TMC3    C510044   2.562   0.814   1.076 -0.0364 -0.2349 -0.3138
  679TMC3    C610045   2.481   0.851   1.177 -1.3575 -0.1501  0.0597
  679TMC3     C10046   2.528   0.452   1.032 -0.1453 -0.1711 -0.8006
  679TMC3     O10047   2.424   0.387   1.046 -0.3172  0.5109 -0.0851
  679TMC3     H10048   2.375   0.529   1.232 -0.1169  0.0250 -1.2979
  679TMC3    H110049   2.656   0.670   0.962 -1.9891  0.4043 -2.2392
  679TMC3    H210050   2.448   0.951   1.204  2.7324  1.4939 -1.0826
  679TMC3    C710051   2.559   0.902   0.959  0.0831  0.2908 -0.4722
  679TMC3    C810052   2.294   0.781   1.306 -0.0134 -0.0032 -0.4231
  679TMC3    O110053   2.544   0.839   0.855 -0.6447  0.2282 -0.1547
  679TMC3    O210054   2.302   0.868   1.382 -0.0932  0.0597  0.4012
  680MPD2     C10055   2.087   3.851  13.657  0.7775 -0.9515  0.2952
  680MPD2    C110056   2.185   3.794  13.732 -0.0475 -0.1467 -0.6501
  680MPD2    C210057   2.279   3.877  13.786 -0.5334 -0.0171  0.0604
  680MPD2    C310058   2.285   4.011  13.764  0.5075 -0.4611  0.4724
  680MPD2    C410059   2.188   4.063  13.677 -0.1413  0.2334 -0.3074
  680MPD2    C510060   2.095   3.982  13.616  0.8886  0.4963 -0.5016
  680MPD2     H10061   2.346   3.828  13.856  2.0859  0.6311 -2.0195
  680MPD2    H110062   2.188   4.169  13.659  0.4948 -0.0342 -1.8994
  680MPD2    H210063   2.018   3.784  13.607 -0.8260  1.4156 -0.6479
  680MPD2    H310064   2.016   4.018  13.551 -1.4981 -0.0940  2.0836
  680MPD2     N10065   2.371   4.100  13.831 -0.0002 -0.5199  0.0658
  680MPD2    H510066   2.360   4.199  13.811  2.0675 -0.5475 -1.2129
  680MPD2    N110067   2.206   3.652  13.744  0.5814  0.4496  0.3248
  680MPD2    H710068   2.292   3.636  13.796  1.5795  2.6244 -0.6185
  681TMC3    C110069   2.187   3.426  13.722 -0.1406 -0.0539  0.0647
  681TMC3    C210070   2.104   3.321  13.758  0.8155  0.7181 -0.1615
  681TMC3    C310071   2.159   3.196  13.782 -0.1364  0.3956 -0.8106
  681TMC3    C410072   2.320   3.403  13.712  0.6671 -0.4325  0.9423
  681TMC3    C510073   2.373   3.279  13.738 -0.5490  0.0844  0.6494
  681TMC3    C610074   2.297   3.174  13.778 -0.3247 -0.1826  0.8494
  681TMC3     C10075   2.120   3.556  13.695  0.3398  0.7702 -0.5382
  681TMC3     O10076   2.002   3.559  13.669 -0.0296 -0.4404 -0.2349
  681TMC3     H10077   1.998   3.333  13.739  0.6869 -1.0106 -0.4924
  681TMC3    H110078   2.389   3.486  13.702  1.2947 -0.6041  3.8265
  681TMC3    H210079   2.319   3.070  13.798 -2.8305 -0.9284 -0.2229
  681TMC3    C710080   2.521   3.255  13.701 -0.3957 -0.9158  0.1045
  681TMC3    C810081   2.070   3.091  13.833  0.7010  0.0593  0.4407
  681TMC3    O110082   2.569   3.152  13.745 -0.0218  0.0540  0.6387
  681TMC3    O210083   2.110   2.975  13.815  0.0778 -0.1895  0.2328
  682MPD2     C10084   4.641   0.261  10.170 -0.4268  0.7385  0.4021
  682MPD2    C110085   4.603   0.131  10.208  0.5530  0.0185 -0.1962
  682MPD2    C210086   4.580   0.107  10.345  0.1356  0.0561  0.1228
  682MPD2    C310087   4.609   0.210  10.432 -0.5630  0.1466 -0.6065
  682MPD2    C410088   4.644   0.332  10.391 -0.0807  0.4611  0.5928
  682MPD2    C510089   4.661   0.354  10.260  1.0458 -0.5713  0.0639
  682MPD2     H10090   4.545   0.008  10.374  0.5214  0.0275  0.4954
  682MPD2    H110091   4.667   0.415  10.456 -0.3508  0.2207  0.9897
  682MPD2    H210092   4.692   0.276  10.076  1.1755 -2.4682  0.7521
  682MPD2    H310093   4.703   0.450  10.231  0.5231 -0.1805  0.5900
  682MPD2     N10094   4.617   0.194  10.577 -0.1375 -0.0131 -0.6711
  682MPD2    H510095   4.623   0.269  10.645 -0.0763 -0.2319 -0.4327
  682MPD2    N110096   4.585   0.023  10.123  0.2698  0.1416  0.2463
  682MPD2    H710097   4.556   4.657  10.169 -0.1461 -0.5461 -1.2939
  683TMC3    C110098   4.685   0.160  10.996  0.2777 -0.9472  0.0002
  683TMC3    C210099   4.719   0.031  11.034  0.6858 -0.6848  0.9925
  683TMC3    C310100   4.694   4.646  10.947 -1.0867 -0.3099  0.1360
  683TMC3    C410101   4.643   0.179  10.871  0.2651  0.7811 -0.5743
  683TMC3    C510102   4.606   0.074  10.791  0.3154  0.0030 -0.1267
  683TMC3    C610103   4.624   4.663  10.832  0.6152 -0.3093  0.3919
  683TMC3     C10104   4.681   0.263  11.102  0.0920 -0.3755 -0.2501
  683TMC3     O10105   4.654   0.376  11.068 -0.1851  0.9134  0.0672
  683TMC3     H10106   0.072   0.019  11.114  0.7853 -1.4943  0.7793
  683TMC3    H110107   4.638   0.279  10.830  0.7987  0.8935 -0.3640
  683TMC3    H210108   4.609   4.577  10.769  2.3692  1.1203 -1.9751
  683TMC3    C710109   4.581   0.077  10.642 -0.4355  0.4397  0.3644
  683TMC3    C810110   0.050   4.518  10.963 -0.2091 -0.2677  0.9176
  683TMC3    O110111   4.532   4.692  10.600  0.1097  0.3174 -0.0880
  683TMC3    O210112   0.055   4.451  10.861  0.5857 -0.2346 -0.1225
  684MPD2     C10113   2.402   4.662  16.197 -0.0794 -0.0295 -0.3143
  684MPD2    C110114   2.456   4.614  16.079  0.1185  0.9547 -0.1475
  684MPD2    C210115   2.567   4.670  16.027  0.7081  0.0869 -0.4358
  684MPD2    C310116   2.632   0.053  16.090 -0.0736  0.1113  0.2002
  684MPD2    C410117   2.577   0.103  16.206  0.4377 -0.4675 -0.1042
  684MPD2    C510118   2.459   0.050  16.253  0.2033 -0.3727  0.1578
  684MPD2     H10119   2.605   4.619  15.939  2.2933 -0.8808  0.8188
  684MPD2    H110120   2.628   0.184  16.257  1.9880 -0.9841 -0.8570
  684MPD2    H210121   2.314   4.616  16.240  1.0361 -1.5033  0.3486
  684MPD2    H310122   2.422   0.087  16.348 -1.4373  0.0936 -0.6742
  684MPD2     N10123   2.746   0.110  16.030  0.1206 -0.2657 -0.1067
  684MPD2    H510124   2.795   0.186  16.077 -0.1713 -0.4063  0.4170
  684MPD2    N110125   2.422   4.486  16.023 -0.0479  0.4899 -0.6802
  684MPD2    H710126   2.464   4.451  15.938 -1.2789  0.2825 -1.2098
  685TMC3    C110127   2.329   4.274  16.000  0.9792  0.6333  1.0547
  685TMC3    C210128   2.232   4.180  16.024  0.5164  0.9053  0.1863
  685TMC3    C310129   2.264   4.048  16.014  0.0153  0.1266  1.3749
  685TMC3    C410130   2.457   4.231  15.961  0.1067  0.3656 -0.0604
  685TMC3    C510131   2.483   4.098  15.957 -0.1175 -0.6199 -0.5921
  685TMC3    C610132   2.385   4.002  15.979  0.3954  0.3625 -0.8122
  685TMC3     C10133   2.315   4.406  16.062  0.3835  0.2642 -0.0639
  685TMC3     O10134   2.241   4.425  16.154 -0.2902 -0.6833  0.3259
  685TMC3     H10135   2.146   4.215  16.080  1.0160  1.8620  0.3637
  685TMC3    H110136   2.538   4.292  15.924  1.2380 -0.6942  0.6751
  685TMC3    H210137   2.404   3.896  15.968 -2.0543 -0.0212 -1.2476
  685TMC3    C710138   2.620   4.051  15.937 -0.4882 -0.1132  0.2915
  685TMC3    C810139   2.183   3.947  16.071 -0.3829 -0.6310  0.1102
  685TMC3    O110140   2.628   3.937  15.894 -0.1178  0.8090  0.1257
  685TMC3    O210141   2.240   3.855  16.130 -0.0869  0.1968  0.3393
  686MPD2     C10142   4.101   4.270  15.186  0.0777 -0.1659 -0.3498
  686MPD2    C110143   4.118   4.246  15.318  0.3300  0.6333 -0.3794
  686MPD2    C210144   4.241   4.194  15.364  0.3549 -0.3988 -0.9228
  686MPD2    C310145   4.321   4.139  15.268  0.3954 -0.5502 -0.1815
  686MPD2    C410146   4.307   4.170  15.128 -0.0130 -0.4989 -0.1451
  686MPD2    C510147   4.193   4.237  15.087 -0.4196 -0.0379  0.2518
  686MPD2     H10148   4.259   4.165  15.466 -2.4330 -2.4922 -1.0316
  686MPD2    H110149   4.382   4.128  15.062 -0.8214  0.1283 -1.4681
  686MPD2    H210150   4.004   4.308  15.155  0.0976  0.3254  0.2054
  686MPD2    H310151   4.179   4.249  14.980  0.5308 -0.5560  0.0765
  686MPD2     N10152   4.423   4.053  15.316 -0.0455  0.5312 -0.4513
  686MPD2    H510153   4.424   4.053  15.417 -1.2378  1.6607 -0.4328
  686MPD2    N110154   4.001   4.249  15.395  0.1190  0.1526 -0.2689
  686MPD2    H710155   3.913   4.272  15.349 -0.3946 -0.5706  0.3413
  687TMC3    C110156   4.448   3.832  15.372  0.4833  0.3762  0.1103
  687TMC3    C210157   4.332   3.759  15.376  0.7982 -0.0422 -0.1954
  687TMC3    C310158   4.274   3.750  15.497 -0.5427  0.0243 -0.0136
  687TMC3    C410159   4.507   3.892  15.483 -0.4130 -0.3258 -0.2592
  687TMC3    C510160   4.453   3.857  15.603  0.2010  0.5620 -0.2399
  687TMC3    C610161   4.342   3.779  15.606 -0.0260  0.6783  0.0927
  687TMC3     C10162   4.448   3.925  15.262  0.1409 -0.5783 -0.6107
  687TMC3     O10163   4.416   3.887  15.149  0.0775 -0.5524  0.3720
  687TMC3     H10164   4.272   3.741  15.287  0.8133 -1.4345  0.0760
  687TMC3    H110165   4.594   3.956  15.472  0.0194 -0.4251  2.6321
  687TMC3    H210166   4.285   3.772  15.698  2.3315  1.4682  1.6222
  687TMC3    C710167   4.443   3.970  15.690 -0.3202  0.2778 -0.8560
  687TMC3    C810168   4.133   3.746  15.511 -0.1907 -0.4601  0.5620
  687TMC3    O110169   4.459   4.077  15.637 -0.0734 -0.2032  0.6152
  687TMC3    O210170   4.097   3.701  15.619 -0.2523 -0.1530  0.0692
  688MPD2     C10171   3.243   3.417  17.099  0.1807  0.1424  0.3203
  688MPD2    C110172   3.245   3.279  17.114  0.2813  0.9239  0.2181
  688MPD2    C210173   3.312   3.195  17.019  0.1818  0.6043 -0.3450
  688MPD2    C310174   3.358   3.257  16.906  0.1454  0.1586 -1.0542
  688MPD2    C410175   3.350   3.392  16.890 -0.2887 -0.5861  1.5065
  688MPD2    C510176   3.299   3.470  16.990 -0.4090  0.2431 -0.1486
  688MPD2     H10177   3.310   3.091  17.049  0.8667  0.8042  0.4007
  688MPD2    H110178   3.389   3.451  16.808 -1.3904 -0.6275  0.9550
  688MPD2    H210179   3.203   3.492  17.166 -1.6075 -0.5349  0.0090
  688MPD2    H310180   3.297   3.577  16.974 -0.5242  0.3520  0.6087
  688MPD2     N10181   3.426   3.191  16.804  0.5159 -0.2960  0.4527
  688MPD2    H510182   3.448   3.245  16.720 -0.3196 -0.9676 -0.1957
  688MPD2    N110183   3.192   3.212  17.225  0.2035  0.5082 -0.4583
  688MPD2    H710184   3.210   3.112  17.234 -1.8646  0.4279  2.8664
  689TMC3    C110185   3.069   3.177  17.424  0.4881 -0.1509 -0.1620
  689TMC3    C210186   3.034   3.224  17.546  0.3546  0.1494 -0.0668
  689TMC3    C310187   2.993   3.129  17.632 -1.1057  0.0613  0.0986
  689TMC3    C410188   3.044   3.048  17.390 -0.2134  0.1972  0.2999
  689TMC3    C510189   2.998   2.955  17.481 -0.5374 -0.3361  0.1438
  689TMC3    C610190   2.982   2.991  17.606 -0.5828  0.7151 -0.1499
  689TMC3     C10191   3.124   3.269  17.328 -0.1111  0.8640  0.9690
  689TMC3     O10192   3.108   3.386  17.354  0.2559  0.5739  0.0230
  689TMC3     H10193   3.055   3.327  17.575 -0.2978  0.0853  0.6445
  689TMC3    H110194   3.043   3.015  17.287 -0.4851 -0.4688  0.5111
  689TMC3    H210195   2.938   2.920  17.675  0.0457 -0.0440 -0.5271
  689TMC3    C710196   3.004   2.812  17.455  0.0268 -0.2806 -0.0058
  689TMC3    C810197   2.923   3.170   0.072  0.0326 -0.2453  0.3247
  689TMC3    O110198   3.055   2.734  17.533 -0.5908 -0.0934  0.1856
  689TMC3    O210199   2.824   3.110   0.110 -0.3773  0.0378 -0.3913
  690MPD2     C10200   0.702   0.500  15.906 -0.7001  0.0385  0.2522
  690MPD2    C110201   0.680   0.449  15.778  0.7815 -0.3872  0.9242
  690MPD2    C210202   0.711   0.523  15.666  0.1598  0.3503  0.1706
  690MPD2    C310203   0.780   0.641  15.676  0.0264  0.4774 -0.3579
  690MPD2    C410204   0.793   0.689  15.808  0.7889 -0.0115  0.0926
  690MPD2    C510205   0.764   0.622  15.923 -0.7424  0.2527  0.0332
  690MPD2     H10206   0.689   0.479  15.569 -0.4646  1.1694 -0.0598
  690MPD2    H110207   0.849   0.780  15.827  1.1357 -0.0678 -0.6404
  690MPD2    H210208   0.679   0.452  16.000  2.5034  0.4079  1.2244
  690MPD2    H310209   0.788   0.663  16.020  1.9096  1.5685 -1.1591
  690MPD2     N10210   0.805   0.723  15.565  0.4085 -0.1931  0.0217
  690MPD2    H510211   0.791   0.675  15.477 -0.2899  0.7794 -0.3910
  690MPD2    N110212   0.620   0.324  15.766  0.4661 -0.0730  0.3978
  690MPD2    H710213   0.577   0.307  15.676 -1.3987  1.7032  0.9595
  691TMC3    C110214   0.553   0.115  15.822 -0.3199  0.4861 -0.1065
  691TMC3    C210215   0.436   0.135  15.760  0.1767  0.1876  0.0005
  691TMC3    C310216   0.355   0.027  15.747  0.1015 -0.1974 -0.1439
  691TMC3    C410217   0.605   4.709  15.849 -1.0154 -0.1495 -0.6042
  691TMC3    C510218   0.533   4.601  15.820  0.2717 -0.2078 -0.1055
  691TMC3    C610219   0.404   4.622  15.773  0.3019  0.1221 -0.1391
  691TMC3     C10220   0.615   0.234  15.874  0.2263  0.2040 -0.5751
  691TMC3     O10221   0.672   0.224  15.982 -0.4859 -0.0207 -0.0259
  691TMC3     H10222   0.398   0.236  15.751 -1.6351 -0.5274 -0.3661
  691TMC3    H110223   0.705   4.708  15.891 -1.1799  1.3059 -0.1584
  691TMC3    H210224   0.337   4.537  15.764  0.2959 -0.0938  1.8870
  691TMC3    C710225   0.573   4.487  15.881 -0.7643 -0.0461 -0.1333
  691TMC3    C810226   0.219   0.038  15.707  0.3702  0.1625  0.6603
  691TMC3    O110227   0.645   4.510  15.978  0.0372 -0.3833 -0.5594
  691TMC3    O210228   0.155   4.655  15.693  0.3524 -0.5254 -0.0839
  692TMC3    C110229   2.579   1.352  16.002 -0.2251 -0.0733  0.1143
  692TMC3    C210230   2.680   1.333  16.089  0.0356 -0.7491  0.1126
  692TMC3    C310231   2.763   1.223  16.081  0.0605  0.7441  1.0764
  692TMC3    C410232   2.539   1.253  15.916  0.2892  0.0096 -0.4460
  692TMC3    C510233   2.606   1.135  15.924 -0.2842 -0.3298 -0.0212
  692TMC3    C610234   2.719   1.120  16.001  0.9823  0.2130 -0.5348
  692TMC3     C10235   2.480   1.459  16.029  0.3665  0.0566  0.2506
  692TMC3     O10236   2.373   1.463  15.965  0.0869 -0.1923 -0.0242
  692TMC3     H10237   2.718   1.424  16.135  0.6561 -2.2044  2.5139
  692TMC3    H110238   2.452   1.271  15.854  0.4309 -1.9133 -1.2152
  692TMC3    H210239   2.757   1.020  16.021 -0.6945  0.0263  1.7280
  692TMC3    C710240   2.570   1.033  15.826 -0.4641  0.2695  0.0625
  692TMC3    C810241   2.829   1.179  16.203  0.8845 -0.0767 -0.1119
  692TMC3    O110242   2.456   1.047  15.786  0.1118  0.0126  0.0323
  692TMC3    O210243   2.867   1.064  16.205  0.1288 -0.0024 -0.1732
  693MPD2     C10244   2.052   4.716  10.608 -0.0197  0.5654 -0.3560
  693MPD2    C110245   2.013   4.596  10.542 -0.1220  0.1388 -0.0727
  693MPD2    C210246   2.061   4.476  10.595 -0.8298 -0.0719  0.0356
  693MPD2    C310247   2.133   4.474  10.712 -0.3862  0.4071  0.1928
  693MPD2    C410248   2.167   4.589  10.768  0.5568 -0.4680 -0.3182
  693MPD2    C510249   2.115   4.703  10.719  0.2916 -0.3324  0.5780
  693MPD2     H10250   2.040   4.381  10.547 -0.1453 -0.6049  0.8037
  693MPD2    H110251   2.232   4.583  10.855 -0.8317  0.5283  0.7802
  693MPD2    H210252   1.996   0.086  10.583 -0.6271  0.7262  1.6186
  693MPD2    H310253   2.132   0.075  10.777  1.6150  1.7367 -3.0865
  693MPD2     N10254   2.187   4.364  10.777  0.4915 -0.2083  0.3910
  693MPD2    H510255   2.243   4.381  10.860  2.4227  2.8955 -1.5561
  693MPD2    N110256   1.915   4.605  10.449 -0.2741  0.5822 -0.4384
  693MPD2    H710257   1.864   4.692  10.437 -0.3305  0.3206 -2.1609
  694TMC3    C110258   1.720   4.542  10.342 -0.0869  0.2607 -0.8800
  694TMC3    C210259   1.662   4.449  10.253 -0.1378  0.4293 -0.4869
  694TMC3    C310260   1.554   4.379  10.299 -0.4236 -0.1745  0.8220
  694TMC3    C410261   1.655   4.580  10.459  0.1625  0.1455  0.9421
  694TMC3    C510262   1.561   4.494  10.511  0.0214  0.3879  0.2571
  694TMC3    C610263   1.508   4.398  10.427  0.0081 -0.4747 -0.2135
  694TMC3     C10264   1.847   4.503  10.390  0.5966 -0.0279  0.3033
  694TMC3     O10265   1.858   4.379  10.399  0.1083  0.2552 -0.2559
  694TMC3     H10266   1.701   4.426  10.155  0.7706  0.7291 -0.2006
  694TMC3    H110267   1.697   4.651  10.529  0.5747  0.8044  0.0226
  694TMC3    H210268   1.438   4.322  10.460  2.5406 -3.1532 -0.8894
  694TMC3    C710269   1.547   4.502  10.654 -0.0069  0.7874 -0.5669
  694TMC3    C810270   1.537   4.247  10.252  0.2142  0.4192  0.1910
  694TMC3    O110271   1.596   4.604  10.710  0.6195  0.0105  0.2814
  694TMC3    O210272   1.426   4.190  10.268 -0.3622  0.0646  0.2972
  695MPD2     C10273   3.062   1.080  13.384  0.4724  0.7490 -0.3692
  695MPD2    C110274   3.019   1.071  13.513 -0.4619  0.8634 -0.3361
  695MPD2    C210275   2.887   1.082  13.543  0.1437  0.1676  0.1789
  695MPD2    C310276   2.791   1.094  13.439  0.2642  0.2033 -0.8186
  695MPD2    C410277   2.835   1.104  13.312 -1.0626 -0.3762  0.5507
  695MPD2    C510278   2.972   1.102  13.286  0.3739 -0.4304  0.4540
  695MPD2     H10279   2.870   1.051  13.645  0.6034 -0.7311 -0.0141
  695MPD2    H110280   2.770   1.111  13.225 -2.0428 -0.5771  1.2663
  695MPD2    H210281   3.169   1.073  13.363  0.3388  1.2409 -1.2016
  695MPD2    H310282   3.018   1.120  13.190  0.4806 -1.5484  0.2920
  695MPD2     N10283   2.655   1.087  13.480  0.3674  0.7159  0.3537
  695MPD2    H510284   2.637   1.089  13.580 -0.3155  2.0697  0.2107
  695MPD2    N110285   3.104   1.046  13.625 -0.2244 -0.0605 -0.4750
  695MPD2    H710286   3.060   1.039  13.716  2.6937  0.2142  0.9270
  696TMC3    C110287   2.421   1.073  13.456 -0.2853 -0.5736 -0.0151
  696TMC3    C210288   2.416   0.990  13.567  0.4937  0.7680  0.1248
  696TMC3    C310289   2.301   0.989  13.643 -0.1089 -0.0707 -0.1699
  696TMC3    C410290   2.319   1.158  13.423 -0.5039  0.2711  0.3270
  696TMC3    C510291   2.213   1.157  13.504  0.4335 -0.8124  0.5918
  696TMC3    C610292   2.196   1.066  13.606 -0.5858  0.3476  0.0056
  696TMC3     C10293   2.551   1.100  13.392  0.6222  0.0084  0.4125
  696TMC3     O10294   2.549   1.135  13.274  0.0874 -0.4692 -0.5515
  696TMC3     H10295   2.499   0.921  13.582  0.9999  1.0229 -1.5321
  696TMC3    H110296   2.342   1.230  13.345  0.5492  0.1666  0.5361
  696TMC3    H210297   2.104   1.066  13.663 -0.8982  0.8216 -0.4963
  696TMC3    C710298   2.129   1.270  13.495  0.0132 -0.0271  0.3525
  696TMC3    C810299   2.317   0.986  13.782 -0.5893  0.9841 -0.0561
  696TMC3    O110300   2.137   1.343  13.396  0.8019 -0.5178 -0.0200
  696TMC3    O210301   2.244   1.058  13.851  0.2002 -0.1047 -0.0749
  697MPD2     C10302   1.743   2.779  15.806 -0.0965  1.4553 -0.1397
  697MPD2    C110303   1.781   2.743  15.673  0.5638 -1.3227 -0.0556
  697MPD2    C210304   1.827   2.841  15.583  0.2408  0.2208  0.3257
  697MPD2    C310305   1.842   2.972  15.628 -0.1180 -0.3622  0.1354
  697MPD2    C410306   1.788   3.008  15.755 -0.3434 -0.6168 -0.1016
  697MPD2    C510307   1.742   2.911  15.839 -0.1939 -0.6756  0.3450
  697MPD2     H10308   1.865   2.816  15.485 -0.0165  0.7088  0.1004
  697MPD2    H110309   1.790   3.112  15.786 -0.6103  0.1280 -2.6076
  697MPD2    H210310   1.712   2.712  15.886  1.7534 -0.1092 -0.7548
  697MPD2    H310311   1.696   2.931  15.935  1.5057  1.1279  0.7902
  697MPD2     N10312   1.909   3.061  15.547  0.2460  0.1390 -0.1920
  697MPD2    H510313   1.936   3.018  15.460 -0.1609 -1.1651  0.3373
  697MPD2    N110314   1.776   2.615  15.629  0.0447 -0.2405  0.1022
  697MPD2    H710315   1.812   2.594  15.536 -0.0648 -0.5835  0.1367
  698TMC3    C110316   2.033   3.257  15.468  0.1098 -0.0642  0.1627
  698TMC3    C210317   2.104   3.366  15.503 -0.2075 -0.3228 -0.4542
  698TMC3    C310318   2.174   3.436  15.413 -0.7258 -0.0425  0.0914
  698TMC3    C410319   2.009   3.240  15.331  0.3402 -0.0759  0.4292
  698TMC3    C510320   2.086   3.312  15.240 -0.1846  0.2612  0.3837
  698TMC3    C610321   2.174   3.409  15.279 -0.6806 -0.3760 -0.3271
  698TMC3     C10322   1.962   3.188  15.582 -0.3177  0.4763 -0.0701
  698TMC3     O10323   1.960   3.243  15.689  0.1270  0.9192 -0.0473
  698TMC3     H10324   2.118   3.386  15.609  1.1584 -2.5688 -0.2006
  698TMC3    H110325   1.938   3.167  15.294 -0.6491  1.4988 -0.7926
  698TMC3    H210326   2.224   3.475  15.209  1.1541 -0.2194  1.1417
  698TMC3    C710327   2.042   3.310  15.102  0.1729  0.4393 -0.1136
  698TMC3    C810328   2.278   3.520  15.472  0.2589  0.3709 -0.2753
  698TMC3    O110329   1.929   3.275  15.075 -0.2891 -0.1227 -0.0208
  698TMC3    O210330   2.262   3.540  15.589 -0.3733  0.3215 -0.3960
  699TMC3    C110331   2.089   1.272  12.966  0.1377  0.9502  0.4631
  699TMC3    C210332   2.140   1.150  13.014 -0.5924 -0.1564  0.0831
  699TMC3    C310333   2.078   1.101  13.124  0.5383 -0.4885  0.1112
  699TMC3    C410334   1.992   1.347  13.036  0.1859 -0.8095  0.0212
  699TMC3    C510335   1.941   1.288  13.143 -0.1719  0.6760 -0.7976
  699TMC3    C610336   1.979   1.167  13.189  0.2793 -0.2683  0.2794
  699TMC3     C10337   2.150   1.339  12.850 -0.3074 -0.9382 -0.8574
  699TMC3     O10338   2.088   1.428  12.801  0.1193 -0.0837 -0.0913
  699TMC3     H10339   2.217   1.093  12.964  2.0961  1.5443  2.3080
  699TMC3    H110340   1.950   1.435  12.987 -0.5969  0.0727  2.2623
  699TMC3    H210341   1.927   1.134  13.279  1.0506  0.2922  0.9281
  699TMC3    C710342   1.842   1.366  13.218 -0.3138  0.0688 -0.0007
  699TMC3    C810343   2.110   0.967  13.178 -0.4835  0.1788 -0.4015
  699TMC3    O110344   1.741   1.310  13.259 -0.0052  0.0392  0.0324
  699TMC3    O210345   2.037   0.915  13.258  0.0655 -0.0454 -0.0408
  700TMC3    C110346   0.996   3.464  17.621 -0.0589 -0.6940  0.1510
  700TMC3    C210347   0.958   3.337  17.637  0.4256  0.4046 -0.2892
  700TMC3    C310348   0.971   3.280   0.083 -0.5547 -0.3271  0.0294
  700TMC3    C410349   1.038   3.540   0.045 -0.0123 -0.1457  0.2256
  700TMC3    C510350   1.057   3.476   0.162  0.2925  0.3185 -0.5845
  700TMC3    C610351   1.017   3.352   0.185  0.1769 -0.1231 -0.3680
  700TMC3     C10352   0.950   3.527  17.497 -0.0692  0.0292 -0.1231
  700TMC3     O10353   0.861   3.472  17.433 -0.2212 -0.1798 -0.3262
  700TMC3     H10354   0.929   3.280  17.549  1.3796 -2.9440  1.5600
  700TMC3    H110355   1.047   3.648   0.039 -1.1258 -0.0453  0.3888
  700TMC3    H210356   1.038   3.311   0.283 -0.4748  0.4161 -0.0053
  700TMC3    C710357   1.100   3.563   0.267  0.1444 -0.1815 -0.7926
  700TMC3    C810358   0.989   3.136   0.097 -0.1893  0.1444  0.0460
  700TMC3    O110359   1.039   3.544   0.372  0.0990  0.0105  0.2395
  700TMC3    O210360   1.066   3.088   0.183  0.1044 -0.0018 -0.2511
  701TMC3    C110361   1.007   2.453  15.530 -0.8694  0.0474 -0.3184
  701TMC3    C210362   1.038   2.416  15.402 -0.0081 -0.1459  0.4312
  701TMC3    C310363   1.144   2.465  15.342 -0.2383  0.4066 -0.7681
  701TMC3    C410364   1.089   2.536  15.598 -0.3656  0.0173 -0.2721
  701TMC3    C510365   1.209   2.570  15.540 -0.0055  0.3587 -0.2820
  701TMC3    C610366   1.240   2.540  15.410 -0.3465 -0.1599 -0.5110
  701TMC3     C10367   0.881   2.422  15.601 -0.3475 -0.6816 -0.5480
  701TMC3     O10368   0.857   2.459  15.715 -0.0491  0.2833 -0.0447
  701TMC3     H10369   0.969   2.360  15.340 -0.7956 -0.0764  1.2397
  701TMC3    H110370   1.054   2.566  15.696  3.7043  0.5426  1.0333
  701TMC3    H210371   1.331   2.573  15.360 -0.1559 -0.3209 -0.2691
  701TMC3    C710372   1.278   2.685  15.589  0.2563 -0.3384  0.6491
  701TMC3    C810373   1.189   2.408  15.223 -0.0792  0.1281 -1.1311
  701TMC3    O110374   1.362   2.739  15.510  0.0358  0.5843 -0.4280
  701TMC3    O210375   1.310   2.414  15.204  0.0821 -0.0099  0.4701
  702MPD2     C10376   1.227   4.595  10.245  0.1273 -0.3795 -0.3391
  702MPD2    C110377   1.125   4.674  10.292  0.0718  0.4329  0.4780
  702MPD2    C210378   1.127   0.084  10.241 -0.6692  0.5445 -0.7611
  702MPD2    C310379   1.221   0.132  10.155 -0.0562 -0.2426 -0.0829
  702MPD2    C410380   1.323   0.046  10.112 -0.3389 -0.2130  0.3910
  702MPD2    C510381   1.323   4.636  10.161 -0.3195 -0.8656  0.5814
  702MPD2     H10382   1.049   0.156  10.264 -2.8761 -1.6698 -1.3512
  702MPD2    H110383   1.394   0.073  10.034  0.7506 -1.5751  0.8967
  702MPD2    H210384   1.249   4.496  10.283 -0.7472 -0.5055 -0.1467
  702MPD2    H310385   1.395   4.562  10.129 -0.0705 -1.0841  1.6666
  702MPD2     N10386   1.210   0.260  10.085 -1.0559  0.3873 -0.2847
  702MPD2    H510387   1.292   0.290  10.033 -0.9755  2.6547  1.1643
  702MPD2    N110388   1.027   4.633  10.387  0.3566  0.3383  0.8100
  702MPD2    H710389   0.970   4.704  10.431 -1.3410 -0.0716 -0.7338
  703TMC3    C110390   1.133   0.482  10.052 -0.6274 -0.4047  0.6815
  703TMC3    C210391   1.025   0.563  10.027 -0.2226  0.8520  0.2099
  703TMC3    C310392   1.049   0.700  10.031 -0.0816 -0.2143 -0.0224
  703TMC3    C410393   1.262   0.528  10.078 -0.6551  0.9356 -0.3807
  703TMC3    C510394   1.276   0.666  10.064  0.0548 -0.0900 -0.0831
  703TMC3    C610395   1.175   0.748  10.045 -0.4268 -0.4541 -0.6535
  703TMC3     C10396   1.097   0.347  10.091  0.2668  0.9530 -0.5165
  703TMC3     O10397   0.985   0.333  10.136 -0.8169 -0.9045  0.2292
  703TMC3     H10398   0.926   0.523  10.014  0.5838 -0.5704 -1.5894
  703TMC3    H110399   1.341   0.474  10.129 -2.0614 -0.9270 -0.1779
  703TMC3    H210400   1.188   0.855  10.033 -0.5773 -0.3245  0.3256
  703TMC3    C710401   1.392   0.720  10.126  0.2967 -0.0582  0.4691
  703TMC3    C810402   0.949   0.795  10.003 -0.0499 -0.4179 -0.1100
  703TMC3    O110403   1.496   0.675  10.085  0.3671 -0.4563 -0.4593
  703TMC3    O210404   0.995   0.900   9.965 -0.4388 -0.7798 -0.1336
  704TMC3    C110405   3.329   2.773  11.910 -0.2106 -0.3017  0.4389
  704TMC3    C210406   3.466   2.782  11.918 -0.1942  0.0888  0.1794
  704TMC3    C310407   3.532   2.703  12.012  0.1618  0.0471 -0.1967
  704TMC3    C410408   3.258   2.681  11.990 -0.4173  0.2745 -0.1411
  704TMC3    C510409   3.323   2.600  12.075  0.8694 -0.0241  0.0423
  704TMC3    C610410   3.457   2.614  12.087 -1.4399 -0.7140  0.1612
  704TMC3     C10411   3.257   2.886  11.852 -0.6913 -0.3075 -0.0450
  704TMC3     O10412   3.135   2.886  11.856 -0.2889 -0.0169  0.9635
  704TMC3     H10413   3.535   2.849  11.867 -1.6428  0.1633 -1.6770
  704TMC3    H110414   3.151   2.682  11.972 -0.6051  2.2008  1.0767
  704TMC3    H210415   3.503   2.536  12.146 -1.7516  0.0665  1.4210
  704TMC3    C710416   3.261   2.468  12.081  0.0686 -0.0653  0.0580
  704TMC3    C810417   3.672   2.676  11.983  0.6153  0.4942  0.0763
  704TMC3    O110418   3.226   2.427  11.971  0.3530 -0.1441 -0.3410
  704TMC3    O210419   3.713   2.698  11.869 -0.1790 -0.1096  0.2335
  705MPD2     C10420   3.067   0.630  16.392 -0.2491 -0.2161 -0.4194
  705MPD2    C110421   2.998   0.743  16.344  0.9003 -0.4983 -0.0395
  705MPD2    C210422   2.863   0.759  16.378  0.2178 -0.3115  0.8027
  705MPD2    C310423   2.802   0.651  16.447 -0.4424 -0.1519  0.2784
  705MPD2    C410424   2.873   0.541  16.482 -0.5284  0.1496 -0.1241
  705MPD2    C510425   3.009   0.525  16.462  0.2368  0.3418  0.5076
  705MPD2     H10426   2.812   0.848  16.341  1.4294 -1.0248 -2.6328
  705MPD2    H110427   2.821   0.460  16.531 -1.7182  0.9226 -0.0916
  705MPD2    H210428   3.172   0.614  16.369 -0.3046  0.2185 -0.9711
  705MPD2    H310429   3.049   0.424  16.466 -0.5201  0.1388  2.6329
  705MPD2     N10430   2.671   0.656  16.479 -0.1694 -0.1919 -0.4720
  705MPD2    H510431   2.616   0.571  16.475 -0.4842  0.0619 -1.6191
  705MPD2    N110432   3.061   0.843  16.260 -0.1746  0.8269  0.9539
  705MPD2    H710433   3.003   0.922  16.233 -0.5137  1.0293  2.2799
  706TMC3    C110434   3.315   0.994  15.919  0.0146 -0.1224 -0.1830
  706TMC3    C210435   3.269   1.121  15.932  0.0428  0.5020  0.7590
  706TMC3    C310436   3.212   1.161  16.052 -0.0508 -0.8682 -0.5223
  706TMC3    C410437   3.299   0.903  16.019 -0.0058  0.2550 -0.5569
  706TMC3    C510438   3.226   0.944  16.129 -0.1400 -0.1088  0.1450
  706TMC3    C610439   3.184   1.074  16.150  0.6279  0.0343  0.1032
  706TMC3     C10440   3.406   0.967  15.809  0.1214 -0.0291  0.0273
  706TMC3     O10441   3.469   1.062  15.768 -0.0506 -0.6798  0.4879
  706TMC3     H10442   3.278   1.194  15.853  1.1047 -0.4890 -0.0399
  706TMC3    H110443   3.341   0.804  16.005  0.2151  0.2767 -0.0494
  706TMC3    H210444   3.138   1.103  16.244  0.1182 -2.1732  0.5375
  706TMC3    C710445   3.190   0.831  16.208  0.5403  0.4070 -0.6688
  706TMC3    C810446   3.127   1.277  16.033  0.4593 -0.8926 -0.3978
  706TMC3    O110447   3.279   0.748  16.232 -0.3229  0.3074  0.0625
  706TMC3    O210448   3.077   1.303  15.928 -0.8572  0.3492  0.1836
  707TMC3    C110449   0.025   4.409   1.592 -0.3864  0.8613  0.2865
  707TMC3    C210450   0.130   4.334   1.640  0.6953 -0.0881 -0.8722
  707TMC3    C310451   0.144   4.342   1.781  0.0841  0.4970  0.4443
  707TMC3    C410452   4.663   4.488   1.671 -0.1140 -0.7222  0.3720
  707TMC3    C510453   4.678   4.486   1.806 -0.1277 -0.3675  0.7296
  707TMC3    C610454   0.055   4.409   1.861  0.7884 -0.1670 -0.4378
  707TMC3     C10455   0.042   4.435   1.448 -0.2981 -0.3421 -0.0886
  707TMC3     O10456   0.155   4.448   1.407 -0.6057 -0.0158  0.2184
  707TMC3     H10457   0.196   4.294   1.564  2.3286  0.9418  0.0102
  707TMC3    H110458   4.575   4.536   1.631 -0.4771 -2.0849 -0.4592
  707TMC3    H210459   0.082   4.436   1.962  0.3380  1.0513 -0.6388
  707TMC3    C710460   4.619   4.587   1.889  0.2752 -0.2557 -0.0996
  707TMC3    C810461   0.266   4.295   1.842  0.0451 -0.2859  0.4921
  707TMC3    O110462   4.617   4.557   2.005  0.0989  0.2722 -0.3145
  707TMC3    O210463   0.288   4.339   1.954  0.5836 -0.6503  0.4898
  708MPD2     C10464   1.225   0.089  13.427  0.1222 -0.2529  0.2911
  708MPD2    C110465   1.165   4.715  13.507 -0.2367  0.0971  0.2510
  708MPD2    C210466   1.240   4.654  13.611  0.2815 -0.6060  0.1315
  708MPD2    C310467   1.365   4.692  13.648  0.0381 -0.7257 -0.4936
  708MPD2    C410468   1.426   0.061  13.559 -0.1949 -0.1454  0.3738
  708MPD2    C510469   1.355   0.117  13.456  0.4405  0.1473 -0.4173
  708MPD2     H10470   1.179   4.586  13.668 -2.3986  2.3550  0.7962
  708MPD2    H110471   1.530   0.087  13.574 -0.2492  0.0674  0.3788
  708MPD2    H210472   1.163   0.152  13.365 -1.1376  0.1250  1.9233
  708MPD2    H310473   1.407   0.178  13.384  0.3719 -1.0113 -1.4472
  708MPD2     N10474   1.441   4.625  13.749  0.6897 -0.4015  0.4757
  708MPD2    H510475   1.532   4.664  13.773  0.1580  1.1779 -0.0506
  708MPD2    N110476   1.033   4.677  13.476 -0.1249  0.1047  0.7327
  708MPD2    H710477   1.002   4.598  13.532  2.0724 -0.8797  0.5948
  709TMC3    C110478   0.834   4.626  13.395 -0.2738 -0.4304 -0.3124
  709TMC3    C210479   0.815   4.540  13.296  0.3534 -0.3322  0.1762
  709TMC3    C310480   0.755   4.423  13.318 -0.7442  0.6775  0.0727
  709TMC3    C410481   0.809   4.588  13.526  0.2260 -0.6075  0.3550
  709TMC3    C510482   0.758   4.463  13.553  0.2326  0.3056  0.6742
  709TMC3    C610483   0.727   4.379  13.445 -0.0424 -0.1488 -0.4611
  709TMC3     C10484   0.949   4.718  13.381  0.2670 -0.1806  0.1579
  709TMC3     O10485   0.971   0.061  13.278 -0.3956  0.0745  0.1254
  709TMC3     H10486   0.845   4.576  13.198 -0.3956  0.6574  0.3101
  709TMC3    H110487   0.840   4.647  13.611 -1.3873  1.8208 -0.7243
  709TMC3    H210488   0.683   4.283  13.468 -2.1261  0.3851 -2.1934
  709TMC3    C710489   0.850   4.404  13.642 -0.1629  0.8044  0.2202
  709TMC3    C810490   0.756   4.325  13.211  0.1082 -0.7540 -0.5855
  709TMC3    O110491   0.959   4.455  13.645  0.2409  0.0426  0.7660
  709TMC3    O210492   0.688   4.225  13.231  0.1588 -0.3249 -0.0730
  710TMC3    C110493   2.037   1.072   0.251 -0.2567 -0.2966 -0.2050
  710TMC3    C210494   2.066   0.979   0.156  0.7161 -0.0826 -0.5141
  710TMC3    C310495   2.183   0.906   0.181  0.4073  0.1264 -0.9610
  710TMC3    C410496   2.124   1.104   0.355 -0.2852  0.1319  0.0550
  710TMC3    C510497   2.232   1.022   0.376  0.3527  0.1960 -0.1238
  710TMC3    C610498   2.258   0.921   0.292  0.3938 -0.1979  0.2726
  710TMC3     C10499   1.897   1.123   0.251 -0.1261  0.0019 -0.2427
  710TMC3     O10500   1.843   1.140   0.141 -0.2447  0.1154  0.3021
  710TMC3     H10501   2.003   0.971   0.068 -2.7227  0.3905  1.9065
  710TMC3    H110502   2.104   1.184   0.425 -0.8515  0.1432 -0.1229
  710TMC3    H210503   2.355   0.873   0.298  1.0020  1.0638  0.5777
  710TMC3    C710504   2.304   1.024   0.500 -0.1031 -0.6944  0.0382
  710TMC3    C810505   2.246   0.834   0.079 -0.3408 -0.5540  0.5599
  710TMC3    O110506   2.352   0.917   0.537 -0.3320  0.3560 -0.1158
  710TMC3    O210507   2.236   0.878  17.642 -0.1923  0.3026  0.0910
  711TMC3    C110508   1.718   1.671  14.945  0.3187  0.0789  0.1522
  711TMC3    C210509   1.744   1.787  15.012 -0.1693  0.0325 -0.0457
  711TMC3    C310510   1.862   1.791  15.082 -0.0599 -0.3684 -0.6559
  711TMC3    C410511   1.794   1.558  14.962  0.0791  0.1209 -0.3749
  711TMC3    C510512   1.915   1.575  15.017  0.1358  0.3659  0.7719
  711TMC3    C610513   1.952   1.687  15.086  0.7756 -1.2053  0.0961
  711TMC3     C10514   1.603   1.645  14.852 -0.0449  0.8308 -0.3755
  711TMC3     O10515   1.583   1.530  14.811  0.5834 -0.0438 -0.0830
  711TMC3     H10516   1.669   1.865  15.018  0.9451  1.1718 -1.0606
  711TMC3    H110517   1.769   1.466  14.911  0.2939 -0.4694  0.5974
  711TMC3    H210518   2.049   1.691  15.135  0.5173  2.7078  0.2959
  711TMC3    C710519   1.998   1.452  15.036  0.8678  0.0624  0.6051
  711TMC3    C810520   1.862   1.869  15.206 -0.0545  0.6898 -0.2563
  711TMC3    O110521   2.081   1.451  15.127 -0.9239 -0.6234 -0.5539
  711TMC3    O210522   1.756   1.896  15.254 -0.1813  0.5599  0.1050
  712MPD2     C10523   3.175   2.848  13.776 -0.7147  0.4038  0.0118
  712MPD2    C110524   3.130   2.887  13.651 -0.7333  0.1619 -0.2794
  712MPD2    C210525   3.207   2.971  13.570 -0.1481  0.3349 -0.0243
  712MPD2    C310526   3.320   3.029  13.631 -0.1788 -0.2428  0.0615
  712MPD2    C410527   3.364   2.992  13.747  0.1371 -0.0667  0.4470
  712MPD2    C510528   3.298   2.891  13.816  0.2648 -0.1253 -0.4946
  712MPD2     H10529   3.181   2.988  13.465 -1.7409 -1.9363  0.0016
  712MPD2    H110530   3.455   3.031  13.792  0.2780  0.6536 -0.4661
  712MPD2    H210531   3.120   2.780  13.841  1.0047 -0.5836  0.4187
  712MPD2    H310532   3.340   2.866  13.913  0.6010 -1.0822 -0.8969
  712MPD2     N10533   3.392   3.130  13.567 -0.2207  0.7370  0.0165
  712MPD2    H510534   3.462   3.182  13.619  0.8636 -0.5889 -0.1129
  712MPD2    N110535   3.001   2.848  13.599 -0.2126 -0.2855 -0.2275
  712MPD2    H710536   2.982   2.882  13.505  0.8902  1.7350  0.2638
  713TMC3    C110537   3.459   3.293  13.425 -0.2242 -0.2995 -0.0652
  713TMC3    C210538   3.594   3.264  13.423 -0.6608 -0.1376  0.4333
  713TMC3    C310539   3.666   3.356  13.353  0.2143 -0.3119  0.5017
  713TMC3    C410540   3.398   3.403  13.359 -0.6957  0.0382 -0.1305
  713TMC3    C510541   3.484   3.491  13.292 -0.2717  0.1635  0.5467
  713TMC3    C610542   3.615   3.464  13.286  1.0393  0.5412  0.3120
  713TMC3     C10543   3.368   3.189  13.448 -0.3240 -0.6254 -0.2510
  713TMC3     O10544   3.271   3.173  13.373 -0.0123  0.0121 -0.3645
  713TMC3     H10545   3.636   3.174  13.466 -3.3298 -1.1257  0.9656
  713TMC3    H110546   3.291   3.405  13.343 -1.1575 -0.5034  2.8867
  713TMC3    H210547   3.687   3.535  13.247  0.2468  1.0342 -0.2599
  713TMC3    C710548   3.431   3.622  13.271 -0.5111 -0.6997 -0.3308
  713TMC3    C810549   3.799   3.314  13.310 -0.0995  0.1862  0.9164
  713TMC3    O110550   3.508   3.702  13.226 -0.3926  0.4977 -0.5214
  713TMC3    O210551   3.843   3.346  13.202  0.2423 -0.0602 -0.2325
  714MPD2     C10552   0.442   1.518   1.800 -0.3962 -0.0305 -0.4849
  714MPD2    C110553   0.462   1.546   1.665  0.2573  0.4815 -0.3571
  714MPD2    C210554   0.358   1.609   1.587  0.4796  0.4608 -0.4446
  714MPD2    C310555   0.233   1.628   1.638  0.1306  0.0628 -0.4625
  714MPD2    C410556   0.220   1.601   1.779 -0.0308  0.3260  0.4571
  714MPD2    C510557   0.311   1.530   1.851  0.3610 -1.6290  1.0339
  714MPD2     H10558   0.378   1.630   1.483  0.9750  0.9091 -0.2572
  714MPD2    H110559   0.127   1.613   1.833  1.0512  0.3561  2.3399
  714MPD2    H210560   0.516   1.476   1.867 -0.7606  1.5419  0.8944
  714MPD2    H310561   0.294   1.499   1.954 -0.5563 -1.4158  0.9461
  714MPD2     N10562   0.133   1.680   1.550  0.1533  0.2139  0.1499
  714MPD2    H510563   0.164   1.693   1.454 -0.7717  0.7208 -0.0796
  714MPD2    N110564   0.588   1.520   1.603  0.1030  0.4494  0.8177
  714MPD2    H710565   0.662   1.489   1.666  1.6690  0.0719 -1.2134
  715TMC3    C110566   0.757   1.468   1.457  0.1527 -0.3890  0.1161
  715TMC3    C210567   0.782   1.417   1.333 -0.4565 -0.2414  0.7663
  715TMC3    C310568   0.910   1.396   1.301 -0.7786  0.2231  0.4507
  715TMC3    C410569   0.856   1.504   1.541 -0.0528  0.2991  0.0692
  715TMC3    C510570   0.982   1.471   1.510  0.0518  0.3424  0.0320
  715TMC3    C610571   1.012   1.412   1.385 -0.7231 -0.2623  1.0202
  715TMC3     C10572   0.627   1.522   1.477  0.6412 -0.4240  0.3384
  715TMC3     O10573   0.563   1.563   1.381  0.4863 -0.6480 -0.3455
  715TMC3     H10574   0.703   1.407   1.259  0.0487  0.1499  0.1734
  715TMC3    H110575   0.835   1.573   1.622  2.0450  1.7727 -0.6499
  715TMC3    H210576   1.115   1.398   1.357 -0.5310  1.0705  1.0660
  715TMC3    C710577   1.085   1.528   1.591 -0.2567 -0.1595 -0.0797
  715TMC3    C810578   0.934   1.411   1.165  0.0407  0.2110 -1.3556
  715TMC3    O110579   1.194   1.561   1.542 -0.8518  0.1285  0.6811
  715TMC3    O210580   0.849   1.368   1.092 -0.5560 -0.0713  0.5662
  716MPD2     C10581   1.043   4.364   9.926  0.1417  0.2679  0.1336
  716MPD2    C110582   1.065   4.347   9.795  0.6511 -0.5133  0.3607
  716MPD2    C210583   1.185   4.299   9.757 -0.7331 -0.4274 -0.8769
  716MPD2    C310584   1.283   4.278   9.848  0.6114  0.5333  0.5913
  716MPD2    C410585   1.268   4.291   9.978  0.0114  0.0666 -0.3946
  716MPD2    C510586   1.144   4.335  10.020 -0.2958  0.3008  0.4190
  716MPD2     H10587   1.217   4.306   9.654  0.5067 -0.2341 -0.4795
  716MPD2    H110588   1.349   4.293  10.051 -1.2528  0.3380  1.0047
  716MPD2    H210589   0.949   4.407   9.960  0.8544  0.7983  1.4196
  716MPD2    H310590   1.140   4.365  10.124  1.1746  0.4400  0.4348
  716MPD2     N10591   1.400   4.226   9.790 -0.2383  0.3305 -0.0983
  716MPD2    H510592   1.402   4.231   9.689  1.0744  2.4953  0.0301
  716MPD2    N110593   0.970   4.409   9.713  0.0752  0.0432 -0.9238
  716MPD2    H710594   0.893   4.463   9.750  0.8435  0.7224 -0.3148
  717TMC3    C110595   1.609   4.147   9.769 -0.5265 -0.1270 -0.4957
  717TMC3    C210596   1.605   4.214   9.653 -0.1949  0.5605 -0.4995
  717TMC3    C310597   1.666   4.147   9.546  0.7488 -1.7624  0.0116
  717TMC3    C410598   1.681   4.033   9.787 -0.0632  0.0397 -0.0250
  717TMC3    C510599   1.739   3.970   9.680 -0.8719  0.4505  0.9777
  717TMC3    C610600   1.738   4.029   9.555 -0.3344 -0.6215 -0.4485
  717TMC3     C10601   1.508   4.184   9.861  0.0991 -0.0319  0.0643
  717TMC3     O10602   1.531   4.185   9.982  0.3846 -0.2370 -0.5014
  717TMC3     H10603   1.559   4.312   9.646  0.4436  0.9062  0.1247
  717TMC3    H110604   1.671   3.995   9.888 -1.1842 -0.2059 -0.2287
  717TMC3    H210605   1.768   3.969   9.470 -0.9243  1.6161 -2.2148
  717TMC3    C710606   1.780   3.832   9.684  0.1209  0.4447 -0.0306
  717TMC3    C810607   1.614   4.180   9.412 -0.3527 -0.1447  0.0911
  717TMC3    O110608   1.809   3.775   9.578  0.3468  0.1026  0.4647
  717TMC3    O210609   1.514   4.252   9.416 -0.5615  0.2192 -0.1533
  718MPD2     C10610   0.265   3.007  13.064 -0.0034 -0.2536  0.1925
  718MPD2    C110611   0.251   3.017  12.929  0.6948  0.5856 -0.0336
  718MPD2    C210612   0.136   2.961  12.872  0.1311 -0.6138 -0.2732
  718MPD2    C310613   0.029   2.911  12.952 -0.1899  0.0104  0.1145
  718MPD2    C410614   0.049   2.898  13.086 -0.3743  0.5579  0.0853
  718MPD2    C510615   0.170   2.946  13.139  0.7485  1.0040  0.0192
  718MPD2     H10616   0.129   2.971  12.764 -1.0595  1.7510  0.0287
  718MPD2    H110617   4.687   2.866  13.151  0.8384  0.0067  1.3122
  718MPD2    H210618   0.355   3.037  13.117  1.0082 -2.2656 -0.3857
  718MPD2    H310619   0.177   2.941  13.247 -2.0203 -1.2022  0.1128
  718MPD2     N10620   4.629   2.885  12.891  0.1304  0.4606  0.5478
  718MPD2    H510621   4.624   2.894  12.790  0.1975  0.7363  0.5705
  718MPD2    N110622   0.351   3.068  12.842 -0.0449 -0.4458  0.1291
  718MPD2    H710623   0.339   3.065  12.742 -0.0038 -0.6849  0.1319
  719TMC3    C110624   0.522   3.169  12.746  0.6805  0.3171  0.6731
  719TMC3    C210625   0.473   3.097  12.642 -0.2790  0.2773 -0.6512
  719TMC3    C310626   0.437   3.151  12.526 -0.0653 -0.5704 -0.6936
  719TMC3    C410627   0.569   3.295  12.723  0.0196 -0.7321 -0.1905
  719TMC3    C510628   0.545   3.343  12.593  0.1289 -0.2290 -0.3858
  719TMC3    C610629   0.479   3.276  12.494 -0.0055  0.2644 -0.6786
  719TMC3     C10630   0.467   3.128  12.877  0.3239 -0.1337  0.1102
  719TMC3     O10631   0.500   3.182  12.979 -0.2010  0.0674 -0.3362
  719TMC3     H10632   0.455   2.990  12.649 -0.3466  0.5431  3.3384
  719TMC3    H110633   0.612   3.342  12.811  2.6471 -2.2950 -0.6257
  719TMC3    H210634   0.469   3.325  12.398  1.1331  0.1341 -0.8630
  719TMC3    C710635   0.615   3.467  12.551  0.0281 -0.2468  0.6077
  719TMC3    C810636   0.297   3.131  12.492 -0.1824 -0.0168  0.2247
  719TMC3    O110637   0.593   3.508  12.436  0.0535  0.5338  0.0539
  719TMC3    O210638   0.248   3.048  12.563 -0.3669 -0.3585 -0.0041
  720MPD2     C10639   3.133   0.287  13.824 -0.2970 -0.2867  0.9939
  720MPD2    C110640   3.190   0.226  13.710  0.6578  0.2767 -0.0719
  720MPD2    C210641   3.281   0.126  13.721 -0.0121 -0.0037 -0.2680
  720MPD2    C310642   3.327   0.078  13.842 -0.0366 -0.3403 -0.6816
  720MPD2    C410643   3.270   0.141  13.953 -0.3222  0.0516 -0.2366
  720MPD2    C510644   3.172   0.236  13.943  0.3696 -0.0415 -0.6655
  720MPD2     H10645   3.322   0.099  13.624 -0.5134 -2.2778  0.1560
  720MPD2    H110646   3.287   0.101  14.052 -0.1733  1.0295  0.1327
  720MPD2    H210647   3.063   0.370  13.817  1.7672  1.2700 -1.3705
  720MPD2    H310648   3.136   0.269  14.040  3.3801 -0.2092  0.5316
  720MPD2     N10649   3.425   4.694  13.837  0.2694 -0.1713  0.9205
  720MPD2    H510650   3.461   4.677  13.744  1.2669  3.0164  0.6999
  720MPD2    N110651   3.167   0.276  13.581 -0.0173  0.6606  0.4507
  720MPD2    H710652   3.205   0.224  13.503  1.1127 -0.2766  1.6349
  721TMC3    C110653   3.596   4.555  13.916 -0.2399  0.0152 -0.4473
  721TMC3    C210654   3.603   4.431  13.980 -0.4001 -0.3867 -0.3705
  721TMC3    C310655   3.712   4.354  13.947 -0.6217 -0.6878  1.1715
  721TMC3    C410656   3.683   4.599  13.817  0.1432  0.7859  0.3600
  721TMC3    C510657   3.785   4.514  13.788 -0.3697  0.2893  0.1151
  721TMC3    C610658   3.802   4.394  13.852 -0.8790 -0.4883 -0.6522
  721TMC3     C10659   3.482   4.639  13.949 -0.3183 -0.1066  0.4735
  721TMC3     O10660   3.447   4.648  14.063 -0.1330  0.3672 -0.3398
  721TMC3     H10661   3.539   4.429  14.067 -1.3255  1.1455 -1.0103
  721TMC3    H110662   3.667   4.693  13.766  3.8280  0.1769 -1.9468
  721TMC3    H210663   3.879   4.322  13.827 -0.6208  0.0808 -1.5138
  721TMC3    C710664   3.905   4.582  13.763 -0.8674  0.2168 -0.1941
  721TMC3    C810665   3.750   4.233  14.020 -0.4071 -0.4054  0.3580
  721TMC3    O110666   3.918   4.682  13.695  0.1272 -0.0356  0.5224
  721TMC3    O210667   3.826   4.153  13.965  0.0580 -0.0297  0.1902
  722MPD2     C10668   2.332   3.501  13.371  0.3647  0.1517  0.0204
  722MPD2    C110669   2.266   3.619  13.396  0.1463 -0.6666  0.8906
  722MPD2    C210670   2.131   3.627  13.357  0.1070 -0.3189 -0.5497
  722MPD2    C310671   2.057   3.514  13.312 -0.4090  0.0045 -0.2499
  722MPD2    C410672   2.131   3.395  13.302  0.1707 -0.4407 -0.3421
  722MPD2    C510673   2.264   3.389  13.331 -0.0055  0.2519 -0.1686
  722MPD2     H10674   2.076   3.720  13.362 -0.6755 -0.8637  0.7497
  722MPD2    H110675   2.078   3.303  13.278  1.0628 -0.9841 -0.2212
  722MPD2    H210676   2.439   3.490  13.389  0.2446  1.5695  1.7352
  722MPD2    H310677   2.320   3.299  13.310  1.2796  1.4317 -1.8319
  722MPD2     N10678   1.918   3.535  13.285  0.0134  0.2576  0.5591
  722MPD2    H510679   1.876   3.622  13.313  1.0228  0.6116  0.9648
  722MPD2    N110680   2.336   3.736  13.433 -0.2720 -0.2137  0.2443
  722MPD2    H710681   2.297   3.825  13.404 -0.6602 -1.1413 -2.1101
  723TMC3    C110682   1.707   3.441  13.244 -0.1806  0.5047 -1.3202
  723TMC3    C210683   1.644   3.325  13.222 -0.3768 -0.2969  0.2023
  723TMC3    C310684   1.516   3.325  13.262  0.3117 -0.3632  0.3526
  723TMC3    C410685   1.665   3.548  13.315  0.4984 -0.0994  0.9309
  723TMC3    C510686   1.535   3.536  13.365  0.4871 -0.0087 -0.4773
  723TMC3    C610687   1.458   3.432  13.327  0.0435 -0.1575 -0.3194
  723TMC3     C10688   1.850   3.434  13.226  0.4633 -0.1994  0.5639
  723TMC3     O10689   1.894   3.338  13.160  0.1657  0.0263  0.2166
  723TMC3     H10690   1.688   3.244  13.165 -3.3105 -0.8462 -1.2610
  723TMC3    H110691   1.711   3.646  13.324  1.5184 -0.4375 -0.5686
  723TMC3    H210692   1.350   3.437  13.327  0.0577  0.1826  0.2612
  723TMC3    C710693   1.463   3.666  13.395  0.7561  0.0591  0.2878
  723TMC3    C810694   1.426   3.209  13.234  0.0546  0.3673  0.0187
  723TMC3    O110695   1.492   3.774  13.349  0.1638  0.9128 -0.6377
  723TMC3    O210696   1.309   3.246  13.223  0.3406  0.8469  0.3267
  724TMC3    C110697   2.971   1.544  10.522  0.4987  0.3049 -0.1226
  724TMC3    C210698   2.938   1.571  10.392  0.1082  0.3967  0.0166
  724TMC3    C310699   2.996   1.675  10.320 -0.2193  0.1064  0.2560
  724TMC3    C410700   3.089   1.593  10.577  0.2567 -0.8109 -0.3044
  724TMC3    C510701   3.154   1.684  10.501 -0.3832 -0.0329 -0.2340
  724TMC3    C610702   3.110   1.730  10.375  0.3630  0.2796 -0.5627
  724TMC3     C10703   2.927   1.421  10.574 -0.0244  0.6663 -0.2601
  724TMC3     O10704   2.963   1.396  10.688 -0.4197  0.1624 -0.2997
  724TMC3     H10705   2.838   1.546  10.358 -1.4393  2.9418  2.7339
  724TMC3    H110706   3.126   1.561  10.674  0.0272 -0.0509  0.0322
  724TMC3    H210707   3.176   1.794  10.318  2.3675 -1.7022 -0.4227
  724TMC3    C710708   3.263   1.755  10.563  0.8023 -0.0059 -0.2200
  724TMC3    C810709   2.945   1.721  10.196 -0.0806 -0.0972  0.3777
  724TMC3    O110710   3.353   1.800  10.490  0.0549 -0.3273  0.0954
  724TMC3    O210711   2.834   1.685  10.160 -0.0173  0.0389  0.9513
  725TMC3    C110712   3.911   0.541  13.054 -0.4909  0.2318 -0.0399
  725TMC3    C210713   3.844   0.558  12.938  0.2837 -0.3461  0.1065
  725TMC3    C310714   3.758   0.458  12.897 -0.3257 -0.3949  0.1764
  725TMC3    C410715   3.900   0.427  13.128  0.0463 -0.0451 -0.0990
  725TMC3    C510716   3.823   0.325  13.075 -0.3281 -0.0043 -0.6857
  725TMC3    C610717   3.744   0.340  12.960 -0.2644 -0.7529 -0.0764
  725TMC3     C10718   4.021   0.631  13.082 -0.5858 -0.1353 -0.2067
  725TMC3     O10719   4.019   0.732  13.010  0.1351  0.4077  0.2020
  725TMC3     H10720   3.857   0.647  12.878  4.7858 -1.6029 -0.8232
  725TMC3    H110721   3.934   0.419  13.230 -0.3508  0.1992  0.0537
  725TMC3    H210722   3.680   0.266  12.913 -0.9036  1.8722 -3.3641
  725TMC3    C710723   3.853   0.187  13.117  0.2447  0.8293 -0.2701
  725TMC3    C810724   3.667   0.476  12.786  0.4170  0.0906 -0.9585
  725TMC3    O110725   3.896   0.168  13.229  0.3251 -0.0364  0.3658
  725TMC3    O210726   3.560   0.418  12.791 -0.5856  0.1257  0.2130
  726MPD2     C10727   2.650   2.233  10.595  0.3685 -0.6696  0.2562
  726MPD2    C110728   2.547   2.285  10.516  0.1077  0.0513 -0.0681
  726MPD2    C210729   2.418   2.255  10.544 -0.1689 -0.7212  0.3479
  726MPD2    C310730   2.388   2.166  10.643 -0.4960 -0.0928 -0.2731
  726MPD2    C410731   2.492   2.100  10.708  0.4987 -0.9504  0.0462
  726MPD2    C510732   2.620   2.141  10.691  0.5277 -0.2388 -0.4766
  726MPD2     H10733   2.338   2.304  10.490  0.2568 -0.0043  0.3774
  726MPD2    H110734   2.483   2.019  10.779  2.8744 -2.9544 -1.9208
  726MPD2    H210735   2.754   2.264  10.594  0.0277  0.4849  0.3829
  726MPD2    H310736   2.697   2.108  10.760  1.1772  0.9345 -0.6539
  726MPD2     N10737   2.254   2.152  10.669  0.7709 -0.7164 -0.1771
  726MPD2    H510738   2.190   2.201  10.607 -1.2198 -0.0749  2.3928
  726MPD2    N110739   2.564   2.377  10.404 -0.6343 -0.2810  0.2138
  726MPD2    H710740   2.483   2.411  10.353  0.1164  0.1450 -0.7171
  727TMC3    C110741   2.677   2.556  10.300  0.1490  0.5855  0.0355
  727TMC3    C210742   2.766   2.649  10.337  0.2739  0.7327 -0.1458
  727TMC3    C310743   2.754   2.782  10.299 -0.4249 -0.4611  0.2821
  727TMC3    C410744   2.567   2.591  10.233 -0.3238 -0.4805 -0.5016
  727TMC3    C510745   2.553   2.720  10.190  0.1853 -0.3707 -0.5161
  727TMC3    C610746   2.646   2.820  10.219 -0.4882 -0.1049  0.6339
  727TMC3     C10747   2.685   2.436  10.372 -0.8302 -0.1178 -0.4595
  727TMC3     O10748   2.796   2.400  10.403  0.4791 -0.0293  0.2329
  727TMC3     H10749   2.850   2.626  10.403  1.7221  2.0601 -1.5275
  727TMC3    H110750   2.490   2.521  10.204 -1.2436  0.0958  0.5634
  727TMC3    H210751   2.632   2.924  10.193  1.9941  0.0810  0.0408
  727TMC3    C710752   2.441   2.745  10.104  0.4819 -0.1392 -0.6624
  727TMC3    C810753   2.862   2.873  10.342 -0.3323  0.8894 -0.0176
  727TMC3    O110754   2.385   2.648  10.055 -0.3767  0.0880 -0.2930
  727TMC3    O210755   2.930   2.828  10.434 -0.2407 -1.2134 -0.1018
  728TMC3    C110756   0.898   0.902  15.441 -0.3192 -0.1777  0.2785
  728TMC3    C210757   0.997   0.995  15.432 -0.6404 -0.0969 -0.3697
  728TMC3    C310758   1.069   1.008  15.317  0.5212 -0.1284  0.9424
  728TMC3    C410759   0.847   0.837  15.330  0.0744  0.1510  0.4627
  728TMC3    C510760   0.911   0.866  15.211 -0.1161 -0.5046 -0.0712
  728TMC3    C610761   1.029   0.943  15.204 -0.1307  0.9460 -0.2054
  728TMC3     C10762   0.865   0.847  15.571 -0.3755 -0.3342 -0.3114
  728TMC3     O10763   0.893   0.923  15.665 -0.5758  0.0315  0.1843
  728TMC3     H10764   1.031   1.035  15.527 -0.1602  1.0766 -1.0472
  728TMC3    H110765   0.781   0.751  15.338  1.7846 -1.1302  0.7125
  728TMC3    H210766   1.087   0.946  15.113 -1.3203  3.1047 -0.8934
  728TMC3    C710767   0.843   0.831  15.086 -0.0389  0.5288 -0.6837
  728TMC3    C810768   1.166   1.117  15.302 -0.2561 -0.3912  0.0926
  728TMC3    O110769   0.750   0.752  15.091 -0.1722  0.2233 -0.2116
  728TMC3    O210770   1.198   1.136  15.187  0.4411 -0.2838  0.0954
  729MPD2     C10771   3.420   1.636  16.467 -0.2329  0.1033  0.3741
  729MPD2    C110772   3.551   1.634  16.504  1.0159  0.4509 -0.0084
  729MPD2    C210773   3.586   1.643  16.639 -0.0454  0.1620  0.7846
  729MPD2    C310774   3.482   1.656  16.730  0.1965 -0.2406  0.2382
  729MPD2    C410775   3.348   1.654  16.692 -0.1698 -0.3967  0.4805
  729MPD2    C510776   3.317   1.640  16.559 -0.0808 -0.2390  0.0613
  729MPD2     H10777   3.688   1.654  16.675  0.4580 -0.4433 -0.4778
  729MPD2    H110778   3.268   1.648  16.764 -0.0441  0.5124  0.6950
  729MPD2    H210779   3.385   1.628  16.365  1.0128 -1.3984  0.0683
  729MPD2    H310780   3.211   1.631  16.538  0.4551  1.6158 -3.4097
  729MPD2     N10781   3.507   1.677  16.864 -0.2033  0.1899  0.2533
  729MPD2    H510782   3.426   1.691  16.923  0.0275  0.3994  0.5229
  729MPD2    N110783   3.648   1.627  16.399 -0.1469 -0.1755  0.4325
  729MPD2    H710784   3.623   1.616  16.302  1.5410  3.6213 -0.4646
  730TMC3    C110785   3.606   1.753  17.061  0.0584 -0.6521  0.6888
  730TMC3    C210786   3.652   1.874  17.099 -0.2637  0.3168  0.2590
  730TMC3    C310787   3.573   1.950  17.185 -0.3637  0.2310 -0.2022
  730TMC3    C410788   3.490   1.696  17.108  0.2018 -0.3319  0.2068
  730TMC3    C510789   3.412   1.780  17.186 -0.3697  0.3248 -0.0852
  730TMC3    C610790   3.452   1.905  17.227  0.6845  0.3431  0.1419
  730TMC3     C10791   3.625   1.723  16.921 -0.0606 -0.5648  0.1695
  730TMC3     O10792   3.724   1.768  16.859  0.8281 -0.5168  0.6396
  730TMC3     H10793   3.743   1.912  17.054 -0.3131 -0.9035 -0.8573
  730TMC3    H110794   3.460   1.594  17.088 -0.6938  0.0172 -0.2074
  730TMC3    H210795   3.390   1.968  17.289 -0.0414  0.6173 -0.8523
  730TMC3    C710796   3.284   1.788  17.109  0.0240  0.2209 -0.5849
  730TMC3    C810797   3.584   2.090  17.170  0.9050 -0.5059 -0.4107
  730TMC3    O110798   3.273   1.728  17.003  0.6441  0.3051 -0.4085
  730TMC3    O210799   3.614   2.126  17.059 -0.2972 -0.5145  0.1804
  731MPD2     C10800   3.805   0.519  12.154 -0.6547  0.4739 -0.5942
  731MPD2    C110801   3.727   0.435  12.083 -0.1035  0.4484 -0.6153
  731MPD2    C210802   3.677   0.317  12.150  1.4035  1.1081 -0.4558
  731MPD2    C310803   3.705   0.293  12.281  0.0812  0.1564 -1.0172
  731MPD2    C410804   3.776   0.391  12.353  0.8969  0.3099 -0.7276
  731MPD2    C510805   3.835   0.496  12.286 -0.2182 -0.2636 -0.2126
  731MPD2     H10806   3.614   0.244  12.100  0.7612 -0.7302  3.0985
  731MPD2    H110807   3.792   0.373  12.459  1.5911  1.9665 -0.5520
  731MPD2    H210808   3.846   0.601  12.097  0.8797  0.4769  0.5150
  731MPD2    H310809   3.902   0.560  12.342 -1.1232 -0.0482  0.6269
  731MPD2     N10810   3.670   0.179  12.360  0.2024 -0.6186 -0.0096
  731MPD2    H510811   3.701   0.174  12.456 -0.0697 -1.1898  0.0503
  731MPD2    N110812   3.715   0.460  11.943 -0.6736  0.4024 -0.1436
  731MPD2    H710813   3.768   0.531  11.895 -0.3413 -0.5048 -1.1337
  732TMC3    C110814   3.673   0.390  11.726 -0.5091 -0.9357 -0.3727
  732TMC3    C210815   3.585   0.372  11.633 -0.4350 -0.5130  0.2204
  732TMC3    C310816   3.631   0.323  11.517 -0.0482 -0.2587  0.0073
  732TMC3    C410817   3.808   0.364  11.706  0.2040  0.2834 -0.4368
  732TMC3    C510818   3.854   0.322  11.582 -0.6322  0.0641 -0.2192
  732TMC3    C610819   3.764   0.304  11.481  0.1295  0.2570  0.2176
  732TMC3     C10820   3.632   0.385  11.867 -0.6585 -0.3181  0.4784
  732TMC3     O10821   3.539   0.313  11.900 -0.1939  0.1171  0.0125
  732TMC3     H10822   3.480   0.394  11.649 -0.5203  0.3182 -1.4869
  732TMC3    H110823   3.881   0.385  11.783  1.3673  0.5062 -1.5969
  732TMC3    H210824   3.803   0.250  11.397 -0.8872  1.7571 -1.2257
  732TMC3    C710825   3.961   0.220  11.580 -0.4113  0.3304 -0.2837
  732TMC3    C810826   3.547   0.214  11.467 -0.1088 -0.2600  0.2373
  732TMC3    O110827   4.013   0.181  11.475 -0.3103 -0.4485 -0.1323
  732TMC3    O210828   3.568   0.174  11.353  0.4909  0.0859  0.6748
  733TMC3    C110829   4.177   2.971  12.811 -0.1221  0.7352  0.6478
  733TMC3    C210830   4.271   2.899  12.884  0.4771 -0.5535 -0.1945
  733TMC3    C310831   4.405   2.932  12.864 -0.7722  0.4548 -0.1104
  733TMC3    C410832   4.214   3.066  12.721 -0.5177 -0.9425 -0.2966
  733TMC3    C510833   4.346   3.086  12.702 -0.0443 -0.3721  0.4855
  733TMC3    C610834   4.438   3.032  12.780  0.1916  0.1968  0.9268
  733TMC3     C10835   4.030   2.934  12.807 -0.0166  0.3407  0.0417
  733TMC3     O10836   3.959   3.003  12.736  0.6665  0.3363  0.2659
  733TMC3     H10837   4.243   2.842  12.971 -2.5693 -0.1863 -0.9170
  733TMC3    H110838   4.140   3.110  12.655 -2.2526 -0.9425  1.6343
  733TMC3    H210839   4.534   3.082  12.783  0.3301  0.0782 -1.3487
  733TMC3    C710840   4.380   3.180  12.598  0.5150  0.2898  0.4249
  733TMC3    C810841   4.506   2.878  12.951 -0.1864 -0.3749  0.1957
  733TMC3    O110842   4.296   3.263  12.558 -0.3327 -0.1699 -0.3723
  733TMC3    O210843   4.469   2.849  13.064 -0.4316 -0.2665  0.1368
  734MPD2     C10844   1.670   0.834  12.367  0.0977 -0.4693 -0.3767
  734MPD2    C110845   1.600   0.782  12.259  0.2376  0.1789  0.2578
  734MPD2    C210846   1.668   0.811  12.135 -0.0115  0.2570  0.7862
  734MPD2    C310847   1.796   0.868  12.123  0.5368 -0.3382 -0.4434
  734MPD2    C410848   1.862   0.912  12.238  0.5712 -0.2377 -0.4509
  734MPD2    C510849   1.794   0.889  12.358  0.2254  0.2036  0.7544
  734MPD2     H10850   1.616   0.783  12.044 -1.6234 -1.0482  2.0918
  734MPD2    H110851   1.962   0.952  12.248  0.0336  1.1031 -0.4194
  734MPD2    H210852   1.625   0.801  12.460  3.0714  0.7733  1.4745
  734MPD2    H310853   1.849   0.915  12.448  0.0216  0.4636  0.8041
  734MPD2     N10854   1.843   0.878  11.991  0.0796 -0.1554 -0.4246
  734MPD2    H510855   1.773   0.858  11.919 -0.7816 -1.8399  0.8842
  734MPD2    N110856   1.492   0.693  12.270  0.9015  0.0317 -0.6703
  734MPD2    H710857   1.458   0.664  12.361  0.7029 -3.1163 -1.7675
  735TMC3    C110858   1.355   0.520  12.209 -0.6900 -0.1946 -0.6470
  735TMC3    C210859   1.294   0.473  12.093 -0.3030  0.7569  0.5939
  735TMC3    C310860   1.332   0.348  12.061 -0.9862  0.2997  0.2232
  735TMC3    C410861   1.429   0.439  12.295 -0.3288  0.9082  0.2316
  735TMC3    C510862   1.451   0.309  12.259 -0.0431 -0.3322 -0.1743
  735TMC3    C610863   1.411   0.263  12.138 -0.3646 -0.6912  0.1588
  735TMC3     C10864   1.433   0.631  12.160  0.2819 -0.3738 -0.7083
  735TMC3     O10865   1.431   0.661  12.043  0.3176  1.1924 -0.1712
  735TMC3     H10866   1.232   0.541  12.036  0.1879 -0.3589 -1.2497
  735TMC3    H110867   1.468   0.480  12.387 -0.9528  0.6248  0.6168
  735TMC3    H210868   1.464   0.173  12.108 -1.4314 -1.7762  1.5691
  735TMC3    C710869   1.553   0.245  12.332 -0.2165 -0.5014  0.3547
  735TMC3    C810870   1.352   0.325  11.919 -0.0468 -0.6569  0.0633
  735TMC3    O110871   1.528   0.226  12.447 -0.6632 -0.1436  0.1916
  735TMC3    O210872   1.348   0.214  11.867  0.0984  0.3261 -0.3569
  736MPD2     C10873   1.769   0.073  12.428 -0.5016  0.2074  0.2368
  736MPD2    C110874   1.781   0.151  12.317 -0.3135 -0.4282  0.3734
  736MPD2    C210875   1.908   0.150  12.257  0.0640  0.2207  0.2051
  736MPD2    C310876   2.015   0.083  12.297 -0.7870 -0.2060  0.4058
  736MPD2    C410877   2.005   0.004  12.419 -0.3929  0.4310 -0.2805
  736MPD2    C510878   1.881   0.005  12.476 -0.1642  0.7264 -0.0367
  736MPD2     H10879   1.917   0.209  12.167 -1.3409 -0.8238 -0.6343
  736MPD2    H110880   2.085   4.661  12.457 -1.4106  0.0027  1.1532
  736MPD2    H210881   1.675   0.049  12.476 -0.0024 -0.7841  0.7157
  736MPD2    H310882   1.864   4.663  12.564  1.0736  2.8174  1.6614
  736MPD2     N10883   2.126   0.088  12.210 -0.4033 -0.4103  0.0844
  736MPD2    H510884   2.126   0.147  12.128  1.7655 -0.8411 -0.2333
  736MPD2    N110885   1.669   0.218  12.260  0.3126 -0.2461 -0.2494
  736MPD2    H710886   1.676   0.268  12.172  2.0259  1.1933  0.6972
  737TMC3    C110887   2.342   0.031  12.135 -0.0496 -0.3251  0.4104
  737TMC3    C210888   2.370   0.160  12.093  0.6017  0.7536 -0.5777
  737TMC3    C310889   2.484   0.182  12.024 -0.1253 -0.4493  0.2489
  737TMC3    C410890   2.427   4.642  12.092 -0.4836 -0.6611 -0.6802
  737TMC3    C510891   2.544   4.676  12.027  0.2215 -0.5181 -0.2877
  737TMC3    C610892   2.577   0.080  11.994 -1.1257  0.3646 -0.4093
  737TMC3     C10893   2.238   0.008  12.225  1.1780 -0.2648 -0.1560
  737TMC3     O10894   2.253   4.630  12.296  0.1314  0.4516 -0.0730
  737TMC3     H10895   2.324   0.241  12.148  2.4923  2.6182 -1.7249
  737TMC3    H110896   2.407   4.538  12.115  1.1060 -1.0543 -1.0775
  737TMC3    H210897   2.671   0.115  11.951 -2.0535  2.0084 -1.0860
  737TMC3    C710898   2.634   4.563  11.980  0.3426  0.4053 -0.1367
  737TMC3    C810899   2.469   0.289  11.919  0.7247 -0.3549  0.3773
  737TMC3    O110900   2.621   4.451  12.030  0.1809 -0.6070  0.1128
  737TMC3    O210901   2.515   0.258  11.807 -0.5879  0.6114 -0.3707
  738MPD2     C10902   2.509   3.690  15.570  0.3220 -0.2919 -0.1834
  738MPD2    C110903   2.482   3.661  15.438  0.1743 -0.5522 -0.6096
  738MPD2    C210904   2.576   3.699  15.340 -0.5359 -0.1742 -0.0761
  738MPD2    C310905   2.686   3.778  15.376  0.2100 -0.3798  0.6288
  738MPD2    C410906   2.707   3.811  15.502 -0.5900 -0.0667 -0.1484
  738MPD2    C510907   2.621   3.761  15.598  0.1916  0.0454  0.1715
  738MPD2     H10908   2.551   3.677  15.237  0.5564 -2.5914  0.1709
  738MPD2    H110909   2.791   3.871  15.536 -0.0303 -1.3905  0.8367
  738MPD2    H210910   2.445   3.654  15.650  0.2514 -0.2983 -0.2428
  738MPD2    H310911   2.633   3.801  15.698  1.7320  0.0483 -0.0272
  738MPD2     N10912   2.780   3.822  15.281  0.2918  0.4730 -0.1196
  738MPD2    H510913   2.863   3.869  15.317  1.2274  0.0135 -1.6833
  738MPD2    N110914   2.377   3.581  15.397  0.0544  0.7399  0.2877
  738MPD2    H710915   2.375   3.571  15.296  0.2320  0.9293  0.2637
  739TMC3    C110916   2.871   3.878  15.059 -0.4234  0.4150  0.1276
  739TMC3    C210917   2.842   3.884  14.924 -0.5114  0.6839 -0.8266
  739TMC3    C310918   2.945   3.897  14.834 -0.2495 -0.4040 -0.2490
  739TMC3    C410919   2.995   3.888  15.102 -0.0514  0.4581  0.1576
  739TMC3    C510920   3.102   3.906  15.013  0.6259  0.9213  0.2200
  739TMC3    C610921   3.073   3.905  14.876 -0.7424 -0.4254 -0.5273
  739TMC3     C10922   2.772   3.812  15.140 -0.5625 -0.0248  0.0125
  739TMC3     O10923   2.685   3.750  15.079  0.1877  0.1699  0.0419
  739TMC3     H10924   2.742   3.876  14.881 -1.9720  1.9786  2.3126
  739TMC3    H110925   3.014   3.868  15.207  2.0808  1.0295 -0.1185
  739TMC3    H210926   3.152   3.897  14.802 -1.3857 -0.3203 -1.2240
  739TMC3    C710927   3.236   3.852  15.045  0.1788  0.8453 -0.5250
  739TMC3    C810928   2.912   3.922  14.697 -0.4087  0.0311  0.3783
  739TMC3    O110929   3.233   3.748  15.107 -0.5111 -0.2639  0.2256
  739TMC3    O210930   2.803   3.969  14.665  0.0297 -0.4422  0.4853
  740TMC3    C110931   3.330   0.492  14.203 -0.4640  0.6215  0.6912
  740TMC3    C210932   3.396   0.454  14.317  0.2724  0.1046 -0.0451
  740TMC3    C310933   3.518   0.391  14.304  0.5340  0.5975  0.6088
  740TMC3    C410934   3.379   0.477  14.073 -0.1666 -0.3478 -0.9560
  740TMC3    C510935   3.501   0.420  14.063 -0.5205  0.0734 -0.4193
  740TMC3    C610936   3.573   0.372  14.178 -0.2222  0.0793  0.4358
  740TMC3     C10937   3.199   0.543  14.214  0.0399 -0.4286 -0.1480
  740TMC3     O10938   3.152   0.618  14.125  0.2681 -0.2233  0.0212
  740TMC3     H10939   3.365   0.491  14.414 -0.7082 -1.3159  0.1879
  740TMC3    H110940   3.323   0.498  13.983  0.2199 -0.3309 -1.1935
  740TMC3    H210941   3.675   0.334  14.176 -0.4562 -0.3266 -3.1551
  740TMC3    C710942   3.563   0.387  13.937  0.3801  0.8186  0.2576
  740TMC3    C810943   3.568   0.307  14.415 -0.1865  0.3251 -0.9010
  740TMC3    O110944   3.664   0.314  13.938 -0.6038 -0.1101 -0.4077
  740TMC3    O210945   3.515   0.308  14.526 -0.2087  0.3939  0.1544
  741TMC3    C110946   2.865   4.320  14.742  0.5389 -0.4895 -0.3835
  741TMC3    C210947   2.780   4.314  14.637 -0.2910  0.4876  0.1407
  741TMC3    C310948   2.656   4.257  14.653 -0.5852  0.7381 -0.3288
  741TMC3    C410949   2.826   4.273  14.862  0.3111 -0.2999  0.2881
  741TMC3    C510950   2.702   4.203  14.871  0.9586  0.1278 -0.1608
  741TMC3    C610951   2.620   4.203  14.766  0.0860  0.0073 -0.0598
  741TMC3     C10952   3.006   4.357  14.725 -0.3905 -0.2500  1.1847
  741TMC3     O10953   3.093   4.298  14.787 -0.0323 -0.1126  0.0895
  741TMC3     H10954   2.810   4.343  14.537  0.6417  1.3294  0.6632
  741TMC3    H110955   2.905   4.269  14.937  0.8564  3.8064 -0.0434
  741TMC3    H210956   2.523   4.154  14.765 -0.2447  0.6352  1.5103
  741TMC3    C710957   2.639   4.175  14.998  0.3391 -0.8716  0.3886
  741TMC3    C810958   2.577   4.224  14.536 -0.8834 -0.2571 -0.7804
  741TMC3    O110959   2.522   4.137  14.992 -0.2093 -0.5839  0.5295
  741TMC3    O210960   2.467   4.272  14.527  0.2823  0.4844  0.4071
  742TMC3    C110961   2.326   2.956  15.290 -0.4398  0.2170 -0.0152
  742TMC3    C210962   2.252   2.953  15.173  0.2619  0.5059  0.5536
  742TMC3    C310963   2.311   2.986  15.060 -0.6265 -0.0778  0.4532
  742TMC3    C410964   2.459   2.999  15.282 -0.2308  0.6022 -0.7819
  742TMC3    C510965   2.518   3.038  15.167  0.0568  0.3638 -0.0623
  742TMC3    C610966   2.446   3.027  15.049 -0.0964 -0.0522 -0.5836
  742TMC3     C10967   2.270   2.931  15.421  0.3878  0.5161  0.4881
  742TMC3     O10968   2.149   2.939  15.423 -0.6990 -0.0611 -0.1206
  742TMC3     H10969   2.151   2.915  15.175 -0.0103  1.2391  0.9239
  742TMC3    H110970   2.515   3.016  15.374  0.2404  2.0372 -1.3256
  742TMC3    H210971   2.503   3.036  14.958 -0.5201  1.7976 -0.6782
  742TMC3    C710972   2.659   3.012  15.152 -0.8874 -0.1103 -0.2583
  742TMC3    C810973   2.249   2.961  14.929  0.6071 -0.7757  0.6546
  742TMC3    O110974   2.693   2.925  15.071 -0.0742  0.5303  0.9687
  742TMC3    O210975   2.332   2.940  14.840 -0.3155 -0.7187  0.2703
  743MPD2     C10976   1.282   3.277   1.511 -0.1376  0.3717  0.8573
  743MPD2    C110977   1.236   3.400   1.555  0.5988 -0.0853 -0.8760
  743MPD2    C210978   1.315   3.480   1.627 -0.3455  0.1888 -0.7975
  743MPD2    C310979   1.437   3.431   1.661  0.6100  0.6050 -0.0752
  743MPD2    C410980   1.487   3.302   1.628 -0.0709  0.2126  0.3965
  743MPD2    C510981   1.408   3.226   1.544 -0.2747  0.4469 -0.9991
  743MPD2     H10982   1.286   3.582   1.653 -0.4385 -0.0467  0.0265
  743MPD2    H110983   1.590   3.274   1.648  0.3893  0.4287 -1.6999
  743MPD2    H210984   1.222   3.214   1.446 -0.2994  0.4444  0.9339
  743MPD2    H310985   1.446   3.132   1.505  0.1397  0.6840 -1.1659
  743MPD2     N10986   1.525   3.528   1.722 -0.1128 -0.1211  0.3215
  743MPD2    H510987   1.495   3.624   1.707 -1.6601 -0.7046 -0.3099
  743MPD2    N110988   1.102   3.438   1.526 -0.1076 -0.3718  0.3237
  743MPD2    H710989   1.049   3.374   1.467  0.8232 -0.5533 -0.3159
  744TMC3    C110990   0.911   3.568   1.514  0.1327 -0.0175 -0.0266
  744TMC3    C210991   0.810   3.628   1.586 -0.2625 -0.2772 -0.4964
  744TMC3    C310992   0.701   3.673   1.516  0.6785  0.1012 -0.1231
  744TMC3    C410993   0.915   3.561   1.379 -0.1738  0.0855  0.1153
  744TMC3    C510994   0.804   3.608   1.313 -1.2007  0.0801  0.4221
  744TMC3    C610995   0.697   3.659   1.382  0.5470 -0.3278  0.0567
  744TMC3     C10996   1.033   3.550   1.576  0.5020 -0.4604  0.0441
  744TMC3     O10997   1.062   3.621   1.672 -0.2732  0.4997 -0.3621
  744TMC3     H10998   0.811   3.634   1.694 -2.5435  1.0439 -0.5516
  744TMC3    H110999   0.999   3.512   1.331  0.0966 -0.7800  1.4849
  744TMC3    H211000   0.618   3.700   1.320 -0.1000 -0.1043  1.0374
  744TMC3    C711001   0.799   3.593   1.169  0.5880 -0.2473  0.2004
  744TMC3    C811002   0.619   3.791   1.566  0.2407  0.3972 -0.5002
  744TMC3    O111003   0.709   3.648   1.111 -0.1296 -0.3310 -0.4542
  744TMC3    O211004   0.531   3.823   1.486  0.0389  0.7491  0.3272
  745TMC3    C111005   2.772   2.783  13.583 -0.2142  0.3017 -0.3321
  745TMC3    C211006   2.676   2.711  13.640  0.4292 -0.2824  0.4627
  745TMC3    C311007   2.544   2.740  13.617 -0.7096 -0.2833  0.0895
  745TMC3    C411008   2.741   2.888  13.502  0.3834 -0.1540 -0.2793
  745TMC3    C511009   2.612   2.902  13.465 -0.1270  0.0018 -0.1842
  745TMC3    C611010   2.507   2.831  13.518 -0.3073  0.1149 -0.2255
  745TMC3     C11011   2.902   2.784  13.665 -0.1609  0.3817  0.1232
  745TMC3     O11012   2.891   2.745  13.781 -0.5293 -0.1318 -0.6205
  745TMC3     H11013   2.703   2.625  13.700  0.7952 -0.7850 -0.4337
  745TMC3    H111014   2.817   2.954  13.463  0.6817 -0.1512  0.3222
  745TMC3    H211015   2.405   2.851  13.488 -0.3421 -0.1768 -0.2995
  745TMC3    C711016   2.591   3.020  13.382 -0.5516 -0.1550  0.1284
  745TMC3    C811017   2.465   2.757  13.740  0.2975  0.0242 -0.1321
  745TMC3    O111018   2.485   3.080  13.388 -0.5677 -0.4368 -0.4437
  745TMC3    O211019   2.361   2.822  13.717  0.5238  0.1355 -0.2560
  746TMC3    C111020   0.770   4.593  10.700 -0.1561  0.6718  0.0600
  746TMC3    C211021   0.864   4.611  10.604 -0.1108  0.5389  0.2538
  746TMC3    C311022   0.916   4.497  10.548 -0.1554  0.4830  0.2490
  746TMC3    C411023   0.732   4.474  10.761 -0.7606  0.0225 -0.6392
  746TMC3    C511024   0.772   4.363  10.691 -0.4203 -0.5350 -0.2846
  746TMC3    C611025   0.858   4.375  10.582  0.2406 -0.9153 -0.6736
  746TMC3     C11026   0.735   0.004  10.755 -0.5234  0.1295 -0.6638
  746TMC3     O11027   0.724   0.003  10.878 -0.0201  0.3221  0.1623
  746TMC3     H11028   0.916   4.705  10.590 -0.3626  0.5922 -0.3174
  746TMC3    H111029   0.661   4.478  10.843 -0.5347  0.1250 -0.4487
  746TMC3    H211030   0.904   4.288  10.537  0.4069 -0.8817 -0.5681
  746TMC3    C711031   0.715   4.232  10.722 -0.0677  0.1335 -0.1801
  746TMC3    C811032   1.007   4.504  10.435 -0.2150  0.6114 -0.1613
  746TMC3    O111033   0.710   4.156  10.625 -0.0921  0.4191 -0.1786
  746TMC3    O211034   1.064   4.400  10.410  0.5796  0.4055  0.4145
  747TMC3    C111035   3.274   4.675  11.130  0.0378  0.2003  0.2595
  747TMC3    C211036   3.195   4.593  11.195  0.2794  0.4992 -0.3690
  747TMC3    C311037   3.115   4.639  11.297 -0.1625  0.5791 -0.1247
  747TMC3    C411038   3.273   0.087  11.157  0.2017  0.2759 -0.2431
  747TMC3    C511039   3.185   0.134  11.252  0.0794  0.5389 -1.1442
  747TMC3    C611040   3.103   0.052  11.324  0.2409  0.4490  0.3429
  747TMC3     C11041   3.356   4.624  11.021 -0.7862  0.3186 -0.0801
  747TMC3     O11042   3.439   4.706  10.975  0.1389  0.1444  0.1226
  747TMC3     H11043   3.212   4.486  11.194  1.6087  0.6982  0.1505
  747TMC3    H111044   3.337   0.158  11.106 -0.7594  0.7653 -0.7650
  747TMC3    H211045   3.035   0.094  11.398 -2.0473 -0.4951 -1.2094
  747TMC3    C711046   3.186   0.279  11.284 -0.3783 -0.1934 -0.2045
  747TMC3    C811047   3.058   4.536  11.386 -0.5889  0.3430 -0.4395
  747TMC3    O111048   3.080   0.329  11.313 -0.2710 -0.9068 -0.3800
  747TMC3    O211049   3.085   4.418  11.380  0.7630  0.2845 -0.0230
  748MPD2     C11050   4.474   0.245   0.999  0.0849 -0.2769  0.1288
  748MPD2    C111051   4.504   0.291   1.125  0.5578  0.3766  0.1958
  748MPD2    C211052   4.571   0.411   1.140 -0.0004 -0.6683  0.9385
  748MPD2    C311053   4.614   0.482   1.029  0.2683  0.2264  0.5985
  748MPD2    C411054   4.589   0.430   0.904  0.1336  0.1593 -0.1051
  748MPD2    C511055   4.510   0.319   0.890  0.0031 -0.5711  0.0642
  748MPD2     H11056   4.594   0.446   1.240  0.1441 -2.3652  1.5012
  748MPD2    H111057   4.629   0.476   0.814 -2.0633 -1.1437 -1.7704
  748MPD2    H211058   4.407   0.161   0.987  1.6146 -1.3277 -1.0551
  748MPD2    H311059   4.491   0.280   0.790  1.1656  0.2076 -0.4632
  748MPD2     N11060   4.685   0.596   1.051 -0.2569  0.5854 -0.6589
  748MPD2    H511061   4.696   0.612   1.151  0.9425 -0.6410 -0.5957
  748MPD2    N111062   4.472   0.202   1.236 -0.3191 -0.2235  0.0159
  748MPD2    H711063   4.418   0.118   1.216 -0.3081 -0.3328  0.4428
  749TMC3    C111064   0.062   0.804   1.021 -0.4418  0.4250  0.1548
  749TMC3    C211065   0.169   0.771   1.096  0.9571  0.1463  0.2318
  749TMC3    C311066   0.272   0.857   1.112 -0.1709 -0.6942 -0.1692
  749TMC3    C411067   0.065   0.925   0.947  0.1257 -0.1418  0.4807
  749TMC3    C511068   0.167   1.015   0.970  0.1069 -0.0140  0.1902
  749TMC3    C611069   0.265   0.982   1.064  0.3404  0.3746 -0.5734
  749TMC3     C11070   4.701   0.700   0.965  1.5733 -0.2231 -0.1500
  749TMC3     O11071   4.672   0.711   0.848 -0.1401  0.0290  0.0470
  749TMC3     H11072   0.178   0.679   1.151 -1.4174  0.3373  0.9226
  749TMC3    H111073   4.690   0.954   0.901 -0.0112 -1.0657  0.1786
  749TMC3    H211074   0.343   1.053   1.088 -1.5064  1.8878  0.8885
  749TMC3    C711075   0.150   1.152   0.931  0.0874  0.0176 -0.2375
  749TMC3    C811076   0.378   0.825   1.207 -0.4808 -1.1164  0.4382
  749TMC3    O111077   0.205   1.230   1.003 -0.5868  0.1438 -0.1718
  749TMC3    O211078   0.407   0.916   1.279  0.3367 -0.4174  0.0541
  750MPD2     C11079   1.481   1.874  10.984  0.0432 -0.5568 -0.1704
  750MPD2    C111080   1.374   1.812  11.047  0.2416  0.0006  0.3627
  750MPD2    C211081   1.318   1.695  10.994  0.4568 -0.5357 -0.0145
  750MPD2    C311082   1.368   1.644  10.871  0.2071  0.8191  0.4731
  750MPD2    C411083   1.478   1.707  10.812  0.1175 -0.7374  0.4365
  750MPD2    C511084   1.531   1.816  10.868  0.0671 -0.7434 -0.4725
  750MPD2     H11085   1.245   1.642  11.054  2.0435 -1.9924  0.6238
  750MPD2    H111086   1.528   1.665  10.725  2.1014  0.3278  1.0588
  750MPD2    H211087   1.524   1.968  11.017 -2.5595  0.6150 -0.0930
  750MPD2    H311088   1.622   1.861  10.831  1.0738 -1.1766  1.4642
  750MPD2     N11089   1.312   1.532  10.798 -0.0700  0.1969  0.0420
  750MPD2    H511090   1.376   1.508  10.722  1.5011  0.0752  1.4060
  750MPD2    N111091   1.338   1.869  11.174  0.2507  0.1785  0.2601
  750MPD2    H711092   1.389   1.954  11.196 -0.0661 -0.2015  2.4422
  751TMC3    C111093   1.152   1.382  10.716  1.0424  0.8508  0.8638
  751TMC3    C211094   1.017   1.367  10.701  0.1544  0.2930  0.1625
  751TMC3    C311095   0.971   1.302  10.593  0.1660 -0.2807  0.4800
  751TMC3    C411096   1.237   1.344  10.616 -0.0789 -0.1962  0.3083
  751TMC3    C511097   1.188   1.301  10.500 -0.1658  0.0910 -0.1788
  751TMC3    C611098   1.054   1.277  10.484  0.1951  0.2445 -0.2600
  751TMC3     C11099   1.196   1.464  10.827 -0.4576  0.4047 -0.3228
  751TMC3     O11100   1.117   1.487  10.916 -0.1608 -0.3730 -0.2246
  751TMC3     H11101   0.960   1.366  10.793 -2.1075 -0.2029 -1.2473
  751TMC3    H111102   1.342   1.351  10.640  0.1635  0.8526 -1.0473
  751TMC3    H211103   1.012   1.260  10.386 -1.6532  0.0021  0.5820
  751TMC3    C711104   1.279   1.292  10.388 -0.1584  0.5423 -0.1183
  751TMC3    C811105   0.848   1.225  10.595  0.3404  0.5666 -0.3435
  751TMC3    O111106   1.367   1.379  10.390 -0.1884  0.0285  0.1041
  751TMC3    O211107   0.846   1.132  10.513  0.2903 -0.1254  0.2167
  752TMC3    C111108   3.955   2.318  17.133  0.2516  0.7564  0.2389
  752TMC3    C211109   3.959   2.190  17.186  0.0256  0.0866 -0.2004
  752TMC3    C311110   3.912   2.182  17.315  0.2176 -0.5228 -0.0519
  752TMC3    C411111   3.953   2.434  17.209 -0.4623  0.2981  0.2958
  752TMC3    C511112   3.902   2.419  17.335 -0.2761  0.0568 -0.5795
  752TMC3    C611113   3.876   2.292  17.387 -0.1238  1.1429 -0.5142
  752TMC3     C11114   3.999   2.343  16.999 -0.8972 -0.0114 -0.7056
  752TMC3     O11115   4.078   2.438  16.982 -0.3981 -0.2059 -0.6179
  752TMC3     H11116   3.962   2.101  17.124  1.0338  0.8563 -1.2564
  752TMC3    H111117   3.968   2.529  17.158 -0.2041  0.5896  0.9220
  752TMC3    H211118   3.808   2.294  17.471 -0.8217 -0.8851 -1.0164
  752TMC3    C711119   3.858   2.536  17.408 -0.5568 -0.2683 -0.3608
  752TMC3    C811120   3.890   2.047  17.369 -0.7521 -0.6674 -0.6246
  752TMC3    O111121   3.833   2.633  17.341 -0.5098 -0.2893 -0.1427
  752TMC3    O211122   3.883   1.949  17.293  0.3064  0.1590  0.1833
  753TMC3    C111123   1.344   2.914  13.555 -0.7766 -0.3056 -0.5950
  753TMC3    C211124   1.264   2.917  13.666  0.0322 -0.4944 -0.4876
  753TMC3    C311125   1.177   2.811  13.681 -0.9244 -0.1473  0.5508
  753TMC3    C411126   1.362   2.800  13.475 -0.3550 -1.2047  0.2698
  753TMC3    C511127   1.291   2.688  13.520  0.0607 -0.0294  0.5214
  753TMC3    C611128   1.184   2.700  13.606 -0.1912  0.3617 -0.4649
  753TMC3     C11129   1.427   3.027  13.532 -0.2303  0.2467 -0.7211
  753TMC3     O11130   1.378   3.137  13.536  0.5494  0.7210  0.1025
  753TMC3     H11131   1.243   3.011  13.715 -0.4669 -2.4070  2.9974
  753TMC3    H111132   1.420   2.797  13.384 -0.3744 -1.2947  0.2599
  753TMC3    H211133   1.125   2.615  13.639 -0.8241  1.4088  1.0929
  753TMC3    C711134   1.302   2.570  13.450 -0.1195  0.9200  1.1992
  753TMC3    C811135   1.118   2.790  13.809 -0.2331 -0.2232 -0.4060
  753TMC3    O111136   1.206   2.495  13.453  0.1070 -0.5862 -0.6450
  753TMC3    O211137   1.029   2.708  13.831  0.1752 -0.0731  0.3160
  754MPD2     C11138   0.479   1.281  12.716  0.5279  0.3311  0.0664
  754MPD2    C111139   0.397   1.175  12.686 -0.2797  0.5123 -0.5690
  754MPD2    C211140   0.260   1.189  12.703 -0.6409 -0.4257 -0.0265
  754MPD2    C311141   0.211   1.301  12.769 -0.0863  0.1236 -0.3295
  754MPD2    C411142   0.295   1.399  12.802 -0.4812  0.1188  0.0546
  754MPD2    C511143   0.428   1.391  12.781 -0.4267 -0.7755  0.7028
  754MPD2     H11144   0.194   1.113  12.663  0.2907 -0.3048 -1.8419
  754MPD2    H111145   0.254   1.483  12.856  0.7253  0.7946 -0.0819
  754MPD2    H211146   0.586   1.264  12.720  0.2069 -1.1532  1.7803
  754MPD2    H311147   0.501   1.463  12.817  0.3964 -1.2242 -0.0613
  754MPD2     N11148   0.074   1.316  12.804 -0.5356  0.7558 -0.0056
  754MPD2    H511149   0.051   1.398  12.859  1.1597  0.8504  0.5530
  754MPD2    N111150   0.458   1.061  12.624 -0.2235 -0.4312  0.0046
  754MPD2    H711151   0.547   1.091  12.587  0.6215  0.1297  2.5339
  755MPD2     C11152   4.172   1.847  13.170 -0.4932 -0.2585 -0.8987
  755MPD2    C111153   4.223   1.775  13.274 -0.6854  0.2270 -0.0368
  755MPD2    C211154   4.313   1.673  13.239 -0.1036 -0.2799 -0.4496
  755MPD2    C311155   4.354   1.659  13.107  0.4442 -0.2839  0.3408
  755MPD2    C411156   4.323   1.759  13.017  0.0877  0.4230  0.2313
  755MPD2    C511157   4.227   1.849  13.048 -0.2899 -0.6929  0.8484
  755MPD2     H11158   4.349   1.605  13.316 -1.0499 -0.4336 -0.1413
  755MPD2    H111159   4.346   1.747  12.912  1.9242 -1.7587  0.8856
  755MPD2    H211160   4.094   1.922  13.180 -0.7785 -0.5985 -0.5550
  755MPD2    H311161   4.196   1.918  12.971  2.2485 -0.6218 -0.1175
  755MPD2     N11162   4.432   1.557  13.057 -0.5376 -0.1235  0.7715
  755MPD2    H511163   4.459   1.556  12.959 -1.4586 -0.7103  0.5318
  755MPD2    N111164   4.168   1.785  13.405  0.4923  0.2292 -0.3181
  755MPD2    H711165   4.211   1.724  13.474 -2.2909  1.1454  2.1859
  756MPD2     C11166   1.539   1.816   9.272 -0.4650 -0.1641  0.0438
  756MPD2    C111167   1.414   1.797   9.330 -0.1767  0.0970 -0.4836
  756MPD2    C211168   1.324   1.720   9.270  0.2343  0.0849  0.2675
  756MPD2    C311169   1.361   1.646   9.157 -0.1146 -0.3053 -0.1148
  756MPD2    C411170   1.490   1.652   9.106  0.3283  0.4309  0.0230
  756MPD2    C511171   1.576   1.739   9.164  0.4034 -0.4440 -0.0686
  756MPD2     H11172   1.227   1.698   9.314  0.3115  0.4894  0.6336
  756MPD2    H111173   1.532   1.585   9.033  0.7338  0.9989 -0.2656
  756MPD2    H211174   1.609   1.890   9.309  0.1552 -0.4571 -0.5365
  756MPD2    H311175   1.672   1.754   9.115  1.4241 -0.5093  1.9196
  756MPD2     N11176   1.273   1.552   9.103 -0.9301 -0.0194 -0.2561
  756MPD2    H511177   1.183   1.559   9.150 -1.1515  0.5777 -0.7634
  756MPD2    N111178   1.370   1.856   9.449  0.4920 -0.1917 -0.3096
  756MPD2    H711179   1.281   1.830   9.489  0.5424  1.3886  0.8505
  757MPD2     C11180   0.320   1.407   8.892  0.8206  1.1487  1.1337
  757MPD2    C111181   0.355   1.289   8.940  0.2647 -0.2509  0.0133
  757MPD2    C211182   0.494   1.275   8.959 -0.2930  0.1034  0.5018
  757MPD2    C311183   0.589   1.365   8.915 -0.0242  0.2958  0.7967
  757MPD2    C411184   0.553   1.481   8.859 -0.9945  0.1870 -0.6002
  757MPD2    C511185   0.415   1.506   8.862  0.6044 -0.0210 -0.0700
  757MPD2     H11186   0.539   1.195   9.017  0.7960 -0.2878 -0.8826
  757MPD2    H111187   0.625   1.553   8.822  0.0241  0.8782  2.7146
  757MPD2    H211188   0.216   1.425   8.869  0.0194 -0.4734  3.5595
  757MPD2    H311189   0.390   1.605   8.825  1.7171  0.5755  0.7629
  757MPD2     N11190   0.725   1.332   8.933 -0.4981 -0.3505 -0.1110
  757MPD2    H511191   0.748   1.250   8.989 -0.7722 -0.8760 -0.7786
  757MPD2    N111192   0.254   1.204   8.993 -0.4812  0.3342  0.3939
  757MPD2    H711193   0.157   1.230   8.978 -0.8562 -1.8030 -0.8427
  758MPD2     C11194   4.683   1.231  15.858 -0.0082  0.6551 -0.1631
  758MPD2    C111195   0.029   1.172  15.959 -0.0030 -0.0982 -0.3817
  758MPD2    C211196   4.693   1.151  16.078  0.1088  0.6387 -0.3904
  758MPD2    C311197   4.575   1.216  16.109  0.7167  0.1203 -0.2817
  758MPD2    C411198   4.515   1.291  16.004  0.3142  0.9943 -0.2362
  758MPD2    C511199   4.564   1.288  15.880 -0.1978  0.5414  0.0809
  758MPD2     H11200   0.018   1.092  16.157  0.3956  0.4234 -0.7105
  758MPD2    H111201   4.425   1.350  16.017  0.9065  2.1943 -1.5381
  758MPD2    H211202   0.011   1.234  15.760 -1.1089 -2.0723 -0.7715
  758MPD2    H311203   4.508   1.339  15.803 -0.6454 -1.4971 -0.9640
  758MPD2     N11204   4.522   1.206  16.234 -0.3590  0.0309  0.3527
  758MPD2    H511205   4.421   1.204  16.227 -0.3409 -1.9305  0.5234
  758MPD2    N111206   0.157   1.118  15.931  0.2266  0.6927  0.1519
  758MPD2    H711207   0.191   1.123  15.835  1.2143 -0.8137  0.4282
  759MPD2     C11208   0.486   3.323   9.737 -0.3426  0.0007  0.4207
  759MPD2    C111209   0.345   3.324   9.737  0.9742 -0.3615  0.0595
  759MPD2    C211210   0.278   3.424   9.665  0.0456 -0.2881  0.4459
  759MPD2    C311211   0.345   3.518   9.587 -0.6722 -0.6938  0.6544
  759MPD2    C411212   0.488   3.529   9.602  0.2054  0.1461  0.8352
  759MPD2    C511213   0.552   3.421   9.671 -0.2699  0.1575 -0.2364
  759MPD2     H11214   0.171   3.419   9.648 -0.1369  2.9754  0.6738
  759MPD2    H111215   0.545   3.614   9.568  1.5654 -1.4310 -0.8105
  759MPD2    H211216   0.546   3.252   9.793 -0.1949  0.9083  1.4189
  759MPD2    H311217   0.659   3.439   9.677 -0.4625  0.3497  2.3530
  759MPD2     N11218   0.268   3.626   9.543  0.2301  0.4204 -0.5323
  759MPD2    H511219   0.170   3.625   9.572 -0.2325  4.6843 -2.0044
  759MPD2    N111220   0.262   3.239   9.814 -0.1930  0.6504 -0.0833
  759MPD2    H711221   0.167   3.272   9.824  0.0341  0.7050  1.8793
  760MPD2     C11222   3.470   1.384  11.466  0.5091  0.3247  0.9298
  760MPD2    C111223   3.604   1.360  11.447  0.6472  0.2322 -0.1609
  760MPD2    C211224   3.678   1.281  11.535  0.6438 -0.3216 -0.3483
  760MPD2    C311225   3.602   1.231  11.642  0.6281 -0.0616 -0.1984
  760MPD2    C411226   3.474   1.261  11.665  0.5001 -0.1731  0.9681
  760MPD2    C511227   3.403   1.329  11.572  0.8465 -0.9672 -0.4742
  760MPD2     H11228   3.785   1.271  11.521  0.8127  0.9210 -0.0032
  760MPD2    H111229   3.419   1.236  11.755 -0.5884 -1.7598 -0.1448
  760MPD2    H211230   3.418   1.444  11.392 -2.1111  0.4007  2.8219
  760MPD2    H311231   3.299   1.361  11.580  1.6754  2.2046 -2.2033
  760MPD2     N11232   3.649   1.153  11.752 -0.3931  0.8062 -0.4470
  760MPD2    H511233   3.575   1.138  11.819  0.1634 -1.2114 -0.2986
  760MPD2    N111234   3.671   1.433  11.347 -0.2835 -0.2407  0.0872
  760MPD2    H711235   3.772   1.435  11.354 -0.3851 -0.9105  1.5734
  761MPD2     C11236   0.404   1.103  10.806 -0.1336 -0.2013 -0.0377
  761MPD2    C111237   0.480   1.038  10.712  0.3725 -0.2435 -0.7282
  761MPD2    C211238   0.596   1.086  10.667  0.0074  0.3576 -0.4270
  761MPD2    C311239   0.634   1.217  10.708 -0.3589  0.4867 -1.0288
  761MPD2    C411240   0.557   1.292  10.793  0.2999 -0.0301  0.3697
  761MPD2    C511241   0.446   1.231  10.844 -0.9038 -0.1718 -0.0620
  761MPD2     H11242   0.665   1.026  10.609 -0.2375 -0.1110 -0.2244
  761MPD2    H111243   0.593   1.382  10.843 -0.5010  0.4455  0.0974
  761MPD2    H211244   0.310   1.068  10.847 -0.1004  0.0309  0.2412
  761MPD2    H311245   0.379   1.282  10.912 -1.5284 -1.6794  0.4532
  761MPD2     N11246   0.760   1.272  10.683 -0.5986 -0.0017 -0.3447
  761MPD2    H511247   0.784   1.349  10.745  4.6420 -1.9014 -0.0256
  761MPD2    N111248   0.449   0.910  10.650 -0.6562  0.2244 -0.5296
  761MPD2    H711249   0.510   0.875  10.577 -0.9869 -1.9559  0.2241
  762MPD2     C11250   0.491   0.994  10.130 -0.6921 -0.1343  0.2447
  762MPD2    C111251   0.474   0.858  10.127  0.8548  1.1738 -0.2538
  762MPD2    C211252   0.580   0.782  10.083  0.4175  0.5126 -0.2806
  762MPD2    C311253   0.702   0.838  10.041 -0.3256 -0.0816  0.2772
  762MPD2    C411254   0.708   0.977  10.038  0.4512 -0.2546 -0.1788
  762MPD2    C511255   0.599   1.051  10.086  0.2797 -0.1783 -0.2786
  762MPD2     H11256   0.565   0.675  10.074 -0.4975  0.4527  1.9436
  762MPD2    H111257   0.799   1.029  10.012  1.5815 -2.2575 -0.1913
  762MPD2    H211258   0.416   1.057  10.177  0.0170  0.4657  0.5716
  762MPD2    H311259   0.597   1.160  10.078  2.3352 -0.0275  1.1490
  762MPD2     N11260   0.815   0.755  10.020  0.0639  0.3048  0.1138
  762MPD2    H511261   0.808   0.655  10.032  0.3363  0.5395  2.3358
  762MPD2    N111262   0.361   0.799  10.196 -0.5026  0.6643 -0.2257
  762MPD2    H711263   0.295   0.865  10.238  0.3138  0.6219  1.1421
  763MPD2     C11264   2.432   0.878  16.145  0.3643 -0.3625 -0.1839
  763MPD2    C111265   2.345   0.986  16.121 -0.0257 -0.4904  0.1545
  763MPD2    C211266   2.346   1.094  16.202 -0.0238 -0.5457  0.2589
  763MPD2    C311267   2.441   1.101  16.301  0.6514  0.0589  0.6491
  763MPD2    C411268   2.550   1.016  16.297  0.2716  0.0578 -0.0360
  763MPD2    C511269   2.544   0.898  16.222  0.3253  0.5801 -0.1873
  763MPD2     H11270   2.261   1.161  16.195  0.0377 -0.7852 -2.7132
  763MPD2    H111271   2.635   1.029  16.363 -0.0575  3.3397 -0.2708
  763MPD2    H211272   2.445   0.787  16.087  2.6732  0.1481 -0.4735
  763MPD2    H311273   2.624   0.825  16.231  0.7722  1.0638 -0.2476
  763MPD2     N11274   2.430   1.181  16.411  0.0904 -0.2364 -0.2669
  763MPD2    H511275   2.514   1.172  16.467 -1.0659 -1.0502  1.3158
  763MPD2    N111276   2.246   0.988  16.024 -0.0128  0.3975  0.1244
  763MPD2    H711277   2.208   1.077  15.994  0.0302  1.0154  1.8998
  764MPD2     C11278   4.187   1.963  17.582 -0.0283  0.1632  0.8002
  764MPD2    C111279   4.249   2.090  17.580  0.0064 -0.4706 -0.1765
  764MPD2    C211280   4.266   2.161   0.021  0.6215 -0.2795  0.0798
  764MPD2    C311281   4.236   2.098   0.140 -0.3769 -0.0897  0.0798
  764MPD2    C411282   4.183   1.969   0.140 -0.3245 -0.5777 -0.0746
  764MPD2    C511283   4.172   1.902   0.023 -0.1672 -0.1693 -0.2699
  764MPD2     H11284   4.305   2.262   0.028 -0.0717  0.0778 -1.0982
  764MPD2    H111285   4.157   1.916   0.231 -1.7709  0.0598 -0.1284
  764MPD2    H211286   4.184   1.897  17.497 -1.4744 -1.1896  1.9184
  764MPD2    H311287   4.127   1.804   0.014 -0.2177  0.0399 -2.3811
  764MPD2     N11288   4.251   2.169   0.257 -0.1010  0.2946  0.4984
  764MPD2    H511289   4.272   2.268   0.248  0.3326 -0.0066 -1.7868
  764MPD2    N111290   4.274   2.157  17.465 -0.4771  0.2114 -0.4230
  764MPD2    H711291   4.307   2.252  17.476  0.4867 -0.1342 -0.3872
  765MPD2     C11292   4.510   0.293  15.587  0.3897  0.8284  0.7620
  765MPD2    C111293   4.604   0.392  15.623  0.2570 -0.1276  0.0172
  765MPD2    C211294   0.012   0.343  15.663  0.0742 -0.0536  0.9953
  765MPD2    C311295   0.046   0.210  15.660 -0.2349  0.0131  0.1167
  765MPD2    C411296   4.668   0.120  15.621  0.3320 -0.8392  0.3106
  765MPD2    C511297   4.542   0.162  15.589  0.0683 -0.7447  0.2282
  765MPD2     H11298   0.090   0.415  15.684  1.0694 -1.3545  1.6485
  765MPD2    H111299   4.676   0.012  15.620 -0.4273 -0.9082  1.2400
  765MPD2    H211300   4.407   0.321  15.570 -0.0534 -0.9528  0.4961
  765MPD2    H311301   4.464   0.091  15.565  0.5312 -0.3790 -2.4455
  765MPD2     N11302   0.180   0.174  15.692 -0.4658 -0.0666  0.5184
  765MPD2    H511303   0.237   0.252  15.724  0.1358 -0.4900  0.4869
  765MPD2    N111304   4.561   0.520  15.632  0.5130 -0.5385  0.3322
  765MPD2    H711305   4.468   0.540  15.597 -0.1525 -1.3840  1.6108
  766MPD2     C11306   4.036   0.735  15.215 -0.5876 -0.5508 -0.0887
  766MPD2    C111307   4.152   0.700  15.277 -0.4854 -0.1476  1.0978
  766MPD2    C211308   4.241   0.613  15.207 -0.6335  0.1982  0.4321
  766MPD2    C311309   4.204   0.558  15.086 -0.0641 -0.1115 -0.3092
  766MPD2    C411310   4.087   0.595  15.029 -0.0111  0.3215  0.0663
  766MPD2    C511311   4.000   0.682  15.093  0.2714  0.6993  0.2963
  766MPD2     H11312   4.329   0.584  15.262 -0.1807 -0.1884 -0.4945
  766MPD2    H111313   4.053   0.545  14.939  1.9821 -0.6525 -0.1388
  766MPD2    H211314   3.958   0.793  15.264 -1.0926  0.2847 -1.8764
  766MPD2    H311315   3.903   0.697  15.047  0.3951  1.5692  0.3252
  766MPD2     N11316   4.292   0.487  15.001  0.4357 -0.1209 -0.8301
  766MPD2    H511317   4.253   0.448  14.916  2.6285 -0.6407 -1.5903
  766MPD2    N111318   4.181   0.758  15.403 -0.2420 -0.0387 -0.3757
  766MPD2    H711319   4.136   0.841  15.441  0.6503 -0.2560  1.1378
  767MPD2     C11320   3.703   0.984  14.793  0.6543 -0.3664 -0.1387
  767MPD2    C111321   3.780   1.017  14.686  0.4554 -0.4742 -0.0309
  767MPD2    C211322   3.859   0.925  14.627  0.2117  0.3249 -0.4644
  767MPD2    C311323   3.841   0.789  14.659  0.2927 -0.1049 -0.0992
  767MPD2    C411324   3.771   0.757  14.776 -0.3626 -0.2241  0.2634
  767MPD2    C511325   3.698   0.855  14.841  0.3149  0.1050  0.0527
  767MPD2     H11326   3.932   0.949  14.550 -0.3383 -0.9528 -1.3861
  767MPD2    H111327   3.761   0.660  14.824  3.1994 -1.2674 -1.1533
  767MPD2    H211328   3.650   1.056  14.854  1.9120  0.7521 -0.3553
  767MPD2    H311329   3.632   0.838  14.925  0.1068  3.4321  0.5612
  767MPD2     N11330   3.910   0.691  14.588  0.1043  0.2886  0.1019
  767MPD2    H511331   3.951   0.722  14.501  0.3677  0.2541  0.2148
  767MPD2    N111332   3.777   1.161  14.654 -0.5107 -0.2112  0.2285
  767MPD2    H711333   3.718   1.211  14.719  0.0478  0.9010 -0.1010
  768MPD2     C11334   0.773   3.766  10.411  0.6048  0.7685  0.4012
  768MPD2    C111335   0.698   3.726  10.519 -0.0701 -0.3817  0.3015
  768MPD2    C211336   0.758   3.752  10.643  0.2614  0.6201 -0.6195
  768MPD2    C311337   0.857   3.838  10.656  0.4342  0.0213 -0.4591
  768MPD2    C411338   0.918   3.884  10.546 -0.1457  0.7733  0.2519
  768MPD2    C511339   0.885   3.845  10.424  0.3649  0.3356  0.0434
  768MPD2     H11340   0.710   3.721  10.735 -0.4807  0.0186 -1.2063
  768MPD2    H111341   1.009   3.942  10.555 -0.3389  1.5505 -2.8494
  768MPD2    H211342   0.729   3.744  10.315  2.1049 -0.3519 -0.0053
  768MPD2    H311343   0.943   3.873  10.337 -0.0944  0.9810 -0.0542
  768MPD2     N11344   0.902   3.884  10.787  0.0043  0.1430 -0.3616
  768MPD2    H511345   0.986   3.941  10.792  0.1507 -0.0559 -0.5565
  768MPD2    N111346   0.572   3.651  10.509  0.4867  0.6131  0.3430
  768MPD2    H711347   0.530   3.605  10.589  1.9594 -0.4360  0.5188
  769MPD2     C11348   1.097   2.073  14.843 -0.1876 -0.0640  0.3221
  769MPD2    C111349   0.976   2.115  14.883  0.1030 -0.3507  0.1801
  769MPD2    C211350   0.979   2.220  14.972  0.1887  0.1816 -0.2130
  769MPD2    C311351   1.096   2.274  15.029 -0.1037  0.1329 -0.3726
  769MPD2    C411352   1.213   2.218  14.990  0.5244  0.4882  0.0159
  769MPD2    C511353   1.213   2.120  14.894  0.2007  0.0424  0.4471
  769MPD2     H11354   0.889   2.269  15.007  2.5562  2.8250  2.2300
  769MPD2    H111355   1.303   2.244  15.044  0.0913  1.0333  0.4688
  769MPD2    H211356   1.110   2.003  14.760 -0.5701 -0.2355  0.4076
  769MPD2    H311357   1.311   2.083  14.866 -0.4289  0.3934 -2.1923
  769MPD2     N11358   1.086   2.362  15.141  0.2587 -0.0288 -0.4222
  769MPD2    H511359   0.989   2.380  15.167  1.0027  0.6219  1.9727
  769MPD2    N111360   0.853   2.050  14.843 -0.1385 -0.4100  0.2212
  769MPD2    H711361   0.855   1.966  14.785 -0.0737  1.4151 -2.4180
  770MPD2     C11362   4.572   1.703  14.959 -0.6115 -0.6110 -0.5364
  770MPD2    C111363   4.688   1.631  14.979 -0.5072  0.3060 -0.1027
  770MPD2    C211364   0.096   1.697  14.997  0.6235 -0.1207 -0.0331
  770MPD2    C311365   0.109   1.828  14.960  0.0615 -0.0109 -0.3558
  770MPD2    C411366   4.712   1.897  14.936  0.5933 -0.3965  0.5278
  770MPD2    C511367   4.588   1.841  14.943  0.1340 -0.6072  0.2022
  770MPD2     H11368   0.189   1.642  14.999 -0.2072 -1.5051  0.2093
  770MPD2    H111369   4.718   1.997  14.895  0.9180 -1.2808 -1.5974
  770MPD2    H211370   4.471   1.666  14.952 -0.7637 -0.3913  0.4721
  770MPD2    H311371   4.500   1.903  14.926  1.6583  1.6183  0.4380
  770MPD2     N11372   0.241   1.866  14.918 -0.2711  0.3718 -1.0104
  770MPD2    H511373   0.315   1.799  14.934 -0.0562  0.6973 -0.6514
  770MPD2    N111374   4.674   1.489  14.996  0.0415 -0.2075  0.2315
  770MPD2    H711375   4.578   1.458  14.990 -0.2559  0.7237  0.1328
  771MPD2     C11376   2.001   4.467  13.553  0.0447  0.3523 -0.2448
  771MPD2    C111377   1.929   4.582  13.533  0.3106 -0.2243 -0.7285
  771MPD2    C211378   1.792   4.576  13.509  0.3115  0.3634  0.0373
  771MPD2    C311379   1.725   4.456  13.508  0.1725  0.2194 -0.3981
  771MPD2    C411380   1.797   4.339  13.530 -0.5926  0.0434  0.1576
  771MPD2    C511381   1.936   4.346  13.537  0.3378 -0.0693  0.1512
  771MPD2     H11382   1.741   4.672  13.513  0.8074  0.6307  0.0138
  771MPD2    H111383   1.748   4.243  13.541  1.7243 -0.9664  1.7700
  771MPD2    H211384   2.109   4.468  13.560  0.1638 -0.7680 -1.9494
  771MPD2    H311385   1.996   4.256  13.547  2.4372  1.4279  0.9233
  771MPD2     N11386   1.590   4.463  13.476  0.0192  0.2665  0.0284
  771MPD2    H511387   1.552   4.541  13.423  0.4731  1.3781  1.3471
  771MPD2    N111388   1.972   4.713  13.538 -0.1714  0.0110  0.2979
  771MPD2    H711389   1.903   0.068  13.531 -1.9135 -1.6662 -0.3260
  772MPD2     C11390   1.746   0.578  13.922 -0.2896  0.2017  0.2174
  772MPD2    C111391   1.739   0.473  13.828  0.4457  0.0244 -0.3033
  772MPD2    C211392   1.612   0.418  13.804 -0.1348  0.4152 -0.1374
  772MPD2    C311393   1.499   0.475  13.867 -0.2515  0.6215  0.1404
  772MPD2    C411394   1.512   0.570  13.962  0.1125 -0.1714  0.4239
  772MPD2    C511395   1.638   0.621  13.993 -0.6157 -0.4968 -0.0811
  772MPD2     H11396   1.597   0.335  13.735 -0.4685  1.9034 -1.8364
  772MPD2    H111397   1.427   0.602  14.021  0.2186 -0.6235  0.8190
  772MPD2    H211398   1.847   0.612  13.941 -0.2579  0.6434 -0.7338
  772MPD2    H311399   1.646   0.692  14.075  1.2730 -0.7063 -0.0846
  772MPD2     N11400   1.370   0.422  13.864  0.1557  0.1346  0.1736
  772MPD2    H511401   1.319   0.451  13.947 -0.7004 -2.2499  0.4789
  772MPD2    N111402   1.847   0.423  13.760 -0.3648 -0.2030 -0.3013
  772MPD2    H711403   1.825   0.339  13.707  0.8111 -0.5207 -0.2778
  773MPD2     C11404   0.444   0.981  17.212  0.4045  0.3820 -0.7341
  773MPD2    C111405   0.371   0.909  17.310 -0.0365  0.0954  0.2424
  773MPD2    C211406   0.450   0.843  17.398 -0.0486 -0.2027 -0.4109
  773MPD2    C311407   0.586   0.846  17.399  0.7672  0.3997  0.9833
  773MPD2    C411408   0.654   0.922  17.306 -0.3299 -0.4516  0.2515
  773MPD2    C511409   0.578   0.992  17.223 -0.7079  0.2951  0.6481
  773MPD2     H11410   0.412   0.777  17.474  1.0605 -2.3346 -1.7127
  773MPD2    H111411   0.761   0.935  17.301 -0.2354 -1.3142  0.1090
  773MPD2    H211412   0.394   1.027  17.127 -0.8728  0.6837  0.1850
  773MPD2    H311413   0.628   1.056  17.151 -0.3869 -0.4982  0.1670
  773MPD2     N11414   0.655   0.791  17.504  0.5436 -0.1446 -0.0766
  773MPD2    H511415   0.595   0.760  17.580  0.8488  0.9918  0.6117
  773MPD2    N111416   0.233   0.905  17.313 -0.7964 -0.3319  0.1378
  773MPD2    H711417   0.195   0.854  17.392 -1.0143 -0.0462  0.2176
  774MPD2     C11418   4.430   0.427  13.066 -0.2281 -0.4785  0.3851
  774MPD2    C111419   4.527   0.483  13.155 -0.4285 -0.1046 -0.4501
  774MPD2    C211420   4.600   0.587  13.107  0.3493  0.4468  0.2587
  774MPD2    C311421   4.596   0.634  12.979 -0.2688 -0.0224 -0.0936
  774MPD2    C411422   4.494   0.587  12.896 -0.0272  0.7884  0.0296
  774MPD2    C511423   4.426   0.472  12.933  0.0566 -0.0605 -0.1488
  774MPD2     H11424   4.681   0.625  13.168 -0.2765  2.0682  0.0906
  774MPD2    H111425   4.472   0.618  12.794 -0.5153 -1.8521 -0.6628
  774MPD2    H211426   4.358   0.352  13.096 -0.6204 -0.1442  0.2869
  774MPD2    H311427   4.362   0.426  12.859  0.8798 -0.2884 -0.7237
  774MPD2     N11428   4.691   0.725  12.940  0.2856 -0.3151 -0.7754
  774MPD2    H511429   0.035   0.745  13.017 -2.5286  1.6886  1.0203
  774MPD2    N111430   4.561   0.436  13.283  0.1754 -0.0790  0.8514
  774MPD2    H711431   4.647   0.474  13.321  0.9195  0.1589 -1.0679
  775MPD2     C11432   0.950   2.031  15.405 -0.1855  0.0919 -0.4608
  775MPD2    C111433   0.990   2.075  15.526  0.6162 -0.6675 -0.2813
  775MPD2    C211434   1.116   2.109  15.548 -0.2474 -0.3639  0.1077
  775MPD2    C311435   1.207   2.104  15.448  0.6909 -0.0409 -0.1232
  775MPD2    C411436   1.170   2.073  15.319 -0.1371  0.0378 -0.2964
  775MPD2    C511437   1.041   2.037  15.296 -0.2595  0.0007 -0.1904
  775MPD2     H11438   1.143   2.144  15.647 -1.1047  1.6305 -0.3647
  775MPD2    H111439   1.248   2.089  15.246  0.6461 -0.0476  0.5200
  775MPD2    H211440   0.848   1.998  15.392 -0.0942 -0.4048  0.0830
  775MPD2    H311441   1.017   2.026  15.191  1.5418 -1.6794 -0.4480
  775MPD2     N11442   1.343   2.145  15.467 -0.0719  0.5084  0.1313
  775MPD2    H511443   1.403   2.135  15.385  0.3560 -0.1322  0.5229
  775MPD2    N111444   0.909   2.077  15.643 -0.1017  0.6046 -0.0290
  775MPD2    H711445   0.952   2.119  15.725  1.3744 -1.4842  0.2758
  776MPD2     C11446   1.500   2.450  11.778 -0.1393  0.0742  0.2633
  776MPD2    C111447   1.482   2.395  11.652  0.0181 -0.1348 -0.2795
  776MPD2    C211448   1.495   2.478  11.543  0.1052  0.1641  0.3526
  776MPD2    C311449   1.525   2.613  11.562 -0.5924 -0.1637  0.1785
  776MPD2    C411450   1.565   2.658  11.690  0.5025  0.2856  0.1196
  776MPD2    C511451   1.546   2.575  11.794 -0.0273  0.2352  0.1123
  776MPD2     H11452   1.471   2.450  11.441  0.7621  1.6286 -0.2085
  776MPD2    H111453   1.599   2.760  11.708  2.9189  0.1951 -3.9237
  776MPD2    H211454   1.466   2.399  11.867 -0.3959  0.0067  0.1297
  776MPD2    H311455   1.564   2.605  11.896  0.3533 -1.3830  0.5055
  776MPD2     N11456   1.518   2.710  11.460  0.4309  0.4866  0.1192
  776MPD2    H511457   1.531   2.805  11.492 -2.4014  1.5840 -2.0805
  776MPD2    N111458   1.423   2.270  11.633 -0.1034  0.6778  0.0319
  776MPD2    H711459   1.387   2.217  11.712  1.5663 -0.4577  0.0239
  777MPD2     C11460   0.499   4.567   0.712 -0.8489  0.0910 -0.0566
  777MPD2    C111461   0.624   4.531   0.737 -0.3677  0.1669  0.6714
  777MPD2    C211462   0.675   4.414   0.684  0.1239 -0.6859 -0.7170
  777MPD2    C311463   0.596   4.337   0.604 -0.2578 -0.6570  0.5225
  777MPD2    C411464   0.470   4.376   0.575 -0.2800 -0.3492  0.1023
  777MPD2    C511465   0.419   4.496   0.624  0.4282  0.4013 -0.0170
  777MPD2     H11466   0.767   4.372   0.721  0.1214  0.2739  0.3850
  777MPD2    H111467   0.409   4.324   0.502 -0.7868  1.5186 -0.7964
  777MPD2    H211468   0.446   4.654   0.749  1.2096  1.8433 -1.2783
  777MPD2    H311469   0.315   4.523   0.606 -0.2512 -1.0174  1.7454
  777MPD2     N11470   0.648   4.214   0.548 -1.4385 -0.0926 -0.5387
  777MPD2    H511471   0.747   4.200   0.566 -1.8208  0.1136  1.7023
  777MPD2    N111472   0.690   4.609   0.841  1.1014 -0.1534  0.1056
  777MPD2    H711473   0.628   4.682   0.873 -0.9153 -0.4585 -3.0179
  778MPD2     C11474   2.399   0.363  14.588  0.1495 -0.2791  0.1358
  778MPD2    C111475   2.413   0.232  14.558 -0.2620 -1.2542  1.2907
  778MPD2    C211476   2.505   0.197  14.459  0.7027  0.5231  0.1353
  778MPD2    C311477   2.580   0.293  14.390  0.3273 -0.0045 -0.1310
  778MPD2    C411478   2.547   0.427  14.404 -0.0735 -0.0141 -0.1578
  778MPD2    C511479   2.458   0.459  14.504 -0.3078 -0.2170  0.0101
  778MPD2     H11480   2.538   0.094  14.449  0.2800  0.4830 -0.8729
  778MPD2    H111481   2.584   0.504  14.338 -0.0306 -0.3619 -0.5372
  778MPD2    H211482   2.333   0.398  14.668  1.8704  0.5796  1.1795
  778MPD2    H311483   2.426   0.562  14.520  0.5064 -0.1655  1.2867
  778MPD2     N11484   2.686   0.246  14.298  0.0203 -0.3072 -0.3761
  778MPD2    H511485   2.704   0.146  14.300  3.9717  0.4141  1.4667
  778MPD2    N111486   2.340   0.127  14.616 -0.1541 -0.1779 -0.8790
  778MPD2    H711487   2.353   0.032  14.582 -0.7203 -1.3204  2.1707
  779MPD2     C11488   1.452   3.753  14.239 -0.6817  0.9463 -0.2137
  779MPD2    C111489   1.579   3.710  14.261  0.7147  0.1381  0.1468
  779MPD2    C211490   1.673   3.786  14.207 -0.2112 -0.4386  0.3819
  779MPD2    C311491   1.653   3.890  14.116 -0.2766 -0.9165  0.1600
  779MPD2    C411492   1.520   3.929  14.090 -0.5173  1.1985  0.6307
  779MPD2    C511493   1.420   3.865  14.157 -0.2210  0.2758 -0.0376
  779MPD2     H11494   1.775   3.750  14.209 -0.5838 -1.5128  0.1120
  779MPD2    H111495   1.501   4.003  14.013  2.6243 -0.0571 -1.3516
  779MPD2    H211496   1.366   3.699  14.276  0.1427  0.1551  0.5456
  779MPD2    H311497   1.315   3.869  14.130 -0.3496 -1.4650  0.2290
  779MPD2     N11498   1.767   3.955  14.062  0.2572  0.1358 -0.9209
  779MPD2    H511499   1.855   3.924  14.103  0.5459  0.6314 -1.1645
  779MPD2    N111500   1.611   3.589  14.330  0.2071 -0.1187  0.0151
  779MPD2    H711501   1.708   3.564  14.345 -0.0606 -2.2891 -1.8408
  780MPD2     C11502   0.309   3.243   0.606  0.0703  0.5402  1.0363
  780MPD2    C111503   0.398   3.172   0.687  0.3286 -0.2010 -0.7470
  780MPD2    C211504   0.510   3.113   0.634 -0.2113  0.1740  0.0362
  780MPD2    C311505   0.503   3.095   0.494  0.1075  1.0894 -0.4033
  780MPD2    C411506   0.414   3.163   0.415  0.6378  0.4183  0.1479
  780MPD2    C511507   0.326   3.238   0.470  0.6740  0.0084 -0.1097
  780MPD2     H11508   0.591   3.067   0.690 -1.9019 -1.0960  1.4360
  780MPD2    H111509   0.420   3.176   0.307  0.6981  1.4084  0.2787
  780MPD2    H211510   0.230   3.304   0.648 -1.9590 -0.1754 -1.7186
  780MPD2    H311511   0.267   3.303   0.406  0.4607 -0.4425 -0.3723
  780MPD2     N11512   0.603   3.012   0.433  0.2157 -0.4098  0.2800
  780MPD2    H511513   0.676   2.972   0.491 -0.2335 -1.8072 -0.1160
  780MPD2    N111514   0.382   3.200   0.828  0.4661 -0.7047  0.4621
  780MPD2    H711515   0.289   3.229   0.856 -0.2791 -0.3423 -2.4282
  781MPD2     C11516   2.485   1.015  12.059 -0.1534  1.1990 -0.1414
  781MPD2    C111517   2.608   0.952  12.055 -0.9744 -0.5341  0.0987
  781MPD2    C211518   2.690   0.953  11.946  0.2452 -0.1440  0.0588
  781MPD2    C311519   2.659   1.029  11.833 -0.0137 -0.8001 -0.7884
  781MPD2    C411520   2.545   1.109  11.844 -0.6285 -0.1862  0.0171
  781MPD2    C511521   2.460   1.102  11.958 -0.1818 -0.6304  0.5545
  781MPD2     H11522   2.776   0.887  11.951  0.0123 -0.4843 -0.4790
  781MPD2    H111523   2.518   1.178  11.766 -4.4869 -1.7533 -0.0206
  781MPD2    H211524   2.411   1.020  12.138 -1.6250  1.3527 -1.5335
  781MPD2    H311525   2.367   1.156  11.965 -0.5866 -1.3340  0.6135
  781MPD2     N11526   2.750   1.055  11.727  0.4369  0.0384 -0.1927
  781MPD2    H511527   2.721   1.127  11.661 -1.8476 -1.7097 -1.0876
  781MPD2    N111528   2.656   0.880  12.169  0.1801  0.2125  0.2735
  781MPD2    H711529   2.749   0.840  12.167 -0.5966 -1.5185 -1.1140
  782MPD2     C11530   1.695   2.009  10.094 -1.3330  0.5404  0.2775
  782MPD2    C111531   1.770   1.911  10.152 -0.3076  0.2087 -0.3428
  782MPD2    C211532   1.802   1.922  10.288  0.2626 -0.7319  0.5740
  782MPD2    C311533   1.756   2.028  10.368  0.3068 -0.1231 -0.6529
  782MPD2    C411534   1.668   2.121  10.312  0.0818  0.1270 -0.6250
  782MPD2    C511535   1.641   2.113  10.179 -0.3485  0.0363 -0.5767
  782MPD2     H11536   1.887   1.862  10.317  0.8986 -0.5702 -0.9527
  782MPD2    H111537   1.620   2.196  10.374  0.9492  1.3961 -1.4688
  782MPD2    H211538   1.664   2.001   9.990 -0.0784 -1.9182  0.1051
  782MPD2    H311539   1.570   2.186  10.141 -2.3018 -0.5186  1.9720
  782MPD2     N11540   1.811   2.046  10.494 -0.1315 -0.3892 -0.6002
  782MPD2    H511541   1.885   1.983  10.524 -1.1873 -1.0688  0.6303
  782MPD2    N111542   1.837   1.809  10.073 -0.2608 -0.1169  0.9766
  782MPD2    H711543   1.889   1.741  10.128  1.7965  2.5696  2.3675
  783MPD2     C11544   1.262   1.168  10.036  0.1454  0.0663 -0.0507
  783MPD2    C111545   1.316   1.223  10.151 -0.2868 -0.1588 -0.1129
  783MPD2    C211546   1.449   1.260  10.137 -0.6224 -0.6432 -0.0003
  783MPD2    C311547   1.516   1.259  10.013  0.0918 -0.2048 -1.1619
  783MPD2    C411548   1.459   1.201   9.908 -0.2364 -0.2973 -0.2205
  783MPD2    C511549   1.333   1.151   9.922  0.0429 -0.0396  0.4246
  783MPD2     H11550   1.503   1.293  10.225 -1.9602 -2.7560  1.6208
  783MPD2    H111551   1.509   1.174   9.815  0.9889  2.1998 -0.2848
  783MPD2    H211552   1.159   1.136  10.040 -0.1018  0.9626  0.8697
  783MPD2    H311553   1.277   1.109   9.839  1.1804  0.8522 -0.8028
  783MPD2     N11554   1.637   1.333   9.998  0.2968  0.0697  0.1078
  783MPD2    H511555   1.676   1.376  10.081  2.3085 -2.5186  0.5437
  783MPD2    N111556   1.243   1.216  10.276  0.0042 -0.1965  0.2692
  783MPD2    H711557   1.156   1.167  10.287  0.6361 -1.6238 -1.1568
  784MPD2     C11558   4.076   1.961   0.891  0.2628 -0.0952  0.2590
  784MPD2    C111559   3.967   1.999   0.964  1.0266  0.3926  0.0627
  784MPD2    C211560   3.852   2.035   0.894  0.3962  1.1823  0.4412
  784MPD2    C311561   3.846   2.033   0.751 -0.9443  0.1234  0.4800
  784MPD2    C411562   3.959   2.010   0.677  0.0100 -0.0827  0.3140
  784MPD2    C511563   4.064   1.967   0.754  0.2680 -0.0217  0.7245
  784MPD2     H11564   3.765   2.072   0.947  0.0086 -0.2193  0.7996
  784MPD2    H111565   3.957   2.004   0.569  2.0453 -0.8954  0.3290
  784MPD2    H211566   4.158   1.910   0.940  0.7588  0.4086 -0.0401
  784MPD2    H311567   4.144   1.931   0.691 -1.6090 -1.6877 -0.7003
  784MPD2     N11568   3.723   2.056   0.695  0.3087  0.4720 -0.4996
  784MPD2    H511569   3.644   2.066   0.758  0.2519  0.3142 -0.5465
  784MPD2    N111570   3.955   1.985   1.106  0.3600  0.2946 -0.1050
  784MPD2    H711571   3.868   2.013   1.150  0.8130  1.8266 -0.1795
  785MPD2     C11572   3.780   4.667  10.565  0.1417 -0.4954 -0.5014
  785MPD2    C111573   3.825   0.044  10.663 -0.6230  0.2049 -0.2465
  785MPD2    C211574   3.733   0.120  10.737 -0.1580  0.1242  0.4713
  785MPD2    C311575   3.600   0.112  10.713 -0.1306 -1.0871 -0.2396
  785MPD2    C411576   3.559   0.019  10.614 -0.1579 -0.1673 -0.1210
  785MPD2    C511577   3.646   4.656  10.543  0.6980  0.1230  0.1328
  785MPD2     H11578   3.778   0.190  10.806  0.6846 -0.7108  0.7675
  785MPD2    H111579   3.457   0.012  10.578 -0.2593 -0.7354  0.2764
  785MPD2    H211580   3.843   4.611  10.497  1.9604  1.4082 -0.3698
  785MPD2    H311581   3.610   4.605  10.454 -1.8809 -0.6795  1.6093
  785MPD2     N11582   3.517   0.207  10.781 -0.3957  0.2684 -0.3277
  785MPD2    H511583   3.567   0.279  10.833  0.2958 -0.1633 -0.4021
  785MPD2    N111584   3.962   0.078  10.687  0.9306 -0.0906  0.4429
  785MPD2    H711585   3.980   0.146  10.760 -0.8829 -0.5544  1.3162
  786MPD2     C11586   1.847   2.922  14.616  0.3426 -0.2066  0.1813
  786MPD2    C111587   1.982   2.915  14.583 -0.1391 -0.5248  0.5738
  786MPD2    C211588   2.078   2.943  14.683 -0.8237  0.4640 -0.1132
  786MPD2    C311589   2.034   2.973  14.810 -0.3298 -0.8832 -0.6288
  786MPD2    C411590   1.899   3.000  14.833  0.1001  1.0329 -0.3418
  786MPD2    C511591   1.807   2.969  14.740 -1.1749  0.0733  0.1287
  786MPD2     H11592   2.180   2.915  14.657 -1.5980 -2.2476 -0.2653
  786MPD2    H111593   1.853   3.034  14.925 -2.0653 -0.5820 -0.8068
  786MPD2    H211594   1.762   2.889  14.557  0.3693  0.9035 -0.4737
  786MPD2    H311595   1.702   2.961  14.764 -0.6579 -3.5531  1.2579
  786MPD2     N11596   2.115   2.985  14.923 -0.5292  0.3257  0.4539
  786MPD2    H511597   2.063   3.018  15.004  0.1907 -0.8281  1.3853
  786MPD2    N111598   2.041   2.888  14.456  0.1657  0.1549 -0.0797
  786MPD2    H711599   2.136   2.924  14.450  0.1976 -0.0623 -0.9342
  787MPD2     C11600   2.052   2.345  14.455  0.0922  0.6331 -0.2984
  787MPD2    C111601   2.178   2.375  14.402 -0.4067 -0.5334  0.2010
  787MPD2    C211602   2.287   2.304  14.454  0.1352 -0.2928  0.1354
  787MPD2    C311603   2.276   2.201  14.542  0.1670 -0.1782 -0.9679
  787MPD2    C411604   2.144   2.165  14.580 -0.2944 -0.3514 -0.2929
  787MPD2    C511605   2.038   2.245  14.545  0.4693  0.5267 -0.3189
  787MPD2     H11606   2.385   2.334  14.418 -0.4220 -1.9481 -2.7434
  787MPD2    H111607   2.127   2.079  14.644 -1.7859  0.0467 -0.1452
  787MPD2    H211608   1.964   2.399  14.423  0.0359  0.4560 -0.4417
  787MPD2    H311609   1.935   2.222  14.570  1.1376  0.3413  2.2732
  787MPD2     N11610   2.389   2.135  14.590  0.1941  0.2511 -0.3495
  787MPD2    H511611   2.474   2.172  14.548 -1.0686  1.1038 -2.1170
  787MPD2    N111612   2.195   2.483  14.310 -0.5831 -0.7363  0.1300
  787MPD2    H711613   2.108   2.508  14.265 -0.2518 -1.1891 -0.7397
  788MPD2     C11614   3.660   1.092   1.214  0.1090  0.2021 -0.0559
  788MPD2    C111615   3.616   1.036   1.094  0.5368  0.2899 -0.5737
  788MPD2    C211616   3.672   1.093   0.980 -0.3661 -1.1797  0.3837
  788MPD2    C311617   3.762   1.204   0.984  0.5994 -0.4280  0.3657
  788MPD2    C411618   3.793   1.262   1.097 -0.3883  0.5075  0.9176
  788MPD2    C511619   3.752   1.196   1.209  0.5614 -0.2023 -0.3021
  788MPD2     H11620   3.642   1.057   0.882  0.7955 -1.0202 -0.0351
  788MPD2    H111621   3.855   1.351   1.101 -1.6740  1.3841  1.3801
  788MPD2    H211622   3.619   1.064   1.310 -0.3917 -2.4567 -1.0215
  788MPD2    H311623   3.786   1.247   1.298  2.1706  0.1218 -1.0835
  788MPD2     N11624   3.822   1.257   0.870  0.2029 -0.3958 -0.4847
  788MPD2    H511625   3.910   1.307   0.880 -0.2186  0.4521 -1.0662
  788MPD2    N111626   3.520   0.938   1.072  0.3268 -0.0991  0.0696
  788MPD2    H711627   3.494   0.918   0.976  1.3336  0.0610 -0.2303
  789MPD2     C11628   4.619   0.793  16.125 -0.1227  0.8570 -0.8623
  789MPD2    C111629   4.580   0.748  16.247 -0.0961 -0.0672  0.1734
  789MPD2    C211630   4.455   0.768  16.290  0.1741 -0.4680  0.5164
  789MPD2    C311631   4.367   0.849  16.214  0.2540 -0.1910 -0.1994
  789MPD2    C411632   4.403   0.886  16.084 -0.3842  0.1337  0.1244
  789MPD2    C511633   4.528   0.870  16.045 -0.2750 -0.3179 -0.1906
  789MPD2     H11634   4.423   0.723  16.384 -0.5090  0.1669  0.5886
  789MPD2    H111635   4.334   0.940  16.020 -0.5897  0.0231  0.2500
  789MPD2    H211636   0.001   0.780  16.087 -0.1120 -0.8859 -0.2402
  789MPD2    H311637   4.562   0.917  15.953 -0.7112 -1.3113 -0.8553
  789MPD2     N11638   4.233   0.885  16.253 -0.0338  0.6772  0.2085
  789MPD2    H511639   4.178   0.933  16.183  3.2174  2.5214 -1.0959
  789MPD2    N111640   4.653   0.655  16.320  0.0228  0.0557  0.3377
  789MPD2    H711641   4.602   0.596  16.385  0.8549  1.1195  1.9679
  790MPD2     C11642   0.827   2.710  13.501 -0.1280 -0.2244 -0.4911
  790MPD2    C111643   0.780   2.578  13.540 -0.1253 -0.0329 -0.0960
  790MPD2    C211644   0.754   2.483  13.444 -0.3838 -0.1919  0.6138
  790MPD2    C311645   0.771   2.522  13.314 -0.2439 -0.4944 -0.2218
  790MPD2    C411646   0.805   2.648  13.272 -0.3436 -0.3806  0.0379
  790MPD2    C511647   0.836   2.743  13.368  0.5565  0.3856 -0.1789
  790MPD2     H11648   0.723   2.383  13.471  0.1348 -0.7992 -1.0250
  790MPD2    H111649   0.813   2.680  13.169  0.6229  0.8473  0.5054
  790MPD2    H211650   0.837   2.787  13.576  0.9944 -0.6923 -0.1661
  790MPD2    H311651   0.863   2.845  13.342 -0.0525  1.1902  2.2931
  790MPD2     N11652   0.742   2.415  13.219 -0.3571 -0.0358 -0.2761
  790MPD2    H511653   0.755   2.320  13.254 -0.9680 -0.0014  0.0394
  790MPD2    N111654   0.774   2.556  13.679 -0.0976 -0.6554  0.0350
  790MPD2    H711655   0.808   2.634  13.736 -2.8423 -1.1883  2.4072
  791MPD2     C11656   0.339   2.353  12.555  0.5699  0.0295 -1.0307
  791MPD2    C111657   0.368   2.234  12.616  0.2511  0.1763  0.2806
  791MPD2    C211658   0.287   2.124  12.592  0.2293 -0.5791  0.0911
  791MPD2    C311659   0.176   2.132  12.511  0.2977  0.7414 -0.3163
  791MPD2    C411660   0.161   2.245  12.435  0.0858 -0.0057 -0.3010
  791MPD2    C511661   0.235   2.355  12.470 -0.3885 -0.4203 -0.4148
  791MPD2     H11662   0.300   2.030  12.644  1.3194 -0.6380 -0.2864
  791MPD2    H111663   0.080   2.244  12.363  0.7678 -0.0234 -1.0761
  791MPD2    H211664   0.391   2.448  12.556 -0.0486  0.3763 -2.0924
  791MPD2    H311665   0.223   2.439  12.402 -1.4247  0.1874  0.5208
  791MPD2     N11666   0.093   2.019  12.494 -0.2837 -0.0101 -0.3083
  791MPD2    H511667   0.129   1.938  12.544 -0.2430 -0.2853 -0.7807
  791MPD2    N111668   0.477   2.234  12.708  0.6181 -0.4660 -0.1319
  791MPD2    H711669   0.528   2.319  12.727  0.0685 -0.2630  0.4337
  792MPD2     C11670   1.266   2.307  11.173  0.5439 -0.3135  0.2434
  792MPD2    C111671   1.363   2.293  11.070 -0.4795  0.0448  0.8986
  792MPD2    C211672   1.341   2.201  10.972 -0.3599  0.0442  0.3043
  792MPD2    C311673   1.225   2.129  10.970  0.2237  0.2707 -0.5369
  792MPD2    C411674   1.128   2.140  11.076 -0.2990 -0.1940 -0.8239
  792MPD2    C511675   1.153   2.228  11.178  0.4749 -0.1688 -0.6628
  792MPD2     H11676   1.426   2.181  10.907  0.6960 -0.6461  1.9033
  792MPD2    H111677   1.034   2.088  11.065 -0.0628 -1.3961  2.7339
  792MPD2    H211678   1.277   2.389  11.243  1.5572 -0.0762 -0.1918
  792MPD2    H311679   1.072   2.245  11.247  0.7501 -2.6787  0.3086
  792MPD2     N11680   1.195   2.041  10.860 -0.0059 -1.0297 -0.4481
  792MPD2    H511681   1.135   1.962  10.885 -1.5761  0.1307 -0.5725
  792MPD2    N111682   1.472   2.380  11.070 -0.1357  0.2044 -0.0479
  792MPD2    H711683   1.480   2.448  11.146 -0.5607  0.2807 -0.0668
  793MPD2     C11684   0.888   1.726  10.035 -0.0026 -0.2903 -0.0920
  793MPD2    C111685   0.989   1.812  10.076 -0.1871  0.7236 -0.5335
  793MPD2    C211686   1.013   1.825  10.207 -0.1739 -0.4506  0.0705
  793MPD2    C311687   0.945   1.760  10.299 -0.3821 -0.0824  0.4263
  793MPD2    C411688   0.839   1.676  10.263 -0.2167  0.1933  0.3833
  793MPD2    C511689   0.816   1.654  10.133 -0.7220 -0.4057 -0.8218
  793MPD2     H11690   1.100   1.880  10.240  0.7188 -2.1140  0.4900
  793MPD2    H111691   0.785   1.614  10.333 -0.1142  2.8909  2.8613
  793MPD2    H211692   0.865   1.702   9.931 -0.7110 -0.6261  0.1466
  793MPD2    H311693   0.741   1.581  10.107  0.0436 -0.7377 -2.1582
  793MPD2     N11694   0.999   1.766  10.433 -0.2563 -0.8342 -0.0194
  793MPD2    H511695   1.082   1.824  10.443 -1.1837  0.7804 -1.6795
  793MPD2    N111696   1.076   1.873   9.984  0.2643  0.1804  0.1060
  793MPD2    H711697   1.147   1.931  10.028  0.1562  0.2657  0.1664
  794MPD2     C11698   4.295   1.308  16.986  0.2871  0.5137 -0.4996
  794MPD2    C111699   4.409   1.246  16.935  0.4787 -0.3558  0.0563
  794MPD2    C211700   4.463   1.302  16.821 -0.0517  0.2250  0.4171
  794MPD2    C311701   4.412   1.414  16.758  0.6398 -0.4467 -0.2069
  794MPD2    C411702   4.297   1.468  16.807  0.1455  0.0219  0.1499
  794MPD2    C511703   4.238   1.419  16.924 -0.3353  0.2981 -0.3409
  794MPD2     H11704   4.549   1.246  16.786  1.2098  1.3018  1.7834
  794MPD2    H111705   4.262   1.565  16.773  0.1034 -0.1743 -0.3720
  794MPD2    H211706   4.244   1.279  17.077 -1.5219 -0.9030 -1.9683
  794MPD2    H311707   4.150   1.463  16.968 -1.0184  1.2251 -2.6684
  794MPD2     N11708   4.473   1.486  16.653 -0.3198  0.6751  0.0402
  794MPD2    H511709   4.430   1.574  16.628  3.6329  1.8388 -2.7084
  794MPD2    N111710   4.468   1.130  16.991 -0.6618  0.6265 -0.1618
  794MPD2    H711711   4.557   1.099  16.953  1.3915  2.6079  3.0568
  795MPD2     C11712   3.083   3.982  13.341  0.6097  1.0454 -0.4418
  795MPD2    C111713   3.041   3.872  13.416 -0.1250 -0.1457  0.4007
  795MPD2    C211714   3.120   3.761  13.411 -0.0293 -0.2068  0.3318
  795MPD2    C311715   3.235   3.761  13.334 -0.1620 -0.0634  0.0397
  795MPD2    C411716   3.264   3.865  13.256  0.2561  0.7472  0.1787
  795MPD2    C511717   3.184   3.971  13.257  0.3066  0.4722 -0.3217
  795MPD2     H11718   3.089   3.677  13.472 -1.1389 -0.3231 -0.3895
  795MPD2    H111719   3.354   3.868  13.195 -0.0091 -1.5477 -0.3297
  795MPD2    H211720   3.031   4.077  13.340  1.4302  1.4886 -0.7402
  795MPD2    H311721   3.223   4.062  13.212  0.3046  1.2145  1.1900
  795MPD2     N11722   3.317   3.646  13.340 -0.3780 -0.3822  0.2037
  795MPD2    H511723   3.280   3.571  13.397 -0.0089  0.6201  1.7840
  795MPD2    N111724   2.928   3.882  13.507 -0.0999 -0.6854  0.5896
  795MPD2    H711725   2.890   3.795  13.542  0.3619 -1.1519 -0.0541
  796MPD2     C11726   2.539   0.540  15.726  0.3536  0.4432  0.8971
  796MPD2    C111727   2.668   0.567  15.733 -0.1490 -0.5860  0.6650
  796MPD2    C211728   2.708   0.694  15.769 -0.6131 -0.0338  0.4626
  796MPD2    C311729   2.621   0.797  15.789 -0.0712 -0.3843 -0.4602
  796MPD2    C411730   2.486   0.771  15.781 -0.3565  0.1641  0.2615
  796MPD2    C511731   2.444   0.639  15.750  0.2133 -0.2935  0.1178
  796MPD2     H11732   2.815   0.710  15.758 -0.3752 -1.1001  1.1935
  796MPD2    H111733   2.402   0.838  15.796  0.8233  1.8454 -0.6360
  796MPD2    H211734   2.499   0.448  15.687  0.7904 -0.0965  1.7286
  796MPD2    H311735   2.344   0.600  15.739 -0.4875  1.3268  0.7570
  796MPD2     N11736   2.661   0.931  15.820 -0.5133  0.1141 -0.7148
  796MPD2    H511737   2.758   0.951  15.844 -0.7148 -0.7101  0.7433
  796MPD2    N111738   2.757   0.461  15.718  0.2250 -0.0007 -0.6428
  796MPD2    H711739   2.718   0.368  15.727 -0.5138  0.3643 -0.1291
  797MPD2     C11740   3.301   4.643  17.014  1.1464 -0.2034 -0.9310
  797MPD2    C111741   3.384   0.027  17.053  0.4571  0.2272  0.2218
  797MPD2    C211742   3.367   0.153  16.998 -0.2510  0.2767  0.5253
  797MPD2    C311743   3.287   0.175  16.893 -0.0882 -0.2874  0.0031
  797MPD2    C411744   3.205   0.065  16.848 -0.0561  0.3987 -0.0352
  797MPD2    C511745   3.209   4.659  16.911 -0.2675 -0.1775  0.3446
  797MPD2     H11746   3.432   0.226  17.045  1.1563  0.5510 -1.8444
  797MPD2    H111747   3.128   0.074  16.773  0.6070  1.2981 -0.6174
  797MPD2    H211748   3.302   4.546  17.062 -3.3106  0.9887  1.5781
  797MPD2    H311749   3.151   4.571  16.885 -1.3504  0.7462 -0.3637
  797MPD2     N11750   3.282   0.303  16.836  0.5043  0.6031  0.3081
  797MPD2    H511751   3.361   0.366  16.849  0.7795  0.5996 -1.3690
  797MPD2    N111752   3.463   0.024  17.163 -0.2950 -0.1974 -0.0962
  797MPD2    H711753   3.522   0.106  17.176 -0.9735  0.2210  0.3262
  798MPD2     C11754   3.408   0.723  17.261  0.2943 -0.3978 -0.5728
  798MPD2    C111755   3.456   0.643  17.166 -0.5563  0.5458  0.6916
  798MPD2    C211756   3.524   0.536  17.212 -0.9487 -0.9737 -0.2806
  798MPD2    C311757   3.535   0.505  17.345  0.7349  0.4866  0.5581
  798MPD2    C411758   3.499   0.595  17.442 -0.0744 -0.8952 -0.1584
  798MPD2    C511759   3.429   0.703  17.397  0.3070 -0.3837 -0.4322
  798MPD2     H11760   3.559   0.459  17.144  1.2224  0.1207 -0.3827
  798MPD2    H111761   3.511   0.565  17.545  0.4348  0.2878  0.1288
  798MPD2    H211762   3.343   0.806  17.236  0.4645  0.1882  0.9735
  798MPD2    H311763   3.374   0.762  17.469  0.1442 -1.3834  0.2586
  798MPD2     N11764   3.585   0.381  17.372  0.1376 -0.5107 -0.0437
  798MPD2    H511765   3.589   0.323  17.289  1.1334  0.1262 -0.4440
  798MPD2    N111766   3.431   0.671  17.030 -0.1194 -0.1706 -0.2325
  798MPD2    H711767   3.358   0.739  17.010 -0.5544 -1.4008 -2.7719
  799MPD2     C11768   2.319   1.489  14.904  0.0489  0.3483  0.0651
  799MPD2    C111769   2.331   1.425  14.782 -0.2805 -0.4993  0.1450
  799MPD2    C211770   2.272   1.496  14.680 -0.0305  0.3646  0.1831
  799MPD2    C311771   2.226   1.621  14.679 -0.0559  0.1843 -0.4482
  799MPD2    C411772   2.210   1.678  14.801 -0.1690  0.1565 -0.1381
  799MPD2    C511773   2.260   1.613  14.911 -0.3807 -0.3838 -0.0282
  799MPD2     H11774   2.274   1.446  14.584 -0.5128 -1.4265  1.1017
  799MPD2    H111775   2.163   1.776  14.801 -0.6631 -0.0906 -2.0349
  799MPD2    H211776   2.354   1.438  14.993 -1.5285 -1.3177 -0.2709
  799MPD2    H311777   2.251   1.651  15.012 -0.5033 -2.0498  0.5885
  799MPD2     N11778   2.170   1.695  14.568 -0.3995 -0.1352  0.2652
  799MPD2    H511779   2.138   1.787  14.600 -1.0792 -1.1059  2.4085
  799MPD2    N111780   2.389   1.298  14.781  0.4933  0.9704 -0.3446
  799MPD2    H711781   2.445   1.279  14.864  0.1088 -1.4873 -0.6731
  800MPD2     C11782   2.521   2.963  14.202 -0.2463 -0.5292  0.3944
  800MPD2    C111783   2.627   2.877  14.178 -0.5359  0.3995 -0.3952
  800MPD2    C211784   2.624   2.795  14.062  0.0445 -0.2512 -0.3245
  800MPD2    C311785   2.521   2.811  13.975  0.0698 -0.0820 -0.6698
  800MPD2    C411786   2.417   2.896  14.005  0.0172 -0.8041 -0.3097
  800MPD2    C511787   2.416   2.971  14.120  1.2126  0.0957  0.2440
  800MPD2     H11788   2.704   2.731  14.025  1.6440 -0.7453  4.0051
  800MPD2    H111789   2.328   2.899  13.943  0.3653 -2.0234 -0.8849
  800MPD2    H211790   2.517   3.029  14.288  0.2094  1.1094 -0.8547
  800MPD2    H311791   2.340   3.048  14.120  0.6908 -0.4203 -0.6748
  800MPD2     N11792   2.538   2.749  13.849  0.0479  0.2067 -0.1533
  800MPD2    H511793   2.634   2.717  13.835 -0.2805 -1.2043  0.7820
  800MPD2    N111794   2.735   2.884  14.269  0.0800 -0.4285  0.4050
  800MPD2    H711795   2.735   2.959  14.339  0.0590 -1.4756  1.5340
  801MPD2     C11796   2.972   3.430  14.604  0.1788 -0.3414 -0.2392
  801MPD2    C111797   2.901   3.372  14.502 -0.1601 -0.5079  0.8792
  801MPD2    C211798   2.777   3.420  14.481  1.0457  0.0292 -0.2565
  801MPD2    C311799   2.714   3.520  14.555  0.6651 -0.1254  0.2658
  801MPD2    C411800   2.787   3.571  14.658  0.0088 -0.6979 -0.0568
  801MPD2    C511801   2.916   3.532  14.676  0.2607 -0.0934  0.0058
  801MPD2     H11802   2.717   3.377  14.402 -1.0584  1.3333  0.6291
  801MPD2    H111803   2.750   3.652  14.720 -2.6829 -0.6424 -1.7418
  801MPD2    H211804   3.075   3.405  14.629  0.2983 -0.3249 -0.7182
  801MPD2    H311805   2.962   3.579  14.762  0.4399  1.3412 -0.8823
  801MPD2     N11806   2.585   3.575  14.539 -0.2983 -0.2848  0.2433
  801MPD2    H511807   2.567   3.655  14.598 -1.4394 -0.9065  0.7371
  801MPD2    N111808   2.947   3.254  14.432  0.6190 -0.5097 -0.0412
  801MPD2    H711809   2.891   3.210  14.359  0.4211 -0.5161  0.1136
  802MPD2     C11810   1.822   3.725   0.049 -0.2083 -0.3097 -0.0007
  802MPD2    C111811   1.787   3.602   0.094  0.5628 -0.4278 -0.1454
  802MPD2    C211812   1.818   3.491   0.019  0.2511 -0.0376 -0.0555
  802MPD2    C311813   1.898   3.503  17.581 -0.0566 -0.2251  0.0341
  802MPD2    C411814   1.931   3.634  17.534 -0.1067  0.1377 -0.2563
  802MPD2    C511815   1.899   3.745  17.611  0.0306 -0.3160 -0.7654
  802MPD2     H11816   1.793   3.393   0.058  1.3060 -0.2251  0.1268
  802MPD2    H111817   2.002   3.659  17.456 -2.3211  2.2204 -1.6339
  802MPD2    H211818   1.783   3.808   0.107 -0.2500 -1.3600  1.4929
  802MPD2    H311819   1.941   3.842  17.584  2.4968 -0.9031  0.9558
  802MPD2     N11820   1.950   3.383  17.527  0.0666 -0.3491 -0.2133
  802MPD2    H511821   1.929   3.296  17.576 -0.8249 -0.6124 -1.0790
  802MPD2    N111822   1.716   3.579   0.220 -0.0418 -0.5565  0.6907
  802MPD2    H711823   1.712   3.484   0.254 -0.8356 -0.6484  0.3219
  803MPD2     C11824   3.868   2.065  11.341 -0.7357  0.4511  0.5072
  803MPD2    C111825   3.902   2.095  11.468  0.6372 -0.4131  0.6695
  803MPD2    C211826   3.830   2.041  11.572  0.4152 -0.3673 -0.6515
  803MPD2    C311827   3.731   1.953  11.555  0.1746  0.3416 -0.0167
  803MPD2    C411828   3.694   1.920  11.423 -0.1858  0.1001 -0.0232
  803MPD2    C511829   3.755   1.983  11.316  0.0704 -0.6185 -0.5375
  803MPD2     H11830   3.860   2.069  11.672 -0.3959 -0.7274 -0.3081
  803MPD2    H111831   3.607   1.855  11.411  0.5235 -1.2420  2.1885
  803MPD2    H211832   3.923   2.094  11.252 -0.8901  1.1583  0.6447
  803MPD2    H311833   3.722   1.962  11.215 -2.1129 -1.3387  0.3262
  803MPD2     N11834   3.660   1.885  11.660 -0.6352  0.5033  0.3506
  803MPD2    H511835   3.585   1.826  11.626  1.1230 -0.8040 -1.2902
  803MPD2    N111836   4.014   2.175  11.507  0.4095  0.1091 -0.5860
  803MPD2    H711837   4.019   2.196  11.606  0.1784 -0.5002 -0.4466
  804MPD2     C11838   2.927   3.432  16.494 -0.9495  0.6433 -0.2357
  804MPD2    C111839   2.919   3.402  16.628 -0.0350 -0.5095  0.2470
  804MPD2    C211840   2.979   3.493  16.713  0.2681 -0.2110 -0.6291
  804MPD2    C311841   3.047   3.605  16.670 -0.0417 -0.0172  0.0338
  804MPD2    C411842   3.053   3.630  16.537  0.2426 -0.3079 -0.5944
  804MPD2    C511843   2.996   3.539  16.455 -0.1947 -0.2866 -0.0230
  804MPD2     H11844   2.984   3.470  16.819 -0.2592  1.1598 -0.3155
  804MPD2    H111845   3.097   3.718  16.492 -0.6913  0.9369  0.9073
  804MPD2    H211846   2.876   3.378  16.414  2.6077 -3.6745  0.3619
  804MPD2    H311847   2.993   3.562  16.349  0.3173  1.7042  0.3957
  804MPD2     N11848   3.089   3.696  16.766 -0.0207  0.3348  0.5440
  804MPD2    H511849   3.057   3.683  16.862  1.5575 -3.4144  0.5379
  804MPD2    N111850   2.848   3.294  16.682  0.3697  0.1279  0.3989
  804MPD2    H711851   2.852   3.278  16.782  0.7272 -3.2811 -0.1476
  805MPD2     C11852   1.932   1.923  15.487 -0.0129  0.0761  0.4240
  805MPD2    C111853   2.026   1.911  15.385  0.1081  0.7909 -0.0330
  805MPD2    C211854   2.156   1.924  15.413 -0.6537  0.1506  1.0394
  805MPD2    C311855   2.195   1.914  15.542  0.0582 -0.4018 -0.4736
  805MPD2    C411856   2.103   1.911  15.647  0.2101  0.2826 -0.5480
  805MPD2    C511857   1.971   1.911  15.617  0.1659 -0.1831  0.6629
  805MPD2     H11858   2.235   1.918  15.339 -1.2531 -1.9658  0.5733
  805MPD2    H111859   2.116   1.906  15.754 -1.8457 -1.6829 -0.3979
  805MPD2    H211860   1.827   1.931  15.462  0.2348  0.5710 -0.4642
  805MPD2    H311861   1.897   1.925  15.694  0.9473  0.1717  1.3469
  805MPD2     N11862   2.336   1.900  15.571 -0.2754  0.1525  0.1145
  805MPD2    H511863   2.399   1.903  15.492 -0.2786  0.5868  0.1302
  805MPD2    N111864   1.987   1.886  15.252  0.2536 -0.2577  0.2151
  805MPD2    H711865   2.061   1.859  15.188 -1.5071  0.7437 -2.2951
  806MPD2     C11866   3.080   0.935   1.234 -0.1191  0.1512 -0.5419
  806MPD2    C111867   3.121   1.042   1.163  0.0136  0.8324 -0.5110
  806MPD2    C211868   3.077   1.066   1.033  0.2574 -0.3426  0.1984
  806MPD2    C311869   2.979   0.989   0.971  1.0056  0.0422  0.3851
  806MPD2    C411870   2.947   0.875   1.047  0.0690  0.0694 -0.4784
  806MPD2    C511871   2.992   0.853   1.174 -0.1882  0.3811  0.2713
  806MPD2     H11872   3.105   1.153   0.975 -0.7073  0.0191  0.2706
  806MPD2    H111873   2.868   0.812   1.007 -0.5386  1.2011 -1.0623
  806MPD2    H211874   3.121   0.914   1.332 -1.9534 -0.9233 -0.0251
  806MPD2    H311875   2.949   0.771   1.230  0.9282 -1.7997 -2.0485
  806MPD2     N11876   2.920   1.010   0.844 -0.1077  0.0230 -0.0126
  806MPD2    H511877   2.857   0.938   0.810  1.6361 -1.7849  0.5987
  806MPD2    N111878   3.223   1.129   1.217  0.1540  0.3976  0.0862
  806MPD2    H711879   3.255   1.108   1.311 -0.2333 -0.4967  0.0181
  807MPD2     C11880   3.066   1.607   1.716 -0.2046  0.4957  0.5146
  807MPD2    C111881   3.089   1.482   1.659 -0.4850  0.4151  0.2851
  807MPD2    C211882   3.027   1.373   1.706  0.4107  0.1267 -0.2815
  807MPD2    C311883   2.933   1.384   1.810 -0.7721 -0.4451  0.0350
  807MPD2    C411884   2.900   1.511   1.867  0.1266 -0.7027  0.1801
  807MPD2    C511885   2.966   1.621   1.814 -0.7061  0.2367  0.3803
  807MPD2     H11886   3.054   1.275   1.669 -1.0781 -0.7083  0.8527
  807MPD2    H111887   2.810   1.534   1.922 -0.0987 -1.1325 -0.0085
  807MPD2    H211888   3.128   1.692   1.690 -0.2346 -0.1209 -1.5887
  807MPD2    H311889   2.939   1.716   1.856 -0.9640  0.0956  0.5307
  807MPD2     N11890   2.871   1.268   1.855  0.0350  0.5996 -0.1164
  807MPD2    H511891   2.896   1.181   1.809  0.4942 -0.0046  1.2772
  807MPD2    N111892   3.193   1.455   1.567 -0.1165 -0.3357  0.0228
  807MPD2    H711893   3.204   1.358   1.540  1.3174  0.1714 -1.1644
  808MPD2     C11894   3.455   2.832  10.086  0.2447 -0.7506 -0.8306
  808MPD2    C111895   3.551   2.795   9.997 -0.6318 -0.1104 -0.0386
  808MPD2    C211896   3.661   2.884   9.968 -0.1144  0.2035 -0.3030
  808MPD2    C311897   3.662   3.002  10.028 -0.2085  0.2713  0.8325
  808MPD2    C411898   3.566   3.033  10.123  0.0936  0.3797  0.5558
  808MPD2    C511899   3.463   2.949  10.153  0.2017 -0.8235 -0.6291
  808MPD2     H11900   3.741   2.860   9.900  0.8893  0.3324  0.8238
  808MPD2    H111901   3.562   3.122  10.185  1.0218 -0.1224  1.3280
  808MPD2    H211902   3.364   2.774  10.096  2.6545 -4.5947 -1.1628
  808MPD2    H311903   3.394   2.970  10.234 -0.5659  1.5343 -1.9113
  808MPD2     N11904   3.758   3.097   9.998  0.3261  0.2774  0.1228
  808MPD2    H511905   3.751   3.183  10.053  0.2716  0.9164 -0.8927
  808MPD2    N111906   3.556   2.669   9.939 -0.0904 -0.0843 -0.2148
  808MPD2    H711907   3.638   2.642   9.885 -1.1868 -0.0487 -1.8964
  809MPD2     C11908   4.601   3.503   9.472  0.4849 -0.4363  0.5761
  809MPD2    C111909   4.540   3.380   9.484  0.2954 -0.1581  0.2493
  809MPD2    C211910   4.411   3.377   9.541 -0.2167  0.1651 -0.5998
  809MPD2    C311911   4.353   3.487   9.586  0.4709 -0.9563  0.0350
  809MPD2    C411912   4.414   3.612   9.577  0.5354 -0.6953 -0.2214
  809MPD2    C511913   4.538   3.618   9.519 -0.1635  0.5064 -0.0977
  809MPD2     H11914   4.367   3.280   9.563  2.6441 -1.4075 -1.6532
  809MPD2    H111915   4.360   3.700   9.610  0.2417  0.2169 -3.1574
  809MPD2    H211916   4.699   3.506   9.426  1.1064  1.8102  2.0143
  809MPD2    H311917   4.580   3.716   9.499  1.3192 -0.1884 -0.4396
  809MPD2     N11918   4.235   3.473   9.667 -0.0789 -0.1940  0.2960
  809MPD2    H511919   4.198   3.551   9.722  0.8492 -1.1525  2.2902
  809MPD2    N111920   4.615   3.258   9.461  0.0116  0.0775 -0.1913
  809MPD2    H711921   4.560   3.173   9.468  2.2039 -1.4520 -1.7401
  810MPD2     C11922   3.608   2.312  10.185  0.2853  0.4919 -0.4783
  810MPD2    C111923   3.506   2.358  10.261 -0.3391  0.1172  0.1159
  810MPD2    C211924   3.517   2.484  10.322  0.6256 -0.1855  0.3552
  810MPD2    C311925   3.634   2.559  10.302 -0.1893 -0.0742 -1.0116
  810MPD2    C411926   3.735   2.510  10.221  0.3179 -0.0170  0.2771
  810MPD2    C511927   3.725   2.382  10.165  0.5191  0.1227 -0.2988
  810MPD2     H11928   3.429   2.518  10.376  0.8543 -1.7694  1.7287
  810MPD2    H111929   3.823   2.572  10.208  0.4170 -0.3722 -0.7006
  810MPD2    H211930   3.599   2.213  10.140 -0.6388  0.8976 -1.1745
  810MPD2    H311931   3.805   2.351  10.098  0.9865  0.9064 -0.1072
  810MPD2     N11932   3.650   2.683  10.367 -0.3762  0.0723  0.0471
  810MPD2    H511933   3.743   2.721  10.378 -0.6298  0.7095 -0.0381
  810MPD2    N111934   3.385   2.288  10.257  0.0546 -0.3603 -0.1661
  810MPD2    H711935   3.387   2.212  10.189  0.8247 -0.3951 -0.1065
  811MPD2     C11936   2.575   2.333   9.897  0.4224  0.6000  0.1311
  811MPD2    C111937   2.680   2.388   9.966 -0.4555  0.5640  0.0787
  811MPD2    C211938   2.699   2.522   9.934  0.1995 -0.4224  0.0241
  811MPD2    C311939   2.621   2.601   9.847 -0.7085 -0.6653  0.4843
  811MPD2    C411940   2.513   2.539   9.788  0.4222  0.2413  0.5498
  811MPD2    C511941   2.492   2.408   9.814  0.0335 -0.3054  0.5232
  811MPD2     H11942   2.786   2.576   9.970 -1.1344  1.4450  0.4655
  811MPD2    H111943   2.436   2.589   9.731 -0.3653 -0.0764  1.3351
  811MPD2    H211944   2.542   2.231   9.917 -0.8021  0.7959 -0.9655
  811MPD2    H311945   2.411   2.358   9.762 -0.2616  0.3988  0.2973
  811MPD2     N11946   2.642   2.745   9.836  0.2515 -0.1553 -0.5551
  811MPD2    H511947   2.720   2.778   9.892 -0.6878  0.1843  0.5525
  811MPD2    N111948   2.763   2.303  10.045 -0.6744 -0.0094  0.2972
  811MPD2    H711949   2.725   2.215  10.079  1.7453 -1.3762 -0.5699
  812MPD2     C11950   1.862   2.777  11.881 -0.3233  0.3779 -0.0385
  812MPD2    C111951   1.785   2.820  11.985 -0.2049 -0.6409  0.2738
  812MPD2    C211952   1.751   2.728  12.083 -0.2589 -0.5153  0.1023
  812MPD2    C311953   1.790   2.599  12.077  0.6808  0.3073  0.2335
  812MPD2    C411954   1.853   2.552  11.968 -0.4125 -0.4182 -1.1176
  812MPD2    C511955   1.889   2.641  11.873 -0.1153 -0.5437 -0.0880
  812MPD2     H11956   1.695   2.766  12.168  1.8350  2.0864  0.3011
  812MPD2    H111957   1.889   2.451  11.956  1.1068  0.0681 -0.6448
  812MPD2    H211958   1.878   2.844  11.798 -3.2686 -0.2689 -1.1390
  812MPD2    H311959   1.947   2.605  11.789  0.2133 -0.8871  0.2846
  812MPD2     N11960   1.769   2.518  12.187  0.4306  0.3664 -0.1762
  812MPD2    H511961   1.733   2.566  12.269 -1.3419  0.6065 -1.1044
  812MPD2    N111962   1.759   2.955  11.992 -0.0874  0.0653  0.2442
  812MPD2    H711963   1.813   3.017  11.932 -0.8296  0.5062  0.0217
  813MPD2     C11964   0.686   4.107  12.261 -0.4474  0.0267  0.0126
  813MPD2    C111965   0.695   4.224  12.337 -0.2699 -0.1619 -0.1996
  813MPD2    C211966   0.631   4.223  12.457 -0.7942 -0.4904 -0.7660
  813MPD2    C311967   0.558   4.117  12.513 -0.6214 -0.3401  0.2451
  813MPD2    C411968   0.551   4.003  12.442  0.6620  0.1743 -0.3967
  813MPD2    C511969   0.616   4.002  12.320  0.2015 -0.0334 -0.2786
  813MPD2     H11970   0.642   4.314  12.514  2.7234 -1.2606 -0.1626
  813MPD2    H111971   0.496   3.913  12.468 -1.3647  1.9123  1.3808
  813MPD2    H211972   0.735   4.095  12.165  0.3917  0.4295  0.3911
  813MPD2    H311973   0.613   3.910  12.263  1.4941 -0.0687 -0.2872
  813MPD2     N11974   0.507   4.131  12.643 -0.8355 -0.1114 -0.3037
  813MPD2    H511975   0.508   4.222  12.689  2.5460  0.0379 -0.6395
  813MPD2    N111976   0.778   4.335  12.299  0.0534  0.3438  0.4383
  813MPD2    H711977   0.780   4.417  12.359  0.8648 -0.6238  1.7390
  814MPD2     C11978   1.115   0.783  12.051 -0.2538  0.2134  0.3157
  814MPD2    C111979   1.202   0.827  11.955  0.3178 -0.2654 -0.2228
  814MPD2    C211980   1.297   0.921  11.988 -0.0411  0.0366  0.6483
  814MPD2    C311981   1.320   0.958  12.120  0.2912 -0.2638  0.4327
  814MPD2    C411982   1.222   0.920  12.205  0.0157 -0.4256  0.1050
  814MPD2    C511983   1.125   0.836  12.171 -0.6497 -0.3605 -0.2074
  814MPD2     H11984   1.370   0.944  11.911 -0.4095 -2.4344 -0.4118
  814MPD2    H111985   1.227   0.950  12.309  0.0695  2.3308 -0.6834
  814MPD2    H211986   1.035   0.711  12.036 -2.3657  2.8592 -1.2614
  814MPD2    H311987   1.056   0.816  12.253  1.0111  0.4154  1.3817
  814MPD2     N11988   1.415   1.048  12.165  0.7787 -0.5088  0.2313
  814MPD2    H511989   1.395   1.088  12.256  0.4870  0.5820 -0.3062
  814MPD2    N111990   1.197   0.782  11.824 -0.1643 -0.3555 -0.9726
  814MPD2    H711991   1.268   0.818  11.762  1.6417 -0.3515  1.1045
  815MPD2     C11992   1.655   4.470  11.809 -0.5644 -0.6316  0.0341
  815MPD2    C111993   1.707   4.344  11.826 -0.6541  0.0217 -0.2953
  815MPD2    C211994   1.627   4.240  11.888  0.8072 -0.7986  0.6417
  815MPD2    C311995   1.499   4.279  11.929 -0.7646 -0.9074  0.0348
  815MPD2    C411996   1.443   4.399  11.893 -0.3675  0.0984 -0.5302
  815MPD2    C511997   1.524   4.497  11.839 -0.4062  0.2458 -0.0936
  815MPD2     H11998   1.665   4.140  11.906  0.7768 -1.2056 -1.5362
  815MPD2    H111999   1.341   4.427  11.916  0.3056  1.7205  0.4788
  815MPD2    H212000   1.718   4.553  11.778  0.6500 -0.8975  1.7483
  815MPD2    H312001   1.481   4.595  11.828  0.4701  0.6040 -0.3872
  815MPD2     N12002   1.425   4.175  11.986  0.3057  0.4130  0.1572
  815MPD2    H512003   1.456   4.079  11.970  0.1052  0.5835 -1.1928
  815MPD2    N112004   1.836   4.322  11.768 -0.5890 -0.6061 -0.3778
  815MPD2    H712005   1.884   4.403  11.731  0.2017 -0.8561  0.0825
  816MPD2     C12006   0.825   2.859  17.596 -0.9629 -0.1206 -0.7453
  816MPD2    C112007   0.925   2.928  17.660  0.2939 -0.5677  0.2794
  816MPD2    C212008   1.048   2.857  17.664 -0.5415  0.5080  0.4896
  816MPD2    C312009   1.059   2.727  17.615  0.7288  0.7162 -0.5153
  816MPD2    C412010   0.951   2.661  17.560  0.2883 -0.1924  0.6579
  816MPD2    C512011   0.832   2.732  17.550 -0.3088 -0.1851  0.2792
  816MPD2     H12012   1.136   2.918   0.004  0.4469 -0.4205 -1.1132
  816MPD2    H112013   0.955   2.560  17.519  2.1775  0.7250 -1.4417
  816MPD2    H212014   0.728   2.905  17.583 -0.6618  1.0351  1.0996
  816MPD2    H312015   0.739   2.693  17.510 -1.0628  0.2501  1.5911
  816MPD2     N12016   1.189   2.668  17.610  0.0109 -0.0393  0.7932
  816MPD2    H512017   1.264   2.717  17.659  0.5144 -2.4737  2.4685
  816MPD2    N112018   0.905   3.069   0.011 -0.0437 -0.0520  0.4793
  816MPD2    H712019   0.829   3.125  17.652  0.5099 -0.8685 -1.8402
  817MPD2     C12020   1.334   4.599   9.814 -0.3488  0.3754 -0.3869
  817MPD2    C112021   1.425   4.641   9.722  0.4877 -0.0682 -0.0652
  817MPD2    C212022   1.382   4.710   9.608 -0.3263  0.3851  0.0752
  817MPD2    C312023   1.247   0.015   9.587  0.0928 -0.3743  0.5555
  817MPD2    C412024   1.160   4.692   9.686 -0.3057  0.1549 -0.2432
  817MPD2    C512025   1.202   4.628   9.797 -0.8721  0.9718  0.0561
  817MPD2     H12026   1.459   0.024   9.540 -0.1813  1.3899  0.7404
  817MPD2    H112027   1.052   4.705   9.686 -0.4727 -1.1905  1.2913
  817MPD2    H212028   1.362   4.564   9.912 -1.3547 -0.5393 -0.4199
  817MPD2    H312029   1.142   4.596   9.881  0.8204  1.8751  1.6059
  817MPD2     N12030   1.210   0.076   9.467  0.1306  0.2273 -0.5559
  817MPD2    H512031   1.276   0.095   9.392  2.0497  1.9894  1.5705
  817MPD2    N112032   1.561   4.607   9.727  0.5523  0.1036  0.1964
  817MPD2    H712033   1.623   4.652   9.660 -0.5518  1.5872  0.1798
  818MPD2     C12034   0.329   4.261   9.562 -0.5715 -0.2726  0.9411
  818MPD2    C112035   0.253   4.213   9.667  0.1441  0.0234  0.3768
  818MPD2    C212036   0.291   4.104   9.735  0.9011  0.1785 -0.1875
  818MPD2    C312037   0.408   4.033   9.701 -0.1074 -0.1266 -0.3058
  818MPD2    C412038   0.481   4.079   9.595  0.0741  0.6520  0.0706
  818MPD2    C512039   0.439   4.190   9.527 -0.3606  0.2645  0.3366
  818MPD2     H12040   0.237   4.069   9.822 -0.2971 -1.2035 -1.4933
  818MPD2    H112041   0.572   4.038   9.553  0.6496  1.2145  0.7584
  818MPD2    H212042   0.295   4.347   9.506  3.8848  0.1246 -1.1471
  818MPD2    H312043   0.497   4.218   9.439  1.3374 -0.9200  1.0924
  818MPD2     N12044   0.455   3.917   9.766 -0.3118  0.2330  0.2210
  818MPD2    H512045   0.543   3.885   9.727 -0.0916 -0.8561  1.5857
  818MPD2    N112046   0.136   4.277   9.714 -0.1455 -0.3250 -0.2334
  818MPD2    H712047   0.083   4.230   9.786 -3.0663  2.9708 -0.2234
  819MPD2     C12048   2.863   1.505  15.382  0.7772  0.1972 -0.5161
  819MPD2    C112049   2.898   1.378  15.408  0.1768  0.1531 -0.0368
  819MPD2    C212050   3.030   1.353  15.431 -0.0468  0.6129 -0.2609
  819MPD2    C312051   3.125   1.452  15.426  0.1472 -0.1976 -0.1395
  819MPD2    C412052   3.081   1.580  15.395 -0.2068 -0.0359 -0.4873
  819MPD2    C512053   2.951   1.611  15.389  0.1503  0.2979  0.1035
  819MPD2     H12054   3.066   1.257  15.467 -2.5645 -0.4120 -0.5139
  819MPD2    H112055   3.144   1.667  15.410  1.0379 -1.3885  2.1697
  819MPD2    H212056   2.761   1.535  15.360  0.5668  0.8337  1.3790
  819MPD2    H312057   2.926   1.716  15.396  1.4385  0.5748  0.5913
  819MPD2     N12058   3.265   1.419  15.446 -0.2204  0.6930  0.2038
  819MPD2    H512059   3.277   1.320  15.463  1.2845  0.6212 -1.3414
  819MPD2    N112060   2.797   1.281  15.394  0.3136  0.9458 -0.1119
  819MPD2    H712061   2.705   1.314  15.364  0.5281  0.6885 -1.0270
  820MPD2     C12062   2.016   1.137  14.846 -0.1375 -0.2710  0.5618
  820MPD2    C112063   2.069   1.237  14.925 -0.5599  0.2044 -0.0103
  820MPD2    C212064   2.183   1.201  15.003  0.1935 -0.1750 -0.4928
  820MPD2    C312065   2.235   1.069  15.003 -0.4256 -1.0396  0.5547
  820MPD2    C412066   2.168   0.973  14.924 -0.6432 -0.3128 -0.2012
  820MPD2    C512067   2.061   1.008  14.851 -0.0477 -0.1932 -0.1216
  820MPD2     H12068   2.225   1.281  15.064  0.9568 -0.5686 -0.5076
  820MPD2    H112069   2.202   0.870  14.927 -2.9817 -1.0553  0.6872
  820MPD2    H212070   1.933   1.166  14.782 -1.2170 -0.4787  1.8739
  820MPD2    H312071   2.014   0.936  14.785 -0.2658  1.0529 -1.3234
  820MPD2     N12072   2.351   1.044  15.080  0.1804  0.2062 -0.7541
  820MPD2    H512073   2.383   0.948  15.090 -3.3384 -0.9165 -0.0490
  820MPD2    N112074   1.993   1.358  14.937  0.3466  0.4691 -0.6805
  820MPD2    H712075   1.923   1.360  14.864 -0.5911 -0.0992  0.2031
  821MPD2     C12076   2.629   3.228  13.180 -0.0563 -0.1711  0.9651
  821MPD2    C112077   2.715   3.119  13.192 -0.5091  0.7661  0.2411
  821MPD2    C212078   2.826   3.102  13.110  0.2675 -0.1825 -0.0076
  821MPD2    C312079   2.861   3.206  13.024 -0.3747 -0.2894 -0.0923
  821MPD2    C412080   2.785   3.322  13.024 -0.0099  0.6449  0.5110
  821MPD2    C512081   2.673   3.323  13.096 -0.1110 -0.1235  0.1102
  821MPD2     H12082   2.875   3.006  13.104 -1.2676 -0.7836 -2.9075
  821MPD2    H112083   2.810   3.399  12.952 -0.2923 -0.1954 -0.4811
  821MPD2    H212084   2.535   3.243  13.232  0.8943  1.2699  2.2712
  821MPD2    H312085   2.603   3.406  13.086 -0.4821 -0.8133 -2.9219
  821MPD2     N12086   2.974   3.205  12.935 -0.3525  0.2174 -0.8153
  821MPD2    H512087   2.996   3.292  12.888  1.2217  0.9115  1.2045
  821MPD2    N112088   2.682   3.013  13.277  0.0879  0.1368  0.1733
  821MPD2    H712089   2.744   2.932  13.278  1.9676  1.5753  0.1632
  822MPD2     C12090   3.460   2.950  15.551 -1.1293 -0.1241  0.2179
  822MPD2    C112091   3.441   2.878  15.669 -0.2872  0.1405  0.4267
  822MPD2    C212092   3.355   2.934  15.766  0.2457 -0.7142 -0.3632
  822MPD2    C312093   3.303   3.061  15.742 -0.3341  0.4954  0.0945
  822MPD2    C412094   3.323   3.127  15.627  0.3437 -0.6815  0.8456
  822MPD2    C512095   3.399   3.072  15.527  0.8008 -0.4532  0.1224
  822MPD2     H12096   3.335   2.892  15.864 -0.2577 -0.6122 -0.4208
  822MPD2    H112097   3.280   3.223  15.602  1.3455 -0.2669  0.7514
  822MPD2    H212098   3.522   2.912  15.471 -2.1121 -1.6184  0.1581
  822MPD2    H312099   3.412   3.115  15.429  2.0153  1.0587  0.9551
  822MPD2     N12100   3.234   3.126  15.845  0.0780  0.2784 -0.4918
  822MPD2    H512101   3.219   3.074  15.931  0.7021  0.2920 -0.3726
  822MPD2    N112102   3.505   2.754  15.689  0.2130 -0.0875  0.0471
  822MPD2    H712103   3.481   2.710  15.777  1.5492 -0.6034  0.1534
  823MPD2     C12104   3.121   3.078  16.652  0.3288  0.5477 -0.1993
  823MPD2    C112105   3.116   3.026  16.523 -0.3476 -0.1228  0.6147
  823MPD2    C212106   3.104   2.888  16.501  0.4558  0.5959  0.3117
  823MPD2    C312107   3.116   2.800  16.606  0.7610 -0.6482 -0.8418
  823MPD2    C412108   3.122   2.852  16.733  0.3078  0.2592  0.4744
  823MPD2    C512109   3.119   2.988  16.755  0.1214  0.2960  0.4021
  823MPD2     H12110   3.105   2.853  16.399  2.3993  1.2156  0.1100
  823MPD2    H112111   3.135   2.794  16.824 -0.3708  0.0432  0.4347
  823MPD2    H212112   3.146   3.180  16.677  2.1446 -0.4593  2.1536
  823MPD2    H312113   3.133   3.030  16.854  0.5818 -0.5867  0.7128
  823MPD2     N12114   3.114   2.660  16.601 -0.0639 -0.1453 -0.0589
  823MPD2    H512115   3.105   2.607  16.686  2.2036  1.1895  1.0000
  823MPD2    N112116   3.118   3.126  16.422  0.2021  0.3536  0.5675
  823MPD2    H712117   3.149   3.220  16.447  0.6517 -0.0108  1.3726
  824MPD2     C12118   3.807   1.957  15.436 -0.0596 -0.0736  0.1760
  824MPD2    C112119   3.885   2.069  15.471  0.0485 -0.2158  0.1347
  824MPD2    C212120   4.019   2.056  15.467 -0.8393 -0.4620 -0.0488
  824MPD2    C312121   4.091   1.943  15.442 -0.0210  0.3024  0.4993
  824MPD2    C412122   4.018   1.833  15.400 -0.0984 -0.3399 -0.4812
  824MPD2    C512123   3.881   1.843  15.400 -0.1970  0.4224  0.0175
  824MPD2     H12124   4.070   2.148  15.489  2.7665 -2.1552 -1.3474
  824MPD2    H112125   4.056   1.734  15.374 -1.5476 -0.7398 -1.0970
  824MPD2    H212126   3.700   1.968  15.432  0.1166  1.1582 -1.2643
  824MPD2    H312127   3.825   1.751  15.385  0.0265  0.4024 -0.6815
  824MPD2     N12128   4.233   1.948  15.435  0.0531 -0.4254 -0.4984
  824MPD2    H512129   4.274   2.039  15.422  1.5422 -1.1281 -0.7793
  824MPD2    N112130   3.832   2.187  15.534  0.8044  0.2770 -0.0741
  824MPD2    H712131   3.892   2.249  15.587 -1.0246  1.6688  0.3524
  825MPD2     C12132   0.288   2.200  15.110  0.8597 -0.4212 -0.0077
  825MPD2    C112133   0.150   2.216  15.135  1.0239 -0.1857  0.1805
  825MPD2    C212134   0.087   2.318  15.063 -0.5568 -0.0364  0.4973
  825MPD2    C312135   0.157   2.399  14.975 -0.4359  0.5158 -0.1739
  825MPD2    C412136   0.292   2.375  14.955 -0.3425 -0.0720 -0.3280
  825MPD2    C512137   0.355   2.272  15.017 -0.4075  0.2493 -0.1601
  825MPD2     H12138   4.698   2.326  15.068 -0.5061 -0.9507  3.1026
  825MPD2    H112139   0.348   2.443  14.892 -1.2096  0.4258 -0.5623
  825MPD2    H212140   0.340   2.112  15.148  2.1974  1.1527  1.7916
  825MPD2    H312141   0.460   2.259  14.994 -0.2341 -0.2009  0.8762
  825MPD2     N12142   0.107   2.514  14.914 -0.4636 -0.0285  0.0311
  825MPD2    H512143   0.167   2.563  14.847  0.1536 -2.9609 -1.5780
  825MPD2    N112144   0.080   2.111  15.204 -0.4834 -0.3253  0.2794
  825MPD2    H712145   0.140   2.031  15.224 -0.0451 -0.1965 -0.5301
  826MPD2     C12146   4.559   1.910  13.691 -0.1183 -0.6303  1.0634
  826MPD2    C112147   4.513   1.941  13.570 -0.1503  0.3310 -0.2632
  826MPD2    C212148   4.391   2.007  13.576 -0.7328 -0.2975 -0.3452
  826MPD2    C312149   4.317   2.030  13.691 -0.0334  0.4972  0.0186
  826MPD2    C412150   4.367   1.981  13.811  0.0766  0.3095 -0.5689
  826MPD2    C512151   4.487   1.918  13.809 -0.3617  0.2217  0.0944
  826MPD2     H12152   4.336   2.033  13.486 -0.1399 -1.7519 -1.1302
  826MPD2    H112153   4.305   1.991  13.899  1.0402 -1.8976  0.3572
  826MPD2    H212154   4.651   1.853  13.694  0.0898 -0.3196  0.5908
  826MPD2    H312155   4.534   1.878  13.898  1.5982  0.0174 -1.0173
  826MPD2     N12156   4.203   2.108  13.698 -0.5456 -0.0060 -0.0969
  826MPD2    H512157   4.155   2.113  13.788 -1.9740 -0.0635 -0.8578
  826MPD2    N112158   4.582   1.924  13.452 -0.8622  0.8210 -0.2883
  826MPD2    H712159   4.663   1.862  13.458 -0.6919  1.1626  1.1302
  827MPD2     C12160   1.131   3.681   9.614  0.1429 -0.5057 -0.0580
  827MPD2    C112161   1.097   3.568   9.683 -0.4726  0.2792 -0.5530
  827MPD2    C212162   1.018   3.474   9.627  0.6912 -0.4276  0.0266
  827MPD2    C312163   0.937   3.501   9.519  0.3094  1.0307 -0.4635
  827MPD2    C412164   0.966   3.619   9.451  0.3069  0.7623  0.0677
  827MPD2    C512165   1.072   3.701   9.493 -0.0231  0.4192 -0.3664
  827MPD2     H12166   1.007   3.383   9.684 -2.0419  0.1868  0.5014
  827MPD2    H112167   0.927   3.625   9.350  0.6492 -0.6553 -0.1455
  827MPD2    H212168   1.197   3.754   9.658  0.3451 -2.2212  2.4865
  827MPD2    H312169   1.114   3.780   9.432 -1.8533  2.5783  1.1860
  827MPD2     N12170   0.853   3.407   9.465 -0.2732  0.3712  0.5359
  827MPD2    H512171   0.854   3.312   9.500 -0.7789 -0.3415 -1.3335
  827MPD2    N112172   1.162   3.557   9.811  0.7207  0.0404  0.2964
  827MPD2    H712173   1.220   3.637   9.832  0.0078  0.6994 -0.2396
  828MPD2     C12174   3.676   2.986  12.359  0.9099  0.1092 -0.2927
  828MPD2    C112175   3.663   2.967  12.223 -0.1376 -0.3604  0.6718
  828MPD2    C212176   3.771   2.929  12.148  0.6483 -0.0420  0.4631
  828MPD2    C312177   3.900   2.922  12.207 -0.3759  0.4686 -0.5523
  828MPD2    C412178   3.904   2.927  12.347  0.3690 -0.0668  0.4050
  828MPD2    C512179   3.795   2.959  12.419  0.0921  0.4020  0.3601
  828MPD2     H12180   3.770   2.921  12.040  0.8899 -3.1005  0.7091
  828MPD2    H112181   3.993   2.909  12.406 -1.2994  1.5425  3.4192
  828MPD2    H212182   3.591   3.011  12.422  0.2491 -0.7095 -0.8536
  828MPD2    H312183   3.804   2.964  12.526  0.4964  1.7160  0.2655
  828MPD2     N12184   4.015   2.895  12.129  0.4074 -0.0693  0.0961
  828MPD2    H512185   4.091   2.869  12.190 -1.7726 -2.2171  1.9174
  828MPD2    N112186   3.545   3.002  12.153  0.2155 -0.3467  0.3465
  828MPD2    H712187   3.544   2.992  12.052 -2.1956  0.9252  0.2603
  829MPD2     C12188   3.660   3.675  11.629 -0.5193  0.2225 -0.6689
  829MPD2    C112189   3.523   3.688  11.641  0.3333 -0.0790 -0.7087
  829MPD2    C212190   3.463   3.599  11.723 -0.3428  0.5072 -0.1878
  829MPD2    C312191   3.534   3.505  11.789  0.0038  0.8607  0.1056
  829MPD2    C412192   3.671   3.492  11.766  0.1232  0.5783 -0.1696
  829MPD2    C512193   3.739   3.579  11.684 -0.8665 -0.1612 -0.3857
  829MPD2     H12194   3.355   3.606  11.733 -0.1457  0.6303  1.7118
  829MPD2    H112195   3.729   3.414  11.815 -0.8274  1.6811  2.6895
  829MPD2    H212196   3.714   3.747  11.570  0.7172  0.2964  0.5580
  829MPD2    H312197   3.847   3.576  11.669 -1.2841 -0.3981 -3.1547
  829MPD2     N12198   3.477   3.413  11.885  0.0268  0.7413  0.3512
  829MPD2    H512199   3.543   3.345  11.922  0.0578  0.8254  0.4477
  829MPD2    N112200   3.459   3.789  11.568 -0.5508 -0.0896  0.0482
  829MPD2    H712201   3.509   3.859  11.514  1.3810 -0.7693  0.9663
  830MPD2     C12202   4.204   1.379  15.339  0.3551 -0.0436 -0.3045
  830MPD2    C112203   4.092   1.447  15.294 -0.5563  0.5888 -0.1981
  830MPD2    C212204   4.105   1.560  15.213 -0.2132  0.1738  0.2079
  830MPD2    C312205   4.231   1.602  15.178 -0.6725 -0.7649 -1.1393
  830MPD2    C412206   4.345   1.535  15.226  0.6745  0.2644 -0.0527
  830MPD2    C512207   4.327   1.430  15.308  0.3210 -0.5035  0.6151
  830MPD2     H12208   4.025   1.632  15.198 -0.3510 -0.0179  0.0135
  830MPD2    H112209   4.443   1.573  15.199  0.4364 -0.2063 -1.5970
  830MPD2    H212210   4.189   1.292  15.401 -0.4179 -0.0945 -0.5645
  830MPD2    H312211   4.411   1.373  15.346 -0.5085 -2.2277 -0.1206
  830MPD2     N12212   4.257   1.715  15.091 -0.5615 -0.1794  0.1245
  830MPD2    H512213   4.355   1.738  15.076 -0.7174  0.6446  0.3774
  830MPD2    N112214   3.965   1.403  15.343  0.3054 -0.1556  0.3355
  830MPD2    H712215   3.962   1.317  15.397 -1.3790 -1.6367 -2.0776
  831MPD2     C12216   3.499   3.066  16.108 -0.5269  0.2644 -0.0708
  831MPD2    C112217   3.553   2.980  16.020  0.1251 -0.3331  0.2448
  831MPD2    C212218   3.525   2.847  16.027  0.1580  0.6261  0.4071
  831MPD2    C312219   3.428   2.809  16.123 -0.2548 -0.3427 -0.0110
  831MPD2    C412220   3.387   2.898  16.222 -0.3453  0.0982  0.5230
  831MPD2    C512221   3.417   3.031  16.216  0.2025 -0.3891  0.3760
  831MPD2     H12222   3.567   2.779  15.955  0.8032 -0.3718  1.7337
  831MPD2    H112223   3.317   2.877  16.303  0.5803 -2.2374  0.7195
  831MPD2    H212224   3.530   3.170  16.100 -0.2096  0.2255  0.6303
  831MPD2    H312225   3.387   3.100  16.294 -0.5489 -1.9124  1.4516
  831MPD2     N12226   3.367   2.680  16.125 -0.3195  0.1799 -0.4036
  831MPD2    H512227   3.319   2.656  16.211  0.0408 -1.6039 -0.7004
  831MPD2    N112228   3.645   3.032  15.928  0.0404  1.1892 -0.2371
  831MPD2    H712229   3.647   3.133  15.925 -0.2084  1.2673  2.0588
  832MPD2     C12230   2.172   4.095  17.315 -0.5236  0.5434  0.3565
  832MPD2    C112231   2.125   4.226  17.332 -0.5000 -0.2481 -0.2412
  832MPD2    C212232   1.988   4.253  17.304 -0.0170 -0.6216 -0.3342
  832MPD2    C312233   1.911   4.148  17.257  0.4572 -0.2018  0.4789
  832MPD2    C412234   1.959   4.019  17.257  0.4734  0.5167 -0.0846
  832MPD2    C512235   2.089   3.994  17.283  0.4948  0.1748  0.3382
  832MPD2     H12236   1.944   4.345  17.340 -1.9694 -1.0089 -1.7809
  832MPD2    H112237   1.906   3.933  17.218 -1.0784  0.9160  1.1845
  832MPD2    H212238   2.277   4.075  17.327 -0.6992 -2.0528 -2.3721
  832MPD2    H312239   2.133   3.896  17.267  0.5664 -0.0128  1.6805
  832MPD2     N12240   1.777   4.150  17.213  0.8893 -0.8036  0.0910
  832MPD2    H512241   1.740   4.066  17.169  0.2338  0.1215 -1.1189
  832MPD2    N112242   2.214   4.318  17.394 -0.7249 -0.5541 -0.6727
  832MPD2    H712243   2.311   4.290  17.388 -0.2091  1.3441 -0.9934
  833MPD2     C12244   4.222   1.115  12.255 -0.6888  0.6318 -0.0069
  833MPD2    C112245   4.221   1.183  12.135  0.9389  0.6599 -0.0691
  833MPD2    C212246   4.314   1.162  12.037 -0.1943  0.3607 -0.0414
  833MPD2    C312247   4.416   1.065  12.063  0.2183 -0.6939 -0.6523
  833MPD2    C412248   4.420   0.999  12.187 -0.8756 -0.3842 -0.1569
  833MPD2    C512249   4.321   1.027  12.283  0.2941  0.9233 -0.2474
  833MPD2     H12250   4.311   1.212  11.941  3.3454  1.6437  0.5029
  833MPD2    H112251   4.503   0.934  12.211 -0.8420 -0.5604 -0.7531
  833MPD2    H212252   4.147   1.123  12.334 -1.0548 -1.9956 -0.0643
  833MPD2    H312253   4.314   0.970  12.375  1.0656  0.5106 -0.4422
  833MPD2     N12254   4.512   1.032  11.966 -0.4079  0.4200 -0.0810
  833MPD2    H512255   4.590   0.970  11.985 -0.4774  0.3454 -0.0379
  833MPD2    N112256   4.116   1.275  12.109 -0.5148  0.2416  0.5622
  833MPD2    H712257   4.049   1.291  12.183 -1.5416 -0.4279 -0.2237
  834MPD2     C12258   0.032   0.213  11.456  0.2385 -0.1700 -0.0288
  834MPD2    C112259   4.706   0.284  11.351  0.5422 -0.0527  0.1789
  834MPD2    C212260   4.663   0.416  11.372 -0.2047 -0.1858  0.3048
  834MPD2    C312261   4.677   0.478  11.495 -0.5975  0.2506  0.2604
  834MPD2    C412262   0.004   0.404  11.601  0.2648  0.2738  1.0428
  834MPD2    C512263   0.039   0.272  11.579 -0.0084 -0.2427  0.0817
  834MPD2     H12264   4.617   0.468  11.289  0.2230  0.7332  0.6447
  834MPD2    H112265   0.005   0.441  11.703  2.7672 -1.2040  1.5419
  834MPD2    H212266   0.086   0.122  11.431  2.5805  1.1807  0.1893
  834MPD2    H312267   0.089   0.217  11.658  1.7471  1.5849  0.2278
  834MPD2     N12268   4.616   0.604  11.508 -0.3942  1.1296  0.2833
  834MPD2    H512269   4.610   0.663  11.426  1.6972  1.6797  0.5058
  834MPD2    N112270   4.716   0.213  11.229  0.1213  0.3198  0.2750
  834MPD2    H712271   0.026   0.116  11.238  1.1274  0.6458  0.4903
  835MPD2     C12272   0.111   3.769  11.541 -0.3289  0.0459  1.2747
  835MPD2    C112273   4.714   3.839  11.497 -0.2786  0.3988  0.9361
  835MPD2    C212274   4.607   3.852  11.578 -0.1933  0.4247  0.9435
  835MPD2    C312275   4.597   3.783  11.692 -0.1720 -0.5623 -0.5445
  835MPD2    C412276   4.706   3.723  11.745 -0.2312  0.3243 -0.4662
  835MPD2    C512277   0.104   3.713  11.667  0.4511 -0.1838  0.0955
  835MPD2     H12278   4.518   3.905  11.545 -1.1525 -2.6277 -1.3821
  835MPD2    H112279   4.701   3.679  11.843  0.7284  3.2700  0.8992
  835MPD2    H212280   0.205   3.761  11.488  0.9328  0.3987  3.4907
  835MPD2    H312281   0.191   3.671  11.717  0.9004  0.3644 -0.2255
  835MPD2     N12282   4.473   3.775  11.769  0.2535  0.0688 -0.4181
  835MPD2    H512283   4.463   3.728  11.858  0.0862  1.1306  0.1309
  835MPD2    N112284   4.693   3.885  11.362 -0.5859  0.5696  0.1313
  835MPD2    H712285   4.606   3.927  11.334 -0.2625  1.0398 -0.1629
  836MPD2     C12286   3.764   4.120  11.669 -0.1006 -0.2544  0.1182
  836MPD2    C112287   3.761   4.025  11.771  0.1685  0.1361  0.3844
  836MPD2    C212288   3.642   4.003  11.834 -0.5381  0.1275  0.0603
  836MPD2    C312289   3.532   4.076  11.793 -0.3359  0.2473 -0.2964
  836MPD2    C412290   3.540   4.166  11.688 -0.3270 -0.1867 -0.0438
  836MPD2    C512291   3.658   4.191  11.627 -0.7217 -0.2806  0.2024
  836MPD2     H12292   3.636   3.920  11.903  1.5981 -2.3011 -2.6185
  836MPD2    H112293   3.455   4.226  11.659 -0.8688  0.0926  2.0867
  836MPD2    H212294   3.855   4.152  11.621 -0.1161 -1.1417 -0.4979
  836MPD2    H312295   3.662   4.279  11.564 -0.5069 -0.0046  0.5981
  836MPD2     N12296   3.405   4.071  11.860  0.3522 -0.5269 -0.2195
  836MPD2    H512297   3.336   4.141  11.837  0.3903 -0.3167  0.2966
  836MPD2    N112298   3.893   3.960  11.792 -0.3935 -0.1461 -0.1314
  836MPD2    H712299   3.957   3.979  11.716  0.3700  1.6274  0.9591
  837MPD2     C12300   2.607   3.416  10.257 -0.6167 -0.2232 -0.5123
  837MPD2    C112301   2.660   3.447  10.129 -0.2442 -1.1684  0.0849
  837MPD2    C212302   2.657   3.581  10.091 -0.0320  0.1957  0.0378
  837MPD2    C312303   2.607   3.680  10.170 -0.4826 -0.3939 -0.6810
  837MPD2    C412304   2.576   3.645  10.303 -0.4182 -0.2679 -0.0480
  837MPD2    C512305   2.581   3.515  10.349 -0.0970  0.5800  0.3079
  837MPD2     H12306   2.694   3.594   9.990 -0.1602  0.4574  0.0233
  837MPD2    H112307   2.527   3.708  10.376  0.0987  1.6584 -1.3734
  837MPD2    H212308   2.599   3.313  10.290 -0.2395 -0.1218 -0.1058
  837MPD2    H312309   2.552   3.488  10.450  0.5985 -0.2898  0.2755
  837MPD2     N12310   2.576   3.799  10.107  0.2048  0.0701  0.4743
  837MPD2    H512311   2.599   3.819  10.010  0.7034  0.5544  0.6850
  837MPD2    N112312   2.698   3.347  10.033 -0.3492 -0.0119  0.5042
  837MPD2    H712313   2.719   3.376   9.938 -1.0419 -0.8899  0.0868
  838MPD2     C12314   1.006   1.017  10.861  0.2726  0.0982  0.3535
  838MPD2    C112315   1.030   1.110  10.961  0.4210  0.1212 -0.6970
  838MPD2    C212316   0.928   1.150  11.051  0.1770  0.8671  0.1368
  838MPD2    C312317   0.800   1.106  11.045 -0.0439 -0.8258  0.3453
  838MPD2    C412318   0.770   1.016  10.937 -0.6214 -0.1114 -0.4744
  838MPD2    C512319   0.872   0.972  10.855 -0.2702 -0.0808 -0.3682
  838MPD2     H12320   0.950   1.224  11.127  0.7454 -0.3262  1.1398
  838MPD2    H112321   0.670   0.979  10.916  0.0832 -2.0775 -0.3291
  838MPD2    H212322   1.089   0.989  10.797 -2.1456 -0.5509 -2.5360
  838MPD2    H312323   0.835   0.907  10.777 -0.9128  0.1656 -0.2696
  838MPD2     N12324   0.714   1.160  11.141  0.0110 -0.3168  0.0860
  838MPD2    H512325   0.754   1.225  11.208 -1.0262 -0.6175  1.0095
  838MPD2    N112326   1.162   1.167  10.989  0.0084  0.1016 -0.0055
  838MPD2    H712327   1.166   1.237  11.062  0.9750  1.7872 -1.6666
  839MPD2     C12328   0.887   0.951  11.546  0.6467 -0.0812 -0.6437
  839MPD2    C112329   0.903   0.930  11.410  0.4602  0.3458  0.0769
  839MPD2    C212330   1.019   0.963  11.350 -0.4070  0.2256 -0.0528
  839MPD2    C312331   1.122   1.025  11.416  0.2285 -0.0548 -0.1353
  839MPD2    C412332   1.111   1.053  11.551 -0.0108 -0.1995 -0.7679
  839MPD2    C512333   0.993   1.023  11.614 -0.2085 -0.1414  0.5091
  839MPD2     H12334   1.018   0.977  11.242  0.9808  0.8628  0.0255
  839MPD2    H112335   1.188   1.104  11.609 -0.0390 -1.0365  0.0135
  839MPD2    H212336   0.803   0.914  11.603  0.3025  1.8009  0.0991
  839MPD2    H312337   0.998   1.041  11.721 -1.2382 -0.2943  0.5761
  839MPD2     N12338   1.227   1.058  11.330 -0.7508  0.4619 -0.8005
  839MPD2    H512339   1.209   1.025  11.235 -1.4005 -1.4758 -0.0007
  839MPD2    N112340   0.796   0.887  11.329  1.0933 -0.1590  0.2775
  839MPD2    H712341   0.817   0.849  11.238 -0.6609 -1.3645  0.3671
  840MPD2     C12342   1.783   3.810  10.318  0.4196 -0.5773 -1.0172
  840MPD2    C112343   1.672   3.833  10.240  0.0818  1.1653 -0.3313
  840MPD2    C212344   1.633   3.964  10.210 -0.3146 -0.4854  0.2448
  840MPD2    C312345   1.715   4.071  10.242  0.5146 -0.4287  0.7162
  840MPD2    C412346   1.834   4.044  10.301  0.2207 -0.3083 -0.2600
  840MPD2    C512347   1.862   3.913  10.345 -0.1605  0.0003  0.6250
  840MPD2     H12348   1.543   3.997  10.160  1.4683  2.1583 -1.2314
  840MPD2    H112349   1.908   4.124  10.295  1.0644 -1.0452  0.3064
  840MPD2    H212350   1.797   3.705  10.342 -0.0514 -0.0533  1.5848
  840MPD2    H312351   1.951   3.884  10.399  1.4502  0.8183 -1.5668
  840MPD2     N12352   1.668   4.200  10.261  0.2512  0.2354  0.1350
  840MPD2    H512353   1.734   4.272  10.287  1.3828 -0.8533  0.2605
  840MPD2    N112354   1.597   3.726  10.191  0.2465 -0.2063 -0.6329
  840MPD2    H712355   1.602   3.643  10.249 -0.4900 -0.4688 -0.9410
  841MPD2     C12356   0.739   3.989  15.179  0.3198 -0.5260 -0.3547
  841MPD2    C112357   0.757   3.877  15.097 -0.4421 -0.0200  0.7626
  841MPD2    C212358   0.824   3.897  14.976 -0.2787  0.5966 -0.2122
  841MPD2    C312359   0.893   4.014  14.937  0.7465  0.2580 -0.3934
  841MPD2    C412360   0.879   4.118  15.030 -0.2137  0.1764  0.0727
  841MPD2    C512361   0.806   4.106  15.147 -0.0524 -0.1819  0.4101
  841MPD2     H12362   0.824   3.813  14.907  0.8369  0.4103  0.0151
  841MPD2    H112363   0.925   4.215  15.017  1.2694 -0.7534 -1.5294
  841MPD2    H212364   0.687   3.989  15.274 -3.9995  0.5052 -2.6883
  841MPD2    H312365   0.795   4.191  15.214 -3.3133 -1.6754  1.7763
  841MPD2     N12366   0.950   4.022  14.806  0.1468 -0.2357 -0.0665
  841MPD2    H512367   0.941   3.942  14.744  2.8134 -0.5680  0.0044
  841MPD2    N112368   0.709   3.753  15.135  0.4422 -0.2261  0.2994
  841MPD2    H712369   0.731   3.681  15.066 -0.5180 -0.9067  0.6923
  842MPD2     C12370   0.943   4.379  16.780  0.3317  0.0865 -0.0659
  842MPD2    C112371   0.827   4.378  16.708 -0.0172 -0.4727 -0.3496
  842MPD2    C212372   0.718   4.306  16.754  0.1260 -0.4209 -0.4702
  842MPD2    C312373   0.718   4.245  16.871  0.7486 -0.5313 -0.6588
  842MPD2    C412374   0.839   4.231  16.934  0.2971  0.7988  0.4441
  842MPD2    C512375   0.949   4.306  16.895 -0.4216 -0.2392  0.2241
  842MPD2     H12376   0.619   4.333  16.719 -0.7605 -2.4497  0.4818
  842MPD2    H112377   0.853   4.168  17.021 -0.0722  1.3802  0.9250
  842MPD2    H212378   1.034   4.430  16.751  1.0591 -1.0923  0.1471
  842MPD2    H312379   1.048   4.309  16.940 -0.0712  0.5356 -0.5857
  842MPD2     N12380   0.606   4.197  16.940 -0.0401 -0.7894  0.2255
  842MPD2    H512381   0.629   4.157  17.031  3.3868  1.4493  0.3296
  842MPD2    N112382   0.819   4.460  16.595 -0.0944  0.3496  0.0355
  842MPD2    H712383   0.893   4.524  16.572  2.1581 -1.5126  2.0731
  843MPD2     C12384   3.139   0.230  17.195 -0.4270 -0.3316  0.2724
  843MPD2    C112385   3.158   0.185  17.323  0.3545  0.3155 -0.4110
  843MPD2    C212386   3.161   0.279  17.427  0.0334 -0.1095  0.9189
  843MPD2    C312387   3.153   0.416  17.409  0.1642  0.3734 -0.0644
  843MPD2    C412388   3.155   0.460  17.278 -0.3881  0.3509  0.8004
  843MPD2    C512389   3.148   0.366  17.174 -0.0482 -0.0312  0.1577
  843MPD2     H12390   3.160   0.242  17.529 -0.4442 -0.9189  0.6188
  843MPD2    H112391   3.148   0.567  17.262 -1.0559  0.2674  0.5189
  843MPD2    H212392   3.117   0.164  17.111 -1.3737  0.9492 -0.4795
  843MPD2    H312393   3.152   0.400  17.071  1.6062 -1.5397 -0.2732
  843MPD2     N12394   3.145   0.515  17.514 -0.7519 -0.2474  0.4579
  843MPD2    H512395   3.142   0.613  17.489  0.0556 -0.1807  0.6428
  843MPD2    N112396   3.143   0.046  17.346 -0.4116 -0.3127 -0.0911
  843MPD2    H712397   3.109   4.699  17.276 -1.6319 -1.1240  1.2719
  844MPD2     C12398   1.519   4.031  16.859 -0.2769 -0.5471  0.2757
  844MPD2    C112399   1.593   3.931  16.919 -0.2833  0.3121  0.2953
  844MPD2    C212400   1.729   3.946  16.920 -0.2885  0.5422  0.2187
  844MPD2    C312401   1.801   4.046  16.867 -0.3942 -0.1218 -1.0855
  844MPD2    C412402   1.729   4.142  16.797 -0.5346 -0.2745 -0.7050
  844MPD2    C512403   1.594   4.126  16.793  0.5754  0.2678 -0.1246
  844MPD2     H12404   1.780   3.865  16.971  0.9200  2.1952  1.6362
  844MPD2    H112405   1.777   4.216  16.734  0.0689 -0.1509 -0.1042
  844MPD2    H212406   1.414   4.019  16.834 -0.2519 -0.1587 -0.0076
  844MPD2    H312407   1.541   4.208  16.746 -2.3890 -0.8553  1.2792
  844MPD2     N12408   1.938   4.047  16.895  0.1864  0.7045  0.1674
  844MPD2    H512409   1.980   3.965  16.937  0.7988 -0.0822 -1.9782
  844MPD2    N112410   1.542   3.809  16.971  0.2503  0.8713 -0.1197
  844MPD2    H712411   1.613   3.740  16.995 -0.8418  0.0798  0.8380
  845MPD2     C12412   2.508   0.094  16.940  0.6879  0.2630 -0.6013
  845MPD2    C112413   2.440   0.039  17.045 -0.2136  0.1195 -0.3873
  845MPD2    C212414   2.429   4.621  17.060  0.7092  0.0157  0.2694
  845MPD2    C312415   2.479   4.535  16.958 -0.0652  0.0095 -0.4556
  845MPD2    C412416   2.542   4.590  16.849 -0.3292  0.1649  0.4017
  845MPD2    C512417   2.561   0.005  16.843  0.1824 -0.1171  0.2499
  845MPD2     H12418   2.375   4.581  17.145 -0.4218 -1.5718 -1.2003
  845MPD2    H112419   2.580   4.525  16.770  0.6086  0.9152  0.2395
  845MPD2    H212420   2.536   0.198  16.931 -0.5319  0.3019 -3.9094
  845MPD2    H312421   2.626   0.040  16.764  0.4136  2.1565  1.4343
  845MPD2     N12422   2.454   4.398  16.959 -0.5414 -0.4124  0.1730
  845MPD2    H512423   2.473   4.347  16.874  1.0445 -0.6133  0.6314
  845MPD2    N112424   2.398   0.135  17.134  0.3175  0.0401 -0.3225
  845MPD2    H712425   2.427   0.231  17.120  0.9272 -0.5689 -3.1699
  846MPD2     C12426   3.561   0.374  13.429  0.2127 -0.8359 -1.1797
  846MPD2    C112427   3.518   0.500  13.458 -0.7601  0.2394  0.5365
  846MPD2    C212428   3.503   0.529  13.599 -0.3106 -0.0954 -0.5011
  846MPD2    C312429   3.530   0.436  13.693  0.3361 -0.0246  0.1750
  846MPD2    C412430   3.578   0.310  13.656 -0.2464  0.3029  0.5367
  846MPD2    C512431   3.603   0.283  13.524  0.5974 -0.4434 -0.0146
  846MPD2     H12432   3.465   0.626  13.628 -0.0169  0.1714 -1.0194
  846MPD2    H112433   3.609   0.231  13.724  3.5059  0.9564 -0.4072
  846MPD2    H212434   3.575   0.341  13.327  4.2094  2.2632 -1.6251
  846MPD2    H312435   3.635   0.186  13.487 -0.6107 -1.1982  0.8902
  846MPD2     N12436   3.512   0.464  13.834  0.2470  0.4620  0.8063
  846MPD2    H512437   3.465   0.548  13.866 -0.1380  0.6122 -0.1392
  846MPD2    N112438   3.494   0.605  13.364 -0.2416 -0.5270  0.8477
  846MPD2    H712439   3.490   0.697  13.407  0.5251  0.5833 -1.4091
  847MPD2     C12440   3.579   1.220  13.715 -0.0291 -0.2577 -0.0986
  847MPD2    C112441   3.616   1.224  13.848  0.5777  0.2016  0.2699
  847MPD2    C212442   3.711   1.132  13.891 -0.1282 -1.4884  0.1039
  847MPD2    C312443   3.766   1.045  13.796  0.2970 -0.5218  0.2335
  847MPD2    C412444   3.738   1.046  13.663 -0.1661  0.9322 -0.3083
  847MPD2    C512445   3.644   1.137  13.630  0.1083 -0.0947 -0.1985
  847MPD2     H12446   3.746   1.131  13.993  0.7729  1.3477 -0.2023
  847MPD2    H112447   3.780   0.976  13.592 -0.7679 -2.3128  2.5229
  847MPD2    H212448   3.498   1.287  13.687  0.4777  0.0904 -0.7438
  847MPD2    H312449   3.611   1.126  13.527  1.2644  1.4611 -0.7403
  847MPD2     N12450   3.888   0.982  13.832 -0.5881 -0.1918 -0.3465
  847MPD2    H512451   3.944   0.951  13.753  1.2814 -1.7970  1.6226
  847MPD2    N112452   3.562   1.314  13.943  0.3169  0.2843 -0.1944
  847MPD2    H712453   3.600   1.300  14.037 -1.1227 -1.9364  0.0699
  848MPD2     C12454   1.143   4.636  16.879  0.1183 -0.6238  0.4321
  848MPD2    C112455   1.283   4.635  16.897  0.9998  0.4349  0.0685
  848MPD2    C212456   1.358   0.007  16.829  0.0008 -0.3765  0.4412
  848MPD2    C312457   1.290   0.105  16.752  0.2008  0.4025  0.3966
  848MPD2    C412458   1.159   0.089  16.722 -0.0206 -0.4492 -0.1956
  848MPD2    C512459   1.082   4.713  16.784  0.6169 -1.1003 -0.0073
  848MPD2     H12460   1.466   0.005  16.834  0.0415  0.0696 -0.1675
  848MPD2    H112461   1.108   0.152  16.650  1.1994  1.7642  0.8768
  848MPD2    H212462   1.074   4.568  16.928  0.3347 -1.1289  0.0303
  848MPD2    H312463   0.973   4.710  16.777  0.5236  1.0853  0.5297
  848MPD2     N12464   1.364   0.208  16.688 -0.0905 -0.6143  0.2831
  848MPD2    H512465   1.312   0.261  16.618  0.2679 -0.0106  0.4707
  848MPD2    N112466   1.354   4.540  16.979  0.0219 -1.2571  0.3900
  848MPD2    H712467   1.450   4.524  16.953 -0.3786 -1.0358 -1.2070
  849MPD2     C12468   0.804   4.136  13.888  0.9965 -0.5618 -0.7704
  849MPD2    C112469   0.875   4.225  13.804 -0.3386  0.6137 -0.4044
  849MPD2    C212470   1.008   4.264  13.840  0.3242  0.1204 -0.4323
  849MPD2    C312471   1.071   4.203  13.945  0.0306  0.2147  0.7428
  849MPD2    C412472   1.002   4.112  14.022 -0.2524 -0.2502 -0.2411
  849MPD2    C512473   0.868   4.085  13.997 -0.1987  0.5471  0.0937
  849MPD2     H12474   1.067   4.323  13.770  1.6274 -0.5173  0.1270
  849MPD2    H112475   1.037   4.060  14.110 -1.1431 -1.6550 -0.7278
  849MPD2    H212476   0.705   4.111  13.851  0.4303 -1.7318  1.5334
  849MPD2    H312477   0.814   4.013  14.059 -0.1622 -0.0739 -0.6040
  849MPD2     N12478   1.208   4.241  13.959  0.0727 -0.8137 -0.6518
  849MPD2    H512479   1.250   4.309  13.896 -1.0610  0.7868  0.3500
  849MPD2    N112480   0.803   4.289  13.704 -0.0867 -0.1931  0.2206
  849MPD2    H712481   0.707   4.261  13.689 -0.2601  0.2375  0.5348
  850MPD2     C12482   3.343   2.250  14.654 -1.1394  0.2343 -0.3049
  850MPD2    C112483   3.340   2.359  14.741  0.4738  0.2791 -0.7339
  850MPD2    C212484   3.464   2.431  14.743  0.2763 -0.3874  0.1109
  850MPD2    C312485   3.582   2.370  14.702 -0.3836  0.3603  0.5932
  850MPD2    C412486   3.578   2.256  14.631  0.0720 -0.6411 -0.6024
  850MPD2    C512487   3.457   2.200  14.594 -0.7735 -0.5234  1.0687
  850MPD2     H12488   3.466   2.533  14.781 -2.2082  0.6994 -2.6696
  850MPD2    H112489   3.667   2.203  14.599  0.2717 -0.7404  0.1203
  850MPD2    H212490   3.247   2.211  14.624 -1.4204  1.7872 -1.4796
  850MPD2    H312491   3.466   2.115  14.527  0.8129  0.1599  0.4052
  850MPD2     N12492   3.709   2.419  14.739  0.2296 -0.2511  0.2443
  850MPD2    H512493   3.792   2.365  14.714 -0.3447 -1.6155  1.3080
  850MPD2    N112494   3.216   2.399  14.790  0.0956  0.1491 -0.7833
  850MPD2    H712495   3.136   2.353  14.748  0.7750 -2.5496  0.8692
  851MPD2     C12496   3.854   2.527  15.386  0.6628 -0.0436  0.3559
  851MPD2    C112497   3.777   2.466  15.290  0.1527 -0.6796 -0.7838
  851MPD2    C212498   3.844   2.370  15.217  0.4608 -0.2108  0.6867
  851MPD2    C312499   3.970   2.321  15.250  0.0416  0.5155  0.2813
  851MPD2    C412500   4.042   2.378  15.352  0.0503 -0.1953 -0.1557
  851MPD2    C512501   3.979   2.480  15.415  0.6902  0.5964 -0.0570
  851MPD2     H12502   3.800   2.319  15.133  0.1080 -0.3594  0.9591
  851MPD2    H112503   4.145   2.359  15.381  0.2394 -0.4334 -0.9944
  851MPD2    H212504   3.809   2.618  15.423 -0.1030 -0.7495  1.1651
  851MPD2    H312505   4.031   2.540  15.489 -0.7448 -1.3818  2.6101
  851MPD2     N12506   4.015   2.221  15.167  0.5547  0.1247 -0.7718
  851MPD2    H512507   3.947   2.179  15.104  0.4839 -0.1025 -0.5432
  851MPD2    N112508   3.651   2.517  15.256  0.5726  0.5292  0.2935
  851MPD2    H712509   3.605   2.588  15.313  1.6044 -0.6268  2.5639
  852MPD2     C12510   3.297   0.670  10.296 -0.3647  0.1183 -0.2167
  852MPD2    C112511   3.404   0.707  10.380  0.7129  0.5237  0.8350
  852MPD2    C212512   3.514   0.765  10.322  0.3833 -0.1789  0.1863
  852MPD2    C312513   3.525   0.796  10.187 -0.9162  0.3567 -0.1669
  852MPD2    C412514   3.419   0.759  10.106  0.4644 -0.3357 -0.0716
  852MPD2    C512515   3.310   0.691  10.162 -0.0633 -0.2818 -0.1997
  852MPD2     H12516   3.604   0.775  10.382  0.4709 -0.9265  0.1792
  852MPD2    H112517   3.415   0.782  10.001 -0.6497  1.3820  0.3374
  852MPD2    H212518   3.209   0.625  10.341 -0.0932  2.2641  2.4534
  852MPD2    H312519   3.212   0.672  10.119 -0.8704  0.1090  1.4828
  852MPD2     N12520   3.647   0.838  10.147 -0.1298 -0.3027  0.3004
  852MPD2    H512521   3.715   0.860  10.219 -0.2687 -0.0897  0.3661
  852MPD2    N112522   3.410   0.662  10.516  0.1337  0.1199 -0.5210
  852MPD2    H712523   3.498   0.661  10.566 -0.6065  2.3793  0.8368
  853MPD2     C12524   0.602   4.578  12.055 -0.5878 -0.5303  0.5100
  853MPD2    C112525   0.592   4.711  12.012 -0.2191 -0.4511  0.4100
  853MPD2    C212526   0.630   0.017  11.875  1.0265 -0.9017  0.1842
  853MPD2    C312527   0.680   4.631  11.797 -0.0066 -0.4414 -0.5450
  853MPD2    C412528   0.689   4.502  11.849  0.8093  0.1237 -0.5992
  853MPD2    C512529   0.650   4.478  11.976 -0.0663 -0.9331 -0.6677
  853MPD2     H12530   0.625   0.118  11.835 -1.2533 -0.8462  0.6454
  853MPD2    H112531   0.730   4.421  11.790 -0.9990  0.1331 -1.8791
  853MPD2    H212532   0.568   4.557  12.156  0.2873  2.1331  1.3526
  853MPD2    H312533   0.655   4.383  12.029 -2.9077 -0.9090 -0.3303
  853MPD2     N12534   0.706   4.660  11.658 -0.2979 -0.5180  0.0020
  853MPD2    H512535   0.760   4.591  11.607 -0.4611  0.1193 -1.0387
  853MPD2    N112536   0.546   0.079  12.114  0.0647  0.6293 -0.1155
  853MPD2    H712537   0.527   0.037  12.205 -1.1931  1.0773 -0.1693
  854MPD2     C12538   2.211   0.086  12.745 -0.2871 -0.4628  0.1645
  854MPD2    C112539   2.223   0.098  12.884  0.0129  0.8646  0.6632
  854MPD2    C212540   2.284   4.713  12.959 -0.7329  0.4965  0.0811
  854MPD2    C312541   2.342   4.607  12.901 -0.8456  0.1208  0.1212
  854MPD2    C412542   2.315   4.593  12.763  0.2653  0.1781 -0.0049
  854MPD2    C512543   2.256   4.688  12.688 -0.3765  0.5260 -0.0409
  854MPD2     H12544   2.293   0.008  13.066 -0.1096  0.2647  0.0571
  854MPD2    H112545   2.362   4.515  12.705 -0.0040  1.9298 -2.5659
  854MPD2    H212546   2.158   0.154  12.680  0.1328  1.3622  1.7249
  854MPD2    H312547   2.252   4.670  12.581  1.1040  1.7420 -0.2977
  854MPD2     N12548   2.419   4.513  12.978  0.0932 -0.6460 -0.1440
  854MPD2    H512549   2.417   4.537  13.077  0.3731 -0.4509 -0.1860
  854MPD2    N112550   2.167   0.206  12.947  0.2360 -0.0321 -0.4579
  854MPD2    H712551   2.110   0.263  12.885 -1.0378 -0.4960  0.2820
  855MPD2     C12552   2.532   4.713  13.775  0.3260  0.1259  0.1567
  855MPD2    C112553   2.598   4.593  13.772  0.0245 -0.6527  0.1567
  855MPD2    C212554   2.630   4.544  13.649 -0.2198 -0.1562 -0.2270
  855MPD2    C312555   2.604   4.612  13.534 -0.5666 -0.5111 -0.5823
  855MPD2    C412556   2.537   0.009  13.540 -0.2415  0.1769  0.0378
  855MPD2    C512557   2.508   0.062  13.663 -0.3203 -0.0483  0.3599
  855MPD2     H12558   2.677   4.446  13.649 -0.2793 -0.1841  0.9124
  855MPD2    H112559   2.506   0.063  13.451 -2.2370 -0.2692  0.4622
  855MPD2    H212560   2.501   0.035  13.871  0.9718 -1.2778  0.9653
  855MPD2    H312561   2.465   0.162  13.665 -0.3532 -0.0944  2.8636
  855MPD2     N12562   2.629   4.556  13.405  0.4923 -0.4788 -0.3219
  855MPD2    H512563   2.580   4.598  13.326  0.2293 -2.4067 -1.1763
  855MPD2    N112564   2.614   4.508  13.882 -0.0095 -0.4698  0.3587
  855MPD2    H712565   2.660   4.421  13.854  0.4822  0.0883 -0.5634
  856MPD2     C12566   4.390   0.505  13.763 -0.3349 -0.0368 -0.4478
  856MPD2    C112567   4.493   0.582  13.815  0.2317 -0.5338 -0.0452
  856MPD2    C212568   4.483   0.719  13.819 -0.3415  0.4870  0.8063
  856MPD2    C312569   4.370   0.781  13.770 -0.6075  0.5635 -0.2702
  856MPD2    C412570   4.267   0.709  13.720  0.1820  0.5164  0.6425
  856MPD2    C512571   4.278   0.568  13.720  0.1469 -0.4002  0.8454
  856MPD2     H12572   4.569   0.771  13.860 -0.1766  3.5243 -3.4107
  856MPD2    H112573   4.171   0.746  13.687  0.1964 -0.5617 -0.5741
  856MPD2    H212574   4.394   0.397  13.762 -2.0117 -0.1036  0.1968
  856MPD2    H312575   4.194   0.507  13.690  0.8728 -1.7950  1.6297
  856MPD2     N12576   4.356   0.919  13.751  0.1667  0.5023 -0.5795
  856MPD2    H512577   4.284   0.951  13.687  0.4802  2.6803  0.1930
  856MPD2    N112578   4.623   0.534  13.858  0.4196 -0.2323  0.8381
  856MPD2    H712579   4.705   0.594  13.866 -0.3642  0.8127  1.0939
  857MPD2     C12580   1.334   2.736  13.073  0.0692 -0.0398  0.1003
  857MPD2    C112581   1.467   2.757  13.061  0.3627  0.0089  0.1058
  857MPD2    C212582   1.521   2.884  13.103  0.0740  0.6136  1.0181
  857MPD2    C312583   1.437   2.977  13.154  0.1521  0.5499 -1.0207
  857MPD2    C412584   1.306   2.951  13.176  0.1643  0.1032  0.3885
  857MPD2    C512585   1.252   2.831  13.124 -0.0582  0.2739  1.0340
  857MPD2     H12586   1.627   2.906  13.093  0.2861 -0.7852  0.2564
  857MPD2    H112587   1.239   3.020  13.227 -1.1461 -1.2274  0.4796
  857MPD2    H212588   1.290   2.643  13.039 -1.2638  0.5353  0.2483
  857MPD2    H312589   1.147   2.807  13.136 -0.2230  0.5791  0.1812
  857MPD2     N12590   1.492   3.094  13.194 -0.0661 -0.0845 -0.4396
  857MPD2    H512591   1.593   3.089  13.206  0.0288  0.5107 -1.0400
  857MPD2    N112592   1.548   2.649  13.010  0.0018  0.2484 -0.0680
  857MPD2    H712593   1.503   2.560  12.992 -0.7246  0.5657  0.2120
  858MPD2     C12594   1.906   1.705  16.698 -0.2697  0.9576 -0.5677
  858MPD2    C112595   2.038   1.719  16.737  0.0470 -0.0477  0.1734
  858MPD2    C212596   2.058   1.788  16.858  0.2404 -1.0090  0.0527
  858MPD2    C312597   1.954   1.840  16.931  0.0769  0.6254 -0.1169
  858MPD2    C412598   1.828   1.831  16.884 -1.0962  0.3705 -0.0081
  858MPD2    C512599   1.805   1.760  16.767  0.2735 -0.1900 -0.0641
  858MPD2     H12600   2.159   1.795  16.897  1.8882 -1.7473 -4.0907
  858MPD2    H112601   1.743   1.876  16.934 -0.9718  1.9188 -1.1953
  858MPD2    H212602   1.884   1.646  16.610  1.0348  0.2207 -0.3938
  858MPD2    H312603   1.707   1.755  16.721 -0.5470  0.8095  1.5711
  858MPD2     N12604   1.974   1.912  17.056 -0.3341  0.1406 -0.1704
  858MPD2    H512605   1.883   1.933  17.094  0.3153  0.2858  1.2758
  858MPD2    N112606   2.139   1.661  16.653 -0.4920  0.1571 -0.2110
  858MPD2    H712607   2.104   1.591  16.588 -1.8009 -1.6421  2.4144
  859MPD2     C12608   0.849   3.918  15.707 -1.0857  0.2403  0.0803
  859MPD2    C112609   0.897   3.947  15.577  0.5981  0.0656 -0.4683
  859MPD2    C212610   0.979   3.859  15.513  0.7900  0.2689  0.1257
  859MPD2    C312611   0.984   3.730  15.553 -0.1271  0.0955 -0.2747
  859MPD2    C412612   0.921   3.692  15.668 -0.9033  0.2403 -0.8611
  859MPD2    C512613   0.856   3.784  15.746 -0.3342 -0.1217  0.4519
  859MPD2     H12614   1.037   3.888  15.426 -0.5496  1.7232 -0.2666
  859MPD2    H112615   0.927   3.588  15.701 -0.7002  1.0960  1.8495
  859MPD2    H212616   0.789   3.991  15.760  0.6760  0.8907  1.2095
  859MPD2    H312617   0.809   3.763  15.841  0.5481 -2.1338  0.4463
  859MPD2     N12618   1.053   3.634  15.480  0.4096 -0.2647  0.4114
  859MPD2    H512619   1.062   3.543  15.525  1.3943  0.2279  1.1870
  859MPD2    N112620   0.877   4.087  15.543 -0.3747  0.1373 -0.1234
  859MPD2    H712621   0.832   4.156  15.602  0.3445 -0.1461  0.7437
  860MPD2     C12622   3.422   4.668  11.476  0.0059  0.4876  0.0934
  860MPD2    C112623   3.403   0.046  11.567 -0.0410 -0.5093  0.3455
  860MPD2    C212624   3.343   0.016  11.686  0.3261 -0.3052  0.2005
  860MPD2    C312625   3.302   4.609  11.721 -0.0425 -0.2976 -0.9489
  860MPD2    C412626   3.316   4.514  11.623 -0.2210  0.3509 -0.2610
  860MPD2    C512627   3.377   4.546  11.501  0.6888 -0.3324 -0.4476
  860MPD2     H12628   3.335   0.102  11.753 -0.1261  0.3926 -0.7468
  860MPD2    H112629   3.274   4.415  11.638 -0.0326  0.3117  0.0183
  860MPD2    H212630   3.478   4.687  11.385 -1.2375 -0.9811 -0.9806
  860MPD2    H312631   3.392   4.468  11.427 -0.3905 -2.1999  1.3393
  860MPD2     N12632   3.241   4.578  11.845  0.4150 -0.0135 -0.1134
  860MPD2    H512633   3.222   4.654  11.910 -0.0882  0.1668 -0.4706
  860MPD2    N112634   3.458   0.172  11.565  0.3073 -0.0158  0.0039
  860MPD2    H712635   3.447   0.233  11.645  1.1953 -0.3796  0.4020
  861MPD2     C12636   2.429   2.933  11.043 -0.0038  1.0837 -0.4804
  861MPD2    C112637   2.362   3.029  11.115 -0.1453  0.4108 -0.4439
  861MPD2    C212638   2.258   3.098  11.057  0.5244 -0.0526  0.4578
  861MPD2    C312639   2.225   3.079  10.928 -0.8418  0.2744  0.1957
  861MPD2    C412640   2.288   2.982  10.855  0.1967 -0.7486  0.1806
  861MPD2    C512641   2.397   2.910  10.908  0.7111  0.0968  0.1627
  861MPD2     H12642   2.207   3.172  11.119 -0.3033 -0.3216  0.0948
  861MPD2    H112643   2.275   2.979  10.748 -0.5002  1.8836  0.1872
  861MPD2    H212644   2.506   2.868  11.084  0.0891  2.1489  1.0285
  861MPD2    H312645   2.455   2.849  10.841  0.4384 -1.7140  1.5795
  861MPD2     N12646   2.111   3.135  10.864  0.4502  0.4130 -0.7714
  861MPD2    H512647   2.097   3.113  10.765 -0.4016  0.3321 -0.6317
  861MPD2    N112648   2.387   3.057  11.251 -0.5097 -0.0767  0.4375
  861MPD2    H712649   2.310   3.100  11.300 -0.2691  1.1994 -0.3081
  862MPD2     C12650   1.782   3.270  10.245  0.3567 -0.8334 -0.4507
  862MPD2    C112651   1.854   3.205  10.338  0.3526  0.3163 -0.4304
  862MPD2    C212652   1.889   3.073  10.318  0.1179 -0.5495 -0.6397
  862MPD2    C312653   1.852   3.002  10.206  0.3794  0.1729 -0.4238
  862MPD2    C412654   1.764   3.063  10.121 -0.6249 -0.0258 -0.7320
  862MPD2    C512655   1.734   3.199  10.141 -0.1534  0.3395 -0.5972
  862MPD2     H12656   1.923   3.017  10.404  2.3279  1.4091 -0.2064
  862MPD2    H112657   1.735   3.009  10.031 -1.4393 -0.6698 -0.0843
  862MPD2    H212658   1.743   3.369  10.268 -0.8655 -1.1777 -1.0554
  862MPD2    H312659   1.671   3.256  10.074  1.3213  1.1555 -1.2897
  862MPD2     N12660   1.884   2.866  10.192 -0.2354  0.1039 -0.5469
  862MPD2    H512661   1.827   2.811  10.129 -0.4659  2.5055 -2.4194
  862MPD2    N112662   1.911   3.270  10.456  0.1124  0.0173 -0.7355
  862MPD2    H712663   1.959   3.215  10.526 -1.3112  1.8225  1.6787
  863MPD2     C12664   4.525   0.596  16.949  0.0042 -0.2857  0.5191
  863MPD2    C112665   4.607   0.694  16.893  0.1546  0.5536  0.1636
  863MPD2    C212666   0.022   0.696  16.919 -0.1577 -0.0543 -0.3029
  863MPD2    C312667   0.075   0.608  17.017  0.0489 -0.3232 -0.3539
  863MPD2    C412668   4.710   0.520  17.072  1.0221 -0.5745  0.4582
  863MPD2    C512669   4.583   0.509  17.038 -0.3940  0.4845 -0.0796
  863MPD2     H12670   0.090   0.771  16.879 -1.0390  1.3257  0.8015
  863MPD2    H112671   0.025   0.448  17.146  0.3636  0.8552  2.1312
  863MPD2    H212672   4.419   0.586  16.930  0.4023  1.9721 -2.8134
  863MPD2    H312673   4.510   0.441  17.080  0.8517 -0.8951 -0.1514
  863MPD2     N12674   0.216   0.593  17.062 -0.2145 -0.3825 -0.1765
  863MPD2    H512675   0.232   0.532  17.142 -0.1759  1.6390  1.3549
  863MPD2    N112676   4.542   0.792  16.806  0.6688  0.3116 -0.6097
  863MPD2    H712677   4.440   0.792  16.811  0.5978 -1.8124 -1.8163
  864MPD2     C12678   0.587   2.436  17.216 -0.4717 -0.7671  0.5054
  864MPD2    C112679   0.572   2.422  17.079 -0.5609  0.0231 -0.1736
  864MPD2    C212680   0.679   2.452  16.995 -0.4142  0.2924  0.2065
  864MPD2    C312681   0.799   2.481  17.051 -0.8414 -0.3595  1.2283
  864MPD2    C412682   0.813   2.495  17.186  0.6583  0.3589 -0.2439
  864MPD2    C512683   0.707   2.473  17.264 -0.3021 -0.0876 -0.6403
  864MPD2     H12684   0.674   2.427  16.889  2.9357  2.1898 -0.4245
  864MPD2    H112685   0.900   2.527  17.242  1.1125  0.2104 -0.8633
  864MPD2    H212686   0.513   2.399  17.287 -0.9145  2.6850  1.8557
  864MPD2    H312687   0.723   2.461  17.370 -0.7040 -1.0925 -0.6938
  864MPD2     N12688   0.917   2.502  16.976 -0.5937  0.0415  0.2398
  864MPD2    H512689   1.006   2.508  17.024  0.2488  0.6448 -1.3606
  864MPD2    N112690   0.446   2.372  17.032  0.8692  0.3874 -0.2010
  864MPD2    H712691   0.381   2.349  17.106 -0.7834  2.6616 -0.9714
  865MPD2     C12692   0.969   2.617  15.989 -0.6024 -0.2841 -0.1513
  865MPD2    C112693   0.922   2.499  16.052  0.1854  0.4828  1.2767
  865MPD2    C212694   0.975   2.471  16.176 -0.6554 -0.9600  0.1640
  865MPD2    C312695   1.047   2.561  16.245  0.3739 -0.1441 -0.3823
  865MPD2    C412696   1.061   2.685  16.204 -0.2085 -0.1303 -0.0591
  865MPD2    C512697   1.029   2.712  16.073  0.0105 -0.0359  0.3227
  865MPD2     H12698   0.954   2.378  16.228  0.4880 -0.6401  1.1826
  865MPD2    H112699   1.094   2.767  16.268  1.9659  0.6537 -2.2077
  865MPD2    H212700   0.936   2.648  15.890 -4.0403  0.1784  1.1137
  865MPD2    H312701   1.058   2.802  16.020 -0.0630  0.8249  1.7468
  865MPD2     N12702   1.098   2.533  16.365 -0.5582 -0.0159  0.1276
  865MPD2    H512703   1.122   2.616  16.419  0.1895  0.8842 -1.5875
  865MPD2    N112704   0.843   2.406  15.985  0.1654  0.1169  0.3869
  865MPD2    H712705   0.850   2.423  15.885  0.3800 -4.6485 -0.3970
  866MPD2     C12706   2.932   3.646  11.473 -0.0654 -0.0257 -0.2182
  866MPD2    C112707   2.892   3.645  11.344  0.2313 -0.3029 -0.0076
  866MPD2    C212708   2.759   3.658  11.309  0.3246 -0.0456 -0.1878
  866MPD2    C312709   2.664   3.681  11.409  0.0562 -0.3180 -0.2048
  866MPD2    C412710   2.711   3.683  11.542 -0.0950  0.8074 -0.2270
  866MPD2    C512711   2.839   3.667  11.570 -0.7877 -0.1275 -0.3132
  866MPD2     H12712   2.717   3.619  11.217  0.8402  0.3352 -0.5827
  866MPD2    H112713   2.652   3.705  11.630  0.4695  1.3430  0.0205
  866MPD2    H212714   3.031   3.624  11.511  0.4702  1.7796 -0.5680
  866MPD2    H312715   2.867   3.676  11.674 -0.1190  0.6903 -0.5583
  866MPD2     N12716   2.527   3.695  11.385 -0.1000  0.4390  0.1989
  866MPD2    H512717   2.466   3.726  11.459 -1.7604 -0.8422 -0.6368
  866MPD2    N112718   2.994   3.612  11.252 -0.0311 -0.5962  0.5259
  866MPD2    H712719   3.086   3.597  11.290 -0.8833 -2.3789  1.8911
  867MPD2     C12720   4.592   2.256  16.425 -0.0088 -0.9393  0.1167
  867MPD2    C112721   4.572   2.150  16.508 -0.2973 -0.1115  0.5914
  867MPD2    C212722   4.542   2.174  16.638 -0.3884  0.0196  0.5088
  867MPD2    C312723   4.495   2.300  16.680 -0.3826  0.2202  0.6266
  867MPD2    C412724   4.515   2.404  16.594  0.4092 -0.0349 -0.2437
  867MPD2    C512725   4.575   2.378  16.476 -0.1053 -0.7209  0.6226
  867MPD2     H12726   4.547   2.094  16.711  1.5477 -2.3463 -2.1577
  867MPD2    H112727   4.491   2.505  16.626 -0.2241 -0.5674  0.9506
  867MPD2    H212728   4.624   2.237  16.323 -1.0872 -0.1609 -0.3626
  867MPD2    H312729   4.603   2.465  16.418 -2.3209  0.0024  0.6456
  867MPD2     N12730   4.432   2.330  16.803 -0.3815  0.3908 -0.1746
  867MPD2    H512731   4.400   2.423  16.828  0.8255  1.1045 -1.3019
  867MPD2    N112732   4.618   2.021  16.472 -0.6240  1.0343 -1.0479
  867MPD2    H712733   4.662   2.018  16.380  0.3666 -1.3996 -0.5189
  868MPD2     C12734   1.808   1.735  13.234  0.3306  0.1355  0.2920
  868MPD2    C112735   1.771   1.604  13.244 -0.1186 -0.4671 -0.6345
  868MPD2    C212736   1.645   1.573  13.300 -0.0979 -0.3033  0.1596
  868MPD2    C312737   1.561   1.675  13.337  0.1969  0.1353  0.0911
  868MPD2    C412738   1.598   1.812  13.325  0.0424 -0.3845  0.3140
  868MPD2    C512739   1.730   1.835  13.281  0.3213  0.2599  0.5270
  868MPD2     H12740   1.603   1.474  13.315  0.4905 -0.5986 -0.1562
  868MPD2    H112741   1.555   1.903  13.364 -1.8294 -2.7514  3.7964
  868MPD2    H212742   1.909   1.758  13.202  0.5381 -2.5403 -1.0224
  868MPD2    H312743   1.765   1.937  13.270  2.4768 -0.6632 -1.1209
  868MPD2     N12744   1.435   1.647  13.400  0.0426 -0.5822  0.4327
  868MPD2    H512745   1.405   1.550  13.401 -0.5189 -0.4068  0.1783
  868MPD2    N112746   1.861   1.503  13.210  0.2799  0.7727  0.0554
  868MPD2    H712747   1.955   1.525  13.178 -0.7287  2.9654 -1.3942
  869MPD2     C12748   2.244   3.799   0.942  0.3844  0.6496 -0.3340
  869MPD2    C112749   2.252   3.915   1.013 -0.4217 -0.0547 -0.3154
  869MPD2    C212750   2.275   4.029   0.934  0.8448 -0.8239 -0.2559
  869MPD2    C312751   2.295   4.029   0.802 -0.3548 -0.1755  0.4156
  869MPD2    C412752   2.284   3.907   0.737  0.3201 -0.5224 -0.2570
  869MPD2    C512753   2.251   3.792   0.806 -0.0719  0.3890  0.0167
  869MPD2     H12754   2.296   4.119   0.990  2.7460 -3.1809  2.7595
  869MPD2    H112755   2.321   3.906   0.635 -1.7111  2.5393 -1.0251
  869MPD2    H212756   2.218   3.712   1.003 -2.7806  3.1258  1.8570
  869MPD2    H312757   2.255   3.698   0.752  0.0987 -0.2107  1.0613
  869MPD2     N12758   2.312   4.145   0.730 -0.7387  0.0637  0.1865
  869MPD2    H512759   2.338   4.135   0.632  0.3076  0.5734  0.4163
  869MPD2    N112760   2.242   3.905   1.157  0.6064  0.5525  0.0992
  869MPD2    H712761   2.244   3.810   1.194 -0.2516  1.2748  2.0422
  870MPD2     C12762   1.781   2.961   1.458  0.0505  0.2880  0.0552
  870MPD2    C112763   1.889   3.002   1.382  0.3086 -0.2230 -0.4316
  870MPD2    C212764   1.882   3.000   1.242 -0.7827  0.0506  0.4059
  870MPD2    C312765   1.761   2.981   1.177 -0.0603 -0.5370  0.9151
  870MPD2    C412766   1.645   2.958   1.256  0.2300  0.5805  0.2283
  870MPD2    C512767   1.661   2.947   1.395 -0.0480  0.0498  0.0862
  870MPD2     H12768   1.972   3.023   1.187  0.6543 -1.0281  2.2719
  870MPD2    H112769   1.544   2.949   1.218  0.1576 -0.7564  0.7466
  870MPD2    H212770   1.784   2.943   1.565  1.4581  0.2022 -0.0014
  870MPD2    H312771   1.577   2.934   1.462 -0.1706 -2.1280 -0.4619
  870MPD2     N12772   1.766   2.971   1.032  0.2635 -0.3280 -0.2975
  870MPD2    H512773   1.857   2.986   0.990 -0.4839  0.3347 -1.6542
  870MPD2    N112774   2.009   3.027   1.444  0.2848  0.2420  0.6323
  870MPD2    H712775   2.018   2.998   1.541 -2.3953  0.0600  0.8361
  871MPD2     C12776   3.158   1.970  16.032  0.1440 -0.1200  0.3998
  871MPD2    C112777   3.208   2.007  16.150  0.0045  0.3093 -0.0269
  871MPD2    C212778   3.342   1.981  16.177 -0.1785  0.1895 -0.3130
  871MPD2    C312779   3.423   1.905  16.087 -0.2730 -0.1948 -0.4897
  871MPD2    C412780   3.357   1.852  15.971 -0.4330 -0.0242 -0.4514
  871MPD2    C512781   3.227   1.888  15.938  0.1575  0.2525 -0.0407
  871MPD2     H12782   3.391   2.029  16.261  0.9244 -1.3203 -0.0932
  871MPD2    H112783   3.412   1.794  15.898  0.5224 -0.5458  0.6797
  871MPD2    H212784   3.063   2.014  16.006 -1.1037 -1.9673  1.8390
  871MPD2    H312785   3.194   1.882  15.835 -1.3062 -1.3112  0.5416
  871MPD2     N12786   3.554   1.893  16.119 -0.5238 -0.0568  0.2229
  871MPD2    H512787   3.585   1.926  16.210  1.4883 -0.4043 -0.3239
  871MPD2    N112788   3.128   2.094  16.225  0.5637 -0.3391 -0.2880
  871MPD2    H712789   3.044   2.119  16.174  0.9234  0.3408 -0.5425
  872MPD2     C12790   4.393   4.614  13.927  0.2426  0.6763  0.5523
  872MPD2    C112791   4.339   4.670  13.814  0.7571  0.1555  0.0978
  872MPD2    C212792   4.206   4.653  13.789 -0.1267 -0.1899 -1.0502
  872MPD2    C312793   4.126   4.568  13.868 -0.0847 -0.1773 -0.6901
  872MPD2    C412794   4.184   4.507  13.969  0.7479 -0.7114  0.5503
  872MPD2    C512795   4.313   4.531  14.002  0.0783  0.5185  0.2594
  872MPD2     H12796   4.152   4.695  13.705 -0.4206  0.1636 -0.6847
  872MPD2    H112797   4.136   4.438  14.038 -0.6289 -1.7170 -1.4062
  872MPD2    H212798   4.495   4.633  13.957  0.5822 -0.6590  0.2082
  872MPD2    H312799   4.349   4.484  14.093  3.7958  0.0503 -1.4440
  872MPD2     N12800   3.997   4.532  13.847  0.2953 -0.0786 -0.1308
  872MPD2    H512801   3.962   4.465  13.914  0.6816 -0.9682 -0.8163
  872MPD2    N112802   4.411   0.030  13.719 -0.3305 -0.1437 -0.7488
  872MPD2    H712803   4.352   0.076  13.651 -0.0358  2.3036  0.6398
  873MPD2     C12804   1.495   0.074   0.583  0.2969 -0.4980  0.1437
  873MPD2    C112805   1.566   0.086   0.703 -0.9591  0.1855  0.4654
  873MPD2    C212806   1.654   4.709   0.740 -0.1855  0.1728 -0.2263
  873MPD2    C312807   1.687   4.601   0.660  0.0150 -0.1062 -0.4073
  873MPD2    C412808   1.625   4.605   0.533 -0.5336  0.1955 -0.9391
  873MPD2    C512809   1.531   4.696   0.496 -0.0626  0.2424  0.1506
  873MPD2     H12810   1.688   4.717   0.842 -1.3185 -0.3043  0.1922
  873MPD2    H112811   1.658   4.535   0.456 -1.1613 -0.6913 -0.4028
  873MPD2    H212812   1.416   0.145   0.563  0.3833  0.5524  3.5002
  873MPD2    H312813   1.481   4.683   0.401 -0.8204 -1.8641  0.8547
  873MPD2     N12814   1.760   4.488   0.705  0.4996  0.5794  0.4008
  873MPD2    H512815   1.767   4.413   0.636  0.5926  2.9374 -2.1230
  873MPD2    N112816   1.523   0.197   0.786  0.0796  0.3275 -0.2342
  873MPD2    H712817   1.463   0.272   0.753 -1.6694 -1.5019 -1.2455
  874MPD2     C12818   0.980   0.398  16.087  0.7556 -0.0388 -0.0264
  874MPD2    C112819   0.982   0.340  16.208 -0.0534  0.5306  0.4588
  874MPD2    C212820   1.078   0.380  16.299  0.5275  0.9963  0.3309
  874MPD2    C312821   1.184   0.466  16.260  0.1271 -0.6903 -0.0659
  874MPD2    C412822   1.189   0.509  16.127  0.3771 -0.3386  0.2960
  874MPD2    C512823   1.077   0.486  16.048 -0.5961 -0.0167  0.0444
  874MPD2     H12824   1.075   0.338  16.399  0.3359  1.3994  0.4956
  874MPD2    H112825   1.273   0.561  16.083  0.7189 -1.9589 -0.9749
  874MPD2    H212826   0.907   0.371  16.011 -0.2160 -1.1305  1.3078
  874MPD2    H312827   1.080   0.514  15.943  2.9304 -0.4039  0.0563
  874MPD2     N12828   1.292   0.496  16.352 -0.5250  0.5391  0.4414
  874MPD2    H512829   1.273   0.476  16.450  0.7503  0.6952  0.7144
  874MPD2    N112830   0.893   0.237  16.224  0.0503 -0.5228  0.4140
  874MPD2    H712831   0.829   0.216  16.148  0.9468  0.7465 -0.6887
  875MPD2     C12832   2.174   3.306  14.596 -0.4691 -0.1269 -0.1825
  875MPD2    C112833   2.051   3.301  14.654  0.4547  0.2643  0.1455
  875MPD2    C212834   2.043   3.307  14.795  0.4197 -0.1143 -0.3860
  875MPD2    C312835   2.152   3.318  14.873  0.0627 -1.1733 -0.1650
  875MPD2    C412836   2.280   3.316  14.813  0.0174 -0.2865  0.5265
  875MPD2    C512837   2.283   3.301  14.675 -0.6027  0.7045 -0.0362
  875MPD2     H12838   1.946   3.293  14.841  0.8723 -1.5608  0.1230
  875MPD2    H112839   2.369   3.318  14.875  1.1989  3.2294 -1.2755
  875MPD2    H212840   2.191   3.308  14.489 -0.0014 -0.2205 -0.1084
  875MPD2    H312841   2.381   3.308  14.630 -0.2238  1.1913  0.8475
  875MPD2     N12842   2.153   3.327  15.016 -0.3220  0.4862  0.1615
  875MPD2    H512843   2.237   3.357  15.065 -0.5959 -0.2272  1.0685
  875MPD2    N112844   1.937   3.276  14.579 -0.4208  0.0893  0.1802
  875MPD2    H712845   1.851   3.275  14.634  0.1038 -0.9960  0.9879
  876MPD2     C12846   1.242   0.035  16.350  0.5548  0.1630  0.0110
  876MPD2    C112847   1.164   0.007  16.241  0.1938 -0.5507  0.3904
  876MPD2    C212848   1.101   4.603  16.247  0.2041  0.4505 -0.1114
  876MPD2    C312849   1.107   4.520  16.361 -0.3401  0.2999  0.1889
  876MPD2    C412850   1.183   4.554  16.467  0.1853  0.2770 -0.1136
  876MPD2    C512851   1.246   4.667  16.454 -0.1530  0.2933 -0.4118
  876MPD2     H12852   1.045   4.583  16.157 -0.5757 -0.4992  0.5849
  876MPD2    H112853   1.188   4.494  16.557 -0.7606 -1.1094 -0.9833
  876MPD2    H212854   1.319   0.110  16.337  0.2785  0.6917  1.4804
  876MPD2    H312855   1.314   4.689  16.535  0.2012 -2.5421  0.0270
  876MPD2     N12856   1.041   4.390  16.348 -0.4125 -0.4588 -0.3223
  876MPD2    H512857   0.985   4.365  16.267  1.4189 -0.5506 -1.5557
  876MPD2    N112858   1.181   0.085  16.121  0.6877  0.1220 -0.0337
  876MPD2    H712859   1.248   0.161  16.121  1.2779 -0.3960 -0.2820
  877MPD2     C12860   0.923   0.142  15.299 -0.4491 -0.1286 -0.3077
  877MPD2    C112861   1.054   0.171  15.337 -1.3228 -0.2903  0.3292
  877MPD2    C212862   1.145   0.163  15.242 -0.1406  0.3953 -0.1689
  877MPD2    C312863   1.113   0.122  15.113  0.3360  0.1218  1.2229
  877MPD2    C412864   0.984   0.093  15.080  0.1215  0.2181 -0.1167
  877MPD2    C512865   0.889   0.090  15.179 -0.0759  0.2004 -0.0809
  877MPD2     H12866   1.244   0.204  15.261 -0.4214  0.8397  0.3262
  877MPD2    H112867   0.952   0.062  14.981  2.1687  0.3945 -0.8428
  877MPD2    H212868   0.840   0.146  15.368 -0.7687 -0.1257 -0.6936
  877MPD2    H312869   0.787   0.059  15.159 -0.0581 -0.0421  0.2069
  877MPD2     N12870   1.209   0.125  15.007 -0.2789 -0.1063  0.7456
  877MPD2    H512871   1.181   0.083  14.920 -0.9272  1.6078  0.1196
  877MPD2    N112872   1.088   0.204  15.464  0.3019  0.0535  0.0473
  877MPD2    H712873   1.188   0.221  15.474  0.6773 -1.2617 -1.4296
  878MPD2     C12874   0.841   4.155  12.730 -0.0248  0.5516  0.2607
  878MPD2    C112875   0.898   4.284  12.740 -0.5698 -0.2742  0.3637
  878MPD2    C212876   0.903   4.347  12.866 -0.2420 -0.9578  0.1562
  878MPD2    C312877   0.825   4.293  12.968  0.6393  0.1778 -0.1589
  878MPD2    C412878   0.751   4.180  12.947 -1.2826  0.1473 -0.1995
  878MPD2    C512879   0.777   4.102  12.835 -0.2045  0.8652  0.2562
  878MPD2     H12880   0.957   4.440  12.878  0.5158 -1.2801 -0.7480
  878MPD2    H112881   0.706   4.133  13.033  0.3481  2.3493  1.8606
  878MPD2    H212882   0.859   4.101  12.637 -0.6263  0.5988  0.1156
  878MPD2    H312883   0.731   4.003  12.832  1.1236  0.2708 -0.6763
  878MPD2     N12884   0.821   4.363  13.088 -0.2275 -0.0801 -0.3937
  878MPD2    H512885   0.886   4.441  13.091 -1.3994  0.9315 -1.6709
  878MPD2    N112886   0.971   4.329  12.628  0.0394 -0.1802 -0.1495
  878MPD2    H712887   0.968   4.259  12.554  1.9664 -0.5542  0.1308
  879MPD2     C12888   1.260   0.211  17.095  0.0070 -0.0253 -0.2710
  879MPD2    C112889   1.250   0.319  17.016  0.5357 -0.5468 -0.2496
  879MPD2    C212890   1.125   0.365  16.977  0.4790  0.0822 -0.1613
  879MPD2    C312891   1.011   0.296  17.012 -0.5280  0.5828 -0.2037
  879MPD2    C412892   1.027   0.176  17.071 -0.8121  0.3004  0.5462
  879MPD2    C512893   1.150   0.134  17.113 -0.7785  0.4874 -0.7050
  879MPD2     H12894   1.114   0.458  16.922  1.2392  0.2999  0.0585
  879MPD2    H112895   0.939   0.115  17.090  1.0034 -2.5472 -0.2136
  879MPD2    H212896   1.356   0.178  17.133  0.3054  0.1739 -0.8557
  879MPD2    H312897   1.159   0.043  17.172 -1.2910  0.6014 -0.4510
  879MPD2     N12898   0.889   0.342  16.971 -0.0365  0.3408 -0.0084
  879MPD2    H512899   0.888   0.429  16.919 -0.1598  0.1728 -0.2882
  879MPD2    N112900   1.375   0.388  17.000  0.0762  0.3013 -0.3324
  879MPD2    H712901   1.460   0.350  17.041 -0.5455 -0.1872  0.5051
  880MPD2     C12902   3.068   2.407  17.596  0.1299  0.1970  0.8756
  880MPD2    C112903   3.031   2.434   0.052  0.4095  0.0394 -0.1838
  880MPD2    C212904   3.096   2.361   0.159  0.6895  0.2445  0.0369
  880MPD2    C312905   3.198   2.274   0.125  0.6563 -0.1377  0.1837
  880MPD2    C412906   3.231   2.250  17.675  0.0130  0.4914 -0.1848
  880MPD2    C512907   3.162   2.303  17.569  0.0462 -0.7163 -0.0165
  880MPD2     H12908   3.075   2.380   0.263 -0.9089 -1.3998 -0.0037
  880MPD2    H112909   3.315   2.185  17.653 -2.3176 -2.9954  1.2522
  880MPD2    H212910   3.022   2.465  17.517 -2.1713 -1.6070  0.8892
  880MPD2    H312911   3.192   2.288  17.466  1.3652 -1.4472  0.4726
  880MPD2     N12912   3.255   2.201   0.235 -0.1929 -0.4032  0.2861
  880MPD2    H512913   3.207   2.207   0.324  1.3443 -0.9760  1.1586
  880MPD2    N112914   2.932   2.530   0.073 -0.1963  0.4646  0.2925
  880MPD2    H712915   2.879   2.557  17.669 -2.0319  0.4763  1.4495
  881MPD2     C12916   2.643   3.289  17.276  0.2031 -0.1096 -0.0374
  881MPD2    C112917   2.636   3.155  17.241  0.2304 -0.6521  0.9341
  881MPD2    C212918   2.649   3.065  17.347 -0.6012 -0.1463 -0.1479
  881MPD2    C312919   2.626   3.105  17.480  0.2527 -0.7242 -0.3229
  881MPD2    C412920   2.613   3.238  17.507  0.0263  0.3098 -0.3380
  881MPD2    C512921   2.634   3.329  17.404  1.1953  0.1283 -0.0867
  881MPD2     H12922   2.645   2.959  17.324  2.3240 -0.6711  1.7525
  881MPD2    H112923   2.583   3.279  17.603  0.0589  0.3607 -0.3496
  881MPD2    H212924   2.643   3.362  17.196 -3.5368  0.9398  0.9362
  881MPD2    H312925   2.642   3.436  17.419  0.3056  0.1843 -0.0140
  881MPD2     N12926   2.616   3.019  17.598 -0.3149  0.2359 -0.1201
  881MPD2    H512927   2.621   3.071   0.007  0.6772 -2.0036  1.1549
  881MPD2    N112928   2.654   3.130  17.102  0.4026 -0.2025 -0.8259
  881MPD2    H712929   2.663   3.211  17.042 -3.0853  1.2322  0.5870
  882MPD2     C12930   1.377   0.057  14.218  0.1271 -0.2440 -0.0535
  882MPD2    C112931   1.299   0.071  14.328  0.4104 -0.0656 -0.0102
  882MPD2    C212932   1.167   0.046  14.313  0.9328  0.2482 -0.3822
  882MPD2    C312933   1.113   0.005  14.193  0.2084  0.1959  0.3887
  882MPD2    C412934   1.194   0.005  14.078 -0.1728 -0.0788 -0.7698
  882MPD2    C512935   1.325   0.036  14.095 -0.6996 -0.3962  0.2849
  882MPD2     H12936   1.105   0.043  14.402  0.5038  1.5057 -0.6288
  882MPD2    H112937   1.155   4.708  13.978 -1.0199 -1.6633 -0.1783
  882MPD2    H212938   1.485   0.065  14.228 -0.0174 -0.1180  1.4734
  882MPD2    H312939   1.388   0.032  14.007 -3.5755 -0.9296 -1.7965
  882MPD2     N12940   0.968   4.702  14.184 -0.0153  0.2795  0.3607
  882MPD2    H512941   0.921   4.696  14.094 -0.3357 -1.2309  0.6256
  882MPD2    N112942   1.360   0.118  14.444  0.3707 -0.0214 -0.3753
  882MPD2    H712943   1.461   0.123  14.435  0.7238 -1.8991  2.5142
  883MPD2     C12944   2.966   4.566  16.062 -0.1922  0.7905 -0.6049
  883MPD2    C112945   3.039   4.549  15.945  0.0256 -0.0724  0.0795
  883MPD2    C212946   3.169   4.590  15.932  0.8492 -0.1107  0.0196
  883MPD2    C312947   3.225   4.647  16.047 -0.3877  0.2770  0.2949
  883MPD2    C412948   3.153   4.669  16.160 -0.9162 -0.3927  0.4996
  883MPD2    C512949   3.019   4.638  16.167  0.0546 -0.0839  0.8876
  883MPD2     H12950   3.224   4.575  15.840  0.2805  0.4320 -0.4086
  883MPD2    H112951   3.185   4.716  16.252 -1.4474 -2.0739  1.5471
  883MPD2    H212952   2.859   4.551  16.076  0.2264 -1.4453  0.2455
  883MPD2    H312953   2.961   4.664  16.255 -1.1378 -1.0009  0.3815
  883MPD2     N12954   3.363   4.699  16.037 -0.6503  0.0348 -0.4468
  883MPD2    H512955   3.412   4.685  15.949 -1.8067  0.2210 -1.1170
  883MPD2    N112956   2.975   4.523  15.826 -0.1376 -0.5593 -0.4477
  883MPD2    H712957   3.017   4.552  15.739  0.4703  0.0063  0.0303
  884MPD2     C12958   4.108   1.047  15.103  0.2403 -0.1678 -0.1223
  884MPD2    C112959   4.177   1.163  15.085  0.4203 -0.7100 -0.2690
  884MPD2    C212960   4.113   1.279  15.034  0.8066  0.0348  0.1727
  884MPD2    C312961   3.974   1.282  15.010 -0.3850  0.0032  0.3073
  884MPD2    C412962   3.908   1.161  15.036 -0.4152 -0.4443 -0.0359
  884MPD2    C512963   3.975   1.050  15.082 -0.5683  0.1146 -0.0627
  884MPD2     H12964   4.172   1.369  15.026  1.4482 -0.6412 -2.8319
  884MPD2    H112965   3.802   1.147  15.019 -0.0940 -0.9049 -1.6425
  884MPD2    H212966   4.166   0.959  15.129  2.7460  1.4846 -0.1400
  884MPD2    H312967   3.916   0.963  15.104  0.0851 -0.6664 -1.3800
  884MPD2     N12968   3.922   1.396  14.954  0.4592 -0.0086  0.2610
  884MPD2    H512969   3.983   1.475  14.938 -0.6966  1.4335  3.0248
  884MPD2    N112970   4.317   1.182  15.089  0.1439  0.3514  0.1145
  884MPD2    H712971   4.348   1.275  15.064 -1.3705  0.7298 -0.3450
  885MPD2     C12972   2.902   1.674  17.601  0.3616 -0.6313 -0.3780
  885MPD2    C112973   3.029   1.631  17.572 -0.1917  0.2103  0.1499
  885MPD2    C212974   3.070   1.615  17.438  0.0454 -0.0793  0.2251
  885MPD2    C312975   2.976   1.652  17.342 -0.6133 -0.3672 -0.2699
  885MPD2    C412976   2.857   1.712  17.375  0.9765  0.1751  0.5015
  885MPD2    C512977   2.819   1.722  17.507  0.2312  0.5426  0.5444
  885MPD2     H12978   3.160   1.561  17.411  1.1767  1.6085  0.6789
  885MPD2    H112979   2.789   1.755  17.302  1.7260 -0.9516 -0.8719
  885MPD2    H212980   2.860   1.679   0.022  0.2328 -1.9482 -0.3672
  885MPD2    H312981   2.723   1.759  17.542 -1.6452 -1.0423 -2.9312
  885MPD2     N12982   2.992   1.615  17.207  0.7025 -0.1972 -0.3935
  885MPD2    H512983   2.921   1.646  17.141  2.4991  2.0504 -1.2702
  885MPD2    N112984   3.114   1.596   0.002  0.7007  0.7543 -0.0183
  885MPD2    H712985   3.081   1.600   0.098  2.2160 -2.3378  0.6329
  886MPD2     C12986   0.134   3.782  15.113  0.0046  0.3252  0.1331
  886MPD2    C112987   0.149   3.846  15.234 -0.6366  0.8168 -0.7009
  886MPD2    C212988   0.094   3.975  15.252  0.7184  0.3923  0.0248
  886MPD2    C312989   0.041   4.044  15.147  0.4103 -0.0498  0.1948
  886MPD2    C412990   0.035   3.980  15.019  0.5783  0.2860  0.5259
  886MPD2    C512991   0.080   3.852  15.013 -0.2534  0.2248 -1.2005
  886MPD2     H12992   0.119   4.018  15.348  2.8424 -1.7330  0.4451
  886MPD2    H112993   4.715   4.022  14.927  0.4069  0.7894  0.8286
  886MPD2    H212994   0.181   3.685  15.104  0.0456  0.3603 -0.0339
  886MPD2    H312995   0.063   3.803  14.918 -1.2716  1.3296 -1.5918
  886MPD2     N12996   4.710   4.174  15.156 -0.0578 -0.1862  0.3024
  886MPD2    H512997   4.701   4.224  15.069 -0.3784  1.0847  1.0649
  886MPD2    N112998   0.215   3.786  15.347 -0.1506  0.9352  0.2588
  886MPD2    H712999   0.212   3.845  15.429 -0.7090  1.1820  0.0541
  887MPD2     C13000   0.554   3.985  15.982  0.5176 -0.5635  0.6734
  887MPD2    C113001   0.516   4.015  15.851  0.1211  0.1490  0.3987
  887MPD2    C213002   0.516   4.140  15.804 -0.7782 -0.0573  0.6042
  887MPD2    C313003   0.548   4.245  15.882  0.4593 -0.5893 -0.6143
  887MPD2    C413004   0.596   4.222  16.015 -0.0571  0.7642  0.0492
  887MPD2    C513005   0.596   4.090  16.058 -0.4406 -0.5354  0.1292
  887MPD2     H13006   0.483   4.145  15.701 -0.6737 -1.4922  0.4918
  887MPD2    H113007   0.609   4.300  16.089  0.1734 -1.6335  2.5258
  887MPD2    H213008   0.546   3.890  16.033  0.3037 -1.2748 -0.6972
  887MPD2    H313009   0.612   4.068  16.163  3.0161  1.6374  0.0728
  887MPD2     N13010   0.529   4.373  15.833 -0.3444  0.2226 -0.5683
  887MPD2    H513011   0.478   4.386  15.746 -0.3445  0.0451 -0.5943
  887MPD2    N113012   0.478   3.915  15.751  0.2192 -0.4723  0.0049
  887MPD2    H713013   0.467   3.940  15.654  2.2272  3.0939  0.7022
  888MPD2     C13014   2.275   4.323  14.975 -0.2303  0.3057  0.6043
  888MPD2    C113015   2.302   4.394  15.093  0.5119 -0.1879 -0.1645
  888MPD2    C213016   2.382   4.507  15.091 -0.1548  0.4478  0.4853
  888MPD2    C313017   2.446   4.548  14.974  0.5811 -0.4589 -0.1957
  888MPD2    C413018   2.419   4.477  14.859  0.0510 -0.3386  0.1568
  888MPD2    C513019   2.337   4.366  14.861  0.4711  0.2773 -0.0596
  888MPD2     H13020   2.399   4.572  15.176 -0.3487  3.5214 -1.8283
  888MPD2    H113021   2.469   4.502  14.766  1.0357  1.0001  1.0370
  888MPD2    H213022   2.225   4.228  14.969  0.5727 -0.0842  0.0932
  888MPD2    H313023   2.325   4.313  14.767 -0.7434  2.3101 -1.0398
  888MPD2     N13024   2.530   4.665  14.974  0.9509 -0.2044  0.0892
  888MPD2    H513025   2.539   0.001  15.059 -0.3057 -2.1278  1.4797
  888MPD2    N113026   2.243   4.355  15.223  0.5667  0.0074 -0.0679
  888MPD2    H713027   2.283   4.400  15.305 -1.0222 -0.3169  0.8882
  889MPD2     C13028   1.121   3.698  13.533 -0.6386 -0.3608  0.0502
  889MPD2    C113029   1.234   3.733  13.468  0.2401  0.0652  0.5569
  889MPD2    C213030   1.248   3.869  13.465  0.4365  0.1532 -0.0580
  889MPD2    C313031   1.141   3.957  13.488  0.3870  0.2962 -0.9744
  889MPD2    C413032   1.016   3.906  13.515  1.0586  0.3389 -1.4309
  889MPD2    C513033   1.005   3.772  13.524  0.9604  0.1216  0.3804
  889MPD2     H13034   1.338   3.914  13.425 -0.1767  0.7989 -0.7043
  889MPD2    H113035   0.928   3.969  13.509  0.6117 -0.0967  0.7223
  889MPD2    H213036   1.110   3.591  13.540  1.5780 -0.6943 -1.6776
  889MPD2    H313037   0.913   3.721  13.550  0.7605  1.1268  1.6353
  889MPD2     N13038   1.168   4.095  13.465  0.0053  0.1275  0.5296
  889MPD2    H513039   1.267   4.119  13.464  0.4077 -1.5634  0.0252
  889MPD2    N113040   1.345   3.643  13.461  0.3487  0.7364  0.6874
  889MPD2    H713041   1.339   3.552  13.505  2.6721 -0.0213 -0.5512
  890MPD2     C13042   0.819   0.844  14.582  0.2164 -0.1865 -0.3500
  890MPD2    C113043   0.886   0.961  14.625 -0.1558  0.0567  0.2142
  890MPD2    C213044   0.904   0.985  14.762  0.5872  0.3692  0.0094
  890MPD2    C313045   0.852   0.895  14.853 -0.1229  0.1104  0.0538
  890MPD2    C413046   0.792   0.779  14.807 -0.5632  0.5875 -0.1493
  890MPD2    C513047   0.770   0.754  14.672 -0.6361 -0.2695 -0.5429
  890MPD2     H13048   0.950   1.073  14.805  1.8115 -1.2352  2.0054
  890MPD2    H113049   0.754   0.701  14.872  0.6521  0.8724  0.9006
  890MPD2    H213050   0.795   0.828  14.478  0.2758  1.2014 -0.5781
  890MPD2    H313051   0.718   0.661  14.653  0.8579 -1.5460  1.5294
  890MPD2     N13052   0.870   0.918  14.986 -0.1787 -0.5529  0.0578
  890MPD2    H513053   0.929   0.997  15.008  1.3870 -1.8450  0.5428
  890MPD2    N113054   0.901   1.060  14.532 -0.0596 -0.3319  0.1467
  890MPD2    H713055   0.863   1.045  14.440  3.3749  0.7065 -1.4243
  891MPD2     C13056   3.924   4.075  16.252 -0.4616 -0.5160  0.1314
  891MPD2    C113057   3.845   4.049  16.363  0.1500  0.7374  0.4197
  891MPD2    C213058   3.907   3.992  16.478 -0.6596 -0.2126 -0.1329
  891MPD2    C313059   4.043   3.977  16.484  0.7050  0.0645  0.3425
  891MPD2    C413060   4.114   4.008  16.374  0.2120  0.3464  0.5610
  891MPD2    C513061   4.058   4.048  16.256 -0.4655  0.0823  0.3335
  891MPD2     H13062   3.849   3.973  16.568  0.4791 -1.9878  0.2196
  891MPD2    H113063   4.222   3.997  16.374  0.3286  1.5915  0.9943
  891MPD2    H213064   3.894   4.128  16.162 -1.1927 -1.2281 -0.0420
  891MPD2    H313065   4.121   4.069  16.171 -0.2637  2.0232  0.9664
  891MPD2     N13066   4.101   3.942  16.608 -0.6171  0.5396 -0.1641
  891MPD2    H513067   4.035   3.908  16.677  0.4288  2.9249  2.0099
  891MPD2    N113068   3.703   4.084  16.343 -0.2870 -0.7808  0.4870
  891MPD2    H713069   3.682   4.119  16.250  2.1254  1.5966  0.8194
  892MPD2     C13070   0.298   0.015  14.895  0.4355 -0.1405  0.4064
  892MPD2    C113071   0.231   0.042  14.773 -1.1405 -0.3373 -0.2233
  892MPD2    C213072   0.282   4.717  14.659 -0.3710  0.4687 -0.4770
  892MPD2    C313073   0.398   4.638  14.651  0.1793  0.3666 -0.7878
  892MPD2    C413074   0.455   4.610  14.770  0.1533  0.5040  0.5530
  892MPD2    C513075   0.405   4.653  14.886 -0.3546 -0.1609 -0.5974
  892MPD2     H13076   0.222   0.018  14.571 -1.5479 -0.4558  0.1166
  892MPD2    H113077   0.550   4.558  14.763  0.3058  0.7160  1.0895
  892MPD2    H213078   0.259   0.039  14.993  0.9052  1.3514  0.2196
  892MPD2    H313079   0.465   4.634  14.974 -0.7820 -0.1024 -0.2911
  892MPD2     N13080   0.466   4.602  14.529 -0.2754 -0.3177 -0.5143
  892MPD2    H513081   0.560   4.565  14.540  0.3999  1.3227 -0.7247
  892MPD2    N113082   0.121   0.124  14.773  0.0513 -0.6220  0.9775
  892MPD2    H713083   0.086   0.154  14.682  4.6335 -0.1074 -0.5972
  893MPD2     C13084   1.176   3.803   0.889 -0.1567 -0.0793 -0.6737
  893MPD2    C113085   1.171   3.752   1.017  0.2799 -0.3738  0.7116
  893MPD2    C213086   1.088   3.810   1.108  0.1813 -0.3576 -0.3499
  893MPD2    C313087   0.994   3.904   1.068 -0.5063 -0.0268 -0.0311
  893MPD2    C413088   0.998   3.947   0.936  0.1271 -0.1300 -1.2312
  893MPD2    C513089   1.086   3.892   0.849 -0.8724  0.0193  0.2820
  893MPD2     H13090   1.097   3.780   1.212 -1.0878  1.6219  0.3395
  893MPD2    H113091   0.935   4.026   0.897 -1.4885  0.1330  1.9087
  893MPD2    H213092   1.243   3.761   0.814 -1.0051  0.3723 -1.6954
  893MPD2    H313093   1.086   3.939   0.752  0.9176 -0.4262  0.0745
  893MPD2     N13094   0.901   3.971   1.152 -0.3759  0.4225 -0.5156
  893MPD2    H513095   0.836   4.040   1.116 -3.1499 -0.5992  2.4470
  893MPD2    N113096   1.277   3.666   1.050  0.2595  0.4431  0.0222
  893MPD2    H713097   1.340   3.640   0.975 -0.5062 -0.7799 -0.1870
  894MPD2     C13098   4.258   1.166   1.003  0.1524 -0.5042 -0.4693
  894MPD2    C113099   4.214   1.189   1.131 -0.3283  0.2554  0.1479
  894MPD2    C213100   4.251   1.305   1.192 -0.4448  0.0929 -0.2807
  894MPD2    C313101   4.348   1.387   1.133 -0.1748 -0.2802  0.0967
  894MPD2    C413102   4.389   1.361   1.002  0.8851  0.2767  0.0205
  894MPD2    C513103   4.335   1.259   0.937  0.2755  0.6418 -0.1972
  894MPD2     H13104   4.218   1.332   1.292 -3.2337 -0.2441 -1.0954
  894MPD2    H113105   4.467   1.417   0.952  0.1944  2.0526  0.9483
  894MPD2    H213106   4.220   1.079   0.951  0.2527 -0.3287 -0.8310
  894MPD2    H313107   4.359   1.237   0.834 -1.0526 -0.1647 -0.3328
  894MPD2     N13108   4.400   1.487   1.209  0.2172 -0.0109 -0.3351
  894MPD2    H513109   4.344   1.518   1.287 -1.1805  0.0646 -1.3770
  894MPD2    N113110   4.144   1.096   1.216 -0.0828 -0.0042 -0.4688
  894MPD2    H713111   4.133   1.122   1.314 -1.2402 -0.3300 -0.5074
  895MPD2     C13112   4.391   4.291  13.443  0.6114 -0.5501  0.1368
  895MPD2    C113113   4.294   4.233  13.360 -0.4094  0.7513  0.4601
  895MPD2    C213114   4.315   4.112  13.305  0.0354  0.3482 -0.0287
  895MPD2    C313115   4.447   4.076  13.298 -0.4335 -0.0804  0.6867
  895MPD2    C413116   4.553   4.129  13.376  0.0729 -0.3647  0.2047
  895MPD2    C513117   4.516   4.234  13.455 -0.3179  0.6439 -0.0110
  895MPD2     H13118   4.249   4.083  13.224  0.0853  1.5185 -0.4889
  895MPD2    H113119   4.657   4.100  13.366 -0.0138 -0.8562  0.7274
  895MPD2    H213120   4.363   4.377  13.503 -0.7111 -0.1002 -1.0960
  895MPD2    H313121   4.590   4.283  13.517 -0.5454  0.4703  0.3933
  895MPD2     N13122   4.470   3.966  13.209 -0.4890  0.0339 -0.3859
  895MPD2    H513123   4.390   3.922  13.165 -0.3508  0.9463 -1.5635
  895MPD2    N113124   4.164   4.287  13.341 -0.9274  0.4842  0.2904
  895MPD2    H713125   4.101   4.231  13.285 -0.3561 -0.0839  0.2129
  896MPD2     C13126   1.417   2.279   1.958  0.3436  0.4748  0.5037
  896MPD2    C113127   1.417   2.221   1.833  0.1784  0.5201  0.1985
  896MPD2    C213128   1.315   2.137   1.799 -0.8791  0.6366 -0.1948
  896MPD2    C313129   1.218   2.098   1.887  0.9916  0.1200 -0.0037
  896MPD2    C413130   1.225   2.152   2.012 -0.1132  1.4827 -0.0945
  896MPD2    C513131   1.316   2.250   2.042 -0.1222 -0.3170  0.2735
  896MPD2     H13132   1.325   2.089   1.702  1.1770 -0.3185  0.5087
  896MPD2    H113133   1.150   2.123   2.085 -1.2265 -0.0389 -1.8264
  896MPD2    H213134   1.494   2.345   1.994  0.6538  0.2097  0.3245
  896MPD2    H313135   1.324   2.285   2.144 -1.1886 -0.5514  0.4344
  896MPD2     N13136   1.108   2.023   1.836 -0.2069  0.3617 -0.4796
  896MPD2    H513137   1.116   1.989   1.741 -1.3725 -3.1100  0.6753
  896MPD2    N113138   1.529   2.249   1.751  0.3825  0.4033  0.0153
  896MPD2    H713139   1.600   2.312   1.788  1.6594 -1.5557  0.9260
  897MPD2     C13140   2.872   3.562  10.682  0.0517  0.6972 -0.2952
  897MPD2    C113141   2.921   3.693  10.698 -0.2433 -0.2723  0.2144
  897MPD2    C213142   2.833   3.800  10.715 -0.1894  0.0085  0.0396
  897MPD2    C313143   2.698   3.775  10.709 -1.5158  0.2643  0.4500
  897MPD2    C413144   2.644   3.650  10.686  0.1346  0.1666 -0.3821
  897MPD2    C513145   2.737   3.550  10.669  0.6212 -0.6449  0.3871
  897MPD2     H13146   2.865   3.902  10.730  3.0970 -0.8671 -0.9086
  897MPD2    H113147   2.541   3.622  10.669  0.6382 -0.7262 -1.9229
  897MPD2    H213148   2.936   3.475  10.672 -0.4734 -0.1240  3.5255
  897MPD2    H313149   2.696   3.453  10.646  1.6342 -0.2836 -2.9539
  897MPD2     N13150   2.610   3.882  10.749  0.2374  0.0656 -0.7343
  897MPD2    H513151   2.649   3.971  10.781 -0.4051 -0.0038  0.2264
  897MPD2    N113152   3.060   3.725  10.682  0.2678 -0.4740  0.2581
  897MPD2    H713153   3.091   3.819  10.707 -1.4828  0.1097  0.2667
  898MPD2     C13154   4.587   4.054  17.406 -0.2658  0.4106 -0.7906
  898MPD2    C113155   4.673   4.091  17.510  0.2252 -0.0017  0.4006
  898MPD2    C213156   4.655   4.218  17.563  1.6078 -0.0373  0.0253
  898MPD2    C313157   4.557   4.306  17.517 -0.4071 -0.3846 -0.3549
  898MPD2    C413158   4.471   4.258  17.425  0.3898  0.2502 -0.2517
  898MPD2    C513159   4.488   4.134  17.367  0.1238  0.4503  0.1117
  898MPD2     H13160   4.718   4.262  17.639 -1.0151  1.3426  1.3702
  898MPD2    H113161   4.387   4.313  17.384 -0.0346  0.4413  0.8647
  898MPD2    H213162   4.591   3.955  17.361 -0.4053  0.2849 -0.5282
  898MPD2    H313163   4.406   4.101  17.303 -1.3007 -2.7582  3.5737
  898MPD2     N13164   4.547   4.432  17.576 -0.6948  0.2766  0.0707
  898MPD2    H513165   4.599   4.449  17.662 -1.0365  1.5478  0.0239
  898MPD2    N113166   0.066   4.013  17.556 -0.1015 -0.4671 -0.6290
  898MPD2    H713167   0.122   4.053  17.630 -0.3811 -0.9354 -0.1673
  899MPD2     C13168   0.829   0.388  17.617 -1.0981  0.5202  0.0649
  899MPD2    C113169   0.698   0.412  17.585  0.0091 -0.2256  0.4830
  899MPD2    C213170   0.601   0.414   0.002  0.5217 -0.1797  0.0774
  899MPD2    C313171   0.626   0.393   0.136  0.5190  0.0708 -0.3127
  899MPD2    C413172   0.753   0.349   0.164  0.9572 -0.3474 -0.3541
  899MPD2    C513173   0.852   0.338   0.071 -0.1480 -0.2555  0.5397
  899MPD2     H13174   0.501   0.434  17.644  0.4816  0.5204  0.5580
  899MPD2    H113175   0.778   0.319   0.265 -1.1821  0.3645  0.3968
  899MPD2    H213176   0.903   0.387  17.538 -0.8203  1.6455  0.3069
  899MPD2    H313177   0.948   0.293   0.094 -0.0694 -1.5127 -2.3029
  899MPD2     N13178   0.528   0.394   0.241  0.4799  1.0334  0.3524
  899MPD2    H513179   0.567   0.380   0.334  0.9731  2.7527  0.4105
  899MPD2    N113180   0.676   0.443  17.452 -0.4729 -0.3601 -0.5118
  899MPD2    H713181   0.763   0.441  17.399  0.4069 -0.7594  0.9425
  900MPD2     C13182   0.503   2.370  11.968  0.0955 -0.5047  0.3523
  900MPD2    C113183   0.433   2.255  11.991 -0.1741  1.1550  0.8498
  900MPD2    C213184   0.333   2.222  11.904 -0.7460 -0.1028 -0.2847
  900MPD2    C313185   0.321   2.291  11.781  0.2412 -0.5465  0.3674
  900MPD2    C413186   0.396   2.408  11.754 -0.1002 -0.3128  0.5690
  900MPD2    C513187   0.481   2.444  11.853  0.1807  0.2934  0.1636
  900MPD2     H13188   0.276   2.134  11.930 -2.1482  0.2125 -2.2504
  900MPD2    H113189   0.403   2.456  11.657  1.9173 -1.5798  0.0879
  900MPD2    H213190   0.581   2.410  12.032  1.3642 -1.2343 -0.7494
  900MPD2    H313191   0.558   2.519  11.845  1.0609 -0.5743  0.4318
  900MPD2     N13192   0.232   2.236  11.686  0.8827  0.3133 -0.7709
  900MPD2    H513193   0.186   2.148  11.708 -0.1171  1.2421  0.8938
  900MPD2    N113194   0.462   2.184  12.109 -0.1767 -0.3107 -0.6956
  900MPD2    H713195   0.538   2.214  12.170  0.1369  0.7672 -1.6206
  901MPD2     C13196   0.234   1.243  12.367 -0.3585  0.3905 -0.1195
  901MPD2    C113197   0.370   1.258  12.350 -0.5559 -0.0758  0.0594
  901MPD2    C213198   0.439   1.378  12.379  0.6515 -0.3430 -0.1110
  901MPD2    C313199   0.366   1.489  12.421  0.0748 -0.1680 -0.5624
  901MPD2    C413200   0.237   1.469  12.453  0.3506  0.0118  0.1806
  901MPD2    C513201   0.171   1.350  12.421  0.5238  0.0735 -0.9276
  901MPD2     H13202   0.546   1.383  12.363  0.2040  2.0278 -2.4545
  901MPD2    H113203   0.167   1.536  12.502 -0.0340 -0.3327  0.1069
  901MPD2    H213204   0.183   1.153  12.335 -0.6856  1.3894 -2.3981
  901MPD2    H313205   0.063   1.348  12.430  0.4275  1.0015 -1.7925
  901MPD2     N13206   0.430   1.609  12.439  0.2354 -0.2765  0.3362
  901MPD2    H513207   0.530   1.609  12.420 -0.3351 -0.9643 -2.7568
  901MPD2    N113208   0.431   1.149  12.294 -0.1543  0.5025 -0.7123
  901MPD2    H713209   0.377   1.064  12.277  0.6387 -0.0133 -0.6723
  902MPD2     C13210   4.019   4.654  13.087 -0.5592  0.3939 -0.3916
  902MPD2    C113211   3.937   4.705  12.985  0.1139 -0.1982  0.4260
  902MPD2    C213212   3.924   4.641  12.865 -0.5987  0.3968 -0.0089
  902MPD2    C313213   3.995   4.526  12.842 -0.2135  0.7344  0.0672
  902MPD2    C413214   4.078   4.477  12.941  0.4663  1.0011 -0.0321
  902MPD2    C513215   4.093   4.538  13.058 -0.1575 -0.3024 -0.1552
  902MPD2     H13216   3.862   4.696  12.795 -1.8217 -2.0614 -0.8610
  902MPD2    H113217   4.131   4.384  12.930 -2.1818 -0.5005 -0.0441
  902MPD2    H213218   4.027   4.699  13.185 -1.1410 -2.0784  0.7977
  902MPD2    H313219   4.165   4.496  13.127 -1.5635 -1.0898  0.8196
  902MPD2     N13220   4.004   4.467  12.712  0.2284 -0.5017  0.0775
  902MPD2    H513221   4.064   4.385  12.703  0.4349 -0.3430  0.0019
  902MPD2    N113222   3.864   0.108  13.001  0.4885 -0.0545  0.4480
  902MPD2    H713223   3.815   0.144  12.920  0.6153 -0.9567 -0.0337
  903MPD2     C13224   4.215   4.575  11.825  0.4579 -0.3157 -0.0624
  903MPD2    C113225   4.129   4.631  11.915 -0.3614  0.4641  1.5751
  903MPD2    C213226   4.059   0.022  11.872 -0.2540 -0.0451  0.3721
  903MPD2    C313227   4.066   0.072  11.742 -0.0110 -0.2381  0.2642
  903MPD2    C413228   4.156   0.015  11.663  0.0048 -0.2500 -0.7591
  903MPD2    C513229   4.237   4.633  11.702 -0.1346  0.3455 -0.0657
  903MPD2     H13230   3.991   0.070  11.942 -0.3832  1.3836 -0.7395
  903MPD2    H113231   4.176   0.064  11.568  1.7514  2.7307  1.1404
  903MPD2    H213232   4.255   4.476  11.845 -1.3363 -0.6810  1.7570
  903MPD2    H313233   4.303   4.589  11.629 -0.5627  0.3673 -0.4688
  903MPD2     N13234   3.977   0.176  11.709 -0.5998  0.4167 -0.8755
  903MPD2    H513235   3.924   0.216  11.786  1.0862  1.4171 -0.2204
  903MPD2    N113236   4.118   4.571  12.048  0.4381  0.6372 -0.0075
  903MPD2    H713237   4.173   4.488  12.066 -2.4815 -0.8287  2.0610
  904MPD2     C13238   4.124   3.705  13.469  0.7361  0.0070  0.6329
  904MPD2    C113239   4.115   3.643  13.595 -0.1260  0.6237  0.5290
  904MPD2    C213240   4.229   3.622  13.667 -0.6534 -0.2162  0.8825
  904MPD2    C313241   4.353   3.676  13.624  0.0576 -0.1741  0.2794
  904MPD2    C413242   4.356   3.737  13.497 -0.6853  0.0915  0.3709
  904MPD2    C513243   4.240   3.753  13.423 -0.6042 -0.9950 -0.1851
  904MPD2     H13244   4.224   3.580  13.767  2.3520 -0.7816  0.7945
  904MPD2    H113245   4.448   3.779  13.460  0.1383 -3.1511 -1.2687
  904MPD2    H213246   4.039   3.710  13.402  0.8305 -1.2744  0.4197
  904MPD2    H313247   4.247   3.810  13.331 -0.5454 -2.4058 -1.0510
  904MPD2     N13248   4.476   3.644  13.706 -0.0641  0.3279 -0.8233
  904MPD2    H513249   4.459   3.597  13.794  2.1819 -0.7228 -0.9651
  904MPD2    N113250   3.993   3.593  13.644 -0.4533  0.4873 -0.0821
  904MPD2    H713251   4.001   3.529  13.723 -1.4102  1.4928  0.8252
  905MPD2     C13252   3.740   3.656  13.005 -0.8128  0.2002 -0.0768
  905MPD2    C113253   3.811   3.751  13.077 -0.4118 -0.4323 -0.9690
  905MPD2    C213254   3.953   3.752  13.057  0.5367 -0.2520  0.2627
  905MPD2    C313255   4.015   3.671  12.968 -0.0756  1.0291  0.3593
  905MPD2    C413256   3.946   3.587  12.893 -0.1671 -0.3504 -0.1188
  905MPD2    C513257   3.808   3.583  12.914 -0.4645  0.1726 -0.3686
  905MPD2     H13258   4.018   3.807  13.124  1.2140 -2.1725  1.1851
  905MPD2    H113259   4.001   3.513  12.836  1.4567  2.6826 -2.4387
  905MPD2    H213260   3.632   3.641  13.004 -0.5864 -1.3937 -0.3315
  905MPD2    H313261   3.763   3.499  12.862  1.3440 -1.6937  1.0744
  905MPD2     N13262   4.157   3.657  12.949  0.3187 -0.7206 -0.1203
  905MPD2    H513263   4.188   3.581  12.889  0.6177 -1.4711  0.9857
  905MPD2    N113264   3.755   3.822  13.181 -0.2229 -1.0406  0.6074
  905MPD2    H713265   3.666   3.784  13.212 -0.8452 -1.1979 -1.3669
  906MPD2     C13266   1.520   4.449  10.952  0.1580 -0.0461 -0.1226
  906MPD2    C113267   1.495   4.360  10.850  0.0269 -0.2166  0.2822
  906MPD2    C213268   1.456   4.233  10.893  0.0823  0.0101 -0.8850
  906MPD2    C313269   1.478   4.191  11.025  0.0622 -0.2314 -0.5538
  906MPD2    C413270   1.499   4.284  11.127  0.3726  0.1905 -0.0141
  906MPD2    C513271   1.522   4.417  11.084 -0.1975  0.4175 -0.3472
  906MPD2     H13272   1.437   4.166  10.809  0.0531 -0.6046 -0.3879
  906MPD2    H113273   1.520   4.248  11.227  0.1333 -1.5672 -0.5948
  906MPD2    H213274   1.563   4.547  10.936  1.6187 -0.6688 -0.0433
  906MPD2    H313275   1.555   4.493  11.153  0.5590  0.3103 -0.5982
  906MPD2     N13276   1.452   4.059  11.077  0.7081 -0.5108 -0.3667
  906MPD2    H513277   1.479   4.039  11.173 -2.6159  0.5464  0.7782
  906MPD2    N113278   1.499   4.388  10.713 -0.1889 -0.5979 -0.2907
  906MPD2    H713279   1.468   4.317  10.648  0.3704 -0.8043 -0.3275
  907MPD2     C13280   0.110   3.205  15.314  0.1172 -0.1069 -0.8063
  907MPD2    C113281   0.070   3.070  15.317 -0.1616  0.5602 -0.0650
  907MPD2    C213282   0.058   3.007  15.442  0.6922 -0.2713  0.2277
  907MPD2    C313283   0.065   3.081  15.563 -0.6597  0.7088 -0.2475
  907MPD2    C413284   0.089   3.213  15.556  0.1289 -0.3875 -0.1534
  907MPD2    C513285   0.113   3.272  15.437  0.2804  0.2949 -0.6350
  907MPD2     H13286   0.039   2.901  15.454 -1.6919 -0.0446 -1.5557
  907MPD2    H113287   0.099   3.278  15.642 -2.6498 -1.6886  1.1574
  907MPD2    H213288   0.131   3.268  15.229 -1.0237  2.3765  0.7537
  907MPD2    H313289   0.143   3.375  15.431 -3.0739  1.2478 -1.0540
  907MPD2     N13290   0.042   3.006  15.679  0.1014  1.0201  0.1572
  907MPD2    H513291   0.049   2.905  15.678  1.5698  1.1300 -1.1792
  907MPD2    N113292   0.055   2.989  15.202  0.3807 -0.2963 -0.1923
  907MPD2    H713293   0.030   2.891  15.209  0.8359 -0.4214 -0.3249
  908MPD2     C13294   3.555   3.344   9.912 -0.6807 -0.1763 -0.1168
  908MPD2    C113295   3.445   3.307   9.989 -0.2415  0.0577  0.2104
  908MPD2    C213296   3.419   3.364  10.115  0.7355  0.3541 -0.6638
  908MPD2    C313297   3.501   3.463  10.159 -0.2488  0.2161  0.1746
  908MPD2    C413298   3.605   3.495  10.084 -0.2691 -0.4399 -0.4295
  908MPD2    C513299   3.630   3.446   9.962 -0.6291 -0.0022  0.1943
  908MPD2     H13300   3.338   3.329  10.178  1.4902 -1.6970 -0.8073
  908MPD2    H113301   3.672   3.578  10.105 -0.6183  0.4184 -2.7347
  908MPD2    H213302   3.570   3.301   9.813  2.1623 -1.3757  0.8481
  908MPD2    H313303   3.704   3.491   9.896  0.0756 -2.7765 -0.9262
  908MPD2     N13304   3.486   3.516  10.285 -0.2143  0.2457 -0.3756
  908MPD2    H513305   3.405   3.481  10.334 -0.0216  0.5688  0.1797
  908MPD2    N113306   3.352   3.206   9.948  0.4907  0.5641  0.5640
  908MPD2    H713307   3.277   3.193  10.014  0.9205  0.0304  0.9420
  909MPD2     C13308   3.248   1.955  11.593 -0.6075 -0.5339 -0.2897
  909MPD2    C113309   3.256   2.091  11.602  0.5493 -0.4244  0.2957
  909MPD2    C213310   3.170   2.153  11.695  0.2699 -0.5777 -0.0094
  909MPD2    C313311   3.077   2.080  11.777 -0.2024  0.1934 -0.0222
  909MPD2    C413312   3.081   1.944  11.769 -0.2489 -0.0877 -0.2272
  909MPD2    C513313   3.168   1.884  11.683  0.6051  0.1649  0.2674
  909MPD2     H13314   3.172   2.260  11.712 -1.6371 -0.5085 -0.1760
  909MPD2    H113315   3.037   1.868  11.833 -1.7687  0.3720 -0.7548
  909MPD2    H213316   3.311   1.901  11.523  0.3019  0.6418 -0.3534
  909MPD2    H313317   3.173   1.776  11.685  1.0087  0.1899  0.5757
  909MPD2     N13318   2.993   2.140  11.881  0.1730  0.1330  0.6689
  909MPD2    H513319   2.983   2.241  11.890 -1.3452  0.1080 -0.6021
  909MPD2    N113320   3.349   2.172  11.534  0.7285  0.0955 -0.2506
  909MPD2    H713321   3.362   2.267  11.568 -0.3689 -0.8629  2.8726
  910MPD2     C13322   4.598   3.508  15.607  0.4471 -1.5777  0.1087
  910MPD2    C113323   4.510   3.399  15.591 -0.0091  0.8312 -0.0198
  910MPD2    C213324   4.486   3.350  15.459  0.9739 -0.2642 -0.7707
  910MPD2    C313325   4.551   3.414  15.345  0.0593 -0.2021  0.1806
  910MPD2    C413326   4.624   3.535  15.366  0.0241  0.1579 -0.0584
  910MPD2    C513327   4.654   3.571  15.501  0.0378 -0.4214  0.0889
  910MPD2     H13328   4.433   3.256  15.448  0.4626  0.0903 -1.3195
  910MPD2    H113329   4.665   3.588  15.281 -0.6765 -0.3485 -0.7140
  910MPD2    H213330   4.628   3.534  15.708  0.5220 -0.0720 -0.2976
  910MPD2    H313331   4.711   3.663  15.509 -0.2175 -0.2541 -0.0465
  910MPD2     N13332   4.527   3.380  15.212 -0.0446 -0.2618 -0.6755
  910MPD2    H513333   4.579   3.434  15.144  0.0271 -0.1670 -0.5455
  910MPD2    N113334   4.464   3.316  15.696 -0.0009 -0.0513  0.3403
  910MPD2    H713335   4.409   3.237  15.665  2.1368 -1.6288  0.5539
  911MPD2     C13336   2.004   3.882  16.528 -0.0655 -0.0736  0.2853
  911MPD2    C113337   2.018   4.010  16.473 -0.9655 -0.1804  0.3052
  911MPD2    C213338   1.904   4.075  16.430 -0.2605  0.1284  0.0021
  911MPD2    C313339   1.776   4.018  16.455 -0.4523 -0.1697 -0.1497
  911MPD2    C413340   1.767   3.904  16.529 -0.1091 -0.4793  0.3051
  911MPD2    C513341   1.882   3.836  16.566  1.0704  0.6582 -0.0716
  911MPD2     H13342   1.910   4.169  16.377 -1.9673  0.3901  0.2601
  911MPD2    H113343   1.664   3.873  16.547  0.3625 -4.2523 -3.5831
  911MPD2    H213344   2.092   3.825  16.555  0.7506  0.7911 -0.5256
  911MPD2    H313345   1.890   3.736  16.607 -1.9397  0.2550 -0.4151
  911MPD2     N13346   1.651   4.061  16.392  0.4215 -0.1755 -0.7465
  911MPD2    H513347   1.569   4.003  16.401  1.1172 -1.2326 -1.2651
  911MPD2    N113348   2.148   4.058  16.458 -0.5466 -0.3963  0.1605
  911MPD2    H713349   2.226   4.010  16.502  1.0407  0.1461 -2.0601
  912MPD2     C13350   1.158   3.563  16.336 -0.0051 -0.3845 -0.4124
  912MPD2    C113351   1.233   3.660  16.397 -0.1822 -0.0742 -0.2161
  912MPD2    C213352   1.263   3.645  16.530 -0.5704 -0.3370 -0.0825
  912MPD2    C313353   1.215   3.532  16.595  0.4626 -0.0368  0.1178
  912MPD2    C413354   1.134   3.433  16.531  0.0650  0.3323  0.6345
  912MPD2    C513355   1.113   3.451  16.399 -0.0358  0.6327  0.5483
  912MPD2     H13356   1.318   3.716  16.590 -3.2020  1.7619 -0.1679
  912MPD2    H113357   1.098   3.342  16.577  2.3840 -0.1624  1.4961
  912MPD2    H213358   1.130   3.567  16.231  1.2713  2.0851 -0.6441
  912MPD2    H313359   1.059   3.375  16.344  1.7165 -0.4415  0.3170
  912MPD2     N13360   1.242   3.514  16.733  0.0842  0.4469  0.2357
  912MPD2    H513361   1.294   3.589  16.776  1.3712 -0.8916  1.0085
  912MPD2    N113362   1.260   3.774  16.321  0.5159 -0.5399  0.4171
  912MPD2    H713363   1.207   3.781  16.235  0.7585  1.1806  0.4182
  913MPD2     C13364   2.186   0.721  10.062  0.2316 -0.2398  0.4472
  913MPD2    C113365   2.273   0.781  10.149  0.0721 -0.1935 -0.5916
  913MPD2    C213366   2.366   0.862  10.087  0.3905  0.3544  0.1746
  913MPD2    C313367   2.354   0.895   9.950  0.6113  0.6260 -0.3926
  913MPD2    C413368   2.261   0.837   9.870  0.5588 -0.2476 -0.4534
  913MPD2    C513369   2.182   0.747   9.926 -0.1816  0.1306 -0.2222
  913MPD2     H13370   2.440   0.910  10.149 -1.4723  0.8262  2.0540
  913MPD2    H113371   2.253   0.855   9.763  0.5117  0.6904 -0.2886
  913MPD2    H213372   2.121   0.642  10.099  0.2292  0.7438  2.5667
  913MPD2    H313373   2.112   0.687   9.868 -0.7162  0.0758  0.4810
  913MPD2     N13374   2.440   0.985   9.881  0.7489  0.3038  0.6817
  913MPD2    H513375   2.434   0.984   9.780  1.3090  2.2736  0.6203
  913MPD2    N113376   2.254   0.754  10.284 -1.0277  0.8322  0.6545
  913MPD2    H713377   2.176   0.695  10.312 -0.6641  0.0460  0.0014
  914MPD2     C13378   0.216   0.802  11.573 -0.5485  0.8139  0.3066
  914MPD2    C113379   0.271   0.924  11.606 -0.3552  0.1487  0.7112
  914MPD2    C213380   0.348   0.935  11.718  0.0789  0.8517  0.3433
  914MPD2    C313381   0.362   0.821  11.801  0.1681  0.3136  0.5823
  914MPD2    C413382   0.292   0.708  11.783 -0.4874 -0.0394  0.1897
  914MPD2    C513383   0.216   0.701  11.667  0.6446 -0.7224 -0.0957
  914MPD2     H13384   0.404   1.022  11.750  1.9587 -0.2873  0.0948
  914MPD2    H113385   0.288   0.628  11.856 -3.0461  2.4263  2.7118
  914MPD2    H213386   0.165   0.787  11.478  0.5929  0.8764 -0.3201
  914MPD2    H313387   0.154   0.617  11.638 -0.6926 -0.0471  0.8547
  914MPD2     N13388   0.440   0.835  11.918  0.2565  0.3683  0.6781
  914MPD2    H513389   0.475   0.930  11.929 -1.2250  0.8298  1.3829
  914MPD2    N113390   0.278   1.031  11.517 -0.2097  0.4004  0.0791
  914MPD2    H713391   0.258   1.018  11.419  0.0501  1.8164 -0.1527
  915MPD2     C13392   3.573   0.697  15.399 -0.0077  0.2663  0.6714
  915MPD2    C113393   3.463   0.632  15.440 -0.2684  0.0629  0.0968
  915MPD2    C213394   3.403   0.682  15.556 -0.0577  0.6927  0.1381
  915MPD2    C313395   3.450   0.793  15.623  0.5000 -0.1886  0.7123
  915MPD2    C413396   3.561   0.852  15.575 -0.0177 -0.1958 -0.5818
  915MPD2    C513397   3.628   0.802  15.466 -0.1849  1.1038 -0.9739
  915MPD2     H13398   3.321   0.629  15.602 -0.1511 -2.0110 -3.1561
  915MPD2    H113399   3.596   0.941  15.627 -1.0831  0.3557 -0.8022
  915MPD2    H213400   3.614   0.663  15.304  0.4448  0.5706  0.7529
  915MPD2    H313401   3.710   0.857  15.422  0.9168  0.2695  0.0366
  915MPD2     N13402   3.381   0.846  15.744  0.7701  0.0437 -0.2594
  915MPD2    H513403   3.310   0.789  15.789  2.4461 -2.8496 -1.2543
  915MPD2    N113404   3.406   0.529  15.363 -0.4215 -0.1155 -0.4195
  915MPD2    H713405   3.463   0.497  15.285  1.7738  2.2904  0.1887
  916MPD2     C13406   1.141   4.133  15.828  0.5477 -0.2602 -0.6189
  916MPD2    C113407   1.128   4.023  15.906 -0.4197  0.0542 -0.1857
  916MPD2    C213408   1.196   3.901  15.872 -0.1033  0.8249  0.3094
  916MPD2    C313409   1.279   3.899  15.761  0.2195 -0.0482 -0.1799
  916MPD2    C413410   1.281   4.011  15.672 -0.2885 -0.1726  0.4301
  916MPD2    C513411   1.218   4.122  15.714  0.7392 -0.2377 -0.2308
  916MPD2     H13412   1.185   3.819  15.942 -2.5602  1.0166  0.1588
  916MPD2    H113413   1.346   4.016  15.585  1.3095  0.9828  1.7026
  916MPD2    H213414   1.094   4.223  15.865 -0.6213 -1.7138  1.4621
  916MPD2    H313415   1.231   4.213  15.656 -2.2793 -0.9112 -1.9308
  916MPD2     N13416   1.336   3.773  15.727 -0.0794  0.2393 -0.1987
  916MPD2    H513417   1.314   3.688  15.777 -0.7690 -0.3452 -1.5030
  916MPD2    N113418   1.045   4.042  16.024  0.4516 -0.3887 -0.3271
  916MPD2    H713419   1.008   4.134  16.045 -1.2513 -1.1134 -0.1859
  917MPD2     C13420   2.002   1.541  10.992  0.8319  0.3398 -0.1670
  917MPD2    C113421   2.041   1.564  11.123  0.3353 -0.3850  0.2697
  917MPD2    C213422   2.146   1.657  11.147  0.0663 -1.0265  0.0699
  917MPD2    C313423   2.206   1.734  11.047 -0.0294 -0.0478 -0.7384
  917MPD2    C413424   2.148   1.722  10.923  0.8087  0.5718  0.3683
  917MPD2    C513425   2.053   1.623  10.897  0.4643 -0.0786  0.3721
  917MPD2     H13426   2.171   1.684  11.249  1.7303 -2.1972 -0.0441
  917MPD2    H113427   2.166   1.795  10.845  0.1965  0.4306  0.0940
  917MPD2    H213428   1.934   1.463  10.963  1.8624  0.0018 -1.6821
  917MPD2    H313429   2.031   1.614  10.791  1.9852 -1.0343  0.1438
  917MPD2     N13430   2.312   1.828  11.062 -0.2860  0.9614 -0.3055
  917MPD2    H513431   2.317   1.891  10.983 -0.4593 -4.7008 -4.9033
  917MPD2    N113432   1.979   1.491  11.230 -0.8786  0.0797 -0.0185
  917MPD2    H713433   1.916   1.418  11.196  2.0323 -1.5846 -1.8066
  918MPD2     C13434   1.707   1.855  12.139 -0.5337  0.0453  0.2042
  918MPD2    C113435   1.834   1.860  12.086  0.2487 -0.0212  0.0303
  918MPD2    C213436   1.852   1.806  11.960  0.0349  0.8273 -0.7452
  918MPD2    C313437   1.750   1.741  11.894  0.2276  0.9370  0.1830
  918MPD2    C413438   1.624   1.745  11.949 -0.5784  0.1382  0.8594
  918MPD2    C513439   1.602   1.799  12.072 -0.6583 -0.6979 -0.6160
  918MPD2     H13440   1.947   1.805  11.908  2.1297 -1.8032  3.1294
  918MPD2    H113441   1.537   1.701  11.901 -0.6914  1.2667  0.0298
  918MPD2    H213442   1.684   1.898  12.236 -0.9891  0.0625  0.0903
  918MPD2    H313443   1.503   1.799  12.114 -0.1257  1.7781  0.6473
  918MPD2     N13444   1.772   1.670  11.778  0.2745 -0.4454 -0.2114
  918MPD2    H513445   1.865   1.685  11.740  1.9288 -0.8029  3.7582
  918MPD2    N113446   1.942   1.913  12.163 -0.0236  0.5050 -0.3076
  918MPD2    H713447   1.924   1.937  12.260 -0.6276  0.1167 -0.3224
  919MPD2     C13448   2.371   0.649  11.936  0.0603  0.2876  0.2664
  919MPD2    C113449   2.380   0.523  11.880  0.3343 -0.4637 -0.5652
  919MPD2    C213450   2.368   0.510  11.744 -0.0193 -0.2838  0.1184
  919MPD2    C313451   2.343   0.624  11.660 -0.5013 -0.0353 -0.5273
  919MPD2    C413452   2.331   0.745  11.717  0.7017 -0.4836  0.4725
  919MPD2    C513453   2.336   0.753  11.856  0.3137 -0.1500 -0.6472
  919MPD2     H13454   2.371   0.410  11.702 -1.9599  0.5242 -1.9443
  919MPD2    H113455   2.319   0.836  11.658 -1.5543 -0.6709  0.6497
  919MPD2    H213456   2.390   0.666  12.041  1.0467  0.3801  0.0735
  919MPD2    H313457   2.345   0.851  11.900  1.9108 -1.3997  1.7728
  919MPD2     N13458   2.314   0.619  11.527  0.5675 -0.0686 -0.6833
  919MPD2    H513459   2.286   0.706  11.484 -0.3156  0.2163  0.4547
  919MPD2    N113460   2.410   0.407  11.962 -0.8360  0.1131  0.0475
  919MPD2    H713461   2.415   0.434  12.060 -3.5424  2.8067 -0.5377
  920MPD2     C13462   2.437   1.089  10.667  0.0489  0.2868 -0.1494
  920MPD2    C113463   2.307   1.037  10.656 -0.4017  0.0856 -1.0025
  920MPD2    C213464   2.251   0.961  10.765  0.0849 -0.1470 -0.0676
  920MPD2    C313465   2.326   0.932  10.881 -0.2491  0.4815 -0.0841
  920MPD2    C413466   2.453   0.989  10.888  0.3549  0.1539 -0.7477
  920MPD2    C513467   2.509   1.070  10.785 -0.4902  0.3249  0.0014
  920MPD2     H13468   2.154   0.914  10.765  0.1830 -0.3594 -0.5843
  920MPD2    H113469   2.508   0.976  10.981  1.8240 -1.0634 -1.7904
  920MPD2    H213470   2.481   1.146  10.586  0.2713 -0.5072 -0.5867
  920MPD2    H313471   2.607   1.116  10.791 -1.4952  2.6141 -0.8985
  920MPD2     N13472   2.263   0.847  10.981 -0.0886 -0.2371  0.4360
  920MPD2    H513473   2.175   0.799  10.962 -1.0262  0.6842  2.5302
  920MPD2    N113474   2.219   1.056  10.542 -0.1016  0.6332 -0.2282
  920MPD2    H713475   2.125   1.017  10.546 -0.8137  2.2921 -1.1687
  921MPD2     C13476   3.052   4.657  16.535 -0.0863 -0.8359 -0.5317
  921MPD2    C113477   3.068   4.518  16.536  0.1154 -0.6232 -0.1425
  921MPD2    C213478   2.953   4.436  16.560 -0.2367 -0.2861  0.0443
  921MPD2    C313479   2.827   4.497  16.556 -0.1532 -0.0008  0.0268
  921MPD2    C413480   2.813   4.630  16.567 -0.9827 -0.8045 -0.1437
  921MPD2    C513481   2.924   4.705  16.555 -0.3145  0.2357 -0.2833
  921MPD2     H13482   2.959   4.327  16.565  0.3437 -0.2610 -0.1522
  921MPD2    H113483   2.720   4.683  16.584 -0.0452 -0.1453  2.9241
  921MPD2    H213484   3.136   0.001  16.508 -0.8771 -0.6444 -2.5247
  921MPD2    H313485   2.911   0.094  16.562  2.3050  0.6305 -1.4748
  921MPD2     N13486   2.715   4.414  16.562  0.2623 -0.2840 -0.1119
  921MPD2    H513487   2.742   4.317  16.566 -0.5515 -0.5502 -1.1836
  921MPD2    N113488   3.190   4.452  16.509  0.0748 -0.1371 -0.1643
  921MPD2    H713489   3.266   4.505  16.469 -0.9862  1.4310 -0.1021
  922MPD2     C13490   3.465   2.583  17.312  0.0886 -0.2233  0.0767
  922MPD2    C113491   3.444   2.500  17.419 -0.7748  0.5328  0.1009
  922MPD2    C213492   3.479   2.363  17.410  0.2797  0.7481  0.1323
  922MPD2    C313493   3.523   2.302  17.295 -0.2011  0.3649 -0.1829
  922MPD2    C413494   3.540   2.389  17.191 -0.0035  0.3339  0.1252
  922MPD2    C513495   3.513   2.525  17.202 -0.2913 -0.0718  0.9901
  922MPD2     H13496   3.463   2.293  17.492  0.3331  0.5559 -0.0221
  922MPD2    H113497   3.571   2.368  17.090 -1.4524  0.1715 -0.2774
  922MPD2    H213498   3.428   2.685  17.306 -0.7026 -0.4691  0.8504
  922MPD2    H313499   3.508   2.572  17.105  0.7062 -0.3937  0.7770
  922MPD2     N13500   3.546   2.162  17.283  0.2872  0.0854 -0.2661
  922MPD2    H513501   3.528   2.103  17.363  0.2648 -0.5661 -0.7566
  922MPD2    N113502   3.382   2.539  17.545 -0.4427  0.4452 -0.4954
  922MPD2    H713503   3.377   2.467  17.617  0.2998 -1.5314 -2.4028
  923MPD2     C13504   1.561   4.122   8.912 -0.3383 -0.3080  0.3778
  923MPD2    C113505   1.473   4.146   9.016  0.1114 -0.0586  0.4923
  923MPD2    C213506   1.516   4.153   9.143 -0.0781 -0.5367 -0.3749
  923MPD2    C313507   1.649   4.134   9.168 -0.5346 -0.0055  0.0777
  923MPD2    C413508   1.735   4.109   9.069 -0.1570  0.0851  0.0444
  923MPD2    C513509   1.693   4.103   8.943 -0.2847  0.7581  0.0012
  923MPD2     H13510   1.451   4.167   9.229 -0.9881  1.3688 -1.3836
  923MPD2    H113511   1.842   4.089   9.076 -0.5910 -2.0428  0.5512
  923MPD2    H213512   1.526   4.115   8.810  0.5968  2.5219 -0.1475
  923MPD2    H313513   1.757   4.077   8.860 -0.2991  0.0069  0.2240
  923MPD2     N13514   1.693   4.139   9.301  0.3369 -0.0545 -0.5731
  923MPD2    H513515   1.787   4.106   9.318  0.6048  0.4775 -1.0114
  923MPD2    N113516   1.339   4.147   8.988  0.8080 -0.1369 -0.3705
  923MPD2    H713517   1.323   4.128   8.890 -3.7061 -0.0949  0.3848
  924MPD2     C13518   4.679   2.231  15.612  0.4527  0.9579  0.3150
  924MPD2    C113519   4.629   2.272  15.740 -0.2417  0.4721 -0.4435
  924MPD2    C213520   4.684   2.384  15.794 -0.1143 -0.3298 -0.6382
  924MPD2    C313521   0.065   2.455  15.728  0.3294 -0.0522  0.3619
  924MPD2    C413522   0.106   2.419  15.606  0.3381  0.4040  0.1953
  924MPD2    C513523   0.051   2.312  15.548 -0.1441 -0.4692  0.0563
  924MPD2     H13524   4.638   2.404  15.890  0.5328  1.6741 -0.7596
  924MPD2    H113525   0.191   2.460  15.553 -0.4657  0.1096 -1.3213
  924MPD2    H213526   4.655   2.131  15.576 -0.5683  0.2886  2.8435
  924MPD2    H313527   0.098   2.272  15.459 -1.7138  0.9473 -1.4108
  924MPD2     N13528   0.145   2.562  15.785 -0.3724 -0.5632 -0.3988
  924MPD2    H513529   0.222   2.592  15.727  0.4469 -1.8983  0.0059
  924MPD2    N113530   4.534   2.202  15.816  0.3558  0.4128 -0.3461
  924MPD2    H713531   4.509   2.250  15.901  1.5234 -1.0855  0.8432
  925MPD2     C13532   3.819   4.036  14.236 -0.1853 -0.1516  0.4988
  925MPD2    C113533   3.742   4.148  14.250  0.3679 -0.4172  0.3607
  925MPD2    C213534   3.712   4.178  14.381 -0.0472 -0.1887  0.3164
  925MPD2    C313535   3.741   4.101  14.493  0.6841 -0.8960  0.7721
  925MPD2    C413536   3.828   3.993  14.477  0.5899 -0.0527 -0.0747
  925MPD2    C513537   3.861   3.965  14.347  0.2558  0.8211  0.1723
  925MPD2     H13538   3.665   4.275  14.394  0.2412 -0.2881  2.1573
  925MPD2    H113539   3.862   3.930  14.558 -2.9239 -1.7019  0.1373
  925MPD2    H213540   3.823   3.985  14.141 -1.7627 -0.3991  0.5656
  925MPD2    H313541   3.915   3.874  14.325 -2.0354 -0.2604 -0.8957
  925MPD2     N13542   3.724   4.152  14.628 -0.5149 -0.0141  0.1941
  925MPD2    H513543   3.767   4.113  14.711  1.2611 -0.4335 -0.9372
  925MPD2    N113544   3.700   4.235  14.148 -0.1531 -0.9508  0.0227
  925MPD2    H713545   3.642   4.317  14.166  0.5348  0.0802 -2.3451
  926MPD2     C13546   2.785   3.232  13.562  1.1040  0.4229  0.4096
  926MPD2    C113547   2.692   3.329  13.543 -0.2460 -1.3479  0.6148
  926MPD2    C213548   2.730   3.427  13.457  0.5702  0.2095  0.3614
  926MPD2    C313549   2.846   3.438  13.386  0.0501  0.5704  0.6821
  926MPD2    C413550   2.936   3.339  13.406  0.0663  0.4878  0.5596
  926MPD2    C513551   2.898   3.234  13.486  1.0572  0.3424 -0.8169
  926MPD2     H13552   2.659   3.508  13.454 -0.8821 -1.0830  0.0262
  926MPD2    H113553   3.032   3.345  13.356 -0.6512 -2.3267 -1.1683
  926MPD2    H213554   2.768   3.145  13.625 -1.4828 -0.7028 -1.8225
  926MPD2    H313555   2.964   3.150  13.505  1.0922  0.2893 -1.1770
  926MPD2     N13556   2.878   3.541  13.296 -0.5168  0.1701  0.4010
  926MPD2    H513557   2.964   3.533  13.242  0.2207 -1.9077  1.8969
  926MPD2    N113558   2.574   3.348  13.616 -0.0299  0.6673 -0.5134
  926MPD2    H713559   2.518   3.427  13.587  0.0633  2.0538  3.1689
  927MPD2     C13560   2.395   0.499   0.092 -0.4189  0.2913  0.2063
  927MPD2    C113561   2.371   0.628   0.042  0.4931 -1.0444  0.5328
  927MPD2    C213562   2.415   0.668  17.595  0.1582  0.4712  0.5632
  927MPD2    C313563   2.486   0.584  17.511  0.9986  0.2389 -0.2331
  927MPD2    C413564   2.512   0.459  17.558 -0.2136  0.1900 -0.3568
  927MPD2    C513565   2.471   0.419   0.008  0.6756 -0.5028 -0.2017
  927MPD2     H13566   2.388   0.763  17.551 -0.5448  0.6643  1.3946
  927MPD2    H113567   2.567   0.387  17.499  0.0466 -1.6397  2.0788
  927MPD2    H213568   2.374   0.462   0.192 -0.9642 -0.2825 -0.1116
  927MPD2    H313569   2.503   0.322   0.041  1.9729  0.6641  1.9281
  927MPD2     N13570   2.513   0.630  17.381 -0.5553  0.6871  0.0038
  927MPD2    H513571   2.479   0.721  17.353  0.6039  1.1623  0.1516
  927MPD2    N113572   2.302   0.720   0.124 -0.0867  0.4205 -0.2323
  927MPD2    H713573   2.286   0.698   0.222  3.7927 -0.8028  0.1451
  928MPD2     C13574   1.008   3.382   0.936  0.0721  0.0899  0.7405
  928MPD2    C113575   0.931   3.493   0.979  0.5617  0.3817 -0.2901
  928MPD2    C213576   0.895   3.580   0.881  0.1503  0.3875 -0.1320
  928MPD2    C313577   0.925   3.569   0.748 -0.7864 -0.5598  0.7599
  928MPD2    C413578   1.010   3.469   0.715  0.1474  0.0092  0.5742
  928MPD2    C513579   1.051   3.376   0.811  0.3438 -0.1028  0.0405
  928MPD2     H13580   0.837   3.667   0.913  0.0079  1.0456 -2.1612
  928MPD2    H113581   1.041   3.443   0.614 -0.5241 -1.0825  0.6502
  928MPD2    H213582   1.053   3.320   1.012  0.5863  0.4587  0.7406
  928MPD2    H313583   1.120   3.301   0.773 -1.3367 -1.3856 -0.4526
  928MPD2     N13584   0.880   3.657   0.645 -0.1338 -0.2775 -0.3188
  928MPD2    H513585   0.905   3.636   0.549  0.1518  0.2309 -0.3555
  928MPD2    N113586   0.897   3.507   1.115  0.6361  0.1286 -0.1101
  928MPD2    H713587   0.947   3.445   1.177 -1.4457 -1.5500 -0.1361
  929MPD2     C13588   1.220   3.947  10.006  0.0455 -0.5518  0.1457
  929MPD2    C113589   1.161   3.867  10.093  0.2222  0.2217 -0.3445
  929MPD2    C213590   1.042   3.797  10.070  0.5375 -0.3652  0.4422
  929MPD2    C313591   0.977   3.816   9.949 -0.3137 -0.5623  0.1797
  929MPD2    C413592   1.034   3.898   9.858  0.9728 -0.1942 -0.5401
  929MPD2    C513593   1.149   3.969   9.892 -0.0233 -0.8809 -0.1650
  929MPD2     H13594   0.982   3.759  10.152  2.1264 -1.4070  1.1090
  929MPD2    H113595   1.005   3.915   9.755 -0.1138 -0.8766 -0.3436
  929MPD2    H213596   1.303   4.009  10.037 -1.5488  2.5943 -1.8489
  929MPD2    H313597   1.189   4.035   9.816  0.1909  0.4521  1.1257
  929MPD2     N13598   0.855   3.749   9.910 -0.5119 -0.0722 -0.2755
  929MPD2    H513599   0.817   3.765   9.817  1.2754 -0.0994 -1.0149
  929MPD2    N113600   1.231   3.852  10.209 -0.3127  0.5831  0.4390
  929MPD2    H713601   1.310   3.914  10.224 -0.5783  0.5061  2.1202
  930MPD2     C13602   2.546   0.887  14.214  0.9852  0.2883 -0.1618
  930MPD2    C113603   2.494   1.009  14.173  0.5137 -0.3141  0.9735
  930MPD2    C213604   2.457   1.013  14.037 -0.9336  0.4027 -0.0365
  930MPD2    C313605   2.459   0.901  13.961  0.3614  0.2052 -0.6221
  930MPD2    C413606   2.524   0.784  14.005  0.6141  0.4651  0.0487
  930MPD2    C513607   2.574   0.780  14.130  0.6035  0.0767 -0.1257
  930MPD2     H13608   2.421   1.104  13.991 -0.4585  0.2900 -0.6327
  930MPD2    H113609   2.513   0.693  13.948 -0.0878  0.3472  0.3724
  930MPD2    H213610   2.579   0.873  14.316 -2.1008  0.2404  0.8381
  930MPD2    H313611   2.630   0.698  14.174 -2.1132 -1.6598  0.1256
  930MPD2     N13612   2.407   0.897  13.829  1.1453 -0.2996  0.0284
  930MPD2    H513613   2.446   0.830  13.763 -0.0954 -0.2213 -0.7969
  930MPD2    N113614   2.485   1.119  14.260 -0.2523  0.0717 -0.0706
  930MPD2    H713615   2.541   1.115  14.344 -0.1451  1.8863 -0.0590
  931MPD2     C13616   2.428   1.312   0.689 -0.2338  0.6000  0.0062
  931MPD2    C113617   2.405   1.177   0.663 -0.7259  0.2004  0.4191
  931MPD2    C213618   2.454   1.087   0.752  0.7245 -0.1481  0.4751
  931MPD2    C313619   2.515   1.124   0.870  1.2387  0.3294 -0.3016
  931MPD2    C413620   2.551   1.254   0.885 -0.3353  0.1342  0.3150
  931MPD2    C513621   2.510   1.348   0.794  0.1012  0.8836 -0.1423
  931MPD2     H13622   2.420   0.985   0.746 -1.1997  0.3786  2.4541
  931MPD2    H113623   2.604   1.275   0.977  1.2551  2.3624 -1.1049
  931MPD2    H213624   2.398   1.387   0.616  0.6814  3.4246  2.5361
  931MPD2    H313625   2.543   1.449   0.812 -0.3867  0.8227  1.0808
  931MPD2     N13626   2.546   1.041   0.977  0.3868 -0.1649 -0.0353
  931MPD2    H513627   2.562   1.084   1.067 -1.3199 -0.0601  0.2157
  931MPD2    N113628   2.324   1.151   0.548  0.1983  0.2272  0.0155
  931MPD2    H713629   2.294   1.226   0.487 -1.5072  0.4356  1.1214
  932MPD2     C13630   0.224   4.296  11.020  0.3982  0.2026 -0.0036
  932MPD2    C113631   0.157   4.372  11.119  0.3027  0.9291 -0.3700
  932MPD2    C213632   0.147   4.320  11.248 -0.0193  0.0839  0.9082
  932MPD2    C313633   0.205   4.198  11.281 -0.5304 -0.2080 -0.4014
  932MPD2    C413634   0.271   4.124  11.181 -0.7300 -0.3716  0.0530
  932MPD2    C513635   0.282   4.177  11.055 -0.4196 -0.4306 -0.2140
  932MPD2     H13636   0.087   4.372  11.321 -0.1331 -1.9483  2.2596
  932MPD2    H113637   0.311   4.026  11.202  1.8969  1.0194  1.5671
  932MPD2    H213638   0.238   4.336  10.920 -0.9300  0.2690 -0.1663
  932MPD2    H313639   0.332   4.119  10.977 -0.3567 -0.3549 -0.2294
  932MPD2     N13640   0.205   4.144  11.415 -0.2430  0.7926  0.4446
  932MPD2    H513641   0.262   4.063  11.434 -0.7196  0.5150  0.6748
  932MPD2    N113642   0.095   4.494  11.086 -0.2961  0.1124 -0.2333
  932MPD2    H713643   0.053   4.549  11.160  0.0899  1.0138 -0.6844
  933MPD2     C13644   0.661   3.964   1.885 -0.1612 -0.1257 -0.4703
  933MPD2    C113645   0.605   3.937   1.766 -0.4974  0.0308 -0.3255
  933MPD2    C213646   0.493   4.014   1.724 -0.5380 -0.3007 -0.0078
  933MPD2    C313647   0.443   4.119   1.804  0.2958  0.7278 -0.2096
  933MPD2    C413648   0.506   4.145   1.928 -0.1910 -0.0324  0.2026
  933MPD2    C513649   0.622   4.073   1.954 -0.5257  1.5093  0.4006
  933MPD2     H13650   0.441   3.978   1.636 -1.3862 -0.3960  0.5342
  933MPD2    H113651   0.474   4.218   2.001  0.3894  1.0002 -0.5705
  933MPD2    H213652   0.747   3.908   1.921  0.3837 -1.0047 -3.1212
  933MPD2    H313653   0.676   4.095   2.046  0.3559 -1.5010  0.6063
  933MPD2     N13654   0.332   4.196   1.759  0.5530  0.0712  0.2645
  933MPD2    H513655   0.310   4.179   1.662  3.3727  0.5154 -0.4266
  933MPD2    N113656   0.663   3.835   1.689  0.0033 -0.3618  0.4622
  933MPD2    H713657   0.745   3.790   1.729 -0.6805 -0.5822  1.6211
  934MPD2     C13658   1.229   1.668   2.065  0.3555  0.0687 -0.1225
  934MPD2    C113659   1.292   1.696   1.949  0.3931 -0.1501 -0.3002
  934MPD2    C213660   1.238   1.656   1.826 -0.0148  0.5933 -0.5796
  934MPD2    C313661   1.123   1.578   1.830  0.0854 -0.0822 -0.5238
  934MPD2    C413662   1.066   1.553   1.952 -0.3428 -0.0462 -1.2900
  934MPD2    C513663   1.121   1.591   2.073 -0.5978  0.3489  0.9463
  934MPD2     H13664   1.292   1.677   1.735  0.4491 -0.0984 -0.4655
  934MPD2    H113665   0.978   1.490   1.961  0.9045 -1.6901 -0.5992
  934MPD2    H213666   1.269   1.695   2.162  2.0744 -0.6656 -0.6295
  934MPD2    H313667   1.067   1.577   2.166 -0.7073  0.6240  0.9247
  934MPD2     N13668   1.054   1.520   1.723 -0.1976 -0.4298  0.0052
  934MPD2    H513669   0.962   1.486   1.748 -0.9321  3.3908  2.4983
  934MPD2    N113670   1.402   1.774   1.938  0.4770 -0.1241  0.4424
  934MPD2    H713671   1.435   1.791   1.844 -2.7283  0.2221 -0.6239
  935MPD2     C13672   1.221   1.623   0.790  0.0531 -0.3833 -0.3159
  935MPD2    C113673   1.106   1.542   0.780 -0.3353 -0.1396  0.4795
  935MPD2    C213674   1.041   1.511   0.896 -0.8572  1.1030  0.1054
  935MPD2    C313675   1.076   1.564   1.015  0.3249 -0.4829 -0.2218
  935MPD2    C413676   1.183   1.651   1.030  0.2323  0.2044 -0.3157
  935MPD2    C513677   1.248   1.679   0.910 -0.0044 -0.5020 -0.1655
  935MPD2     H13678   0.962   1.436   0.888 -0.1393  0.2686  0.8739
  935MPD2    H113679   1.223   1.698   1.119 -1.1903 -0.7465  0.8313
  935MPD2    H213680   1.283   1.641   0.703 -0.7867  0.8454 -0.6574
  935MPD2    H313681   1.326   1.755   0.916 -0.4862  0.0891 -1.4587
  935MPD2     N13682   1.032   1.508   1.141 -0.3506 -0.5333 -0.8978
  935MPD2    H513683   1.061   1.555   1.226  1.2497 -1.7582 -0.7712
  935MPD2    N113684   1.064   1.477   0.661 -0.1835 -0.1104 -0.4774
  935MPD2    H713685   0.980   1.421   0.666  1.3856 -2.4802 -0.2966
  936MPD2     C13686   4.553   3.337  12.415  0.3066 -0.3718 -0.1591
  936MPD2    C113687   4.591   3.227  12.479 -0.2101 -0.1731 -0.5517
  936MPD2    C213688   0.005   3.191  12.482 -0.3675  0.1640 -0.2598
  936MPD2    C313689   0.104   3.269  12.417 -0.0950  0.2096 -0.5975
  936MPD2    C413690   0.063   3.380  12.349  0.3581 -0.8468  0.1528
  936MPD2    C513691   4.647   3.414  12.346  0.3207 -0.2677 -0.0665
  936MPD2     H13692   0.028   3.102  12.539  0.0660  1.3110  1.3365
  936MPD2    H113693   0.133   3.439  12.291  0.6301 -0.4016  0.9262
  936MPD2    H213694   4.449   3.367  12.416 -0.2564 -2.3188 -0.9872
  936MPD2    H313695   4.619   3.488  12.272  3.4354  1.3746  0.3968
  936MPD2     N13696   0.243   3.235  12.418  0.2599 -0.2441  0.1062
  936MPD2    H513697   0.299   3.289  12.353  1.4198  2.6460  3.4769
  936MPD2    N113698   4.507   3.152  12.562  0.7927  0.5288  0.1473
  936MPD2    H713699   4.547   3.066  12.598  2.4769  1.3578  0.2741
  937MPD2     C13700   2.828   4.387  11.829  0.9006 -0.2366  0.5254
  937MPD2    C113701   2.813   4.524  11.819  0.1157  0.2335  0.3750
  937MPD2    C213702   2.864   4.588  11.704 -0.2607  0.1247 -0.4688
  937MPD2    C313703   2.935   4.518  11.601 -0.4887  0.4618  0.3313
  937MPD2    C413704   2.963   4.393  11.632  0.3565 -0.6782  0.4272
  937MPD2    C513705   2.912   4.326  11.738  0.4820 -0.3186 -1.1056
  937MPD2     H13706   2.844   4.692  11.681  2.1911 -0.0533 -3.3625
  937MPD2    H113707   3.032   4.333  11.573  1.3618  1.8049 -0.9302
  937MPD2    H213708   2.785   4.318  11.901 -0.1914  0.9374  0.9897
  937MPD2    H313709   2.940   4.222  11.746  4.3806  0.8879  1.0647
  937MPD2     N13710   2.985   4.591  11.493 -0.4677  0.0338 -0.1790
  937MPD2    H513711   2.981   4.691  11.506 -1.0041  0.4653 -3.6312
  937MPD2    N113712   2.720   4.599  11.891 -0.4138  0.5194 -0.5824
  937MPD2    H713713   2.707   4.689  11.846 -0.9640  2.0582  2.6594
  938MPD2     C13714   4.609   1.514   0.686  0.4103 -1.1301 -0.6856
  938MPD2    C113715   4.713   1.524   0.774 -0.2194 -0.5478 -0.4671
  938MPD2    C213716   0.057   1.409   0.817 -0.2314 -0.2278  0.5926
  938MPD2    C313717   0.020   1.283   0.766  0.5840  0.5952 -0.6247
  938MPD2    C413718   4.631   1.273   0.679 -0.0712  0.1724 -0.4514
  938MPD2    C513719   4.578   1.389   0.636 -0.5843 -0.2521  0.8934
  938MPD2     H13720   0.139   1.421   0.887  0.9801  0.5258 -0.9584
  938MPD2    H113721   4.596   1.183   0.629 -1.7577  1.0671 -0.8886
  938MPD2    H213722   4.554   1.599   0.648 -0.8518 -1.4673  0.3780
  938MPD2    H313723   4.493   1.374   0.570 -1.1690 -0.6755  1.7410
  938MPD2     N13724   0.070   1.160   0.817  0.1691  0.1933 -0.1365
  938MPD2    H513725   0.039   1.076   0.770 -0.6381  1.1390 -1.2977
  938MPD2    N113726   0.047   1.646   0.812  0.2677 -0.0888  0.0873
  938MPD2    H713727   0.111   1.642   0.891 -1.5166 -1.1177  1.4653
  939MPD2     C13728   1.795   2.632   1.457 -0.1348  0.1156 -0.2113
  939MPD2    C113729   1.676   2.609   1.387  0.6005  0.2483  0.4262
  939MPD2    C213730   1.676   2.585   1.252  0.1968  0.8341  0.0745
  939MPD2    C313731   1.795   2.585   1.185 -0.5125  0.1598 -0.5265
  939MPD2    C413732   1.912   2.606   1.254 -0.5655  0.0079  0.0649
  939MPD2    C513733   1.916   2.622   1.390  0.5771  0.4527  0.9616
  939MPD2     H13734   1.586   2.568   1.194  0.2124 -0.4543  0.4412
  939MPD2    H113735   2.008   2.587   1.207  0.1040 -2.1760  2.3309
  939MPD2    H213736   1.789   2.654   1.563 -1.2292 -2.3239  0.2378
  939MPD2    H313737   2.013   2.629   1.439  1.3719  0.2022 -0.5765
  939MPD2     N13738   1.799   2.548   1.050  0.1114  0.2234  0.6042
  939MPD2    H513739   1.710   2.522   1.009 -1.0285 -0.2500  3.3780
  939MPD2    N113740   1.560   2.636   1.466  0.6420  0.8020  0.3335
  939MPD2    H713741   1.585   2.643   1.564  1.2926 -2.0646  0.3626
  940MPD2     C13742   0.326   2.555  13.856  0.2286  0.5442 -0.4955
  940MPD2    C113743   0.385   2.680  13.849  0.2490  0.6343  0.1146
  940MPD2    C213744   0.416   2.727  13.726 -0.6506  0.1373  0.0053
  940MPD2    C313745   0.396   2.653  13.611 -0.0946  0.1277  0.3711
  940MPD2    C413746   0.336   2.532  13.623 -0.8741  0.1994 -0.0327
  940MPD2    C513747   0.297   2.484  13.744 -0.2469  0.3195 -0.8205
  940MPD2     H13748   0.454   2.828  13.721  1.7937 -0.7817 -0.3115
  940MPD2    H113749   0.310   2.465  13.542  1.3751 -1.8139  0.9213
  940MPD2    H213750   0.315   2.498  13.948  0.4488 -0.2406 -0.9564
  940MPD2    H313751   0.251   2.386  13.741 -0.4863  0.4070  0.0443
  940MPD2     N13752   0.422   2.697  13.477 -0.3753 -0.4533 -0.6783
  940MPD2    H513753   0.373   2.647  13.403  1.1079 -2.3103 -0.4025
  940MPD2    N113754   0.416   2.763  13.960 -0.0764  0.1014  0.0868
  940MPD2    H713755   0.444   2.858  13.941  1.6074 -0.5913 -0.8565
  941MPD2     C13756   1.126   2.209   9.402 -0.5681 -1.1422 -0.1011
  941MPD2    C113757   1.133   2.312   9.496 -0.2266  0.0714  0.4108
  941MPD2    C213758   1.069   2.279   9.614  0.3720  0.3893 -0.0319
  941MPD2    C313759   0.977   2.168   9.632  0.6468 -0.1246 -0.2442
  941MPD2    C413760   0.970   2.070   9.533 -0.5703  0.5776  0.4661
  941MPD2    C513761   1.051   2.094   9.421 -0.7344 -0.4215  0.0095
  941MPD2     H13762   1.072   2.352   9.694 -1.1516 -0.5338  0.8742
  941MPD2    H113763   0.903   1.985   9.539  0.3431 -0.2407 -0.8775
  941MPD2    H213764   1.184   2.217   9.311 -0.0872  1.2606  0.4218
  941MPD2    H313765   1.063   2.015   9.348  1.5797 -0.4111  0.3940
  941MPD2     N13766   0.896   2.143   9.752  0.0672  0.1326  0.2457
  941MPD2    H513767   0.824   2.071   9.757  1.4504 -1.1086  2.2301
  941MPD2    N113768   1.216   2.423   9.481  0.4828  0.5569  0.4734
  941MPD2    H713769   1.201   2.489   9.557 -2.2225 -0.2006  0.5836
  942MPD2     C13770   3.795   3.883   9.619 -0.2010 -0.2916  0.5868
  942MPD2    C113771   3.792   3.752   9.583 -0.1712  0.5254  0.7347
  942MPD2    C213772   3.905   3.696   9.524  0.3444  0.0595 -0.7920
  942MPD2    C313773   4.012   3.766   9.479 -0.4062  0.4647  0.4305
  942MPD2    C413774   4.018   3.898   9.516 -0.2072 -0.4201 -0.0114
  942MPD2    C513775   3.912   3.951   9.586  0.3564 -0.6842  0.3137
  942MPD2     H13776   3.891   3.590   9.507  0.3944 -0.1742  0.6762
  942MPD2    H113777   4.108   3.955   9.502 -0.4007 -0.3020 -0.7686
  942MPD2    H213778   3.712   3.926   9.674 -0.9454 -0.7052 -0.2045
  942MPD2    H313779   3.916   4.054   9.620 -0.1227 -0.2339 -1.0174
  942MPD2     N13780   4.129   3.715   9.411  0.0670  0.1493  0.2042
  942MPD2    H513781   4.207   3.779   9.401 -0.9910  1.3744 -0.2006
  942MPD2    N113782   3.678   3.675   9.612  0.0346  0.0496  0.0019
  942MPD2    H713783   3.678   3.580   9.577 -2.1156  0.4036 -0.9583
  943MPD2     C13784   3.981   2.187   9.965  0.1400 -0.3436 -0.2831
  943MPD2    C113785   3.900   2.092  10.017 -0.0455  0.2014  0.0091
  943MPD2    C213786   3.926   2.049  10.147  0.2231  0.5843 -0.3443
  943MPD2    C313787   4.030   2.103  10.223 -0.7081 -0.6020 -0.8043
  943MPD2    C413788   4.119   2.191  10.160 -0.4627  0.8621  0.2488
  943MPD2    C513789   4.088   2.240  10.031  0.4804  0.0772  0.1132
  943MPD2     H13790   3.858   1.977  10.191  1.1913  1.9275  3.3097
  943MPD2    H113791   4.203   2.231  10.216  1.8624 -3.0240 -0.4228
  943MPD2    H213792   3.951   2.236   9.873  1.1432  0.7052 -0.0545
  943MPD2    H313793   4.145   2.321   9.987 -0.8139  0.4419 -0.8840
  943MPD2     N13794   4.057   2.066  10.358  0.1879  0.0803 -0.5286
  943MPD2    H513795   4.137   2.109  10.403  0.9417 -0.4735 -1.3336
  943MPD2    N113796   3.795   2.049   9.938  0.4169 -0.1635 -0.3700
  943MPD2    H713797   3.802   2.080   9.841  0.9606 -1.8921 -0.8884
  944MPD2     C13798   2.844   0.962  11.023  0.2458  0.2883  0.7005
  944MPD2    C113799   2.934   1.057  10.984  0.2018  0.4063 -0.3517
  944MPD2    C213800   2.931   1.189  11.031 -0.6530 -0.0587  0.6683
  944MPD2    C313801   2.832   1.222  11.125  0.4027 -0.6464 -0.0555
  944MPD2    C413802   2.735   1.129  11.153 -0.0631  0.5564  1.0185
  944MPD2    C513803   2.742   1.005  11.103 -0.6487  0.6276  0.1580
  944MPD2     H13804   2.994   1.263  10.982  1.2832 -0.3738  2.7390
  944MPD2    H113805   2.648   1.167  11.205  0.8003  3.4930  0.3454
  944MPD2    H213806   2.843   0.855  11.003  1.1805  0.2822  0.7045
  944MPD2    H313807   2.663   0.934  11.126  1.1440 -0.8743  1.7140
  944MPD2     N13808   2.835   1.359  11.169 -0.2007  0.3789  0.2948
  944MPD2    H513809   2.915   1.413  11.139 -0.7313  0.5533 -0.7754
  944MPD2    N113810   3.035   1.015  10.894 -0.4463  0.0046 -0.3881
  944MPD2    H713811   3.023   0.927  10.847 -0.1586 -0.5761  0.6226
    1TCq1    O113812   0.915   2.136  14.059  0.3151 -0.0868 -0.5094
    1TCq1    C113813   0.938   2.124  14.193 -0.1720  0.0562  0.2811
    1TCq1    O213814   0.852   2.129  14.283  0.3370  0.1877 -1.0031
    1TCq1    C213815   1.074   2.143  14.214 -0.4402 -0.2201  1.0000
    1TCq1    C313816   1.172   2.097  14.130  0.1214  0.4639 -0.0958
    1TCq1    C413817   1.301   2.107  14.180  0.0498 -0.0407  0.5662
    1TCq1    C513818   1.335   2.190  14.283  0.3671  0.4230  0.1771
    1TCq1    C613819   1.239   2.259  14.345  0.1162  0.6795 -0.5804
    1TCq1    C713820   1.107   2.226  14.316 -0.2182  1.3407 -0.2598
    1TCq1    C813821   1.269   2.321  14.471 -0.1544 -0.5876 -0.1834
    1TCq1    O413822   1.375   2.293  14.530 -0.9537 -0.4285  0.2742
    1TCq1    C913823   1.403   2.024  14.116  0.1683  0.0145 -0.9463
    1TCq1    O513824   1.376   1.971  14.008  0.8692 -0.6648  0.9480
    1TCq1    O613825   1.512   2.026  14.171  0.3305 -0.3649 -0.3837
    1TCq1    H113826   0.999   2.159  14.014  1.5326 -1.4615  1.0382
    1TCq1    H213827   1.156   2.016  14.059  0.6727 -0.7481  1.1657
    1TCq1    H313828   1.438   2.213  14.306  0.8551 -1.5386 -0.0465
    1TCq1    H413829   1.024   2.274  14.367  1.6762  2.2472  1.9936
    2MPD2     C13830   1.220   2.672  14.833 -0.2855 -0.2351  0.4818
    2MPD2    C113831   1.149   2.718  14.722 -0.0364  0.5824 -0.6099
    2MPD2    C213832   1.129   2.626  14.617  0.6532 -0.6201 -0.6475
    2MPD2    C313833   1.188   2.505  14.614  0.1340  0.1677  0.4845
    2MPD2    C413834   1.249   2.462  14.725 -0.2742 -0.3690  0.1675
    2MPD2    C513835   1.262   2.538  14.833  0.1232  0.4816  0.2755
    2MPD2     H13836   1.085   2.663  14.525  1.1191  0.0807 -0.5934
    2MPD2    H113837   1.295   2.366  14.740  1.2216  0.6905  2.2475
    2MPD2    H213838   1.240   2.733  14.920  0.0825 -2.8422  2.2127
    2MPD2    H313839   1.320   2.484  14.907 -0.4704  1.1927  1.2641
    2MPD2     N13840   1.188   2.430  14.495  0.5125 -0.1696 -0.5790
    2MPD2    H513841   1.127   2.457  14.419 -1.3558 -3.0607 -0.0940
    2MPD2    N113842   1.118   2.858  14.715 -0.2350 -0.2134 -0.4666
    2MPD2    H713843   1.171   2.908  14.785 -0.0158 -1.3183  0.1485
    3TMC2    C113844   1.064   3.067  14.608  0.4975 -0.3147 -0.1140
    3TMC2    C213845   1.173   3.124  14.676 -0.6055 -0.0143 -0.0896
    3TMC2    C313846   1.222   3.242  14.638 -0.7060 -0.3207  0.7916
    3TMC2    C413847   1.015   3.132  14.497 -0.5383  0.4857 -0.0166
    3TMC2    C513848   1.088   3.236  14.444  0.2556  0.1544 -0.2661
    3TMC2    C613849   1.193   3.291  14.515 -0.0232 -0.1329 -0.5105
    3TMC2     C13850   1.038   2.921  14.623 -0.1073  0.4646 -0.0286
    3TMC2     O13851   0.968   2.872  14.539 -0.2270 -0.1449 -0.6002
    3TMC2     H13852   1.215   3.075  14.762 -0.6667  0.1711  0.0456
    3TMC2    H113853   0.946   3.081  14.430  0.7318 -0.6604 -0.4559
    3TMC2    H213854   1.238   3.382  14.478  1.7064 -0.3019  1.1961
    3TMC2    C713855   1.052   3.289  14.315  0.1277 -0.7985  0.1742
    3TMC2    C813856   1.341   3.288  14.706 -0.1421 -0.6033 -0.5447
    3TMC2    O113857   0.935   3.258  14.289  0.0961 -0.5002  0.1136
    3TMC2    O213858   1.345   3.398  14.755 -0.4513  0.2804 -0.4364
    3TMC2    O513859   1.446   3.233  14.633  0.0792 -0.3108  0.0710
    3TMC2    H513860   1.428   3.148  14.587  0.9412 -0.9620  0.9383
    4MPD2     C13861   0.664   3.738  12.928 -0.1166  0.1729  0.1611
    4MPD2    C113862   0.554   3.644  12.939 -0.5115 -0.4781 -1.1378
    4MPD2    C213863   0.536   3.574  13.062 -0.7533  0.7063  0.4282
    4MPD2    C313864   0.640   3.596  13.157 -0.5532 -0.5776  0.4457
    4MPD2    C413865   0.751   3.689  13.143  0.5236  0.1663 -0.4071
    4MPD2    C513866   0.757   3.758  13.022  0.0655 -0.0650  0.4950
    4MPD2     H13867   0.449   3.514  13.084  0.5946 -0.6605  1.9479
    4MPD2    H113868   0.814   3.722  13.225  0.2617  0.2648 -0.2454
    4MPD2    H213869   0.661   3.786  12.831  0.7984  0.2702  0.1868
    4MPD2    H313870   0.826   3.841  13.015  0.4774 -0.7509 -3.6464
    4MPD2     N13871   0.615   3.538  13.283 -0.0808 -0.5037  0.1043
    4MPD2    H513872   0.518   3.516  13.305 -0.8930  2.0097 -0.9042
    4MPD2    N113873   0.460   3.649  12.834 -0.3938 -0.3098 -0.1507
    4MPD2    H713874   0.460   3.727  12.769 -1.7072 -1.5235 -1.6356
    5TCq2    C113875   0.709   3.528  13.384  0.0685 -0.0141 -0.1039
    5TCq2    O213876   0.829   3.545  13.382  0.6159 -0.0596  0.4449
    5TCq2    C213877   0.661   3.466  13.506  0.0051 -0.9747 -0.3152
    5TCq2    C313878   0.534   3.418  13.514  0.0053 -0.2876 -0.5796
    5TCq2    C413879   0.482   3.388  13.638 -0.5348  0.4945 -0.7848
    5TCq2    C513880   0.570   3.394  13.745 -0.2715  0.2949 -0.2643
    5TCq2    C613881   0.698   3.443  13.741 -0.0611 -0.7116  0.5098
    5TCq2    C713882   0.750   3.463  13.617  0.0104  0.7193 -0.3553
    5TCq2    C813883   0.784   3.424  13.855 -0.1676 -0.0479 -0.0378
    5TCq2    O413884   0.745   3.368  13.954  0.4549  0.1696 -0.3883
    5TCq2    C913885   0.345   3.332  13.645 -0.5011 -0.1342 -0.2782
    5TCq2    O513886   0.311   3.290  13.756 -0.3523 -0.3756 -0.5412
    5TCq2    O613887   0.269   3.348  13.548 -0.5315 -0.5563  0.5306
    5TCq2    H213888   0.465   3.417  13.430 -0.2930  3.2133 -0.3756
    5TCq2    H313889   0.525   3.364  13.839  0.2809 -2.3271 -0.8266
    5TCq2    H413890   0.850   3.501  13.603  1.1914 -2.8036 -1.2868
    6MPD1     C13891   4.081   0.321  12.841 -0.8173  0.4139  0.0274
    6MPD1    C113892   4.090   0.300  12.706  0.1522  0.1875  1.3412
    6MPD1    C213893   4.159   0.190  12.655 -0.3571  0.3865  0.1196
    6MPD1    C313894   4.220   0.099  12.744 -0.4113  0.0411  0.1735
    6MPD1    C413895   4.229   0.131  12.872  0.3008 -0.2556 -0.3360
    6MPD1    C513896   4.161   0.239  12.922 -0.0557  0.7098  0.7472
    6MPD1     H13897   4.160   0.165  12.549  0.4105 -1.4065  0.5417
    6MPD1    H113898   4.289   0.063  12.932 -0.2023 -0.9911 -0.6628
    6MPD1    H213899   4.037   0.415  12.873 -1.7074  0.0372 -0.1084
    6MPD1    H313900   4.173   0.269  13.026  0.1319 -0.2619  1.0037
    6MPD1     N13901   4.300   4.708  12.700  0.9840 -0.1135  0.0582
    6MPD1    H513902   4.340   4.648  12.772 -0.8225 -2.9867 -1.3299
    6MPD1    N113903   4.016   0.376  12.617  0.2826 -0.0005 -0.5911
    6MPD1    H613904   3.994   0.467  12.657  1.3420 -1.5203  3.4101
    6MPD1    H713905   4.068   0.390  12.530 -1.5726 -2.1932 -2.0280
    7MPD2     C13906   4.227   3.937  12.686  0.0821  0.0853 -0.3448
    7MPD2    C113907   4.366   3.974  12.703 -0.9303  0.6048 -1.2524
    7MPD2    C213908   4.459   3.869  12.699 -0.1168 -0.0227 -0.7374
    7MPD2    C313909   4.425   3.737  12.662 -0.2781 -0.2154 -0.2007
    7MPD2    C413910   4.291   3.709  12.634 -0.4753  0.0474 -0.2199
    7MPD2    C513911   4.197   3.808  12.638 -0.3829 -0.8548 -0.2456
    7MPD2     H13912   4.559   3.897  12.729 -1.6043  1.0498  3.3683
    7MPD2    H113913   4.263   3.606  12.615 -1.8334  0.1920  1.0358
    7MPD2    H213914   4.141   4.003  12.683 -0.2031 -0.3326 -1.6263
    7MPD2    H313915   4.095   3.782  12.613 -1.0731  1.3562  0.2712
    7MPD2     N13916   4.532   3.640  12.654 -0.0257  0.4393  0.1607
    7MPD2    H513917   4.514   3.546  12.620 -0.4310 -0.2647  2.2696
    7MPD2    N113918   4.418   4.103  12.710  0.6665 -0.4191 -0.7898
    7MPD2    H713919   4.515   4.109  12.682  1.2435 -2.0793  0.8388
    8TMC3    C113920   0.038   3.572  12.667 -0.3682 -0.3485 -1.0194
    8TMC3    C213921   0.133   3.527  12.752  0.1044 -0.0767 -0.1270
    8TMC3    C313922   0.261   3.572  12.724  0.0660  0.1202 -0.3523
    8TMC3    C413923   0.067   3.640  12.555 -0.2413 -0.2676 -0.1533
    8TMC3    C513924   0.200   3.687  12.533 -0.4199 -0.1355  0.6780
    8TMC3    C613925   0.304   3.655  12.618  0.1192  0.3238  0.2422
    8TMC3     C13926   4.645   3.642  12.727 -0.8183  1.0570  0.0311
    8TMC3     O13927   4.674   3.709  12.826  0.6255 -0.2593  0.5524
    8TMC3     H13928   0.109   3.480  12.846  1.4005 -0.3795  0.0593
    8TMC3    H113929   4.709   3.697  12.503  0.1795 -1.0902 -1.6896
    8TMC3    H213930   0.406   3.674  12.587  0.0845 -2.1150 -1.3516
    8TMC3    C713931   0.197   3.830  12.509 -0.7472  0.3378  0.5868
    8TMC3    C813932   0.356   3.555  12.827  0.1277 -1.3464  0.3068
    8TMC3    O113933   0.132   3.886  12.592 -0.1351  0.0983  0.1030
    8TMC3    O213934   0.334   3.459  12.899 -0.6121 -0.2891  0.3414
    9TMC3    C113935   4.386   4.547  12.558  0.5507  0.2795  0.0076
    9TMC3    C213936   4.478   4.531  12.460  0.7766 -0.5515 -0.0906
    9TMC3    C313937   4.530   4.403  12.452 -0.4174 -0.4424  0.3223
    9TMC3    C413938   4.343   4.449  12.641 -0.0841 -0.1743 -0.8339
    9TMC3    C513939   4.388   4.321  12.627  0.3552 -0.2104 -0.2990
    9TMC3    C613940   4.478   4.299  12.526  0.1955  0.0404  0.1624
    9TMC3     C13941   4.322   4.674  12.567 -0.2463  1.0427  0.1388
    9TMC3     O13942   4.294   0.009  12.461 -0.3769 -0.3696 -0.4338
    9TMC3     H13943   4.505   4.611  12.392  2.4370 -2.3178 -1.5362
    9TMC3    H113944   4.262   4.461  12.712 -0.2343 -0.5337 -0.9409
    9TMC3    H213945   4.514   4.199  12.504  0.1748  0.2105 -0.6451
    9TMC3    C713946   4.337   4.215  12.701 -0.4565 -0.5651 -0.7940
    9TMC3    C813947   4.645   4.387  12.360  1.0986  0.2896 -0.0290
    9TMC3    O113948   4.228   4.238  12.745 -0.5162 -0.5424 -0.5433
    9TMC3    O213949   4.681   4.470  12.274  0.0798  0.4838  0.6160
   10MPD2     C13950   0.287   4.052  12.218 -0.0175 -0.2246 -0.3087
   10MPD2    C113951   0.228   4.004  12.340  0.2260  0.0358 -0.3100
   10MPD2    C213952   0.138   4.093  12.391  0.2581  0.9626 -0.2782
   10MPD2    C313953   0.102   4.213  12.333 -0.0807  0.4401 -0.3979
   10MPD2    C413954   0.163   4.263  12.220  0.0374 -0.0233 -0.0450
   10MPD2    C513955   0.255   4.175  12.165 -0.1516 -0.1935 -0.9467
   10MPD2     H13956   0.064   4.057  12.462  0.3975 -0.6646 -0.9651
   10MPD2    H113957   0.134   4.349  12.161 -1.9207 -1.8033 -1.6817
   10MPD2    H213958   0.351   3.983  12.163 -1.6348 -1.8162 -0.2014
   10MPD2    H313959   0.306   4.207  12.075  0.9855  0.8723  0.0774
   10MPD2     N13960   4.714   4.276  12.402 -0.8635 -0.1277  0.3468
   10MPD2    H513961   4.683   4.235  12.490  0.5533 -0.5417  0.6594
   10MPD2    N113962   0.251   3.868  12.391  0.1843 -0.3375 -0.3194
   10MPD2    H713963   0.308   3.808  12.332 -0.8418 -0.8659 -0.7769
   11MPD2     C13964   1.248   3.485  14.071 -0.3224  0.1632 -0.8305
   11MPD2    C113965   1.136   3.419  14.119  0.4091 -0.3158  0.4223
   11MPD2    C213966   1.025   3.409  14.036  0.4754 -0.0657 -0.3208
   11MPD2    C313967   1.018   3.479  13.913  0.1292 -0.3407 -0.5481
   11MPD2    C413968   1.132   3.545  13.869  0.1920 -0.0585 -0.6756
   11MPD2    C513969   1.244   3.544  13.949 -0.4518 -0.0021 -0.0342
   11MPD2     H13970   0.940   3.356  14.078  0.0366  1.6655  0.9957
   11MPD2    H113971   1.138   3.601  13.776 -0.0946  0.0449 -0.6320
   11MPD2    H213972   1.337   3.490  14.132 -1.4840  0.8647  0.8088
   11MPD2    H313973   1.337   3.585  13.911 -0.9551  1.9011  0.7514
   11MPD2     N13974   0.906   3.482  13.829 -0.2860 -0.2860 -0.0196
   11MPD2    H513975   0.923   3.536  13.745  1.3125 -1.5189 -0.4867
   11MPD2    N113976   1.149   3.356  14.244  0.4446  0.0748 -0.2130
   11MPD2    H713977   1.235   3.366  14.298  2.1110 -1.0047 -2.6618
    1MPD1     C13978   4.033   0.172  17.310  0.4496 -0.1783 -0.5254
    1MPD1    C113979   3.994   0.224  17.191  0.4417 -0.2271  0.5636
    1MPD1    C213980   3.982   0.140  17.082 -0.5987  0.1844  0.4525
    1MPD1    C313981   3.982   4.718  17.095 -0.9422 -1.1378 -0.3594
    1MPD1    C413982   4.022   4.665  17.213 -0.3345  0.3527  0.9354
    1MPD1    C513983   4.042   0.034  17.319 -0.3172 -0.2971 -0.2703
    1MPD1     H13984   3.959   0.182  16.985 -0.5591  0.0124  0.3688
    1MPD1    H113985   4.026   4.557  17.218 -0.4187  0.2905 -0.3457
    1MPD1    H213986   4.042   0.233  17.399 -1.2672 -1.2069  0.3650
    1MPD1    H313987   4.081   4.703  17.407 -1.7528 -0.4592  0.2695
    1MPD1     N13988   3.974   4.624  16.988  0.3482 -0.6055 -0.1223
    1MPD1    H513989   4.004   4.528  17.004  0.1981 -0.9369 -1.7927
    1MPD1    N113990   4.004   0.364  17.170  0.6488  0.4447 -0.3828
    1MPD1    H613991   3.975   0.412  17.255 -2.1229 -1.5995 -0.1633
    1MPD1    H713992   3.940   0.394  17.097  0.2930  1.9775  0.5625
    2MPD1     C13993   4.635   4.155  16.904  0.2689  0.1526 -0.5021
    2MPD1    C113994   4.569   4.237  16.989  0.2274  0.3244 -0.4899
    2MPD1    C213995   4.462   4.313  16.936 -0.3819  0.3949  0.3358
    2MPD1    C313996   4.412   4.294  16.808 -0.4734  0.3290 -0.3489
    2MPD1    C413997   4.479   4.204  16.728  0.1642 -0.0008 -0.8951
    2MPD1    C513998   4.586   4.130  16.781  0.6288  0.0732  0.4360
    2MPD1     H13999   4.421   4.386  17.003  1.7426  0.1870  1.8823
    2MPD1    H114000   4.452   4.176  16.627  1.5867 -1.0142 -0.9965
    2MPD1    H214001   0.003   4.105  16.943  1.4052  2.6088  0.1255
    2MPD1    H314002   4.632   4.055  16.718  1.3446  0.2806  0.6987
    2MPD1     N14003   4.287   4.358  16.770 -0.1468 -0.1134  0.4282
    2MPD1    H514004   4.245   4.397  16.854  0.6127  3.9556 -1.0953
    2MPD1    N114005   4.622   4.266  17.115 -0.5947 -0.8078 -0.0200
    2MPD1    H614006   4.659   4.185  17.165 -2.7320 -0.6557  1.8095
    2MPD1    H714007   4.559   4.316  17.178 -1.4444 -0.0346 -1.4853
    3TMC3    C114008   4.082   4.392  16.669 -0.2391 -0.0853 -0.0814
    3TMC3    C214009   3.990   4.359  16.572  0.0223  0.2188 -0.1016
    3TMC3    C314010   3.886   4.436  16.563  0.6944  0.3655 -0.7401
    3TMC3    C414011   4.048   4.475  16.765 -0.2267 -0.5755  0.2093
    3TMC3    C514012   3.927   4.535  16.768  0.4950  0.2131 -0.4199
    3TMC3    C614013   3.836   4.508  16.669 -0.4498  0.5738 -0.3624
    3TMC3     C14014   4.220   4.352  16.653 -0.0462 -0.0438  0.0807
    3TMC3     O14015   4.252   4.308  16.544 -0.3167  0.8112  0.4725
    3TMC3     H14016   4.024   4.285  16.501  0.9015 -0.3453  0.9066
    3TMC3    H114017   4.126   4.508  16.833  1.3522 -1.0727 -1.3727
    3TMC3    H214018   3.742   4.563  16.670 -0.7013  0.1277  0.3282
    3TMC3    C714019   3.916   4.651  16.858  0.1037 -0.8083 -0.4190
    3TMC3    C814020   3.800   4.434  16.448  0.5509 -0.3618  0.1105
    3TMC3    O114021   3.879   0.039  16.817  0.5652 -0.2413  0.3017
    3TMC3    O214022   3.680   4.459  16.470  0.1973  0.8292 -0.5276
    4MPD1     C14023   3.693   4.461  15.938 -0.8272 -0.6146 -0.1279
    4MPD1    C114024   3.826   4.459  15.946  0.2003  1.0184 -0.5625
    4MPD1    C214025   3.884   4.441  16.070 -0.2353 -1.0447 -0.7427
    4MPD1    C314026   3.811   4.425  16.195  0.4277 -0.4614 -0.4518
    4MPD1    C414027   3.677   4.415  16.171  1.0285 -0.5833  0.0524
    4MPD1    C514028   3.620   4.429  16.046  0.0273 -0.1516 -0.2869
    4MPD1     H14029   3.991   4.457  16.072 -0.3939 -0.0415 -0.1002
    4MPD1    H114030   3.610   4.403  16.255 -1.6605 -0.4998 -2.0634
    4MPD1    H214031   3.645   4.488  15.845  1.1859 -1.6792 -1.4851
    4MPD1    H314032   3.513   4.413  16.039 -0.3157  2.5075 -1.4408
    4MPD1     N14033   3.866   4.417  16.327  0.1555  0.9844 -0.4655
    4MPD1    H514034   3.967   4.429  16.328  0.0870  1.7537 -3.6200
    4MPD1    N114035   3.903   4.492  15.839  1.2820  0.4929  0.1908
    4MPD1    H614036   3.852   4.462  15.756 -0.4660 -0.2206  1.5223
    4MPD1    H714037   3.991   4.442  15.852  0.8128 -0.4232 -0.1472
    1TCq1    O114038   0.375   4.623  12.271 -0.4501  0.3245  0.0094
    1TCq1    C114039   0.337   4.553  12.379 -0.4749 -0.5042 -0.8114
    1TCq1    O214040   0.411   4.488  12.454  0.0520 -0.0738 -0.1514
    1TCq1    C214041   0.214   4.608  12.435 -0.2844  0.5308  0.7282
    1TCq1    C314042   0.161   0.005  12.378 -0.3354  0.2192 -0.1136
    1TCq1    C414043   0.084   0.076  12.464  0.1737  0.2986  0.1954
    1TCq1    C514044   0.019   0.009  12.567 -0.6956 -0.3645 -0.0462
    1TCq1    C614045   0.078   4.621  12.619 -0.3153 -1.0362  0.8908
    1TCq1    C714046   0.174   4.550  12.550 -0.5008  0.6717 -0.7744
    1TCq1    C814047   0.016   4.553  12.731 -0.3151 -0.1776 -0.5595
    1TCq1    O414048   0.028   4.430  12.745 -0.6372  0.3108 -0.1827
    1TCq1    C914049   0.009   0.183  12.406 -0.1168 -0.1902  0.5410
    1TCq1    O514050   0.023   0.210  12.286 -0.3406  0.2411 -0.1573
    1TCq1    O614051   4.646   0.244  12.480 -0.8298 -0.4262  0.6882
    1TCq1    H114052   0.300   4.637  12.209  0.1570 -0.8611 -0.9811
    1TCq1    H214053   0.210   0.048  12.292 -0.4757  0.6923  0.0437
    1TCq1    H314054   4.649   0.058  12.604  1.0162  0.6144  2.7569
    1TCq1    H414055   0.218   4.467  12.603 -1.3269  2.1491  2.2432
    2MPD1     C14056   4.451   4.530  13.159 -0.5515 -0.3402 -0.1057
    2MPD1    C114057   4.500   4.662  13.143 -0.6003 -0.1863 -0.6054
    2MPD1    C214058   4.571   4.699  13.022  0.7331 -0.6986 -0.0125
    2MPD1    C314059   4.594   4.602  12.926  0.2335  0.8311 -0.0546
    2MPD1    C414060   4.535   4.475  12.938  0.5080  0.5358  0.1313
    2MPD1    C514061   4.479   4.440  13.062  0.3991 -0.3932 -0.3705
    2MPD1     H14062   4.618   0.077  13.018 -1.9592  0.5612 -1.2043
    2MPD1    H114063   4.564   4.396  12.870 -1.6581  1.7901 -2.2451
    2MPD1    H214064   4.393   4.489  13.241 -1.9333  1.3179 -0.2506
    2MPD1    H314065   4.445   4.339  13.084 -0.9622  0.7792  2.8445
    2MPD1     N14066   4.672   4.640  12.814 -0.0834 -0.1116 -0.0116
    2MPD1    H514067   4.697   0.018  12.800  0.2481 -0.6426 -3.0142
    2MPD1    N114068   4.497   0.025  13.254  1.0559  0.0867  0.1231
    2MPD1    H614069   4.456   0.115  13.227  0.7758 -0.1117 -0.1102
    2MPD1    H714070   4.435   4.716  13.329  0.8645 -0.7907 -0.3628
    1TCq1    O114071   3.834   0.045   1.334 -0.0000 -0.1476  0.4475
    1TCq1    C114072   3.967   0.073   1.307  0.4703 -0.2747  0.3451
    1TCq1    O214073   4.049   0.003   1.246 -0.1675 -0.3888  0.2159
    1TCq1    C214074   3.997   0.202   1.362  0.4421  0.1712  0.6393
    1TCq1    C314075   3.927   0.249   1.463  0.1252 -0.3602  0.2899
    1TCq1    C414076   3.954   0.378   1.496 -0.0699 -0.3170  0.0344
    1TCq1    C514077   4.023   0.468   1.414 -0.0233  0.3698  0.5834
    1TCq1    C614078   4.070   0.413   1.295 -0.2897 -0.1787 -0.4012
    1TCq1    C714079   4.065   0.280   1.277 -0.0471 -0.6568 -0.3081
    1TCq1    C814080   4.156   0.491   1.208  0.1182  0.6408 -0.2957
    1TCq1    O414081   4.154   0.453   1.092  0.2918 -0.4895  0.0679
    1TCq1    C914082   3.869   0.442   1.595 -0.3396 -0.3252 -0.4216
    1TCq1    O514083   3.834   0.562   1.577 -0.1280  0.0945  0.2778
    1TCq1    O614084   3.822   0.361   1.677  0.4691 -0.5681  0.5252
    1TCq1    H114085   3.791   0.117   1.385 -0.4035  1.2524 -1.8613
    1TCq1    H214086   3.870   0.193   1.536  1.7710  0.4639  2.2107
    1TCq1    H314087   4.009   0.575   1.424 -3.9386 -0.0958  0.0114
    1TCq1    H414088   4.115   0.233   1.192  0.4773 -1.3289  0.3754
    2MPD1     C14089   4.468   0.894   1.107 -0.0455  0.0886 -0.2259
    2MPD1    C114090   4.455   0.880   1.242  0.2401  0.2109  0.0759
    2MPD1    C214091   4.371   0.787   1.292 -0.5890  0.0679  0.1386
    2MPD1    C314092   4.303   0.696   1.214 -0.4428 -0.6999  0.1435
    2MPD1    C414093   4.323   0.705   1.078 -0.3948  0.1437 -0.0183
    2MPD1    C514094   4.401   0.808   1.027  0.0739  0.4637  0.0188
    2MPD1     H14095   4.353   0.773   1.398  0.0790  0.0683  0.2504
    2MPD1    H114096   4.269   0.640   1.010 -3.3259  1.8593  0.6381
    2MPD1    H214097   4.524   0.975   1.061  1.3935 -0.3084  0.8241
    2MPD1    H314098   4.408   0.803   0.919  1.3430  1.7024  0.0579
    2MPD1     N14099   4.219   0.597   1.272 -0.0930  0.1120  0.2419
    2MPD1    H514100   4.213   0.607   1.373 -1.7025  0.4127  0.1172
    2MPD1    N114101   4.542   0.948   1.324 -0.4553  0.4336 -0.4736
    2MPD1    H614102   4.511   0.941   1.420 -1.0130  1.6160 -0.5738
    2MPD1    H714103   4.557   1.045   1.295 -1.1949  0.4096 -0.9264
    1MPD1     C14104   1.360   3.749  12.331  0.4146 -0.4642  0.3617
    1MPD1    C114105   1.450   3.733  12.227  0.0137 -0.4677  0.5041
    1MPD1    C214106   1.532   3.843  12.192 -0.1998  0.2355 -0.4709
    1MPD1    C314107   1.525   3.956  12.264 -0.3199 -0.6505 -0.4272
    1MPD1    C414108   1.437   3.972  12.371 -0.2167 -0.1138 -0.7416
    1MPD1    C514109   1.354   3.869  12.395  0.0073 -0.0302  0.2828
    1MPD1     H14110   1.595   3.846  12.104 -0.0133 -0.0903 -0.3464
    1MPD1    H114111   1.436   4.055  12.441  0.6299 -0.7310  0.0053
    1MPD1    H214112   1.280   3.675  12.335 -0.4148  0.4142  0.1678
    1MPD1    H314113   1.274   3.895  12.464 -2.0691  0.2588 -2.2264
    1MPD1     N14114   1.614   4.060  12.252  0.3543  0.4340  0.4400
    1MPD1    H514115   1.605   4.140  12.314  2.0022  0.1629  1.0307
    1MPD1    N114116   1.462   3.607  12.163 -0.1920 -0.3425 -0.0577
    1MPD1    H614117   1.375   3.555  12.175 -0.3051 -0.1761 -0.1422
    1MPD1    H714118   1.479   3.618  12.063  0.0260  2.4151  0.2876
    2MPD1     C14119   0.945   0.411  11.041 -0.1004 -0.7799 -0.0470
    2MPD1    C114120   0.993   0.460  10.916  0.3993  0.5185 -0.1195
    2MPD1    C214121   1.087   0.392  10.850  0.5282 -0.2297 -0.0839
    2MPD1    C314122   1.161   0.285  10.916  0.0303 -0.3996  0.8636
    2MPD1    C414123   1.113   0.241  11.037  0.0613 -0.4848  1.0381
    2MPD1    C514124   0.999   0.300  11.098  0.2493  0.2796 -0.5813
    2MPD1     H14125   1.125   0.431  10.757 -0.1508  1.5081  0.3609
    2MPD1    H114126   1.163   0.159  11.088 -2.9672 -2.5524  0.6121
    2MPD1    H214127   0.856   0.451  11.090  0.9383  0.0597  1.1422
    2MPD1    H314128   0.962   0.265  11.193  1.4260 -0.7996 -0.5289
    2MPD1     N14129   1.278   0.219  10.861 -0.5545 -0.5156 -0.5505
    2MPD1    H514130   1.327   0.157  10.925 -0.5639 -0.5099 -0.5380
    2MPD1    N114131   0.950   0.585  10.859 -0.2175 -0.0050  0.0706
    2MPD1    H614132   0.967   0.583  10.759 -0.7934  1.9751 -0.0674
    2MPD1    H714133   0.852   0.611  10.869 -0.0431  0.4017  0.7764
    3MPD1     C14134   1.612   0.160   9.938  0.4082  0.1258 -0.7171
    3MPD1    C114135   1.559   0.281   9.981  0.1327 -0.0375 -0.1315
    3MPD1    C214136   1.583   0.325  10.109 -0.0530  0.1783  0.4723
    3MPD1    C314137   1.652   0.253  10.204 -0.8266 -0.4511  0.1527
    3MPD1    C414138   1.720   0.145  10.158  1.0494 -0.5436  0.4139
    3MPD1    C514139   1.706   0.108  10.025  0.3144  0.0240  0.3052
    3MPD1     H14140   1.536   0.417  10.143 -0.6008  0.3956 -0.8861
    3MPD1    H114141   1.777   0.075  10.219  0.8453 -1.0043  0.0690
    3MPD1    H214142   1.592   0.118   9.840 -1.5525 -0.0562 -0.2299
    3MPD1    H314143   1.740   0.010   9.994  2.3360  1.3059 -1.5042
    3MPD1     N14144   1.653   0.291  10.345 -0.1169 -0.4492 -0.6696
    3MPD1    H514145   1.577   0.351  10.376 -1.8538 -2.8318 -0.2782
    3MPD1    N114146   1.456   0.343   9.900  0.1431  0.4445  1.0273
    3MPD1    H614147   1.448   0.442   9.921  0.7446  0.6116  0.4878
    3MPD1    H714148   1.491   0.339   9.804 -2.6827  1.4366 -0.0344
    4MPD2     C14149   1.682   0.043  11.977  0.2902  0.1759 -0.3607
    4MPD2    C114150   1.800   4.691  12.001 -0.5529  0.4133  0.1419
    4MPD2    C214151   1.915   0.013  11.940 -0.4082  0.3899 -0.1442
    4MPD2    C314152   1.923   0.122  11.853 -0.0333  0.1003 -0.6506
    4MPD2    C414153   1.802   0.193  11.834 -0.1015 -0.3303  0.7561
    4MPD2    C514154   1.686   0.157  11.900  0.1356 -0.0639 -0.1727
    4MPD2     H14155   2.002   4.668  11.951 -0.8568 -0.3351 -0.7773
    4MPD2    H114156   1.790   0.273  11.762 -2.4426  1.0207  2.6805
    4MPD2    H214157   1.591   0.011  12.028  0.0945  0.5823 -0.4563
    4MPD2    H314158   1.598   0.217  11.883 -1.9238 -2.7046  1.1650
    4MPD2     N14159   2.036   0.145  11.769 -0.1465  0.0602  0.2774
    4MPD2    H514160   2.023   0.230  11.715  0.4646  0.1276  0.2353
    4MPD2    N114161   1.813   4.581  12.087  0.1334  0.1392  0.5305
    4MPD2    H714162   1.901   4.530  12.092 -0.5104 -0.9871  0.4688
    5TMC3    C114163   1.772   4.418  12.233 -0.1463  0.6888 -0.2339
    5TMC3    C214164   1.701   4.303  12.214 -0.4419 -0.0183  0.1993
    5TMC3    C314165   1.780   4.200  12.168 -0.2433 -0.3293 -0.2663
    5TMC3    C414166   1.907   4.413  12.258  0.2495 -0.1917 -0.7607
    5TMC3    C514167   1.985   4.308  12.224 -0.2537  0.5560 -0.6268
    5TMC3    C614168   1.923   4.200  12.171  0.7518  0.0960  0.4741
    5TMC3     C14169   1.719   4.531  12.169  0.3887 -0.3500  0.2980
    5TMC3     O14170   1.602   4.556  12.180  0.6110  0.1809  0.2156
    5TMC3     H14171   1.596   4.302  12.189 -0.5834 -0.6019  0.8472
    5TMC3    H114172   1.960   4.506  12.276  0.0007  0.5258 -3.7401
    5TMC3    H214173   1.976   4.115  12.131  3.3537  1.9032  0.0694
    5TMC3    C714174   2.102   4.347  12.142 -0.3298  0.7768  0.2447
    5TMC3    C814175   1.724   4.067  12.170  0.0711 -0.4511  0.3072
    5TMC3    O114176   2.114   4.463  12.101 -0.0857  0.7371 -0.5869
    5TMC3    O214177   1.776   3.974  12.110 -0.4599  0.1191 -0.3082
    6TMC3    C114178   1.472   0.202  10.714 -0.3205 -0.5720  0.2898
    6TMC3    C214179   1.524   0.245  10.593 -0.8417  0.2101 -0.3396
    6TMC3    C314180   1.662   0.236  10.579  0.3153  0.0288 -1.4034
    6TMC3    C414181   1.548   0.177  10.822  0.8220 -0.2453  0.2259
    6TMC3    C514182   1.684   0.193  10.803  0.2305 -1.0775 -0.0777
    6TMC3    C614183   1.743   0.202  10.683 -0.7716 -0.6446 -0.6185
    6TMC3     C14184   1.330   0.236  10.740 -0.4330  0.0197 -0.4270
    6TMC3     O14185   1.271   0.296  10.650  0.0793  0.1649 -0.4691
    6TMC3     H14186   1.462   0.270  10.508 -0.0663 -0.6129 -1.1565
    6TMC3    H114187   1.513   0.174  10.925 -0.3651  0.4259 -0.1553
    6TMC3    H214188   1.850   0.207  10.664 -0.2552 -0.8966  2.1146
    6TMC3    C714189   1.773   0.142  10.902  0.6352  0.0796  0.3487
    6TMC3    C814190   1.720   0.230  10.444 -0.0552 -0.5857  0.9383
    6TMC3    O114191   1.850   0.227  10.947  0.3835 -0.0293  0.0382
    6TMC3    O214192   1.815   0.156  10.424  0.4932 -0.0464  0.8577
    7MPD2     C14193   2.457   4.276  11.778 -0.3705 -0.1678  0.2038
    7MPD2    C114194   2.356   4.370  11.787 -0.3335 -0.2679 -0.3118
    7MPD2    C214195   2.263   4.353  11.885 -0.4961 -0.1500  0.4955
    7MPD2    C314196   2.268   4.249  11.978  0.0334  0.4780  0.0144
    7MPD2    C414197   2.362   4.146  11.962 -0.4640 -0.4269 -0.8344
    7MPD2    C514198   2.464   4.174  11.870  0.6248 -0.3959  0.0837
    7MPD2     H14199   2.191   4.433  11.895  0.1473 -0.0676  4.4272
    7MPD2    H114200   2.371   4.065  12.034  0.1040  2.0542  1.9064
    7MPD2    H214201   2.541   4.290  11.711 -2.2441 -1.1418 -2.3233
    7MPD2    H314202   2.546   4.104  11.862  0.8284  0.0129 -1.5476
    7MPD2     N14203   2.178   4.244  12.089 -0.1311  0.6890 -0.2240
    7MPD2    H514204   2.177   4.158  12.143  0.3262  0.1792 -1.0272
    7MPD2    N114205   2.341   4.483  11.713 -0.0003  0.2340  0.1510
    7MPD2    H714206   2.275   4.553  11.745 -0.1434 -0.9426  2.4625
    8TMC3    C114207   2.365   4.656  11.566  0.3027 -0.6284 -0.1227
    8TMC3    C214208   2.286   4.665  11.453  0.1985 -0.1919  0.2422
    8TMC3    C314209   2.196   0.053  11.446 -0.0381 -0.1017  0.0521
    8TMC3    C414210   2.343   0.017  11.671 -0.1153 -0.1474  0.3996
    8TMC3    C514211   2.249   0.112  11.668  0.9164 -0.3812 -0.5528
    8TMC3    C614212   2.187   0.144  11.554  0.6626 -0.1125 -0.5365
    8TMC3     C14213   2.411   4.528  11.605  0.4072 -0.4141 -0.0829
    8TMC3     O14214   2.481   4.456  11.532 -0.0690  0.6165 -0.6472
    8TMC3     H14215   2.314   4.615  11.362  3.4063  1.3729  0.3470
    8TMC3    H114216   2.399   0.006  11.764  0.3921  1.0922  0.2414
    8TMC3    H214217   2.119   0.227  11.538  0.9117  0.3299  0.7468
    8TMC3    C714218   2.157   0.079  11.776 -0.5041  0.9203  0.4503
    8TMC3    C814219   2.104   0.060  11.339 -0.3262 -0.3345 -0.0117
    8TMC3    O114220   2.182   4.689  11.825 -0.4545  0.1641  0.1202
    8TMC3    O214221   2.072   0.174  11.304 -0.0497 -0.0324 -0.0740
    9MPD2     C14222   2.004   4.474  11.143  0.7396  0.0453  0.1175
    9MPD2    C114223   2.008   4.614  11.178  0.6716 -0.3889 -0.3677
    9MPD2    C214224   1.931   4.696  11.101  0.4094 -0.4226 -0.4015
    9MPD2    C314225   1.857   4.647  10.997 -0.5472  0.3172  0.8609
    9MPD2    C414226   1.850   4.512  10.973 -0.6378 -0.6850  0.1398
    9MPD2    C514227   1.940   4.433  11.030 -0.0953 -0.2692 -0.0716
    9MPD2     H14228   1.925   0.084  11.113 -0.2809 -0.3315 -1.6075
    9MPD2    H114229   1.793   4.486  10.885 -2.5491 -3.1892  2.1220
    9MPD2    H214230   2.067   4.403  11.196  0.5784 -1.2271 -1.3760
    9MPD2    H314231   1.937   4.327  11.006  0.4743 -0.3043  0.0209
    9MPD2     N14232   1.771   0.005  10.914  0.0503 -0.3336 -0.2817
    9MPD2    H514233   1.705   4.680  10.851  0.7198  2.0149 -2.6194
    9MPD2    N114234   2.077   4.648  11.298  0.0853 -0.3325  0.5213
    9MPD2    H714235   2.132   4.570  11.334 -1.9529 -1.8140  0.4250
    1MPD1     C14236   1.562   3.475  17.421 -0.0946  0.3579  0.1824
    1MPD1    C114237   1.442   3.511  17.362  0.1902 -0.2897 -0.3950
    1MPD1    C214238   1.345   3.408  17.352  0.2009  0.6811  0.8545
    1MPD1    C314239   1.372   3.273  17.386 -0.7470  0.2859  0.6538
    1MPD1    C414240   1.498   3.250  17.449  0.0701  0.1742 -0.7076
    1MPD1    C514241   1.595   3.349  17.452 -0.8615  0.1147 -0.3895
    1MPD1     H14242   1.246   3.432  17.315  0.7625  0.4273 -0.8091
    1MPD1    H114243   1.533   3.157  17.492 -0.4768  0.8807  1.2497
    1MPD1    H214244   1.635   3.552  17.442  0.3110  0.0107  0.0634
    1MPD1    H314245   1.689   3.326  17.501 -2.1382 -1.2543  1.4353
    1MPD1     N14246   1.280   3.167  17.374  0.6288 -0.6775  0.2355
    1MPD1    H514247   1.316   3.072  17.385  4.2192  0.8347  1.3483
    1MPD1    N114248   1.412   3.645  17.344  0.1248  0.4267 -0.1304
    1MPD1    H614249   1.342   3.673  17.275 -2.7743  1.7807  3.3352
    1MPD1    H714250   1.498   3.692  17.318 -1.1505  2.9771  0.1878
    2MPD1     C14251   1.612   2.604  16.885  0.3859 -0.3953 -0.0417
    2MPD1    C114252   1.636   2.724  16.944 -0.2241  0.0617 -0.1878
    2MPD1    C214253   1.534   2.782  17.019 -0.7206  0.2021  0.1847
    2MPD1    C314254   1.415   2.707  17.044 -0.0861  0.6340 -0.4820
    2MPD1    C414255   1.404   2.576  16.998 -0.5859 -0.2868  0.2509
    2MPD1    C514256   1.500   2.530  16.910 -0.6485 -0.2002 -0.3045
    2MPD1     H14257   1.546   2.884  17.054  0.9126  0.0840 -0.0575
    2MPD1    H114258   1.312   2.519  17.008 -0.7427  0.4884  3.4057
    2MPD1    H214259   1.685   2.554  16.823 -0.7372  1.0673 -2.5102
    2MPD1    H314260   1.481   2.432  16.868  2.5053 -0.3156 -1.4668
    2MPD1     N14261   1.321   2.772  17.126  0.3720 -0.2741  0.3425
    2MPD1    H514262   1.338   2.870  17.144 -0.2985  0.0687 -0.8836
    2MPD1    N114263   1.741   2.805  16.908 -0.0764 -0.2525  0.0727
    2MPD1    H614264   1.825   2.749  16.898  0.6144  0.5701  1.2845
    2MPD1    H714265   1.762   2.858  16.993 -0.1953 -1.2534  0.7284
    3TCq2    C114266   1.191   2.725  17.157  0.4660 -0.8529 -0.0951
    3TCq2    O214267   1.145   2.614  17.133  0.4109 -0.3201 -0.2721
    3TCq2    C214268   1.108   2.829  17.218  0.0753  0.0718 -0.6005
    3TCq2    C314269   0.973   2.823  17.205  0.3402 -0.3515 -0.2730
    3TCq2    C414270   0.894   2.925  17.244  0.5545 -0.1146 -0.1316
    3TCq2    C514271   0.946   3.034  17.305 -0.3366 -0.2153 -0.3437
    3TCq2    C614272   1.083   3.038  17.319 -0.0759  0.1928 -0.4133
    3TCq2    C714273   1.165   2.936  17.275 -0.2734  0.3243  0.0832
    3TCq2    C814274   1.144   3.171  17.332 -0.3407  0.0132 -0.0943
    3TCq2    O414275   1.072   3.266  17.312 -0.2508  0.3040  0.0094
    3TCq2    C914276   0.754   2.911  17.238 -0.0444 -0.1761  0.4258
    3TCq2    O514277   0.672   3.002  17.272 -0.3614 -0.1951 -0.3185
    3TCq2    O614278   0.710   2.812  17.176  0.4362 -0.3939 -0.9800
    3TCq2    H214279   0.928   2.731  17.168 -0.3640 -0.7695  1.6363
    3TCq2    H314280   0.871   3.111  17.317 -1.5029 -0.8788 -3.3690
    3TCq2    H414281   1.272   2.948  17.291  0.1533 -0.2479 -2.3611
    1TCq1    O114282   3.825   2.501  12.669 -0.3682  0.3314 -0.0262
    1TCq1    C114283   3.891   2.585  12.582  0.1641 -0.4244  0.1512
    1TCq1    O214284   3.836   2.637  12.483 -0.3274 -0.1616  0.3740
    1TCq1    C214285   4.030   2.612  12.603 -0.9796 -0.2628  0.4461
    1TCq1    C314286   4.105   2.670  12.503  0.2155  0.5557  0.5198
    1TCq1    C414287   4.239   2.693  12.523  0.5465  0.1247 -1.0644
    1TCq1    C514288   4.294   2.650  12.636  0.4431  0.4904  0.0319
    1TCq1    C614289   4.221   2.586  12.731 -0.6767  0.0874  0.1168
    1TCq1    C714290   4.085   2.584  12.722  0.1020  1.2161  0.3214
    1TCq1    C814291   4.269   2.570  12.863  0.7512  0.7922 -0.6210
    1TCq1    O414292   4.195   2.606  12.956  0.4254 -0.1649 -0.0571
    1TCq1    C914293   4.317   2.763  12.420 -0.6828  0.3465  0.3888
    1TCq1    O514294   4.435   2.780  12.454  0.1872  0.1147 -0.2174
    1TCq1    O614295   4.269   2.783  12.304  0.2755 -0.0203  0.2717
    1TCq1    H114296   3.884   2.452  12.731  0.8053  0.8817 -0.7143
    1TCq1    H214297   4.058   2.695  12.409 -0.1098  0.2466  0.5997
    1TCq1    H314298   4.400   2.666  12.652  0.1408  1.0513  1.4902
    1TCq1    H414299   4.026   2.537  12.800  1.7079  2.0404  2.0200
    2MPD2     C14300   4.431   2.525  13.107 -0.4804 -0.0220  1.0278
    2MPD2    C114301   4.454   2.471  12.982 -0.5390  0.0413  0.4499
    2MPD2    C214302   4.564   2.395  12.963  0.0273  0.6190 -0.1988
    2MPD2    C314303   4.654   2.368  13.070 -0.2426  0.5010 -0.1359
    2MPD2    C414304   4.628   2.423  13.193 -0.2689  0.5731  0.0203
    2MPD2    C514305   4.517   2.496  13.207 -0.8058  1.1061 -0.4939
    2MPD2     H14306   4.581   2.366  12.860  3.7374  0.2337  0.5120
    2MPD2    H114307   4.693   2.424  13.280 -0.3522 -0.1233  0.0886
    2MPD2    H214308   4.346   2.590  13.126  0.3001  1.0403  0.9220
    2MPD2    H314309   4.505   2.517  13.313 -0.5189  0.3938 -0.3199
    2MPD2     N14310   0.050   2.287  13.035  0.4843 -0.2722  0.5331
    2MPD2    H514311   0.060   2.258  12.939  1.0533 -1.1442  0.8552
    2MPD2    N114312   4.385   2.500  12.864  0.2894 -0.2475 -0.4897
    2MPD2    H714313   4.417   2.467  12.774  0.0873 -0.2004 -0.5799
    3TCq1    O114314   0.582   1.907  13.249 -0.2470  0.1909 -0.2054
    3TCq1    C114315   0.542   2.035  13.258  0.5806 -0.4841 -0.4998
    3TCq1    O214316   0.587   2.129  13.325 -0.0407 -0.2161 -1.1749
    3TCq1    C214317   0.432   2.045  13.171  0.2314  0.0787  0.3310
    3TCq1    C314318   0.414   1.956  13.067 -0.1266  0.4291 -0.0518
    3TCq1    C414319   0.305   1.976  12.980 -0.3771 -0.2648 -0.6193
    3TCq1    C514320   0.228   2.088  12.984  0.7987 -0.2258  0.2789
    3TCq1    C614321   0.251   2.175  13.085 -0.5123 -0.1682  0.1199
    3TCq1    C714322   0.351   2.153  13.180  0.0598 -0.1744  0.0879
    3TCq1    C814323   0.150   2.267  13.126 -0.4903  0.4287  0.4107
    3TCq1    O414324   0.165   2.314  13.238  0.1563  0.0590  0.2219
    3TCq1    C914325   0.273   1.878  12.874  0.3759 -0.6451 -0.9267
    3TCq1    O514326   0.327   1.764  12.882  0.1576  0.0875  0.6402
    3TCq1    O614327   0.171   1.890  12.803  0.3097  0.1067 -0.3648
    3TCq1    H114328   0.504   1.861  13.212  1.7681 -0.3208 -3.7594
    3TCq1    H214329   0.472   1.866  13.052  1.5453  1.4253  0.3836
    3TCq1    H314330   0.137   2.094  12.926 -0.4731 -1.9168  2.1071
    3TCq1    H414331   0.363   2.220  13.264 -1.5330 -0.0746  0.2400
    1MPD2     C14332   3.900   3.402  14.803  0.7393 -0.1032  0.4514
    1MPD2    C114333   3.790   3.328  14.816  0.6085 -0.0752  0.4736
    1MPD2    C214334   3.768   3.222  14.729 -0.0583 -0.0335  0.2373
    1MPD2    C314335   3.858   3.186  14.626 -0.1691  0.5086  0.1513
    1MPD2    C414336   3.967   3.267  14.621  0.6448  0.6111  0.3645
    1MPD2    C514337   3.988   3.373  14.701 -0.2212 -0.0344  0.6687
    1MPD2     H14338   3.672   3.173  14.729  0.4114 -0.9626 -1.7496
    1MPD2    H114339   4.044   3.259  14.545 -0.6418 -0.7455 -0.7792
    1MPD2    H214340   3.920   3.484  14.870  1.7526  1.9219 -2.3256
    1MPD2    H314341   4.075   3.439  14.696  0.0712 -0.3594  1.4291
    1MPD2     N14342   3.828   3.079  14.536 -0.4130 -0.4117  0.4149
    1MPD2    H514343   3.744   3.023  14.550 -1.3336  0.5216 -1.2795
    1MPD2    N114344   3.687   3.372  14.907 -0.2549  0.2199  0.6718
    1MPD2    H714345   3.702   3.462  14.952  0.1822  0.7523 -0.5196
    2TMC3    C114346   3.459   3.387  14.975 -0.7166  0.1335  0.1681
    2TMC3    C214347   3.352   3.312  15.009  0.0929 -0.5258  0.5669
    2TMC3    C314348   3.230   3.345  14.971  0.3711 -0.3102 -0.3609
    2TMC3    C414349   3.442   3.506  14.907 -0.2509 -0.2894  0.1472
    2TMC3    C514350   3.314   3.525  14.862  0.5457 -0.0257 -0.4892
    2TMC3    C614351   3.204   3.460  14.897 -0.1178  0.2907 -0.1375
    2TMC3     C14352   3.576   3.303  14.936 -0.4639 -0.4328 -0.2722
    2TMC3     O14353   3.549   3.187  14.922 -0.3067  0.0631  0.2338
    2TMC3     H14354   3.362   3.229  15.077  2.6814  0.4460  1.3892
    2TMC3    H114355   3.528   3.556  14.863  0.8854 -0.4347  2.2236
    2TMC3    H214356   3.130   3.444  14.820 -0.0262  1.5152 -0.4794
    2TMC3    C714357   3.303   3.612  14.749  0.2710 -0.3512  0.1981
    2TMC3    C814358   3.159   3.233  14.916 -0.7463 -0.3743  0.3193
    2TMC3    O114359   3.193   3.654  14.725  0.1629 -0.3117 -0.0074
    2TMC3    O214360   3.043   3.237  14.874  0.1060 -0.0788  0.0709
    3TCq1    O114361   4.106   3.387  13.921  0.6079 -0.2951 -0.2873
    3TCq1    C114362   4.050   3.471  14.010 -1.0149  1.4629  0.3288
    3TCq1    O214363   4.080   3.590  14.022 -0.1226 -0.5948 -0.8616
    3TCq1    C214364   3.906   3.433  14.005 -0.5112  0.4121 -0.0929
    3TCq1    C314365   3.849   3.348  13.908 -0.2745  0.2841  0.0047
    3TCq1    C414366   3.711   3.361  13.881 -0.1385 -0.1023  0.0874
    3TCq1    C514367   3.637   3.465  13.937  0.6760 -0.3566  0.3900
    3TCq1    C614368   3.693   3.543  14.036  0.1001  0.2916 -0.5192
    3TCq1    C714369   3.830   3.534  14.068 -0.4998 -0.3136  0.2248
    3TCq1    C814370   3.615   3.636  14.113 -0.2345 -0.1453 -0.8130
    3TCq1    O414371   3.524   3.695  14.050 -0.3595 -0.0316 -0.2325
    3TCq1    C914372   3.647   3.276  13.781  0.5446  0.6323  0.3511
    3TCq1    O514373   3.524   3.295  13.750 -0.4682 -0.1659  0.2157
    3TCq1    O614374   3.725   3.193  13.727 -0.1605 -0.0484  0.2377
    3TCq1    H114375   4.083   3.298  13.955  0.3583 -0.3556 -0.6180
    3TCq1    H214376   3.907   3.275  13.854 -0.1399 -1.5137  2.6118
    3TCq1    H314377   3.530   3.463  13.918  0.3955 -0.1770  1.8715
    3TCq1    H414378   3.870   3.597  14.147  1.6665 -1.4074 -0.0004
    4MPD2     C14379   3.497   3.818  14.323 -0.8180 -0.3114  0.1346
    4MPD2    C114380   3.558   3.695  14.347  0.4470 -0.4484  0.1855
    4MPD2    C214381   3.538   3.634  14.464 -0.1681  0.2663  0.6723
    4MPD2    C314382   3.444   3.678  14.556 -0.0225 -0.4949 -0.0792
    4MPD2    C414383   3.377   3.795  14.535 -0.0313  0.9904 -0.5497
    4MPD2    C514384   3.406   3.872  14.419  0.2438  0.0639  0.4903
    4MPD2     H14385   3.574   3.535  14.489  0.0703  0.2187  0.1405
    4MPD2    H114386   3.309   3.830  14.611 -1.5446 -0.8743 -1.0374
    4MPD2    H214387   3.524   3.874  14.234  1.7446 -2.3767 -0.3815
    4MPD2    H314388   3.352   3.964  14.404 -1.1746 -0.4831  2.1258
    4MPD2     N14389   3.414   3.603  14.671  0.5731 -0.4420 -0.6148
    4MPD2    H514390   3.464   3.515  14.679  1.1528 -0.0543  0.0523
    4MPD2    N114391   3.634   3.630  14.245  0.5840 -0.1223 -0.5029
    4MPD2    H714392   3.686   3.550  14.278 -0.3877  0.1989  1.8017
    5TMC2    C114393   3.656   2.805  14.477 -0.2589  0.1912  0.6554
    5TMC2    C214394   3.735   2.702  14.518 -0.0428 -0.1366 -0.1765
    5TMC2    C314395   3.867   2.709  14.481  0.0500  0.3626 -0.3114
    5TMC2    C414396   3.708   2.914  14.410  0.2015 -0.3985  0.7287
    5TMC2    C514397   3.842   2.920  14.371  0.4541 -0.1860  0.3540
    5TMC2    C614398   3.924   2.812  14.402  0.3742  0.0431  0.4725
    5TMC2     C14399   3.567   2.855  14.583 -0.4281 -0.3609 -0.6200
    5TMC2     O14400   3.605   2.964  14.626 -0.2445  0.3483  0.0455
    5TMC2     H14401   3.688   2.608  14.543  1.3024 -0.7759 -0.0888
    5TMC2    H114402   3.639   2.995  14.393 -0.1158 -0.6547  0.8129
    5TMC2    H214403   4.027   2.819  14.371  0.1554  0.5167 -0.1420
    5TMC2    C714404   3.910   3.041  14.431  0.4584 -0.5903 -0.5771
    5TMC2    C814405   3.916   2.580  14.453  0.0518 -0.2829 -0.7203
    5TMC2    O114406   4.030   3.067  14.422 -0.1040 -0.0006 -0.0468
    5TMC2    O214407   3.855   2.478  14.461 -0.0664  0.2689  0.1900
    5TMC2    O514408   4.052   2.588  14.471  0.2155  0.8173  0.5384
    5TMC2    H514409   4.087   2.671  14.510 -1.8634  0.8272  2.3672
    6MPD2     C14410   3.107   2.963  14.787 -1.0719 -0.3919  0.4534
    6MPD2    C114411   3.229   3.035  14.784  0.2506 -0.3845 -0.3911
    6MPD2    C214412   3.338   2.980  14.728 -0.2346 -0.0325 -0.0246
    6MPD2    C314413   3.336   2.852  14.668  0.7605 -0.5905 -0.3516
    6MPD2    C414414   3.209   2.786  14.662 -0.0364  0.4245  0.5003
    6MPD2    C514415   3.098   2.842  14.728 -0.0633  0.4794  0.7973
    6MPD2     H14416   3.423   3.047  14.733 -0.4703  0.2273  0.4817
    6MPD2    H114417   3.190   2.691  14.614 -1.6827  1.6451 -1.2464
    6MPD2    H214418   3.024   2.999  14.847 -1.2501  0.4999 -0.3207
    6MPD2    H314419   3.004   2.789  14.735  0.2644 -0.2365 -0.3143
    6MPD2     N14420   3.448   2.792  14.605  0.1146  0.0273  0.0028
    6MPD2    H514421   3.430   2.706  14.553 -1.9610  0.1625  0.4870
    6MPD2    N114422   3.251   3.143  14.870  0.5922 -0.2739 -1.1528
    6MPD2    H714423   3.349   3.169  14.879  0.9007 -1.8719 -0.0162
  945NH3     N114424   0.499   1.572   2.373  0.2885  1.1180  0.2727
  945NH3     H214425   0.553   1.645   2.418  0.9887 -0.6216  2.2347
  945NH3     H314426   0.462   1.507   2.441 -1.8475  1.5091 -0.5165
  945NH3     H414427   0.413   1.622   2.354 -0.0592  0.2654 -0.3955
  946SOD     NA14428   2.154   2.819  13.657 -0.0873 -0.1443  0.3241
  947SOD     NA14429   1.108   2.332   0.530  0.0252 -0.1318  0.3279
  948SOD     NA14430   3.974   3.201   1.725 -0.0279  0.1036 -0.0996
  949SOD     NA14431   4.134   3.019  10.248 -0.1436 -0.0463 -0.3544
  950SOD     NA14432   3.122   2.242   9.393 -0.4201 -0.4381  0.4449
  951SOD     NA14433   4.555   3.914   9.941  0.2054 -0.5149  0.1127
  952SOD     NA14434   2.018   2.229  11.697  0.0651  0.1580 -0.5448
  953SOD     NA14435   0.094   3.391   6.107  0.6346 -0.0571  0.3484
  954SOD     NA14436   2.948   1.677  14.045  0.0270  0.0666 -0.0773
  955SOD     NA14437   0.697   2.216  14.446  0.1196  0.2269 -0.1650
  956SOD     NA14438   3.069   2.913   5.637  0.2164 -0.5642  0.3664
  957SOD     NA14439   0.020   2.548  11.257  0.2083  0.1416  0.1120
  958SOD     NA14440   1.354   3.539   2.075 -0.3436 -0.0781  0.0592
  959SOD     NA14441   0.380   2.250  14.332  0.4327  0.0044  0.2176
  960SOD     NA14442   4.658   0.424  12.356  0.1330 -0.3069 -0.2310
  961SOD     NA14443   3.240   2.459  10.648 -0.1401  0.2957  0.0010
  962SOD     NA14444   3.681   4.116  12.220  0.0506 -0.3564 -0.6765
  963SOD     NA14445   0.304   4.148   0.267 -0.3286 -0.0924  0.1891
  964SOD     NA14446   4.664   2.169  12.125  0.3507 -0.3575 -0.3604
  965SOD     NA14447   3.263   0.003   0.110 -0.3801 -0.6158  0.1550
  966SOD     NA14448   4.544   0.915   2.557 -0.0885  0.4363 -0.1432
  967SOD     NA14449   0.707   2.786  16.194  0.2012  0.4374 -0.3180
  968SOD     NA14450   3.896   0.300   1.875 -0.4106 -0.2609  0.2337
  969SOD     NA14451   4.370   1.912  16.775 -0.2984 -0.7437  0.0637
  970SOD     NA14452   2.860   2.772  11.076 -0.1110 -0.1365  0.5568
  971SOD     NA14453   0.248   3.375  13.341 -0.5516 -0.5855  0.3193
  972SOD     NA14454   3.744   4.627  12.024  0.3196  0.1017 -0.1248
  973SOD     NA14455   4.505   1.965  11.027  0.0802 -0.2284 -0.2667
  974SOD     NA14456   3.482   2.037  15.326 -0.9642 -0.4249 -0.4851
  975SOD     NA14457   0.299   2.114   9.657  0.1232 -0.3359  0.1750
  976SOD     NA14458   4.582   4.683  14.223 -0.0826  0.0026  0.1019
  977SOD     NA14459   0.200   0.950  16.611 -0.1221 -0.4175  0.0987
  978SOD     NA14460   3.993   1.152   6.270 -0.0002 -1.0371  0.5671
  979SOD     NA14461   1.704   1.280  15.420  0.0563 -0.2293  0.1316
  980SOD     NA14462   1.234   2.920  15.238 -0.5552 -0.2463  0.0148
  981SOD     NA14463   3.369   3.717   0.927 -0.2628 -0.5896  0.8746
  982SOD     NA14464   4.485   2.320  11.105 -0.4423  0.2529 -0.1358
  983SOD     NA14465   4.663   1.862   0.141 -0.1721 -0.6897 -0.0351
  984SOD     NA14466   2.530   1.552  13.288 -0.2958 -0.1217  0.1813
  985SOD     NA14467   0.685   4.132  10.150 -0.4541  0.3103 -0.0398
  986SOD     NA14468   2.108   2.474   3.427  0.0423  0.1700  0.1369
  987SOD     NA14469   0.005   2.647  11.620 -0.3074 -0.3074 -0.2215
  988SOD     NA14470   0.389   3.467  11.029 -0.3912 -0.6143 -0.0369
  989SOD     NA14471   0.968   1.294  11.938 -0.2217  0.1356  0.5342
  990SOD     NA14472   2.194   0.435   0.940 -0.1299 -0.2605  0.1424
  991SOD     NA14473   1.610   3.777  14.845 -0.0315 -0.2847  0.1140
  992SOD     NA14474   0.944   3.119  15.675 -0.5350 -0.5002  0.0208
  993SOD     NA14475   1.484   2.312  10.630  0.0628  0.5078 -0.0644
  994SOD     NA14476   3.846   1.150  10.686  0.6933  0.3127 -0.2853
  995SOD     NA14477   4.618   3.380  14.308  0.1836  0.0451  0.3676
  996SOD     NA14478   3.429   2.182   9.291  0.1444  0.6305  0.3256
  997SOD     NA14479   0.384   2.822  17.512  0.0152 -0.2282  0.1704
  998SOD     NA14480   1.572   2.637   2.588  0.2392 -0.4188 -0.4410
  999SOD     NA14481   3.875   4.600   6.673 -0.1949  0.4348 -0.3019
 1000SOD     NA14482   4.701   4.592  16.553 -0.0881  0.2144 -0.0132
 1001SOD     NA14483   4.270   1.491  10.426  0.3680  0.2645  0.3477
 1002SOD     NA14484   0.176   1.685  12.732 -0.5502  0.0436 -0.0340
 1003SOD     NA14485   2.055   3.315  12.981 -0.0298 -0.1749  0.2342
 1004SOD     NA14486   1.395   0.799   1.410  0.0144  0.0464  0.1790
 1005SOD     NA14487   3.797   3.009  13.805 -0.5245 -0.1556  0.1319
 1006SOD     NA14488   3.530   4.358   2.768 -0.1247 -0.3455 -0.1753
 1007SOD     NA14489   3.961   3.923   8.538 -0.5228 -0.2443  0.1054
 1008SOD     NA14490   1.115   0.325  14.260 -0.0156  0.4074  0.0884
 1009SOD     NA14491   3.595   3.003  15.114  0.2767 -0.4510  0.6612
 1010SOD     NA14492   4.266   0.644   4.813  0.1047  0.0347 -0.0806
 1011SOD     NA14493   4.058   3.421  10.662 -0.0773  0.6095  0.0475
 1012SOL     OW14494   1.502   1.293   5.856 -0.0700 -0.1514 -0.5989
 1012SOL    HW114495   1.526   1.201   5.865 -1.2484 -0.3784  0.3579
 1012SOL    HW214496   1.446   1.309   5.932  0.3425  0.2769 -0.3901
 1013SOL     OW14497   3.478   1.986   9.150 -0.1227  0.3355 -0.0213
 1013SOL    HW114498   3.479   1.947   9.237  0.4895 -2.0043 -1.0723
 1013SOL    HW214499   3.492   1.908   9.096  0.6721 -0.0904  0.8060
 1014SOL     OW14500   3.805   0.573   5.739 -0.0588 -0.9171  0.3825
 1014SOL    HW114501   3.738   0.640   5.750  0.3505 -0.2981 -0.8628
 1014SOL    HW214502   3.873   0.620   5.787 -0.4922 -1.1671  1.2375
 1015SOL     OW14503   4.076   0.982   3.654 -0.2218  0.2405 -0.5398
 1015SOL    HW114504   4.006   0.919   3.640 -0.0044 -0.2698  0.7221
 1015SOL    HW214505   4.150   0.927   3.627 -0.5241 -0.0557 -0.7665
 1016SOL     OW14506   0.875   2.219   9.113 -0.0483 -0.1834 -0.3453
 1016SOL    HW114507   0.851   2.276   9.040 -1.0826  0.9992  0.9237
 1016SOL    HW214508   0.965   2.197   9.090  0.4317  1.1797  0.3068
 1017SOL     OW14509   1.251   2.561   0.203 -0.1183 -0.0974  0.1392
 1017SOL    HW114510   1.300   2.504   0.263  0.1390 -2.4329 -2.2904
 1017SOL    HW214511   1.219   2.501   0.136 -0.1130 -0.0487  0.0932
 1018SOL     OW14512   2.139   0.716   2.940 -0.5438 -0.7792 -0.0704
 1018SOL    HW114513   2.175   0.692   2.855  0.2205  2.2243 -0.6154
 1018SOL    HW214514   2.098   0.801   2.922 -0.1786 -0.3981  0.8961
 1019SOL     OW14515   3.551   3.330   1.653 -0.3329 -0.0318 -0.1154
 1019SOL    HW114516   3.591   3.412   1.682  0.8235 -1.1893  1.6033
 1019SOL    HW214517   3.480   3.317   1.716 -0.1008 -0.8157 -0.0235
 1020SOL     OW14518   0.150   1.779  10.882  0.2809 -0.1060  0.0666
 1020SOL    HW114519   0.134   1.737  10.797 -2.0893 -0.4018  0.6820
 1020SOL    HW214520   0.244   1.796  10.882  0.2818 -0.1274  0.8141
 1021SOL     OW14521   3.391   1.377   8.403  0.0666  0.3128 -0.1181
 1021SOL    HW114522   3.405   1.471   8.417  0.2654  0.3276 -0.4200
 1021SOL    HW214523   3.391   1.352   8.495  1.5877  0.4990 -0.0715
 1022SOL     OW14524   1.951   0.115   8.686 -0.2711  0.1100  0.7230
 1022SOL    HW114525   1.864   0.142   8.657 -0.5057 -1.4907 -0.0539
 1022SOL    HW214526   1.935   0.063   8.766  0.6599 -1.6973 -0.2731
 1023SOL     OW14527   3.764   2.492   9.525  0.0960  0.0795 -0.3939
 1023SOL    HW114528   3.672   2.498   9.501 -0.4441  0.5605  1.8733
 1023SOL    HW214529   3.760   2.513   9.618  0.0875  0.6185 -0.5154
 1024SOL     OW14530   4.244   3.150  11.202 -0.0581 -0.6678  0.1415
 1024SOL    HW114531   4.323   3.194  11.234 -1.5426  1.4700  0.8766
 1024SOL    HW214532   4.199   3.120  11.281  1.1318  3.0407  2.2670
 1025SOL     OW14533   2.770   0.274  16.724 -0.0193 -0.2825  0.2775
 1025SOL    HW114534   2.790   0.329  16.801 -2.1429  0.8235  0.0621
 1025SOL    HW214535   2.863   0.279  16.702 -0.2399  0.8816 -0.4061
 1026SOL     OW14536   2.301   3.924   3.491  0.1691  0.0018  0.2161
 1026SOL    HW114537   2.308   3.897   3.400 -1.0980 -0.0053  0.1129
 1026SOL    HW214538   2.381   3.975   3.503  0.0717  0.4677 -1.2337
 1027SOL     OW14539   1.269   0.686   7.922  0.3048 -0.2211  0.3899
 1027SOL    HW114540   1.344   0.674   7.981  0.3421  2.1806  0.8379
 1027SOL    HW214541   1.202   0.642   7.974 -0.8083 -1.6388 -2.2666
 1028SOL     OW14542   3.762   4.334   0.811  0.7491 -0.6237  0.3750
 1028SOL    HW114543   3.773   4.355   0.904  2.8069  2.1948 -0.5200
 1028SOL    HW214544   3.668   4.318   0.815  0.5673  0.8460  1.6504
 1029SOL     OW14545   1.325   0.733   4.003 -0.2312 -0.1950 -0.0818
 1029SOL    HW114546   1.268   0.693   3.937 -1.5542  1.8969 -0.2069
 1029SOL    HW214547   1.380   0.790   3.950  0.5502 -1.5365 -0.7140
 1030SOL     OW14548   3.425   4.354   1.954  0.0259 -0.2624  0.1135
 1030SOL    HW114549   3.365   4.352   2.029 -0.1787 -2.2000 -0.0960
 1030SOL    HW214550   3.385   4.413   1.890  0.7612 -0.3188 -0.3943
 1031SOL     OW14551   3.799   4.220  17.590  0.1331 -0.2099 -0.4043
 1031SOL    HW114552   3.785   4.312  17.566  0.1505 -0.0589  0.1611
 1031SOL    HW214553   3.887   4.204  17.555  0.3502 -1.5790  0.7773
 1032SOL     OW14554   2.033   4.657  16.609 -0.1894  0.1399  0.2021
 1032SOL    HW114555   2.087   4.630  16.683  0.3504 -0.6099 -0.4647
 1032SOL    HW214556   1.988   4.575  16.587 -1.4229  0.9428 -0.2694
 1033SOL     OW14557   2.444   2.554   6.652  0.4385  0.1643  0.1944
 1033SOL    HW114558   2.411   2.638   6.685 -0.9727 -0.7359  1.0426
 1033SOL    HW214559   2.393   2.492   6.703 -2.0041  0.8949 -1.3336
 1034SOL     OW14560   3.611   2.169   8.873  0.2564  0.1985 -0.1081
 1034SOL    HW114561   3.545   2.165   8.804  1.0593  2.6988 -1.0250
 1034SOL    HW214562   3.566   2.134   8.950 -1.4870  2.9308  0.1254
 1035SOL     OW14563   2.560   1.617   4.489 -0.1300  0.6183  0.1461
 1035SOL    HW114564   2.636   1.593   4.436 -0.0046 -1.8590  1.4069
 1035SOL    HW214565   2.586   1.597   4.579  0.7836  0.6144 -0.1203
 1036SOL     OW14566   2.913   1.815   6.806  0.4549 -0.2225 -0.0690
 1036SOL    HW114567   2.894   1.779   6.892  1.2067  0.9565  0.5788
 1036SOL    HW214568   2.885   1.903   6.828  2.4927  0.5261 -0.4422
 1037SOL     OW14569   3.677   3.637   3.693  0.1597  0.5924  0.1303
 1037SOL    HW114570   3.678   3.577   3.619 -0.0568 -0.6295  1.1161
 1037SOL    HW214571   3.589   3.664   3.717  0.1336  1.8474 -1.3511
 1038SOL     OW14572   3.255   4.455   4.564  0.2436 -0.1153  0.5736
 1038SOL    HW114573   3.310   4.425   4.636 -0.1879  2.5487  2.0117
 1038SOL    HW214574   3.182   4.483   4.619  0.1335  1.3871 -0.3377
 1039SOL     OW14575   1.558   1.380   1.780  0.4027 -0.0350 -0.1256
 1039SOL    HW114576   1.616   1.448   1.816 -0.4023  0.2965  0.5510
 1039SOL    HW214577   1.519   1.425   1.705  3.7654  0.3348 -1.6574
 1040SOL     OW14578   4.503   4.186   6.289  0.2856  0.4411  0.1899
 1040SOL    HW114579   4.493   4.201   6.383  1.5610 -0.1567  0.4287
 1040SOL    HW214580   4.411   4.184   6.266  0.1862 -1.7013  0.7071
 1041SOL     OW14581   4.220   1.535  16.092  0.1597 -0.0302 -0.0741
 1041SOL    HW114582   4.271   1.455  16.079  0.7331  0.6389 -1.9581
 1041SOL    HW214583   4.132   1.516  16.058  0.5863 -1.9339 -0.1212
 1042SOL     OW14584   4.203   0.101   9.693  0.0675  0.4853  0.2456
 1042SOL    HW114585   4.115   0.112   9.729 -0.6797  0.1619 -1.4530
 1042SOL    HW214586   4.246   0.164   9.751 -0.6234  0.8778  0.3356
 1043SOL     OW14587   4.580   1.594   5.623  0.0759  0.4771  0.1958
 1043SOL    HW114588   4.490   1.576   5.595  0.8547 -1.3858 -1.0619
 1043SOL    HW214589   4.592   1.680   5.583  1.8322  0.3559  0.4654
 1044SOL     OW14590   4.693   4.341   4.915  0.1154 -0.1365  0.1301
 1044SOL    HW114591   0.033   4.415   4.896  0.2660 -0.4239 -0.5245
 1044SOL    HW214592   4.604   4.372   4.898  0.0242  1.2305  3.0139
 1045SOL     OW14593   0.624   2.084   8.564  0.3635  0.6100 -0.3818
 1045SOL    HW114594   0.713   2.053   8.583 -0.2730 -0.7147  0.4039
 1045SOL    HW214595   0.584   2.003   8.533  2.5554 -0.1039 -1.3129
 1046SOL     OW14596   1.052   1.726  11.655 -0.0091 -0.1250 -0.1581
 1046SOL    HW114597   1.140   1.695  11.678 -0.4755 -0.3699  1.3022
 1046SOL    HW214598   1.008   1.682  11.728  0.6090 -1.7907 -0.7904
 1047SOL     OW14599   4.425   2.611   8.375  0.2974  0.4163  0.2157
 1047SOL    HW114600   4.411   2.623   8.281  1.1388  0.3634  0.0863
 1047SOL    HW214601   4.408   2.703   8.398 -0.7609  0.4311 -0.6307
 1048SOL     OW14602   3.860   4.351   5.656  0.3477 -0.0530 -0.1447
 1048SOL    HW114603   3.939   4.299   5.672 -0.1430 -1.3556 -1.9586
 1048SOL    HW214604   3.876   4.382   5.567  1.0786 -1.0448 -0.3576
 1049SOL     OW14605   0.736   0.513   5.359 -0.2125  0.1845  0.6261
 1049SOL    HW114606   0.747   0.508   5.264  0.5012  1.2975  0.6456
 1049SOL    HW214607   0.644   0.489   5.364 -0.1230 -0.0788  1.0343
 1050SOL     OW14608   3.793   3.218   6.053 -0.1174 -0.6760 -0.1347
 1050SOL    HW114609   3.841   3.140   6.025  1.4556  0.2448 -0.0164
 1050SOL    HW214610   3.829   3.288   5.999  2.4393 -1.5734  0.3738
 1051SOL     OW14611   2.245   1.886  10.372 -0.3943  0.6668 -0.0335
 1051SOL    HW114612   2.264   1.980  10.373  0.2002  0.5425  0.3216
 1051SOL    HW214613   2.238   1.850  10.284  1.9067 -1.1555  0.5154
 1052SOL     OW14614   2.246   3.730   6.253  0.5072  0.5038  0.3597
 1052SOL    HW114615   2.276   3.805   6.202  0.6566 -0.7913 -1.4711
 1052SOL    HW214616   2.186   3.769   6.317 -0.9800  2.7508 -2.3775
 1053SOL     OW14617   2.727   1.408   6.647  0.0656  0.0010  0.1377
 1053SOL    HW114618   2.683   1.490   6.625 -1.1607 -1.0113 -1.1899
 1053SOL    HW214619   2.678   1.334   6.611 -0.1027 -0.2143  0.7904
 1054SOL     OW14620   0.604   3.913   3.344 -0.6384 -0.1172 -1.1720
 1054SOL    HW114621   0.694   3.899   3.373 -0.9434 -0.6127 -0.4530
 1054SOL    HW214622   0.612   3.967   3.266 -0.3042  1.1273 -0.2897
 1055SOL     OW14623   2.428   3.382   1.765 -0.0081  0.1553  0.4280
 1055SOL    HW114624   2.401   3.412   1.678  1.3285  0.5161  0.1374
 1055SOL    HW214625   2.514   3.422   1.770 -0.8882  2.3204 -1.6229
 1056SOL     OW14626   2.103   1.269  14.456 -0.8159 -0.5289  0.4676
 1056SOL    HW114627   2.126   1.362  14.457  0.0354 -0.7638  2.2563
 1056SOL    HW214628   2.176   1.221  14.495  0.0488 -1.1054 -1.8045
 1057SOL     OW14629   4.655   2.189   4.361  0.1930  0.6272 -0.0063
 1057SOL    HW114630   4.619   2.145   4.284 -0.0170 -2.1602  1.6585
 1057SOL    HW214631   0.001   2.247   4.322 -0.3585  0.0203 -1.8258
 1058SOL     OW14632   1.051   2.869  10.153  0.0085 -0.3297  0.6897
 1058SOL    HW114633   1.119   2.916  10.103  1.0551 -0.1485  2.2803
 1058SOL    HW214634   1.070   2.779  10.128 -2.2546 -1.0540  1.6454
 1059SOL     OW14635   0.601   3.826   5.290 -0.4279 -0.1036  0.1022
 1059SOL    HW114636   0.625   3.742   5.252 -1.9647  1.3432 -4.0693
 1059SOL    HW214637   0.568   3.872   5.214  0.2637 -1.8249 -1.2312
 1060SOL     OW14638   1.255   1.933   7.148 -0.0491  0.3921 -0.1134
 1060SOL    HW114639   1.298   2.007   7.104  1.7113 -0.5279  0.0415
 1060SOL    HW214640   1.163   1.956   7.140 -0.2301  0.2124  1.4512
 1061SOL     OW14641   4.282   1.782   8.671 -0.0035  0.5349 -0.7134
 1061SOL    HW114642   4.225   1.715   8.632  1.0970 -1.1884  0.6113
 1061SOL    HW214643   4.324   1.810   8.590  1.4316 -1.6867 -0.7319
 1062SOL     OW14644   1.854   2.020   5.777 -0.5953  0.5313  0.1371
 1062SOL    HW114645   1.841   1.938   5.825  0.0772 -0.4322 -1.3367
 1062SOL    HW214646   1.946   2.045   5.790 -1.2658  2.9839  0.0650
 1063SOL     OW14647   2.735   2.959   2.814  0.4457  0.2303 -0.5441
 1063SOL    HW114648   2.746   2.886   2.752  1.0766 -0.3459  0.2425
 1063SOL    HW214649   2.644   2.983   2.797  0.4141  0.6731  0.2691
 1064SOL     OW14650   4.002   0.617   4.230 -0.0547  0.1256  0.7153
 1064SOL    HW114651   3.961   0.535   4.204 -2.8645  1.2819  1.5380
 1064SOL    HW214652   4.061   0.627   4.155  3.0521  0.2780  3.1840
 1065SOL     OW14653   3.635   3.349   8.376 -0.3114  0.2838 -0.4823
 1065SOL    HW114654   3.542   3.342   8.399  0.2987 -2.0962  1.1518
 1065SOL    HW214655   3.651   3.443   8.371  0.2414  0.1683 -0.8210
 1066SOL     OW14656   2.683   3.111   7.544  0.1572 -0.3139  0.1210
 1066SOL    HW114657   2.656   3.045   7.609 -0.2384  0.2613  0.5424
 1066SOL    HW214658   2.731   3.175   7.597  1.2991 -2.1535  1.2938
 1067SOL     OW14659   3.438   0.545   5.805 -0.4506  0.5789 -0.1707
 1067SOL    HW114660   3.491   0.471   5.834 -1.7814  0.4698  2.0064
 1067SOL    HW214661   3.471   0.625   5.844 -1.0706  0.6433  0.2169
 1068SOL     OW14662   3.679   4.008   3.628 -0.5806 -0.1386  0.0011
 1068SOL    HW114663   3.721   3.933   3.587  1.3049  1.1187 -0.3712
 1068SOL    HW214664   3.673   4.070   3.556  0.6186 -1.3325 -1.1042
 1069SOL     OW14665   0.114   2.755   9.766  0.0078 -0.5194  0.0612
 1069SOL    HW114666   0.140   2.716   9.849 -0.3499  0.0909  0.4638
 1069SOL    HW214667   0.197   2.782   9.726  0.3300 -1.9031 -0.2155
 1070SOL     OW14668   3.158   4.529   9.245 -0.7635 -0.0113 -0.8865
 1070SOL    HW114669   3.197   4.616   9.241 -1.0651  0.3762  4.0621
 1070SOL    HW214670   3.150   4.503   9.153 -0.9994 -2.2353 -0.2483
 1071SOL     OW14671   3.566   3.140   8.731 -0.5594 -0.0263  0.7249
 1071SOL    HW114672   3.651   3.117   8.694 -0.1500  2.8292 -0.0564
 1071SOL    HW214673   3.538   3.064   8.781  2.0140 -0.7436  1.0821
 1072SOL     OW14674   2.624   2.953   8.672  0.0667 -0.3629  0.6347
 1072SOL    HW114675   2.567   2.918   8.741  0.1782  0.5363  1.1868
 1072SOL    HW214676   2.690   2.978   8.736 -0.2553  0.1379  0.7648
 1073SOL     OW14677   4.145   0.099   7.901  0.0483  0.1191  0.9576
 1073SOL    HW114678   4.176   0.039   7.834 -1.9061  0.5134 -0.3060
 1073SOL    HW214679   4.136   0.053   7.984 -0.4464 -1.2358  0.1601
 1074SOL     OW14680   2.026   3.594   3.615  0.5315 -0.0638 -0.3823
 1074SOL    HW114681   1.942   3.555   3.589  0.5441  0.2233 -0.8505
 1074SOL    HW214682   1.981   3.671   3.650  0.8200  0.2196 -0.6372
 1075SOL     OW14683   4.447   1.177   2.278  0.0092  0.0258 -0.4159
 1075SOL    HW114684   4.421   1.168   2.187 -1.9236  0.2210  0.1296
 1075SOL    HW214685   4.364   1.160   2.322  1.3923 -1.7981  1.5214
 1076SOL     OW14686   1.228   0.769   4.484 -0.3469 -0.1939 -0.4892
 1076SOL    HW114687   1.253   0.734   4.570 -1.1153  0.8431  0.1594
 1076SOL    HW214688   1.317   0.766   4.451  0.1730  0.8376  0.8546
 1077SOL     OW14689   4.384   1.624   4.171 -0.0881 -0.1970 -0.0296
 1077SOL    HW114690   4.439   1.701   4.167 -2.0098  1.2002  0.3552
 1077SOL    HW214691   4.427   1.568   4.236  1.8630  0.8348 -0.4324
 1078SOL     OW14692   1.700   2.049  11.759 -0.2395 -0.2158  0.2733
 1078SOL    HW114693   1.715   2.138  11.728  0.2271  0.3519  2.1153
 1078SOL    HW214694   1.788   2.014  11.766  0.2023  0.9934  0.8536
 1079SOL     OW14695   2.418   3.103   2.395  0.0608 -0.3044  0.4072
 1079SOL    HW114696   2.338   3.137   2.435  0.4941  0.0764  0.9565
 1079SOL    HW214697   2.387   3.088   2.306  1.7408 -1.4547  0.0141
 1080SOL     OW14698   2.790   0.068   4.600  0.0628  0.7290  0.6106
 1080SOL    HW114699   2.866   0.019   4.567 -1.6366  0.1595 -2.3511
 1080SOL    HW214700   2.827   0.106   4.680 -0.9814  0.4496  1.2285
 1081SOL     OW14701   3.241   3.995  11.065 -0.4000 -0.0673  0.2136
 1081SOL    HW114702   3.171   3.965  11.007  1.4065  0.7837 -2.4116
 1081SOL    HW214703   3.291   3.915  11.050 -0.7972 -0.0662 -1.1333
 1082SOL     OW14704   2.452   1.369   2.901 -0.0043 -0.0065 -0.5229
 1082SOL    HW114705   2.388   1.433   2.869 -1.0543 -0.0888  1.4287
 1082SOL    HW214706   2.445   1.317   2.821 -0.4861 -2.3612  1.0535
 1083SOL     OW14707   2.942   4.513   2.579 -0.3323  0.0899  0.6309
 1083SOL    HW114708   3.008   4.583   2.580 -1.1461  0.8884 -1.7298
 1083SOL    HW214709   2.893   4.529   2.499  0.1158 -1.4635  0.0558
 1084SOL     OW14710   3.186   0.749   9.568  0.3016  0.0877 -0.3166
 1084SOL    HW114711   3.235   0.800   9.633  1.5983 -1.2002 -0.2742
 1084SOL    HW214712   3.135   0.686   9.619 -0.6697  1.4392  0.3806
 1085SOL     OW14713   0.012   0.904   3.742  0.4223  0.8955  0.1200
 1085SOL    HW114714   4.701   0.874   3.827  1.4455 -0.1439  0.1135
 1085SOL    HW214715   0.095   0.857   3.738  0.2941  0.9155 -2.8402
 1086SOL     OW14716   0.605   3.895   6.508  0.5834 -0.5199 -0.4286
 1086SOL    HW114717   0.700   3.894   6.518  0.2994  1.2971  2.3184
 1086SOL    HW214718   0.594   3.927   6.418 -1.0454 -0.1329 -0.0867
 1087SOL     OW14719   0.986   0.469   5.454 -0.1358 -0.6773 -0.2331
 1087SOL    HW114720   1.039   0.408   5.403  2.3079  1.3223 -0.0855
 1087SOL    HW214721   0.908   0.463   5.398  0.7916  0.5653 -1.6959
 1088SOL     OW14722   4.173   4.268   0.960  0.3025  0.2177  0.3811
 1088SOL    HW114723   4.109   4.257   0.890 -0.4291 -2.5330  1.4881
 1088SOL    HW214724   4.198   4.358   0.939 -1.8221  0.9835  1.1422
 1089SOL     OW14725   1.598   3.642   8.361  0.0333  0.5747 -0.2207
 1089SOL    HW114726   1.659   3.685   8.421  1.5397 -0.7548 -0.7936
 1089SOL    HW214727   1.662   3.608   8.298 -0.5122 -1.7786  0.4709
 1090SOL     OW14728   3.421   4.388  14.270  0.4793 -0.0136 -0.5335
 1090SOL    HW114729   3.360   4.438  14.326  1.0087  0.5109 -0.4258
 1090SOL    HW214730   3.357   4.341  14.217 -2.0722  1.3626  1.2636
 1091SOL     OW14731   3.954   1.227   1.891  0.5923  0.3245 -1.1515
 1091SOL    HW114732   3.978   1.301   1.834 -2.2936  1.1130 -1.3345
 1091SOL    HW214733   3.920   1.168   1.824  0.4240 -0.6129 -0.2271
 1092SOL     OW14734   3.629   1.076   7.519 -0.6192 -0.1683 -0.3488
 1092SOL    HW114735   3.718   1.089   7.551 -0.7185 -0.4857  0.0607
 1092SOL    HW214736   3.577   1.076   7.599  2.1957  0.5988  1.4799
 1093SOL     OW14737   4.279   2.144   7.488 -0.1907 -0.7081  0.6242
 1093SOL    HW114738   4.270   2.089   7.410 -0.9685 -0.5973  0.6335
 1093SOL    HW214739   4.188   2.174   7.497 -0.2177 -0.6977  0.3349
 1094SOL     OW14740   4.425   0.374  17.446  0.1295  0.0661 -0.4355
 1094SOL    HW114741   4.350   0.328  17.483  1.5808 -1.1966  0.9315
 1094SOL    HW214742   4.376   0.454  17.424 -3.0145 -2.1373 -1.4372
 1095SOL     OW14743   2.036   3.333   5.471  0.4060 -0.6103 -0.7701
 1095SOL    HW114744   2.119   3.343   5.424  0.5314 -1.6744 -0.7752
 1095SOL    HW214745   1.978   3.341   5.396 -0.3823 -0.8514 -0.1849
 1096SOL     OW14746   1.955   1.975   6.379 -0.3358 -0.8530 -0.3908
 1096SOL    HW114747   1.895   1.971   6.453  1.2584 -0.6882  0.9161
 1096SOL    HW214748   1.998   2.061   6.384  0.4122 -1.3798  2.3236
 1097SOL     OW14749   0.756   4.552   8.852  0.5192 -0.0167 -0.5256
 1097SOL    HW114750   0.763   4.628   8.909 -0.4512  0.3922 -0.9562
 1097SOL    HW214751   0.683   4.574   8.794  1.3273  1.1313 -1.1074
 1098SOL     OW14752   0.349   4.252  16.316 -0.1530 -0.0414 -0.3205
 1098SOL    HW114753   0.275   4.247  16.377  0.0949  1.1581  0.0732
 1098SOL    HW214754   0.300   4.263  16.234 -2.1661 -0.8094  0.7584
 1099SOL     OW14755   3.033   2.280   3.916  0.2601  0.5317  0.4869
 1099SOL    HW114756   3.004   2.254   4.003  3.0659  0.7043  1.4448
 1099SOL    HW214757   2.963   2.249   3.857  0.2716  1.0414  0.2047
 1100SOL     OW14758   2.097   1.596  12.002 -0.0898 -0.1081 -0.3278
 1100SOL    HW114759   2.102   1.501  12.017  0.8227  0.3119  2.0165
 1100SOL    HW214760   2.083   1.620  12.093 -1.1387  0.4678 -0.6403
 1101SOL     OW14761   3.855   2.405  16.401  0.2820  0.1937 -0.1054
 1101SOL    HW114762   3.831   2.313  16.412 -0.4027  0.5095  0.9922
 1101SOL    HW214763   3.767   2.433  16.374  0.1952 -0.0002 -0.0250
 1102SOL     OW14764   0.221   2.047   5.580 -0.2492 -0.8906 -0.1862
 1102SOL    HW114765   0.203   2.007   5.495  0.2148 -0.0208 -0.6926
 1102SOL    HW214766   0.138   2.051   5.626 -0.3889 -1.4810 -0.3867
 1103SOL     OW14767   0.280   1.313   0.579  0.5011  0.4275 -0.6622
 1103SOL    HW114768   0.259   1.357   0.661  2.0750 -0.7513  0.3779
 1103SOL    HW214769   0.223   1.237   0.589  0.4288  0.3632 -1.5898
 1104SOL     OW14770   0.428   4.428   6.169  0.8349  0.1670 -0.4503
 1104SOL    HW114771   0.507   4.482   6.164 -0.9168  2.8186  0.7088
 1104SOL    HW214772   0.375   4.486   6.223  1.9330  1.2895 -0.5499
 1105SOL     OW14773   1.802   1.485   0.737  0.2487  0.1694 -0.5561
 1105SOL    HW114774   1.780   1.561   0.791  1.4833  1.1408 -1.4279
 1105SOL    HW214775   1.774   1.527   0.656 -0.6399  0.1240 -0.2702
 1106SOL     OW14776   0.008   3.647   9.833  0.4850  0.3024 -0.7465
 1106SOL    HW114777   0.053   3.680   9.910 -1.2156  1.4705 -0.2364
 1106SOL    HW214778   4.688   3.730   9.804 -1.7776 -0.9496 -1.2939
 1107SOL     OW14779   0.750   0.286  14.279  0.0048  0.7978 -0.1292
 1107SOL    HW114780   0.778   0.269  14.189 -1.2216  0.6674 -0.4816
 1107SOL    HW214781   0.833   0.283  14.328 -1.5067 -2.2324  2.2756
 1108SOL     OW14782   2.415   2.671  11.310 -0.7036 -0.2304 -0.2815
 1108SOL    HW114783   2.350   2.638  11.372  0.5253 -0.1136  1.0683
 1108SOL    HW214784   2.360   2.683  11.232  1.5422  0.5717 -1.7514
 1109SOL     OW14785   4.128   3.916   5.934  0.3594 -0.1284 -0.1898
 1109SOL    HW114786   4.145   3.850   5.867 -0.1431 -0.0466 -0.4011
 1109SOL    HW214787   4.057   3.870   5.978  0.9664 -0.0355  0.8818
 1110SOL     OW14788   1.610   0.453   5.507  0.6191  0.1164  0.1809
 1110SOL    HW114789   1.594   0.547   5.514 -1.4995 -0.2881  0.8422
 1110SOL    HW214790   1.540   0.439   5.443  0.7373  0.3226  0.0074
 1111SOL     OW14791   3.283   2.039   1.276  0.0555  0.3152  0.1852
 1111SOL    HW114792   3.267   2.020   1.369 -0.6302 -0.3240 -0.0690
 1111SOL    HW214793   3.255   1.957   1.235 -0.5261 -0.2154  1.6458
 1112SOL     OW14794   2.667   3.488   8.711 -0.1504 -0.0255  0.1652
 1112SOL    HW114795   2.636   3.455   8.796  2.3530  0.6218  1.3542
 1112SOL    HW214796   2.637   3.419   8.652 -1.7212  0.7451  0.0595
 1113SOL     OW14797   3.114   4.662   2.037 -0.6052 -0.2206 -0.0756
 1113SOL    HW114798   3.089   4.573   2.062  1.2694 -0.6923  0.1323
 1113SOL    HW214799   3.036   4.697   2.079 -0.4580 -2.2612  1.8928
 1114SOL     OW14800   4.256   1.096  10.403 -0.0162  0.3957 -0.3536
 1114SOL    HW114801   4.319   1.128  10.467 -0.4182  0.6174 -0.0622
 1114SOL    HW214802   4.194   1.169  10.396 -2.3504 -1.5708 -0.2641
 1115SOL     OW14803   0.966   0.542   4.400  0.3781 -0.1675 -0.4780
 1115SOL    HW114804   1.033   0.569   4.337  0.5873 -0.4949 -0.3981
 1115SOL    HW214805   1.002   0.465   4.444 -1.7491 -1.0254 -0.2338
 1116SOL     OW14806   1.806   0.517  12.358 -0.0769 -0.1311 -0.0721
 1116SOL    HW114807   1.804   0.612  12.365 -0.2784 -0.0819 -0.8404
 1116SOL    HW214808   1.770   0.510  12.447 -0.5954  1.0985 -0.1872
 1117SOL     OW14809   3.649   2.071   7.456  0.0267  0.2893  0.3179
 1117SOL    HW114810   3.640   2.111   7.542 -0.4218  0.0475  0.3844
 1117SOL    HW214811   3.695   1.990   7.479  0.1183  0.6356  1.3462
 1118SOL     OW14812   3.944   3.864  10.637 -0.1289  0.0527 -0.3573
 1118SOL    HW114813   3.985   3.944  10.669  0.1901  0.4795 -1.8287
 1118SOL    HW214814   3.861   3.880  10.681 -0.3985 -2.6781  0.1142
 1119SOL     OW14815   4.220   0.574  17.407 -0.4990  0.4718 -0.8756
 1119SOL    HW114816   4.215   0.658  17.451 -2.0275 -0.8601  1.4960
 1119SOL    HW214817   4.141   0.530  17.438 -1.2216 -0.8249 -4.5512
 1120SOL     OW14818   0.198   4.490  16.028 -0.2391 -0.0016  0.1661
 1120SOL    HW114819   0.198   4.399  16.058  0.3069 -0.8804 -2.4729
 1120SOL    HW214820   0.273   4.519  16.080 -0.6235 -0.0969  0.7655
 1121SOL     OW14821   1.500   3.955   5.064 -0.0091  0.0766 -0.1260
 1121SOL    HW114822   1.420   3.903   5.055  1.1310 -1.7650  0.4232
 1121SOL    HW214823   1.547   3.930   4.984 -0.5047  2.8203 -1.2839
 1122SOL     OW14824   1.662   3.809  14.582  0.4289  0.0578  0.0347
 1122SOL    HW114825   1.613   3.757  14.518  1.0319  0.2366 -0.5725
 1122SOL    HW214826   1.706   3.734  14.622  0.7302  0.3907  0.3187
 1123SOL     OW14827   1.131   3.431   7.700 -0.6806  0.0866 -0.2462
 1123SOL    HW114828   1.194   3.382   7.646 -0.8677 -1.4688  0.9243
 1123SOL    HW214829   1.144   3.388   7.785  6.3921  3.0860  0.2418
 1124SOL     OW14830   2.776   3.502   2.880 -0.2281 -0.1475 -0.0778
 1124SOL    HW114831   2.763   3.414   2.847 -1.2222 -0.6051  1.5365
 1124SOL    HW214832   2.730   3.561   2.820  1.3531 -0.4430 -1.5790
 1125SOL     OW14833   3.951   1.406   7.969  0.3773  0.2037 -0.3626
 1125SOL    HW114834   3.894   1.477   7.999  0.0432 -0.6355  0.9958
 1125SOL    HW214835   4.017   1.457   7.921  0.5150  1.3421  1.0346
 1126SOL     OW14836   1.057   0.977   4.547  0.2932 -0.3584 -0.1366
 1126SOL    HW114837   0.969   0.940   4.544 -0.6130  1.6645  1.7262
 1126SOL    HW214838   1.103   0.898   4.518  1.9748  0.9034 -0.8452
 1127SOL     OW14839   4.230   2.792   8.598  0.1417  0.2686 -0.0239
 1127SOL    HW114840   4.171   2.730   8.554  0.6315 -1.1360  1.3067
 1127SOL    HW214841   4.167   2.836   8.656 -0.3738  0.2326 -0.5572
 1128SOL     OW14842   0.584   2.241   8.801 -0.0047  0.4924  0.1285
 1128SOL    HW114843   0.547   2.203   8.881 -1.2967  1.0514 -0.2045
 1128SOL    HW214844   0.586   2.167   8.740 -2.0577  1.1002 -0.6698
 1129SOL     OW14845   0.464   0.774   5.066  0.6022  0.2703  0.4088
 1129SOL    HW114846   0.504   0.716   5.002 -0.5326  0.4968 -0.5194
 1129SOL    HW214847   0.531   0.841   5.072  1.3483 -0.4496  0.1395
 1130SOL     OW14848   4.442   2.367  12.622 -0.5862 -0.1923 -0.4196
 1130SOL    HW114849   4.473   2.426  12.553 -2.1200 -2.1986 -2.8460
 1130SOL    HW214850   4.441   2.285  12.572 -0.2649 -0.5695  0.1904
 1131SOL     OW14851   3.882   0.088   5.993  0.5692 -0.2329 -0.0639
 1131SOL    HW114852   3.823   0.028   6.038 -0.3223  1.3697  0.8795
 1131SOL    HW214853   3.943   0.087   6.067  0.3024 -2.5912  0.1361
 1132SOL     OW14854   4.406   0.864  12.626  0.7593 -0.1770 -0.0716
 1132SOL    HW114855   4.491   0.835  12.661  1.0673 -2.2142 -2.5544
 1132SOL    HW214856   4.355   0.784  12.623 -0.7733  0.7029  2.6075
 1133SOL     OW14857   2.535   2.574   4.812  0.1176  0.3490 -0.1349
 1133SOL    HW114858   2.585   2.500   4.846 -1.9311 -0.7491  0.4616
 1133SOL    HW214859   2.594   2.594   4.739  0.7804 -0.4068  0.1898
 1134SOL     OW14860   3.222   4.181   5.422  0.4336 -0.2240  0.1696
 1134SOL    HW114861   3.291   4.115   5.431  0.8704  0.3574  1.1140
 1134SOL    HW214862   3.185   4.194   5.509 -2.2594 -1.7436 -0.7549
 1135SOL     OW14863   0.956   2.301   8.343  0.4976 -0.2780  0.0610
 1135SOL    HW114864   0.968   2.209   8.367  1.9952  0.0053  0.4284
 1135SOL    HW214865   0.901   2.337   8.412  0.7837  1.5535 -0.6595
 1136SOL     OW14866   4.295   4.460   5.628 -0.3762 -0.0646 -0.0208
 1136SOL    HW114867   4.283   4.532   5.689 -0.1097  1.0566 -1.2906
 1136SOL    HW214868   4.333   4.388   5.679  0.4785  1.5342  1.5968
 1137SOL     OW14869   3.664   0.224  17.135 -0.1481 -0.1525  0.3133
 1137SOL    HW114870   3.636   0.219  17.043 -0.2446 -0.5521  0.3652
 1137SOL    HW214871   3.746   0.270  17.118  0.3021 -1.2581 -0.5470
 1138SOL     OW14872   2.875   3.902   4.169  0.7234 -0.1242  0.2190
 1138SOL    HW114873   2.889   3.822   4.220  1.1655 -0.0459  0.2207
 1138SOL    HW214874   2.780   3.908   4.177  0.6100  1.9062 -2.6729
 1139SOL     OW14875   4.055   3.785   3.890  0.4342  0.0205 -0.1102
 1139SOL    HW114876   4.031   3.702   3.849  1.4356  0.8615 -2.4223
 1139SOL    HW214877   4.145   3.794   3.858 -0.1187  2.8792 -0.8980
 1140SOL     OW14878   3.550   2.621   1.088 -0.0896 -0.6079  0.2673
 1140SOL    HW114879   3.494   2.644   1.014 -0.2618  0.6864  0.7955
 1140SOL    HW214880   3.495   2.650   1.161  1.0926 -2.7704  1.9949
 1141SOL     OW14881   0.340   3.341   3.688 -0.1301  0.1843 -0.2571
 1141SOL    HW114882   0.350   3.403   3.616  1.4204 -0.3944 -0.5476
 1141SOL    HW214883   0.297   3.390   3.758 -2.2105  2.0751 -2.8649
 1142SOL     OW14884   0.821   2.805  16.945 -0.2955 -0.0333 -0.2872
 1142SOL    HW114885   0.781   2.805  17.032 -1.5782  2.2375 -0.8630
 1142SOL    HW214886   0.825   2.711  16.931  0.1407 -0.0883  0.2043
 1143SOL     OW14887   0.038   0.583  13.419  0.2277  0.2875  0.1503
 1143SOL    HW114888   0.118   0.635  13.418 -0.7088  1.8146  2.7038
 1143SOL    HW214889   4.707   0.620  13.492  0.8230 -0.7551  1.0895
 1144SOL     OW14890   2.756   0.667   2.853 -0.5536 -0.3316  0.0804
 1144SOL    HW114891   2.705   0.706   2.924  0.0504 -1.7382  1.2813
 1144SOL    HW214892   2.738   0.730   2.783  0.3261 -0.4003 -0.2161
 1145SOL     OW14893   4.652   4.194   5.721  0.4419  0.1097  0.0655
 1145SOL    HW114894   4.708   4.117   5.735 -0.1748 -0.2075  0.8167
 1145SOL    HW214895   4.679   4.238   5.641 -0.0362  0.9837  0.3876
 1146SOL     OW14896   0.742   3.910   7.991  0.5359 -0.4179  0.1161
 1146SOL    HW114897   0.719   3.968   7.917 -1.2229 -1.5704 -0.2481
 1146SOL    HW214898   0.739   3.821   7.957  0.3703 -1.1136  1.9851
 1147SOL     OW14899   3.652   4.188  16.789  0.0249  0.3015 -0.1336
 1147SOL    HW114900   3.636   4.133  16.712  0.0863 -1.1402  0.8844
 1147SOL    HW214901   3.661   4.122  16.858 -1.0261 -0.3241 -0.5820
 1148SOL     OW14902   0.081   1.790   8.391 -0.1142 -0.1234  0.2150
 1148SOL    HW114903   0.013   1.804   8.457  2.2866 -1.4260  2.9433
 1148SOL    HW214904   0.126   1.875   8.381 -1.3162  0.2431 -2.0078
 1149SOL     OW14905   0.597   1.000   1.978 -0.0853  0.3184 -0.0553
 1149SOL    HW114906   0.673   1.014   2.034  0.2979  0.0790 -0.5152
 1149SOL    HW214907   0.574   1.091   1.958 -0.6125  0.2280  0.1503
 1150SOL     OW14908   3.113   0.076   3.414  0.1201 -0.2921  0.3354
 1150SOL    HW114909   3.137   0.168   3.404  0.8900 -0.5774 -0.4388
 1150SOL    HW214910   3.083   0.076   3.505  0.5662 -2.6633  0.4991
 1151SOL     OW14911   1.343   3.724   7.171 -0.0058  0.2486  0.3100
 1151SOL    HW114912   1.341   3.640   7.216 -0.1378 -0.7458 -1.5574
 1151SOL    HW214913   1.265   3.769   7.202 -0.2728  0.3676 -0.5330
 1152SOL     OW14914   0.313   1.794  15.823  0.1709 -0.3156 -0.2772
 1152SOL    HW114915   0.380   1.787  15.891  0.6228  0.0742 -0.6879
 1152SOL    HW214916   0.270   1.708  15.825 -1.9074  0.7671  1.3410
 1153SOL     OW14917   2.530   0.430   4.280 -0.4169  0.9023  0.2746
 1153SOL    HW114918   2.485   0.495   4.334 -0.4148  0.9526  0.2171
 1153SOL    HW214919   2.522   0.471   4.194 -1.9591 -0.0435 -0.0337
 1154SOL     OW14920   4.565   2.873   9.846  0.2491  0.3865 -0.1688
 1154SOL    HW114921   4.553   2.783   9.877 -1.2749  1.4397  2.3494
 1154SOL    HW214922   4.649   2.859   9.804  0.3969  0.1648  0.2027
 1155SOL     OW14923   0.708   4.411   5.309 -1.0285 -0.1770  0.0895
 1155SOL    HW114924   0.619   4.419   5.343 -1.4985 -1.7835 -0.8082
 1155SOL    HW214925   0.767   4.417   5.385  0.6735  3.3075 -1.4938
 1156SOL     OW14926   3.554   4.669   1.721  0.7744 -0.0559 -0.0201
 1156SOL    HW114927   3.564   4.704   1.809  1.8936  2.1027 -0.9952
 1156SOL    HW214928   3.645   4.664   1.692  0.7155 -0.9793 -0.0692
 1157SOL     OW14929   4.132   1.315   6.889  0.4155  0.6770  0.4180
 1157SOL    HW114930   4.203   1.314   6.824 -0.0390  0.9402 -0.0850
 1157SOL    HW214931   4.071   1.381   6.857 -0.9660 -0.0762  1.4983
 1158SOL     OW14932   3.263   3.542   4.316 -0.3194  0.1896 -0.0095
 1158SOL    HW114933   3.276   3.496   4.398  1.2132 -0.6117 -0.7052
 1158SOL    HW214934   3.187   3.597   4.337 -0.7782 -0.7228  0.6879
 1159SOL     OW14935   0.734   0.500   8.471 -0.0943  0.1236 -0.3727
 1159SOL    HW114936   0.718   0.411   8.441  1.6157 -0.6186  0.8997
 1159SOL    HW214937   0.747   0.486   8.565  2.4810  1.7437 -0.4975
 1160SOL     OW14938   3.262   4.380   5.262  0.1137 -0.7358  0.9422
 1160SOL    HW114939   3.356   4.395   5.254 -0.0227 -0.0065  0.6905
 1160SOL    HW214940   3.265   4.296   5.307  1.3084 -1.2415 -0.1032
 1161SOL     OW14941   3.984   4.381   6.104 -0.0183 -0.3377  0.0448
 1161SOL    HW114942   3.980   4.309   6.166  2.0856 -1.1831 -0.7947
 1161SOL    HW214943   3.910   4.360   6.048  1.0078 -1.3204 -0.9491
 1162SOL     OW14944   4.041   4.363   4.494  0.1223 -0.0586 -0.3115
 1162SOL    HW114945   4.007   4.324   4.414 -1.2567  2.8456 -1.1312
 1162SOL    HW214946   3.972   4.330   4.552 -0.9766  1.5441 -0.7213
 1163SOL     OW14947   1.715   1.388   1.551 -0.0680 -0.4390  0.2525
 1163SOL    HW114948   1.740   1.305   1.511 -1.0896 -0.7191  0.2124
 1163SOL    HW214949   1.622   1.383   1.531 -0.4036  1.7785  1.2136
 1164SOL     OW14950   1.690   2.973   6.526  0.2461  0.0705 -0.1989
 1164SOL    HW114951   1.595   2.984   6.539  0.2996  1.8725 -1.2905
 1164SOL    HW214952   1.707   3.067   6.534 -0.3822  0.0385  1.4167
 1165SOL     OW14953   0.008   4.566   2.928  0.2325  0.6021  0.6035
 1165SOL    HW114954   0.056   4.494   2.888 -1.9575 -1.0231  0.8996
 1165SOL    HW214955   0.073   4.601   2.989  0.6382  0.1139  0.4546
 1166SOL     OW14956   3.865   1.103  12.739  0.2124  0.4555  0.1234
 1166SOL    HW114957   3.796   1.039  12.755  0.3951  0.3173  0.3519
 1166SOL    HW214958   3.928   1.085  12.809 -1.3354 -0.4629  1.2795
 1167SOL     OW14959   2.296   4.602   9.718 -0.3251 -0.8123 -0.0576
 1167SOL    HW114960   2.357   4.557   9.776  0.8077 -1.7263 -1.9482
 1167SOL    HW214961   2.275   4.526   9.663  2.0873 -2.1387  0.8797
 1168SOL     OW14962   1.528   4.012   3.728 -0.5131  0.6964 -0.5568
 1168SOL    HW114963   1.466   4.005   3.800 -0.7079  0.2891 -0.7596
 1168SOL    HW214964   1.551   4.105   3.735  2.0555  0.1569 -1.6154
 1169SOL     OW14965   1.749   3.621  12.908  0.7515 -0.5108 -0.0489
 1169SOL    HW114966   1.655   3.637  12.911  0.4771 -2.0307 -1.0878
 1169SOL    HW214967   1.771   3.643  12.999  0.5314 -0.3400 -0.0361
 1170SOL     OW14968   1.851   0.142   6.012 -0.4366 -0.0499 -0.0408
 1170SOL    HW114969   1.873   0.108   5.926  0.5568 -0.5750  0.4206
 1170SOL    HW214970   1.759   0.162   5.992 -0.3063  2.6606  2.1281
 1171SOL     OW14971   2.936   1.835   9.318 -0.3372  0.0752  0.3212
 1171SOL    HW114972   2.910   1.745   9.299  1.7536 -0.2604 -0.9580
 1171SOL    HW214973   2.963   1.829   9.410  4.4524 -1.2762 -1.1539
 1172SOL     OW14974   0.368   0.728   7.314  0.6170 -0.2390  0.0260
 1172SOL    HW114975   0.362   0.680   7.397  0.6713 -0.2924 -0.0007
 1172SOL    HW214976   0.394   0.657   7.255 -0.9085 -0.8008  0.0257
 1173SOL     OW14977   0.386   1.186   6.537  0.2335 -0.2825 -0.4156
 1173SOL    HW114978   0.301   1.227   6.521  0.6761  0.7696 -0.0798
 1173SOL    HW214979   0.392   1.119   6.469  0.2314  0.7430 -1.4355
 1174SOL     OW14980   0.107   3.364   7.297  0.5457 -0.4093  0.1975
 1174SOL    HW114981   0.027   3.411   7.272  0.4062  0.3598  2.0298
 1174SOL    HW214982   0.095   3.337   7.388 -3.5970 -0.6870 -0.4180
 1175SOL     OW14983   0.301   2.584   1.881  0.0839 -0.1403  0.4115
 1175SOL    HW114984   0.373   2.627   1.926  2.4046 -0.3167 -3.1312
 1175SOL    HW214985   0.311   2.492   1.904  0.3906 -0.0761  0.5271
 1176SOL     OW14986   3.130   3.763   8.851  0.3786  0.0422  0.3179
 1176SOL    HW114987   3.061   3.698   8.839  0.8244 -0.4758  0.5554
 1176SOL    HW214988   3.170   3.739   8.935 -0.1835  1.0755  0.8742
 1177SOL     OW14989   3.624   1.508   9.875  0.1722  0.0376 -0.4158
 1177SOL    HW114990   3.697   1.446   9.869  0.2596  0.4051 -2.8555
 1177SOL    HW214991   3.635   1.541   9.965 -1.3274 -0.9272  0.1266
 1178SOL     OW14992   0.028   3.317   1.957 -0.1160 -0.4792  1.2592
 1178SOL    HW114993   0.017   3.256   1.884  1.9130  1.1071 -0.3721
 1178SOL    HW214994   0.102   3.369   1.926 -0.0649 -1.3533 -0.1107
 1179SOL     OW14995   2.835   3.620  17.377  0.1493  0.3122  0.2016
 1179SOL    HW114996   2.791   3.705  17.372 -1.7866 -0.9211 -3.6638
 1179SOL    HW214997   2.853   3.622  17.471  0.2403 -2.7551  0.2557
 1180SOL     OW14998   4.271   0.116  12.201  0.3458  0.3608  0.1945
 1180SOL    HW114999   4.294   0.070  12.282 -2.0030 -1.1380  0.0342
 1180SOL    HW215000   4.343   0.093  12.143 -0.8015 -0.7936 -0.7871
 1181SOL     OW15001   2.047   4.708   5.070  0.1061 -0.2853 -0.5095
 1181SOL    HW115002   2.075   4.685   5.159 -1.0230 -1.3124 -0.4141
 1181SOL    HW215003   1.998   0.070   5.082  2.5391  1.1169 -0.1184
 1182SOL     OW15004   1.471   4.295  15.303 -0.5748  0.7076 -0.0019
 1182SOL    HW115005   1.558   4.289  15.343 -0.9222 -0.0124  0.6647
 1182SOL    HW215006   1.420   4.235  15.358 -1.7984  1.1542 -0.6362
 1183SOL     OW15007   0.480   4.530   8.380 -0.2289  0.4342 -0.5328
 1183SOL    HW115008   0.508   4.449   8.423  1.0891  0.7737 -0.7490
 1183SOL    HW215009   0.405   4.557   8.434 -0.0308 -0.1401  0.0378
 1184SOL     OW15010   1.808   0.540   8.721  0.4781 -0.0710  0.5076
 1184SOL    HW115011   1.891   0.576   8.753 -0.6224  2.2579  0.7269
 1184SOL    HW215012   1.836   0.492   8.643  0.8773  0.5183  0.2894
 1185SOL     OW15013   0.605   1.976  11.224  0.2765 -0.4572  0.3205
 1185SOL    HW115014   0.627   2.064  11.193  2.7005 -1.6675 -1.4301
 1185SOL    HW215015   0.689   1.934  11.242 -0.0590 -0.1565  2.4922
 1186SOL     OW15016   0.561   4.256  11.295 -0.3830 -0.1146 -0.4796
 1186SOL    HW115017   0.556   4.287  11.385  1.1066  0.8534 -0.7317
 1186SOL    HW215018   0.553   4.161  11.309  0.5576 -0.2711 -1.0100
 1187SOL     OW15019   0.740   1.195   8.248 -0.1440  0.6600  0.4855
 1187SOL    HW115020   0.645   1.195   8.264 -0.4682  1.6317 -1.4875
 1187SOL    HW215021   0.773   1.172   8.335  0.7984  2.5160  0.5935
 1188SOL     OW15022   0.124   0.602   6.917 -0.4524 -0.1696  0.1639
 1188SOL    HW115023   0.132   0.568   6.828  0.4377  0.7402 -0.1044
 1188SOL    HW215024   0.151   0.522   6.961 -0.8545  1.0082  2.5281
 1189SOL     OW15025   3.690   4.108   9.161  0.3097 -0.2503 -0.5794
 1189SOL    HW115026   3.607   4.145   9.192  0.2973 -0.4036 -0.4285
 1189SOL    HW215027   3.754   4.173   9.189 -0.4208  0.3621 -0.3349
 1190SOL     OW15028   3.380   4.352  15.784  0.3082  0.4335 -0.4441
 1190SOL    HW115029   3.337   4.304  15.855  0.3080 -0.5091 -1.0761
 1190SOL    HW215030   3.395   4.276  15.727 -1.4696 -0.8919  0.8541
 1191SOL     OW15031   3.700   0.949   2.307 -0.0047 -0.5604  0.3771
 1191SOL    HW115032   3.665   1.034   2.335 -0.7228 -0.4862 -0.7439
 1191SOL    HW215033   3.664   0.936   2.220  0.9405 -1.5225  0.1322
 1192SOL     OW15034   3.627   1.342   7.491  0.5056  0.1091  0.2721
 1192SOL    HW115035   3.641   1.249   7.509  1.5681 -0.5074 -3.7413
 1192SOL    HW215036   3.572   1.327   7.414  0.0332 -0.8741  0.7962
 1193SOL     OW15037   3.540   1.668   7.737  0.1044 -0.3762  0.0005
 1193SOL    HW115038   3.535   1.581   7.777  1.9199 -1.0261 -1.1761
 1193SOL    HW215039   3.461   1.710   7.770  0.2464  0.4945 -0.7541
 1194SOL     OW15040   0.357   1.946  11.310 -0.3002 -0.2424 -0.7180
 1194SOL    HW115041   0.347   1.990  11.226 -0.2800 -0.5783 -0.8954
 1194SOL    HW215042   0.452   1.940  11.302 -0.1594 -1.3189  1.7169
 1195SOL     OW15043   0.516   0.659  14.446 -0.2100 -0.3593 -0.2725
 1195SOL    HW115044   0.539   0.735  14.500 -1.4470 -0.9311  1.0900
 1195SOL    HW215045   0.586   0.658  14.382  0.4940 -0.0275  0.4994
 1196SOL     OW15046   4.317   1.595  11.211  0.2403 -0.4644  0.4053
 1196SOL    HW115047   4.247   1.661  11.217  1.8502  1.0950  1.8668
 1196SOL    HW215048   4.308   1.550  11.126  1.1449  2.0516 -1.0298
 1197SOL     OW15049   3.431   4.594   9.474  0.1240  0.6555 -0.1029
 1197SOL    HW115050   3.475   4.565   9.394 -2.6481  0.0546 -1.4019
 1197SOL    HW215051   3.503   4.635   9.524  1.0985  0.1568 -1.1028
 1198SOL     OW15052   4.048   0.707   5.396 -0.1126  0.8869 -0.1156
 1198SOL    HW115053   4.042   0.618   5.431 -0.9839  1.3122  0.8134
 1198SOL    HW215054   4.127   0.698   5.343 -1.7168  0.6413 -2.4885
 1199SOL     OW15055   0.536   3.038  17.055  0.2067 -0.3948  0.4196
 1199SOL    HW115056   0.510   2.951  17.023 -3.0515 -0.1243  2.3333
 1199SOL    HW215057   0.580   3.010  17.135 -0.4672 -1.7773  0.3194
 1200SOL     OW15058   2.966   1.758  13.361 -0.6613  0.4673 -0.0885
 1200SOL    HW115059   2.957   1.844  13.319 -0.0743 -0.1401 -1.4548
 1200SOL    HW215060   3.057   1.753  13.332 -1.0331 -2.4404 -0.7203
 1201SOL     OW15061   2.889   1.357   8.485  0.0999  0.4179  0.1412
 1201SOL    HW115062   2.849   1.333   8.568 -1.3420 -0.7621 -0.8912
 1201SOL    HW215063   2.905   1.270   8.449 -1.1012  0.4371 -0.4388
 1202SOL     OW15064   3.791   3.142   2.772 -0.0049 -0.3667 -0.0449
 1202SOL    HW115065   3.736   3.087   2.717 -1.1223 -0.3357  1.0232
 1202SOL    HW215066   3.847   3.174   2.702  0.9639 -2.0030 -0.0135
 1203SOL     OW15067   2.093   0.339  10.913 -0.4370 -0.4585  0.4951
 1203SOL    HW115068   2.070   0.430  10.891 -0.4328 -0.0270  2.3381
 1203SOL    HW215069   2.009   0.305  10.944  0.7761 -1.5068  2.6008
 1204SOL     OW15070   4.611   2.797  17.073 -0.0641 -0.3400 -0.3779
 1204SOL    HW115071   4.549   2.855  17.030 -0.5774 -1.7717 -1.5703
 1204SOL    HW215072   4.583   2.710  17.043 -1.0742 -0.0494 -0.2674
 1205SOL     OW15073   1.314   0.872   8.437  0.0079 -0.5662 -0.9857
 1205SOL    HW115074   1.365   0.825   8.371  1.2739 -0.5219 -0.0369
 1205SOL    HW215075   1.329   0.965   8.418 -0.7958 -0.2130  0.1358
 1206SOL     OW15076   1.129   4.307   7.145 -0.2532 -0.3491  0.3966
 1206SOL    HW115077   1.077   4.375   7.189 -0.0902 -0.7751  1.2381
 1206SOL    HW215078   1.196   4.289   7.211 -0.0527  1.2123  0.6118
 1207SOL     OW15079   1.792   2.844   6.748 -0.5730 -0.7633  0.8647
 1207SOL    HW115080   1.823   2.755   6.729  0.1941 -0.3360  0.0994
 1207SOL    HW215081   1.723   2.839   6.682 -0.9557  2.5450  1.0240
 1208SOL     OW15082   0.001   1.635   2.445  0.2261  0.1507 -0.7577
 1208SOL    HW115083   4.639   1.630   2.495  1.0886 -1.0564  0.5281
 1208SOL    HW215084   4.698   1.594   2.362  1.1561  0.5136 -1.1885
 1209SOL     OW15085   3.092   2.980   2.764  0.2359  0.0720 -0.0416
 1209SOL    HW115086   3.098   3.074   2.747  0.9785  0.0630  0.1847
 1209SOL    HW215087   3.065   2.952   2.676  0.8493  2.4001 -0.9570
 1210SOL     OW15088   1.756   1.012   3.790 -0.1458  0.0455  0.5335
 1210SOL    HW115089   1.754   1.045   3.700  1.9026  0.4058  0.6199
 1210SOL    HW215090   1.845   1.005   3.824  0.1072 -0.6800 -0.2841
 1211SOL     OW15091   3.154   1.096   3.995 -0.0296 -0.0643  0.3799
 1211SOL    HW115092   3.245   1.096   4.025  0.1783  0.0655 -0.2560
 1211SOL    HW215093   3.154   1.182   3.953 -2.1485  1.1067  2.8047
 1212SOL     OW15094   2.911   0.222  16.252 -0.3321 -0.2523 -0.3273
 1212SOL    HW115095   2.910   0.219  16.348 -0.2420  1.1658 -0.2741
 1212SOL    HW215096   3.002   0.236  16.225 -0.1233 -0.6532  0.1728
 1213SOL     OW15097   1.915   1.335  15.437  0.3495  0.3110  1.0836
 1213SOL    HW115098   1.948   1.425  15.441 -0.5926  0.7351 -0.4558
 1213SOL    HW215099   1.994   1.281  15.444 -0.3436 -0.7136  0.9904
 1214SOL     OW15100   4.534   2.531  12.403 -0.3211 -0.2207 -0.0604
 1214SOL    HW115101   4.500   2.620  12.409  2.2843  0.6930  1.4389
 1214SOL    HW215102   4.623   2.562  12.421  0.4637 -2.0866 -0.7390
 1215SOL     OW15103   2.849   1.553   9.252  0.1339  0.3140 -0.9722
 1215SOL    HW115104   2.791   1.579   9.323 -0.2025 -1.0576 -0.7422
 1215SOL    HW215105   2.901   1.484   9.294  1.1808  0.9681 -1.1705
 1216SOL     OW15106   2.642   1.098  13.757  0.1675 -0.2606 -0.1910
 1216SOL    HW115107   2.660   1.182  13.799  0.4542 -0.4468  0.0512
 1216SOL    HW215108   2.638   1.037  13.830  1.9699  1.1106  1.0613
 1217SOL     OW15109   1.764   0.476  17.323 -0.2022  0.9430  0.0655
 1217SOL    HW115110   1.750   0.382  17.336 -2.1303  1.5545  2.5697
 1217SOL    HW215111   1.828   0.479  17.252  0.4523  0.3518  0.6168
 1218SOL     OW15112   1.626   0.405   0.218 -0.0959  0.4346 -0.0461
 1218SOL    HW115113   1.538   0.393   0.255 -0.3646  1.6967 -0.2944
 1218SOL    HW215114   1.683   0.411   0.295  0.0861  1.0853 -0.2326
 1219SOL     OW15115   4.022   3.231   2.629 -0.5685 -0.2323 -0.4142
 1219SOL    HW115116   4.088   3.287   2.670 -0.7126 -0.6716  0.4204
 1219SOL    HW215117   4.002   3.275   2.546 -1.2329  0.3704  0.0648
 1220SOL     OW15118   0.722   4.597   4.219 -0.5452 -0.0117 -0.3643
 1220SOL    HW115119   0.778   4.628   4.148  0.3183 -0.7857 -0.0267
 1220SOL    HW215120   0.645   4.559   4.176 -0.0194  0.0163 -1.3209
 1221SOL     OW15121   4.027   4.330  14.755 -0.3578  0.0851 -0.1049
 1221SOL    HW115122   3.977   4.253  14.784 -0.1723  0.7736  2.0064
 1221SOL    HW215123   4.080   4.279  14.693  0.0613  2.1278 -1.4186
 1222SOL     OW15124   1.381   3.408   4.510  0.2000 -1.3672 -0.5533
 1222SOL    HW115125   1.426   3.327   4.531  0.1412 -1.3215 -0.2527
 1222SOL    HW215126   1.292   3.378   4.526  0.0983  0.0354  1.5177
 1223SOL     OW15127   2.320   1.505   5.468 -0.2658  0.0264  0.0079
 1223SOL    HW115128   2.236   1.547   5.488 -1.4298 -2.5953  0.5897
 1223SOL    HW215129   2.361   1.477   5.550  0.4753 -1.0051 -0.7232
 1224SOL     OW15130   1.632   1.456  14.448  0.4277  0.0923  0.3075
 1224SOL    HW115131   1.538   1.449  14.469  0.4523  0.1948  0.4571
 1224SOL    HW215132   1.649   1.536  14.499 -0.6302 -0.6324  1.8215
 1225SOL     OW15133   4.447   2.015   8.536 -0.1128 -0.4180 -0.0811
 1225SOL    HW115134   4.467   2.104   8.508  0.0035 -0.4076  0.0363
 1225SOL    HW215135   4.417   2.035   8.625  0.8115 -0.0998  0.1597
 1226SOL     OW15136   0.232   2.465   9.016  0.0600  0.0200  0.4582
 1226SOL    HW115137   0.168   2.395   9.020  1.1760 -0.9466  1.3617
 1226SOL    HW215138   0.252   2.472   8.922  2.1863  1.9345  1.0355
 1227SOL     OW15139   0.946   1.350   5.883 -0.0820 -0.5095  0.1272
 1227SOL    HW115140   0.880   1.381   5.945  0.8550 -1.4282  1.5932
 1227SOL    HW215141   0.887   1.325   5.812  0.1849  1.1341 -0.6645
 1228SOL     OW15142   0.659   1.321  17.670 -0.3140 -0.2335  0.6027
 1228SOL    HW115143   0.719   1.372  17.616 -1.2139 -1.3968 -1.4699
 1228SOL    HW215144   0.707   1.238  17.677  1.4101  0.7678  0.4671
 1229SOL     OW15145   2.556   0.592   4.048  0.2841  0.0470  0.3666
 1229SOL    HW115146   2.502   0.655   4.000 -0.1309 -1.5009 -1.1725
 1229SOL    HW215147   2.641   0.636   4.042  0.5000 -0.1615  1.9000
 1230SOL     OW15148   0.123   1.228  14.718  0.1176 -0.1419  0.1757
 1230SOL    HW115149   0.107   1.197  14.628  1.4007  1.7915 -0.7100
 1230SOL    HW215150   0.174   1.154  14.751 -0.8918 -0.6164  0.6680
 1231SOL     OW15151   3.990   2.400  16.167 -0.2129 -0.6814 -0.6421
 1231SOL    HW115152   3.938   2.379  16.245 -0.1183  1.1368 -0.0825
 1231SOL    HW215153   3.931   2.453  16.113  0.1654 -0.0227 -0.4074
 1232SOL     OW15154   0.148   2.930  17.110 -0.3063 -0.1439  0.2539
 1232SOL    HW115155   0.066   2.880  17.111 -0.6200  0.3623 -1.0999
 1232SOL    HW215156   0.208   2.855  17.112 -1.5364 -1.0955  1.4348
 1233SOL     OW15157   4.622   1.096  13.310 -0.2990 -0.1221 -0.1111
 1233SOL    HW115158   4.646   1.160  13.377 -0.3140  0.5016 -0.6984
 1233SOL    HW215159   4.693   1.033  13.295  1.1507  1.5978 -0.3881
 1234SOL     OW15160   0.673   1.008   8.996 -0.3968  0.0960  0.1843
 1234SOL    HW115161   0.642   1.010   8.905  0.4072  0.5820 -0.0819
 1234SOL    HW215162   0.590   1.009   9.044 -0.3322 -1.3415  0.3081
 1235SOL     OW15163   1.484   3.472  16.206 -0.3899  0.5958 -0.4125
 1235SOL    HW115164   1.412   3.421  16.242  1.6068 -1.4304  0.6700
 1235SOL    HW215165   1.503   3.536  16.274  3.0719 -2.3893  1.4685
 1236SOL     OW15166   0.551   2.834  11.828  0.0809  0.5216 -0.2765
 1236SOL    HW115167   0.577   2.878  11.909 -0.5670  1.3747 -0.5311
 1236SOL    HW215168   0.573   2.898  11.759  1.9344 -0.6997 -0.8088
 1237SOL     OW15169   3.039   0.198   9.910 -0.5437 -0.6695 -0.0348
 1237SOL    HW115170   3.057   0.113   9.869  0.9169 -0.8690  1.0332
 1237SOL    HW215171   2.944   0.206   9.914 -0.7434 -2.5413 -0.9906
 1238SOL     OW15172   2.319   0.530   0.772  0.1078 -0.1266  0.3079
 1238SOL    HW115173   2.409   0.539   0.743  0.5217 -3.1865  0.6319
 1238SOL    HW215174   2.292   0.617   0.742  1.3732  0.4863  0.9463
 1239SOL     OW15175   1.555   1.988   4.276 -0.2212 -0.7692  0.7443
 1239SOL    HW115176   1.574   2.064   4.333  0.4574  0.6894 -1.4326
 1239SOL    HW215177   1.636   1.975   4.227 -0.6510  0.1662 -0.2177
 1240SOL     OW15178   2.865   1.165   2.351  0.3379 -0.3394 -0.2017
 1240SOL    HW115179   2.916   1.112   2.289 -1.2801 -0.2408 -1.6051
 1240SOL    HW215180   2.934   1.214   2.396  0.4888 -0.9386  0.2278
 1241SOL     OW15181   0.794   4.045   9.408  0.8640  0.1604 -0.0812
 1241SOL    HW115182   0.796   4.079   9.318  4.1197 -0.0509 -0.0796
 1241SOL    HW215183   0.741   3.965   9.403 -0.6945  1.1439  0.7745
 1242SOL     OW15184   1.794   4.563  17.422  0.3214 -0.1187 -0.4590
 1242SOL    HW115185   1.889   4.574  17.425  0.3421 -0.1576 -0.8728
 1242SOL    HW215186   1.775   4.499  17.353 -0.4052  0.9754 -1.2641
 1243SOL     OW15187   1.857   1.554  12.756 -0.1495  0.3050 -0.4706
 1243SOL    HW115188   1.896   1.638  12.780  1.9313 -0.5289 -0.9071
 1243SOL    HW215189   1.931   1.494  12.763 -0.0421  0.4750 -0.1337
 1244SOL     OW15190   4.428   2.147   6.502 -0.3369 -0.1739 -0.2911
 1244SOL    HW115191   4.350   2.152   6.447 -0.1167 -0.2014 -0.6098
 1244SOL    HW215192   4.446   2.053   6.490  0.8475 -0.0013  0.1240
 1245SOL     OW15193   1.864   1.298   8.979  0.1718 -0.4767  0.0235
 1245SOL    HW115194   1.943   1.244   8.981  0.5950  0.0888 -1.1058
 1245SOL    HW215195   1.900   1.385   8.961 -0.4867  0.1180  1.5866
 1246SOL     OW15196   0.679   0.436   7.604 -0.9859 -0.0850 -0.4230
 1246SOL    HW115197   0.663   0.511   7.661 -0.0469 -0.7906  0.7731
 1246SOL    HW215198   0.754   0.397   7.649 -1.9032 -0.1255  1.0744
 1247SOL     OW15199   0.308   0.215   8.232 -0.0651 -0.4573 -0.8142
 1247SOL    HW115200   0.304   0.154   8.305 -0.4622 -0.2220 -0.6401
 1247SOL    HW215201   0.223   0.259   8.242 -0.5448 -1.1948 -1.6343
 1248SOL     OW15202   3.563   4.471   7.180  0.3663  0.2440  0.3123
 1248SOL    HW115203   3.517   4.546   7.143 -0.9108 -1.7621 -2.1609
 1248SOL    HW215204   3.654   4.489   7.155  0.2943 -1.9530 -1.5728
 1249SOL     OW15205   2.514   2.865   9.271  0.0917  0.1481  0.2769
 1249SOL    HW115206   2.474   2.948   9.297  0.3354  0.6660 -0.9916
 1249SOL    HW215207   2.584   2.893   9.213  0.1118 -1.6979 -0.5735
 1250SOL     OW15208   3.725   2.449   5.165  0.3801 -0.0847  0.3111
 1250SOL    HW115209   3.686   2.529   5.129  1.6077  0.8961  1.1313
 1250SOL    HW215210   3.651   2.427   5.222 -0.8296  3.3292  0.1075
 1251SOL     OW15211   3.006   2.829  13.320 -0.3682 -0.3705  0.3491
 1251SOL    HW115212   2.917   2.796  13.305  0.2439 -3.2925  2.9776
 1251SOL    HW215213   3.051   2.748  13.298 -0.0749 -0.4835  1.3493
 1252SOL     OW15214   3.849   1.114   9.129  0.1277 -0.2434  0.2555
 1252SOL    HW115215   3.865   1.065   9.210 -1.6718  2.2893  2.1591
 1252SOL    HW215216   3.797   1.052   9.078 -1.9545  0.5994  1.3673
 1253SOL     OW15217   3.537   0.816   9.388  0.5999 -0.1036 -0.6787
 1253SOL    HW115218   3.512   0.771   9.308  0.8148  0.6706 -1.1806
 1253SOL    HW215219   3.504   0.905   9.381  1.8890  0.3072 -1.5133
 1254SOL     OW15220   4.250   1.991   4.809 -0.4475 -0.2659 -0.8399
 1254SOL    HW115221   4.274   2.020   4.721  3.3228 -1.3894 -0.1512
 1254SOL    HW215222   4.198   2.060   4.851  0.5121 -0.2542  0.3176
 1255SOL     OW15223   1.386   3.730   7.693  0.2663  0.4731  0.3984
 1255SOL    HW115224   1.477   3.757   7.704  0.8374 -0.5007 -1.9344
 1255SOL    HW215225   1.380   3.651   7.747 -1.1837 -0.5679 -1.2686
 1256SOL     OW15226   2.475   3.356   2.153 -0.0120  0.2982  0.1365
 1256SOL    HW115227   2.408   3.332   2.089  1.0566 -4.0775  0.6212
 1256SOL    HW215228   2.485   3.445   2.119  0.7484  0.2344  0.1965
 1257SOL     OW15229   0.397   2.252   7.064  0.1744 -0.2939 -0.2249
 1257SOL    HW115230   0.453   2.312   7.113  1.0197 -1.5104  0.2804
 1257SOL    HW215231   0.463   2.221   7.002 -0.7775  1.0158 -1.8956
 1258SOL     OW15232   2.559   2.467  11.446  0.1267  0.1341  0.0820
 1258SOL    HW115233   2.523   2.539  11.393  1.3199  2.0591  1.8915
 1258SOL    HW215234   2.631   2.444  11.387  0.5074  1.3168  0.0748
 1259SOL     OW15235   3.889   3.226   3.658  0.1850  0.9131 -0.9243
 1259SOL    HW115236   3.815   3.212   3.597 -0.1922  0.6674 -0.4098
 1259SOL    HW215237   3.911   3.314   3.627 -0.5434  1.7312  0.8689
 1260SOL     OW15238   0.041   1.765   5.247  0.1921 -0.0158 -0.5201
 1260SOL    HW115239   4.699   1.739   5.178  0.4309 -4.3312  0.8839
 1260SOL    HW215240   0.030   1.680   5.290  2.2207 -0.7626 -1.4449
 1261SOL     OW15241   3.357   4.105   1.067 -0.0033 -0.7015 -0.0026
 1261SOL    HW115242   3.278   4.060   1.098  1.0987 -0.7920  2.7025
 1261SOL    HW215243   3.320   4.185   1.030 -1.4715 -0.6183  1.6393
 1262SOL     OW15244   0.075   4.414  16.654 -0.3280 -0.0923  0.3083
 1262SOL    HW115245   0.151   4.379  16.608 -0.2552  0.9549 -0.3790
 1262SOL    HW215246   0.057   4.341  16.712 -0.1086 -0.6240 -0.2991
 1263SOL     OW15247   1.615   1.740   5.744 -0.0462 -0.0102  0.2553
 1263SOL    HW115248   1.698   1.702   5.771  0.4572 -0.0403 -1.3488
 1263SOL    HW215249   1.598   1.805   5.813 -0.6063  0.2623 -0.1444
 1264SOL     OW15250   2.066   4.308   5.173 -0.6552 -0.5087  0.1065
 1264SOL    HW115251   1.978   4.343   5.160 -0.3068 -0.4370 -1.9625
 1264SOL    HW215252   2.065   4.232   5.116 -0.7273 -2.1100  2.2421
 1265SOL     OW15253   2.412   0.286   9.570  0.0582  0.3376 -0.1547
 1265SOL    HW115254   2.407   0.379   9.592 -0.6585  0.1952  0.2941
 1265SOL    HW215255   2.334   0.277   9.515  0.4901 -1.6893 -0.4363
 1266SOL     OW15256   2.284   2.694  14.713  0.5052  0.2529  0.0443
 1266SOL    HW115257   2.343   2.718  14.641 -2.7488  2.3531 -1.8945
 1266SOL    HW215258   2.310   2.754  14.783  0.1917 -0.4135  0.7325
 1267SOL     OW15259   1.456   0.820   9.414 -0.1119  0.3656 -0.2790
 1267SOL    HW115260   1.421   0.752   9.356  1.2509 -0.1320 -0.5206
 1267SOL    HW215261   1.547   0.822   9.386 -0.5557  0.0800 -1.7675
 1268SOL     OW15262   3.119   3.663  17.555  0.1440  0.4587 -0.0590
 1268SOL    HW115263   3.127   3.576  17.517 -1.2128  0.1658  0.3198
 1268SOL    HW215264   3.149   3.714  17.480 -2.4143 -0.1209 -1.4693
 1269SOL     OW15265   2.588   4.231  12.206  0.0352  0.0979 -0.7635
 1269SOL    HW115266   2.498   4.244  12.235  0.2588  0.7308 -0.3542
 1269SOL    HW215267   2.593   4.308  12.150 -4.1420  0.6046 -0.4204
 1270SOL     OW15268   1.315   0.460   5.916 -0.0058  0.2309 -0.2526
 1270SOL    HW115269   1.394   0.482   5.965  0.2184 -1.7999  0.3006
 1270SOL    HW215270   1.333   0.487   5.826 -0.9989  0.7396 -0.3076
 1271SOL     OW15271   3.107   3.893   2.121 -0.0022 -0.2733  0.0738
 1271SOL    HW115272   3.094   3.799   2.110 -3.4613 -0.1036  2.7422
 1271SOL    HW215273   3.180   3.903   2.061  0.0919 -0.6428  0.1230
 1272SOL     OW15274   2.882   4.214   0.252  0.1214 -0.1731 -0.0442
 1272SOL    HW115275   2.867   4.275   0.180 -0.9324 -1.6383 -1.0613
 1272SOL    HW215276   2.965   4.249   0.284  1.5758 -2.5692 -1.1600
 1273SOL     OW15277   1.580   3.396   7.544  0.1542 -0.1890 -0.2483
 1273SOL    HW115278   1.575   3.370   7.636  2.2196  0.1812 -0.0471
 1273SOL    HW215279   1.506   3.456   7.538 -2.4185 -3.2526  0.6416
 1274SOL     OW15280   2.333   1.855   2.950  0.2272  0.2863 -0.2680
 1274SOL    HW115281   2.263   1.900   2.997  1.8997  1.7828  0.7989
 1274SOL    HW215282   2.373   1.925   2.898 -2.4998  0.8936 -1.5560
 1275SOL     OW15283   2.974   4.517   7.043 -0.0780 -0.4569 -0.3089
 1275SOL    HW115284   2.918   4.576   7.093  0.1036 -1.1896  0.7605
 1275SOL    HW215285   2.968   4.435   7.093  0.4412 -0.0710  0.3901
 1276SOL     OW15286   3.166   2.326   8.032  0.4146 -0.2419 -0.1059
 1276SOL    HW115287   3.121   2.252   8.071  1.0845  0.6100  2.2457
 1276SOL    HW215288   3.095   2.389   8.046  0.2741 -0.0167 -1.7926
 1277SOL     OW15289   2.513   2.140   6.222 -0.0542 -0.1033 -0.0778
 1277SOL    HW115290   2.477   2.122   6.135 -0.3899 -1.5380  0.3577
 1277SOL    HW215291   2.558   2.223   6.208  0.7608 -0.8208 -1.6689
 1278SOL     OW15292   0.657   3.175  14.529  0.0389 -0.0039  0.7326
 1278SOL    HW115293   0.720   3.207  14.464 -0.8269 -2.3924 -1.2778
 1278SOL    HW215294   0.584   3.236  14.518  1.2727  1.1229 -1.1444
 1279SOL     OW15295   1.307   1.401   6.553  0.2143 -0.2447 -0.1376
 1279SOL    HW115296   1.341   1.491   6.552 -0.1718 -0.0473  3.6004
 1279SOL    HW215297   1.259   1.404   6.470  0.8098 -0.1437 -0.4806
 1280SOL     OW15298   1.375   4.042   3.977 -0.2442 -0.2047  0.1444
 1280SOL    HW115299   1.336   4.019   4.061  1.4259 -1.6825  0.5171
 1280SOL    HW215300   1.443   4.102   4.009  0.8945 -0.9698 -0.8244
 1281SOL     OW15301   2.321   1.104   6.326 -0.0317 -0.0026 -0.7568
 1281SOL    HW115302   2.374   1.045   6.273 -3.4200 -2.3577 -1.5308
 1281SOL    HW215303   2.279   1.041   6.385  1.1793  1.1277  1.2986
 1282SOL     OW15304   0.967   1.646   9.195 -0.7303 -0.0582 -0.0501
 1282SOL    HW115305   0.939   1.692   9.274  1.8487  1.1088  0.1866
 1282SOL    HW215306   0.983   1.565   9.243 -2.3307 -0.9521 -1.0786
 1283SOL     OW15307   0.772   2.634   1.944 -0.0489  0.1399  0.0795
 1283SOL    HW115308   0.858   2.667   1.916  0.2466  1.2808  2.3533
 1283SOL    HW215309   0.757   2.546   1.909  1.0604 -0.5408  1.3161
 1284SOL     OW15310   1.256   0.365   4.346 -0.4238  0.0971 -0.4248
 1284SOL    HW115311   1.165   0.336   4.348  0.1849 -1.7888  0.0212
 1284SOL    HW215312   1.257   0.449   4.300 -1.0779  0.4071  0.1342
 1285SOL     OW15313   2.969   0.455   2.524 -0.6370 -0.5101 -0.5668
 1285SOL    HW115314   2.975   0.368   2.565 -0.2887  0.7433  2.0077
 1285SOL    HW215315   3.019   0.513   2.580  0.1187 -0.8845 -0.8559
 1286SOL     OW15316   0.607   4.717   3.043  0.1194 -0.6376  0.1538
 1286SOL    HW115317   0.552   4.661   2.988 -1.6752 -0.0015  1.2824
 1286SOL    HW215318   0.653   4.656   3.100  0.2205 -0.6677  0.0413
 1287SOL     OW15319   0.323   0.562   7.833 -0.4285 -0.6414 -0.0074
 1287SOL    HW115320   0.294   0.496   7.896 -0.7604 -1.9134 -1.5236
 1287SOL    HW215321   0.265   0.632   7.864  0.4853 -1.1300  2.8739
 1288SOL     OW15322   0.023   1.720   0.298  0.0597 -0.1506 -0.1102
 1288SOL    HW115323   0.116   1.741   0.310  0.3847 -0.9592 -1.2046
 1288SOL    HW215324   0.020   1.628   0.325 -0.0615  0.2629  1.2931
 1289SOL     OW15325   3.077   1.358   6.294  0.2859  0.3902 -0.0252
 1289SOL    HW115326   2.996   1.309   6.312  0.3210  0.1958 -0.4114
 1289SOL    HW215327   3.130   1.298   6.242 -0.4157  0.5591 -0.9343
 1290SOL     OW15328   1.736   1.458   3.959  0.1258  0.4432  0.4224
 1290SOL    HW115329   1.786   1.489   4.034  0.0577  1.2696  0.1339
 1290SOL    HW215330   1.674   1.529   3.941 -0.0258 -0.2093 -1.6387
 1291SOL     OW15331   2.510   1.241   4.502 -0.3218 -0.6335  0.0196
 1291SOL    HW115332   2.558   1.193   4.435 -0.6302 -1.1795  0.1932
 1291SOL    HW215333   2.582   1.274   4.557 -0.4956 -0.4684  0.1489
 1292SOL     OW15334   1.163   1.039   6.448 -0.0593 -0.2922 -0.1472
 1292SOL    HW115335   1.206   1.057   6.365 -1.3917  0.2602 -0.7121
 1292SOL    HW215336   1.073   1.042   6.417  0.4146 -1.0528 -1.6004
 1293SOL     OW15337   0.505   0.667  14.978 -0.2511 -0.1048 -0.6649
 1293SOL    HW115338   0.473   0.583  15.010  1.6578 -0.7804 -0.4891
 1293SOL    HW215339   0.588   0.673  15.026 -0.6266 -0.4905  0.0318
 1294SOL     OW15340   2.030   2.309   6.983 -0.1929 -0.1741 -0.3995
 1294SOL    HW115341   2.086   2.314   7.061 -0.6925 -0.1098 -0.0444
 1294SOL    HW215342   1.999   2.221   7.005  0.9617 -0.6401 -0.6246
 1295SOL     OW15343   0.887   4.637   3.427  0.3671  0.1652 -0.3500
 1295SOL    HW115344   0.951   4.689   3.477  0.4712  0.5244 -0.8569
 1295SOL    HW215345   0.811   4.641   3.484  1.3231  2.1839  0.7623
 1296SOL     OW15346   1.999   3.020  10.627  0.2042 -0.0857  0.1030
 1296SOL    HW115347   1.919   2.989  10.671  0.8315 -2.8012 -0.7005
 1296SOL    HW215348   2.018   2.941  10.578  2.8521  0.9403 -0.4902
 1297SOL     OW15349   2.077   2.434  11.589 -0.0013  0.3649 -0.0156
 1297SOL    HW115350   2.122   2.516  11.573 -3.2246  2.2913  0.8297
 1297SOL    HW215351   1.995   2.450  11.542  1.1009  0.9683 -1.7140
 1298SOL     OW15352   3.621   3.181   5.310 -0.5882 -0.3312  0.1143
 1298SOL    HW115353   3.645   3.088   5.315  2.5112  0.4715 -0.2821
 1298SOL    HW215354   3.528   3.166   5.329 -0.5023 -2.3539 -1.0137
 1299SOL     OW15355   1.732   4.468  14.871 -0.6467 -0.2782  0.2405
 1299SOL    HW115356   1.711   4.536  14.807 -1.6212  1.0102  1.9314
 1299SOL    HW215357   1.673   4.478  14.945 -1.1436  1.2422 -0.3525
 1300SOL     OW15358   3.339   3.397   5.521 -0.1498 -0.3220 -0.1656
 1300SOL    HW115359   3.296   3.368   5.602  1.4031 -1.1543  0.3663
 1300SOL    HW215360   3.283   3.469   5.495 -0.2264 -0.2645  0.1505
 1301SOL     OW15361   4.451   1.929   9.015  0.0107  0.2385  0.2210
 1301SOL    HW115362   4.471   1.959   9.104  1.8054  2.0302 -0.8003
 1301SOL    HW215363   4.364   1.894   9.033  0.0521  0.4111  0.7430
 1302SOL     OW15364   4.448   2.672  16.852 -0.4696  0.4870  0.0716
 1302SOL    HW115365   4.372   2.653  16.798  0.7531  1.9661 -2.1333
 1302SOL    HW215366   4.455   2.768  16.848  0.2646  0.4417  0.2343
 1303SOL     OW15367   3.523   3.129   5.935 -0.0230 -0.3925 -0.2545
 1303SOL    HW115368   3.582   3.188   5.982 -1.2132  0.8466 -0.3246
 1303SOL    HW215369   3.565   3.044   5.948  1.8821  0.7580  1.1420
 1304SOL     OW15370   2.744   3.274  10.957 -0.2984  0.5286  0.2047
 1304SOL    HW115371   2.686   3.350  10.970 -2.3140 -0.8339 -0.7639
 1304SOL    HW215372   2.787   3.278  11.042 -0.1273  0.8953  0.1041
 1305SOL     OW15373   0.616   2.869   3.938 -0.1565  0.3891 -0.0088
 1305SOL    HW115374   0.532   2.898   3.972 -0.7179 -1.5137  0.2398
 1305SOL    HW215375   0.669   2.937   3.980  0.2728 -0.6647  1.1730
 1306SOL     OW15376   2.434   3.311  14.137  0.4187 -0.0584 -0.4014
 1306SOL    HW115377   2.447   3.341  14.227  1.8453  0.8502 -0.9051
 1306SOL    HW215378   2.384   3.232  14.157 -1.2281  1.4662  1.5336
 1307SOL     OW15379   1.239   2.234   6.657  0.2244 -0.0264  0.6247
 1307SOL    HW115380   1.306   2.298   6.680  0.0760  0.3330  0.0325
 1307SOL    HW215381   1.279   2.152   6.685 -0.2876 -0.2456  0.7141
 1308SOL     OW15382   2.786   4.010   4.439  0.1416 -0.0729 -0.1277
 1308SOL    HW115383   2.827   4.068   4.375 -0.2821 -0.0275 -0.3561
 1308SOL    HW215384   2.693   4.030   4.433  0.3500  0.6209 -1.2446
 1309SOL     OW15385   1.495   2.469  16.365  0.2509 -0.0740 -0.5828
 1309SOL    HW115386   1.484   2.563  16.379 -0.7519 -0.1044 -1.1698
 1309SOL    HW215387   1.482   2.462  16.270  2.2393  3.2970 -1.1015
 1310SOL     OW15388   1.260   2.874   7.596  0.4297 -0.2380  0.5249
 1310SOL    HW115389   1.205   2.797   7.582  0.0445 -0.0880  1.2232
 1310SOL    HW215390   1.348   2.837   7.601 -0.2101 -2.2120 -2.9630
 1311SOL     OW15391   2.539   0.116  10.112 -0.7427  0.0527 -0.4534
 1311SOL    HW115392   2.449   0.132  10.140 -1.8423 -3.4854 -2.0071
 1311SOL    HW215393   2.585   0.094  10.193  0.4569  0.9486 -0.8756
 1312SOL     OW15394   0.463   1.095   2.497 -0.4916  0.1322  0.2761
 1312SOL    HW115395   0.413   1.175   2.511  0.1015  0.1888  2.0713
 1312SOL    HW215396   0.442   1.076   2.406 -0.4508  0.6247  0.1694
 1313SOL     OW15397   1.214   3.074  12.274 -0.3973 -0.1564  0.4308
 1313SOL    HW115398   1.289   3.028  12.312 -0.0938  0.0697  0.1049
 1313SOL    HW215399   1.196   3.142  12.339 -2.7305  1.0799 -1.5190
 1314SOL     OW15400   2.057   0.730  13.557  0.2791 -0.1617 -0.1853
 1314SOL    HW115401   2.016   0.730  13.643 -0.0780  0.6096 -0.3551
 1314SOL    HW215402   1.980   0.755  13.506  1.3438  0.9368 -1.2461
 1315SOL     OW15403   3.513   3.547  13.638  0.0067  0.0590 -0.0121
 1315SOL    HW115404   3.522   3.459  13.673 -0.0896  0.4798  1.0643
 1315SOL    HW215405   3.608   3.562  13.637 -0.0932  0.5978 -2.4804
 1316SOL     OW15406   4.020   1.842   5.736  0.4005  0.2795 -0.7341
 1316SOL    HW115407   4.012   1.931   5.704 -0.7928 -0.1248 -1.5602
 1316SOL    HW215408   4.103   1.810   5.700  0.4343  0.3249 -0.6965
 1317SOL     OW15409   0.875   2.996   4.037 -0.0313 -0.3118 -0.2404
 1317SOL    HW115410   0.929   2.952   3.972  1.7424  1.8551 -0.2651
 1317SOL    HW215411   0.856   3.082   3.999  2.2742 -0.2127 -1.1584
 1318SOL     OW15412   2.805   1.393  13.038  0.0138  0.2257  0.2382
 1318SOL    HW115413   2.897   1.375  13.021 -0.4072 -0.0720 -1.7379
 1318SOL    HW215414   2.796   1.471  12.983 -0.9271  0.3408  0.5500
 1319SOL     OW15415   1.151   1.367  11.181 -0.2804 -0.0886  0.3893
 1319SOL    HW115416   1.093   1.344  11.254 -1.2295 -0.3644 -0.4534
 1319SOL    HW215417   1.110   1.445  11.142  0.7777 -0.8842 -2.3088
 1320SOL     OW15418   3.744   2.644  11.064 -0.2583  0.1126  0.2729
 1320SOL    HW115419   3.825   2.676  11.024  0.2494 -1.5777 -0.0469
 1320SOL    HW215420   3.720   2.732  11.093 -1.2353 -0.1708  0.3288
 1321SOL     OW15421   2.831   1.193   3.167  0.0388 -0.6751 -0.2654
 1321SOL    HW115422   2.759   1.143   3.206 -1.3660  2.7342  1.5904
 1321SOL    HW215423   2.861   1.238   3.247 -1.9953  0.6225 -0.2263
 1322SOL     OW15424   3.736   3.370  17.537 -0.6409 -0.1090  0.2738
 1322SOL    HW115425   3.663   3.320  17.501  0.2326 -1.1596 -0.0467
 1322SOL    HW215426   3.749   3.314  17.614 -0.4835 -1.9179 -1.0504
 1323SOL     OW15427   2.829   3.466  16.190  0.2140  0.0408  0.2734
 1323SOL    HW115428   2.740   3.433  16.203  1.1401 -2.5222  0.0218
 1323SOL    HW215429   2.828   3.559  16.214  2.8059 -0.3482  1.8918
 1324SOL     OW15430   1.896   4.612   8.415  0.0256  0.9186  0.2599
 1324SOL    HW115431   1.988   4.599   8.394 -0.7766 -1.1633 -1.9658
 1324SOL    HW215432   1.893   4.705   8.440  1.0066  0.6145  1.5010
 1325SOL     OW15433   0.871   3.440   3.813 -0.1337 -0.0625  0.9844
 1325SOL    HW115434   0.868   3.489   3.895 -1.0168  0.6120  0.5463
 1325SOL    HW215435   0.850   3.357   3.857 -0.7728  0.9077  2.5048
 1326SOL     OW15436   3.057   0.609   9.125 -0.1510 -0.3612  0.2804
 1326SOL    HW115437   3.014   0.589   9.208 -2.8632  1.1292 -0.7540
 1326SOL    HW215438   3.106   0.689   9.143 -1.7162  0.4067  1.0844
 1327SOL     OW15439   0.025   3.298   6.424  0.9542 -0.6313 -0.3977
 1327SOL    HW115440   0.008   3.205   6.439 -1.7364  0.4292  3.1325
 1327SOL    HW215441   4.688   3.316   6.348 -0.0352 -1.5477  0.1126
 1328SOL     OW15442   0.940   1.251   5.115 -0.1342 -0.1987 -0.1356
 1328SOL    HW115443   0.963   1.287   5.201 -0.4847 -1.1851  0.3615
 1328SOL    HW215444   1.004   1.181   5.104 -1.3842 -1.0585 -1.8443
 1329SOL     OW15445   0.144   0.088   7.958 -0.1063  0.1890  0.3346
 1329SOL    HW115446   0.196   0.168   7.950 -0.2214 -0.0063 -2.2921
 1329SOL    HW215447   0.078   0.111   8.023  0.1450  0.0730  0.6318
 1330SOL     OW15448   2.635   3.251  16.272 -0.2302 -0.7157  0.6588
 1330SOL    HW115449   2.591   3.168  16.254  0.6351 -0.7000 -1.5196
 1330SOL    HW215450   2.680   3.230  16.355 -0.8159 -1.6708  0.7399
 1331SOL     OW15451   2.625   1.248  11.572 -0.5025 -1.1342  0.3141
 1331SOL    HW115452   2.581   1.323  11.613  1.9639  0.6843 -0.4138
 1331SOL    HW215453   2.618   1.274  11.480  0.9045  0.6432  0.7077
 1332SOL     OW15454   4.537   0.140  17.323  0.0412 -0.6669 -0.2555
 1332SOL    HW115455   4.518   0.224  17.365  1.3664 -0.2153 -0.5642
 1332SOL    HW215456   4.462   0.131  17.264  0.6736 -0.5134 -1.0709
 1333SOL     OW15457   0.182   4.104   7.349  0.5251 -0.3157 -0.0331
 1333SOL    HW115458   0.234   4.052   7.410 -1.6259 -1.6928  0.6232
 1333SOL    HW215459   0.108   4.045   7.339  0.1188  0.0200  0.9805
 1334SOL     OW15460   0.756   2.301  11.482 -0.2945 -0.4132  0.1124
 1334SOL    HW115461   0.780   2.212  11.506 -0.4418 -0.8001 -1.1777
 1334SOL    HW215462   0.840   2.346  11.496 -1.4289  1.7869 -0.1363
 1335SOL     OW15463   3.414   0.158  14.719  0.1695 -0.2063 -0.4380
 1335SOL    HW115464   3.321   0.142  14.703  0.0030 -0.9049  1.2615
 1335SOL    HW215465   3.440   0.197  14.635 -2.0097  1.7008 -0.2089
 1336SOL     OW15466   3.293   1.477   3.401  0.1224 -0.3291 -0.1374
 1336SOL    HW115467   3.316   1.521   3.483  0.9322 -0.7603 -0.1353
 1336SOL    HW215468   3.236   1.406   3.429 -1.2440  0.7212 -0.2359
 1337SOL     OW15469   3.245   2.402   5.273  0.2816  0.0227  0.1304
 1337SOL    HW115470   3.156   2.368   5.274  0.1841  0.2151 -2.4953
 1337SOL    HW215471   3.248   2.430   5.182 -0.6881  0.8580  0.3621
 1338SOL     OW15472   3.616   2.619   5.685 -0.7976  0.4781  0.0291
 1338SOL    HW115473   3.683   2.677   5.650 -0.9634  1.3647  1.1553
 1338SOL    HW215474   3.554   2.625   5.612  0.1400  1.5161 -0.6723
 1339SOL     OW15475   2.030   2.909   2.929 -0.0461  0.0541 -0.4214
 1339SOL    HW115476   1.968   2.961   2.980 -1.1482 -2.1714  0.4820
 1339SOL    HW215477   1.976   2.838   2.896  1.3986 -0.7614 -1.0327
 1340SOL     OW15478   3.140   0.005   1.424 -0.4896 -0.0552  0.4051
 1340SOL    HW115479   3.163   0.066   1.354 -1.1068 -0.3484 -0.0482
 1340SOL    HW215480   3.224   0.005   1.471  0.6585 -0.3360 -1.6304
 1341SOL     OW15481   1.437   0.720   6.687  0.4278 -0.6336  0.4860
 1341SOL    HW115482   1.527   0.720   6.656  0.2003  0.6133 -0.1816
 1341SOL    HW215483   1.439   0.804   6.733  0.5253  0.8107 -2.1715
 1342SOL     OW15484   1.250   0.758   8.861 -0.0997 -0.4074  0.0521
 1342SOL    HW115485   1.237   0.851   8.882  0.7274 -0.2309 -0.2234
 1342SOL    HW215486   1.334   0.768   8.816 -1.0454  0.9715 -1.4409
 1343SOL     OW15487   1.383   1.904   7.484 -0.4057  0.1011 -0.8010
 1343SOL    HW115488   1.303   1.933   7.528 -0.7990 -2.5924  0.3206
 1343SOL    HW215489   1.343   1.823   7.452 -0.6272 -0.8130  1.7312
 1344SOL     OW15490   1.926   3.690  12.568  0.2452  0.1136  0.3934
 1344SOL    HW115491   1.977   3.733  12.499  1.0652  0.4096  1.1834
 1344SOL    HW215492   1.837   3.710  12.540  0.7030  1.0297 -0.4336
 1345SOL     OW15493   1.004   3.166   4.303 -0.4529  0.9240  0.4761
 1345SOL    HW115494   1.046   3.080   4.313  2.5510  2.2708 -0.4187
 1345SOL    HW215495   0.910   3.148   4.303  0.3977 -3.4095 -0.1917
 1346SOL     OW15496   2.990   3.982   2.513  0.2166 -0.2564 -0.1945
 1346SOL    HW115497   2.907   3.934   2.517 -0.9562  1.8480  1.0519
 1346SOL    HW215498   2.974   4.016   2.425  0.6230  0.7523  0.1214
 1347SOL     OW15499   2.241   0.035   2.428 -0.5837 -0.2363 -0.4399
 1347SOL    HW115500   2.201   4.680   2.474 -3.4902  0.3036 -2.0939
 1347SOL    HW215501   2.227   0.104   2.493 -0.5304  0.3230 -1.0171
 1348SOL     OW15502   4.452   3.834  14.713  0.1797  0.5514 -0.2307
 1348SOL    HW115503   4.418   3.745  14.708  1.0301  0.1425  1.4609
 1348SOL    HW215504   4.429   3.864  14.801  1.3822 -2.6701  1.1815
 1349SOL     OW15505   2.008   3.781   5.513  0.0068 -0.2351 -0.0583
 1349SOL    HW115506   2.077   3.742   5.460  1.2702  2.3059 -0.2716
 1349SOL    HW215507   1.958   3.828   5.447 -2.1776 -2.6726 -0.1492
 1350SOL     OW15508   1.929   3.352   1.163  0.0913  0.4213  0.5311
 1350SOL    HW115509   2.002   3.311   1.210  0.3858 -1.0507 -1.2345
 1350SOL    HW215510   1.961   3.442   1.155  1.5322  0.2026  3.6250
 1351SOL     OW15511   0.380   4.492   9.866  0.0611  0.0821  0.6449
 1351SOL    HW115512   0.326   4.466   9.941  1.7243  1.1519  2.2003
 1351SOL    HW215513   0.315   4.490   9.795  2.0921  1.2685 -1.2219
 1352SOL     OW15514   3.986   0.309  15.203 -0.2134 -0.5228 -0.1196
 1352SOL    HW115515   4.021   0.220  15.204 -0.5175 -0.6471 -0.4715
 1352SOL    HW215516   4.053   0.342  15.263 -0.1468  3.7157 -2.5051
 1353SOL     OW15517   0.815   4.411  11.544  0.1082  0.1068  0.5681
 1353SOL    HW115518   0.857   4.436  11.462 -0.8816  0.0348  0.0399
 1353SOL    HW215519   0.877   4.348  11.580 -0.2222 -0.1282  0.7259
 1354SOL     OW15520   2.543   1.786   4.752 -0.3789  0.3328 -0.3839
 1354SOL    HW115521   2.638   1.786   4.740 -0.3894 -0.3052 -0.4711
 1354SOL    HW215522   2.538   1.740   4.836 -1.9559  2.5788  0.7514
 1355SOL     OW15523   4.143   0.167   7.533  0.0061 -0.5554 -0.4513
 1355SOL    HW115524   4.128   0.145   7.441 -3.0496 -1.3555  0.2382
 1355SOL    HW215525   4.227   0.123   7.545 -0.5889 -0.5995  3.4528
 1356SOL     OW15526   4.022   3.805   2.880 -0.7337  0.0013 -0.1273
 1356SOL    HW115527   4.064   3.885   2.911 -0.9656 -0.7545  2.1640
 1356SOL    HW215528   3.974   3.840   2.806 -1.1228 -1.3509 -0.5143
 1357SOL     OW15529   4.516   0.572   1.511 -0.1727 -0.4005 -0.5342
 1357SOL    HW115530   4.430   0.582   1.552 -0.3017  0.2639 -0.9527
 1357SOL    HW215531   4.518   0.482   1.480 -1.7300 -1.6583  3.0667
 1358SOL     OW15532   0.053   4.454  11.829  0.3292  0.3243 -0.2222
 1358SOL    HW115533   0.148   4.462  11.827  0.3973 -0.5141 -0.1941
 1358SOL    HW215534   0.042   4.361  11.847 -2.8794  0.7824  0.3105
 1359SOL     OW15535   2.374   1.912   8.374 -0.2946  0.7159 -0.3518
 1359SOL    HW115536   2.422   1.899   8.456 -0.0691  0.4562 -0.5242
 1359SOL    HW215537   2.286   1.933   8.405 -0.4685 -0.4180 -0.0848
 1360SOL     OW15538   4.258   1.193   3.497 -0.2296 -0.1479  0.1267
 1360SOL    HW115539   4.258   1.107   3.539 -1.3761  0.2687  0.9650
 1360SOL    HW215540   4.265   1.250   3.573  0.7074  1.0380 -0.8434
 1361SOL     OW15541   1.012   2.838   2.062  0.1898  0.4834  0.1194
 1361SOL    HW115542   1.014   2.797   2.149 -0.5038  2.2012  0.9635
 1361SOL    HW215543   1.097   2.812   2.026 -0.2966 -0.2728 -0.4911
 1362SOL     OW15544   3.003   0.651  12.881  0.2993 -0.0376 -0.4128
 1362SOL    HW115545   2.980   0.681  12.793  2.6101  2.7785 -0.0631
 1362SOL    HW215546   3.014   0.559  12.860 -2.2008 -0.6830  1.0012
 1363SOL     OW15547   1.334   1.561  16.037 -0.2398 -0.5295 -0.1386
 1363SOL    HW115548   1.375   1.648  16.044 -0.1117 -0.3873 -2.6196
 1363SOL    HW215549   1.243   1.571  16.064 -0.2552 -0.9580 -0.0310
 1364SOL     OW15550   1.279   0.895  14.773 -0.2579  0.0470  0.1142
 1364SOL    HW115551   1.358   0.878  14.722  0.8031  1.2222  1.3875
 1364SOL    HW215552   1.244   0.810  14.745  0.7770 -0.4970  0.5031
 1365SOL     OW15553   3.562   4.423   8.544  0.0861 -0.4341  0.6388
 1365SOL    HW115554   3.603   4.504   8.513 -0.2290  0.5422  2.7817
 1365SOL    HW215555   3.536   4.441   8.634  3.5072  0.7919  1.3974
 1366SOL     OW15556   0.687   3.428   4.850 -0.3281  0.2217 -0.2134
 1366SOL    HW115557   0.772   3.460   4.819 -0.0735 -1.2250 -0.9993
 1366SOL    HW215558   0.691   3.333   4.841  0.5055  0.3873 -1.6228
 1367SOL     OW15559   3.830   1.822   3.071 -0.0356 -0.0039  0.0308
 1367SOL    HW115560   3.821   1.883   3.144  0.1514 -1.1791  1.0404
 1367SOL    HW215561   3.741   1.789   3.063 -0.2617  0.5382  0.3561
 1368SOL     OW15562   1.465   1.248   6.731  0.4733  0.0885  0.6092
 1368SOL    HW115563   1.401   1.245   6.803  0.1647 -1.0863  0.2888
 1368SOL    HW215564   1.416   1.299   6.667  1.8238  1.8744  1.0004
 1369SOL     OW15565   4.020   0.033   2.382 -0.4722 -0.3907 -0.4102
 1369SOL    HW115566   3.972   4.678   2.420 -1.6225  0.0785 -0.9373
 1369SOL    HW215567   4.107   4.714   2.382 -1.0790 -1.7903 -1.0110
 1370SOL     OW15568   0.981   3.640   7.782  0.4417  0.6460  0.4269
 1370SOL    HW115569   1.004   3.703   7.713 -0.6815  0.7902  0.1777
 1370SOL    HW215570   1.041   3.571   7.754  0.5986  0.4407  1.2808
 1371SOL     OW15571   0.741   1.543  17.007 -0.5449 -0.1090 -0.3329
 1371SOL    HW115572   0.703   1.546  16.919 -0.1506  0.0593 -0.5004
 1371SOL    HW215573   0.825   1.585  16.986  0.4482 -0.8366  2.1279
 1372SOL     OW15574   4.116   4.280  10.348 -0.3584 -0.1250  0.6064
 1372SOL    HW115575   4.118   4.201  10.403  1.9206  0.4138  1.2863
 1372SOL    HW215576   4.076   4.334  10.416 -1.1902  0.3075 -0.2267
 1373SOL     OW15577   3.730   2.109  13.434  0.2913 -0.5218  0.3795
 1373SOL    HW115578   3.639   2.093  13.409  0.8315 -0.7837 -1.4008
 1373SOL    HW215579   3.782   2.087  13.357  1.5783  0.7913  0.8739
 1374SOL     OW15580   4.128   1.887   2.574 -0.3207 -0.0017  0.4012
 1374SOL    HW115581   4.054   1.948   2.579 -1.8372 -1.9437  1.8701
 1374SOL    HW215582   4.186   1.926   2.639 -1.0315 -0.1628  1.1272
 1375SOL     OW15583   0.658   4.183   6.717 -0.0421 -0.4676  0.2930
 1375SOL    HW115584   0.644   4.277   6.706 -1.7768 -0.9332 -1.6073
 1375SOL    HW215585   0.592   4.156   6.653  0.1634 -1.8664  0.6658
 1376SOL     OW15586   1.008   0.085   5.033 -0.3192  0.4364 -0.1038
 1376SOL    HW115587   1.095   0.124   5.021 -0.2223  0.0164 -0.7757
 1376SOL    HW215588   1.014   0.015   5.098  3.4839  1.7592  0.9492
 1377SOL     OW15589   0.953   3.380   2.102  0.1984  0.0193 -0.9774
 1377SOL    HW115590   0.929   3.288   2.104  1.2579 -0.2525 -0.5948
 1377SOL    HW215591   0.867   3.404   2.136 -0.5873 -1.0046 -2.2835
 1378SOL     OW15592   0.286   2.077   4.796  0.0217 -0.3432  0.1634
 1378SOL    HW115593   0.353   2.080   4.864  2.0185  0.6092 -1.8288
 1378SOL    HW215594   0.254   2.167   4.797  0.1008 -0.3110 -0.5173
 1379SOL     OW15595   3.075   4.288  10.637 -0.5431  0.1950  0.2715
 1379SOL    HW115596   3.050   4.360  10.695 -0.3866  0.0935  0.4670
 1379SOL    HW215597   3.087   4.330  10.552 -1.3681 -0.6665 -0.2593
 1380SOL     OW15598   1.100   2.334   2.883 -0.1425  0.1657  0.8361
 1380SOL    HW115599   1.045   2.401   2.843  2.4715  1.4483 -0.6471
 1380SOL    HW215600   1.033   2.291   2.935  1.5064 -1.7228  1.4212
 1381SOL     OW15601   4.006   4.446   8.467 -0.4577  0.1570 -0.2092
 1381SOL    HW115602   3.954   4.523   8.446 -0.1973 -0.0632 -1.6941
 1381SOL    HW215603   3.950   4.396   8.527  0.1135 -1.7145 -1.2345
 1382SOL     OW15604   3.906   0.638  16.878  0.8682  0.4085 -0.0994
 1382SOL    HW115605   3.926   0.700  16.948 -0.9417 -0.5715  1.2891
 1382SOL    HW215606   3.868   0.708  16.826 -0.1852  0.4252  0.7097
 1383SOL     OW15607   2.042   1.195   1.953  0.2935 -0.1794 -0.0679
 1383SOL    HW115608   2.020   1.237   1.870 -2.0958 -1.0454  0.1116
 1383SOL    HW215609   1.957   1.199   1.998  0.2411 -1.4497 -0.0417
 1384SOL     OW15610   3.060   3.648   2.028 -0.1836 -0.2994  0.3432
 1384SOL    HW115611   3.041   3.679   1.939  0.5628 -0.5426  0.0958
 1384SOL    HW215612   3.117   3.575   2.004 -0.0481 -0.0696 -0.0462
 1385SOL     OW15613   2.464   2.626   3.296 -0.3794 -0.0464 -0.0639
 1385SOL    HW115614   2.439   2.588   3.212  0.4631  0.1618 -0.4163
 1385SOL    HW215615   2.542   2.675   3.267 -0.2348 -0.9147 -1.1652
 1386SOL     OW15616   3.499   3.336   2.139 -0.2633 -0.6555 -0.0756
 1386SOL    HW115617   3.573   3.281   2.164  0.0454 -0.4632 -0.5477
 1386SOL    HW215618   3.427   3.322   2.200  1.3992 -3.6602  1.1781
 1387SOL     OW15619   4.703   0.807   6.180  0.2951  0.3963 -0.0254
 1387SOL    HW115620   4.671   0.839   6.096  0.3404  0.2115 -0.1134
 1387SOL    HW215621   4.640   0.845   6.241  1.7167  0.3800  1.4447
 1388SOL     OW15622   3.587   3.308   2.823  0.6540 -0.2912  0.2873
 1388SOL    HW115623   3.639   3.227   2.816  1.4491  0.0962  1.7671
 1388SOL    HW215624   3.519   3.301   2.756  0.0431  1.5784  0.7199
 1389SOL     OW15625   0.674   1.783   8.354  0.0910 -0.1438  0.1055
 1389SOL    HW115626   0.594   1.813   8.398  0.6649 -1.3495  1.9451
 1389SOL    HW215627   0.739   1.758   8.420 -0.6254 -0.4657  0.6915
 1390SOL     OW15628   1.696   1.239   4.515  0.3511 -0.1789  0.7227
 1390SOL    HW115629   1.648   1.178   4.571  0.0694 -0.5932  0.0418
 1390SOL    HW215630   1.716   1.179   4.443  2.1395  1.6035 -0.2502
 1391SOL     OW15631   3.181   2.799   6.457  0.3332 -0.1488  0.6041
 1391SOL    HW115632   3.263   2.781   6.503 -0.4459 -1.6568  1.4174
 1391SOL    HW215633   3.214   2.872   6.406 -3.0822  0.9027 -0.0953
 1392SOL     OW15634   3.319   3.097   7.143  0.0698  0.0132  0.2011
 1392SOL    HW115635   3.352   3.146   7.218 -2.0077  1.3227  0.2674
 1392SOL    HW215636   3.241   3.142   7.109  0.7812  0.1644 -1.1967
 1393SOL     OW15637   1.641   4.166   5.822  0.3627 -0.5836 -0.1487
 1393SOL    HW115638   1.730   4.196   5.837 -0.0397  0.9510 -0.8022
 1393SOL    HW215639   1.667   4.102   5.756  1.7513 -0.5116  0.3265
 1394SOL     OW15640   2.033   2.981  16.723  0.9731 -0.1222  0.0328
 1394SOL    HW115641   1.938   2.996  16.728  1.1235  0.7065  0.5044
 1394SOL    HW215642   2.036   2.927  16.644 -0.0465 -1.1045  0.6635
 1395SOL     OW15643   1.811   4.583   5.904 -0.3152 -0.5918  0.5049
 1395SOL    HW115644   1.771   4.620   5.825 -1.1630  0.9511  1.6433
 1395SOL    HW215645   1.750   4.592   5.977 -2.2109 -0.2894 -1.1292
 1396SOL     OW15646   3.422   2.226   5.921 -0.2510 -0.5095 -0.2954
 1396SOL    HW115647   3.332   2.240   5.952  0.4428  1.3546  0.8582
 1396SOL    HW215648   3.454   2.315   5.937  0.1085 -0.2921 -2.2590
 1397SOL     OW15649   0.632   3.518   3.217 -0.0309 -0.1898 -0.3755
 1397SOL    HW115650   0.717   3.555   3.192 -0.8337 -0.7110 -3.9341
 1397SOL    HW215651   0.600   3.492   3.131  2.3267  0.2249 -1.3932
 1398SOL     OW15652   2.124   3.358   7.122  0.0012 -0.1631 -0.5400
 1398SOL    HW115653   2.030   3.347   7.135  0.1555  0.0887  0.7610
 1398SOL    HW215654   2.152   3.266   7.117  1.4859  0.2325  0.5148
 1399SOL     OW15655   1.551   2.956   7.749  0.0430 -0.6796 -0.2577
 1399SOL    HW115656   1.525   3.013   7.677  0.6001  0.3609  0.3722
 1399SOL    HW215657   1.511   2.871   7.729 -2.1724 -0.1190  1.6914
 1400SOL     OW15658   0.204   2.615  11.537 -0.3437  0.4080  0.3621
 1400SOL    HW115659   0.282   2.664  11.510 -0.1409 -1.0792 -1.7299
 1400SOL    HW215660   0.245   2.531  11.516 -1.3324  0.3447 -1.3680
 1401SOL     OW15661   0.376   1.849   9.355 -0.0477  0.2070 -0.2593
 1401SOL    HW115662   0.375   1.945   9.354  2.1187  0.2259 -0.0456
 1401SOL    HW215663   0.306   1.832   9.418  0.2530 -0.5160 -0.1202
 1402SOL     OW15664   0.145   0.891   4.961 -0.4965 -0.3199 -0.4260
 1402SOL    HW115665   0.119   0.945   4.886 -0.5379 -0.8724 -0.8112
 1402SOL    HW215666   0.231   0.924   4.987 -0.0530 -1.3117 -0.6368
 1403SOL     OW15667   0.515   0.875   4.298 -0.3956 -0.0682  0.1585
 1403SOL    HW115668   0.600   0.913   4.322 -0.1058  0.2282 -1.3213
 1403SOL    HW215669   0.514   0.888   4.203  0.0045  2.4118  0.5018
 1404SOL     OW15670   4.144   1.154  13.177 -0.2680  0.1287  0.0760
 1404SOL    HW115671   4.125   1.242  13.210  1.1000  0.9241 -1.2173
 1404SOL    HW215672   4.199   1.179  13.102 -0.0641  0.9769  0.5107
 1405SOL     OW15673   4.625   3.852   4.149 -0.3244 -0.1126 -0.4075
 1405SOL    HW115674   4.532   3.828   4.141  0.1288 -2.5448  1.6453
 1405SOL    HW215675   4.622   3.941   4.113  1.3547  0.0686 -0.0598
 1406SOL     OW15676   2.045   2.127   6.649 -0.3103 -0.1374  0.1215
 1406SOL    HW115677   2.100   2.137   6.571  2.1471 -0.9227  1.7376
 1406SOL    HW215678   2.117   2.131   6.712  1.2358  0.7631 -1.6999
 1407SOL     OW15679   2.780   3.545   9.355 -0.4694  0.1629  0.4619
 1407SOL    HW115680   2.729   3.474   9.316 -2.8196  1.4927  1.1153
 1407SOL    HW215681   2.736   3.622   9.321 -1.7178 -1.0579 -0.6781
 1408SOL     OW15682   2.374   0.405  16.909 -0.8003  0.3653  0.0396
 1408SOL    HW115683   2.407   0.374  16.825  1.0260 -0.0678  0.9094
 1408SOL    HW215684   2.289   0.361  16.909 -0.9227  0.6013  1.3398
 1409SOL     OW15685   2.054   2.208   2.764 -0.0765  0.5780 -0.2341
 1409SOL    HW115686   2.075   2.258   2.684  0.9132 -1.0368 -1.0004
 1409SOL    HW215687   1.959   2.201   2.758  0.0627 -0.7499 -0.9778
 1410SOL     OW15688   3.903   4.325   2.491 -0.0626 -0.1098 -0.7775
 1410SOL    HW115689   3.898   4.415   2.522 -3.0735 -0.6669  0.3555
 1410SOL    HW215690   3.874   4.342   2.402  1.1652  0.0486 -1.1484
 1411SOL     OW15691   3.104   4.031  10.701 -0.0668 -0.4079 -0.1111
 1411SOL    HW115692   3.099   4.120  10.666  0.7858 -0.3341 -0.0531
 1411SOL    HW215693   3.076   4.041  10.792  1.0256  1.0379  0.0717
 1412SOL     OW15694   0.270   4.586   4.545  0.0864  0.0853  0.6949
 1412SOL    HW115695   0.295   4.632   4.625  2.1056  3.0361 -1.6537
 1412SOL    HW215696   0.187   4.631   4.529 -0.1535 -0.8344 -0.6140
 1413SOL     OW15697   1.313   3.197   9.595  0.2718  0.2169  0.1973
 1413SOL    HW115698   1.336   3.109   9.626  1.3797  0.3007 -0.4067
 1413SOL    HW215699   1.372   3.250   9.649 -0.1533  0.4025  0.4775
 1414SOL     OW15700   0.324   2.463   6.791  0.4582  0.4616  0.3056
 1414SOL    HW115701   0.414   2.443   6.765  0.0832 -0.8337  0.0080
 1414SOL    HW215702   0.344   2.463   6.885  1.0730  0.6723  0.1767
 1415SOL     OW15703   0.877   1.689   3.303  0.4776  0.0512  0.1300
 1415SOL    HW115704   0.919   1.768   3.270  2.7872 -2.1548 -2.1607
 1415SOL    HW215705   0.827   1.724   3.377  0.9824  0.8664  0.0861
 1416SOL     OW15706   1.621   4.297   2.766 -0.9640 -0.4742  0.6286
 1416SOL    HW115707   1.558   4.292   2.694  1.4130 -0.7594 -1.4082
 1416SOL    HW215708   1.652   4.381   2.732  1.8036 -1.6438  0.3410
 1417SOL     OW15709   2.098   3.071  16.377 -0.4492  0.1890 -0.3124
 1417SOL    HW115710   2.074   2.982  16.401  0.8787 -0.1348 -0.1655
 1417SOL    HW215711   2.088   3.058  16.283 -0.4503  0.1551 -0.3076
 1418SOL     OW15712   3.922   3.705   9.143 -0.0321 -0.7483 -0.4190
 1418SOL    HW115713   3.922   3.664   9.229  0.1833  0.5534  0.1945
 1418SOL    HW215714   3.847   3.762   9.159 -0.6500 -1.6881  0.0096
 1419SOL     OW15715   1.879   2.274   5.442  0.2740  0.7265  0.6538
 1419SOL    HW115716   1.831   2.310   5.517 -0.1865  0.8857  0.2852
 1419SOL    HW215717   1.884   2.351   5.384 -0.8009 -0.1873 -0.6606
 1420SOL     OW15718   0.615   4.295   6.425 -0.1283 -0.3559  0.5820
 1420SOL    HW115719   0.545   4.351   6.458  0.7908  0.5182  1.0304
 1420SOL    HW215720   0.686   4.356   6.402 -1.5685  1.4861  1.0032
 1421SOL     OW15721   3.916   1.085   6.880 -0.2445 -0.3254  0.4891
 1421SOL    HW115722   3.956   1.103   6.965  0.0248 -1.3876  0.5813
 1421SOL    HW215723   3.878   1.170   6.855  1.0164 -0.1836 -0.9550
 1422SOL     OW15724   2.138   3.990   3.707  0.5713 -0.1782  0.2246
 1422SOL    HW115725   2.189   3.947   3.638  1.8381  2.3842 -0.4105
 1422SOL    HW215726   2.067   4.021   3.651  0.0221 -1.5593  0.1319
 1423SOL     OW15727   0.738   2.983   5.587  0.1393 -0.5144  0.6149
 1423SOL    HW115728   0.716   2.902   5.541 -3.2820 -0.8379  2.8009
 1423SOL    HW215729   0.763   2.961   5.677  2.4033  1.7265  0.5330
 1424SOL     OW15730   0.168   0.545  15.451 -0.1457 -0.5881 -0.5249
 1424SOL    HW115731   0.115   0.517  15.376  3.0347 -0.7315 -2.7465
 1424SOL    HW215732   0.132   0.631  15.472 -1.0422 -0.6173 -1.9351
 1425SOL     OW15733   3.035   0.739  17.360 -0.8179  0.2219  0.2364
 1425SOL    HW115734   2.952   0.691  17.357 -1.2684  1.0305 -0.2300
 1425SOL    HW215735   3.029   0.787  17.278  1.1765  1.2586  0.6843
 1426SOL     OW15736   0.275   0.767   3.825  0.3891 -0.1176  0.2638
 1426SOL    HW115737   0.339   0.697   3.821  0.2893 -0.1881 -0.1795
 1426SOL    HW215738   0.278   0.777   3.920  0.7222 -2.0813  0.4594
 1427SOL     OW15739   0.730   0.216   6.052 -0.1535 -0.2246 -0.0478
 1427SOL    HW115740   0.788   0.187   6.123  0.2626 -0.2045 -0.3743
 1427SOL    HW215741   0.684   0.286   6.098  0.0515 -0.6894  0.8645
 1428SOL     OW15742   1.545   2.670   4.501  0.5271  0.0512 -0.0412
 1428SOL    HW115743   1.602   2.593   4.498 -0.5896 -0.7067 -1.7907
 1428SOL    HW215744   1.472   2.657   4.441  0.8658 -1.8143 -0.0331
 1429SOL     OW15745   2.140   3.073   7.514 -0.4524  0.3182  0.2098
 1429SOL    HW115746   2.229   3.089   7.483 -0.8204 -0.6059 -1.3797
 1429SOL    HW215747   2.155   3.019   7.591 -1.3261  0.5692  0.5597
 1430SOL     OW15748   0.657   1.272  16.773 -0.3585 -0.3433  0.1216
 1430SOL    HW115749   0.732   1.224  16.808 -1.0688 -0.8753  0.9284
 1430SOL    HW215750   0.648   1.253  16.680 -1.1101 -0.2895  0.1845
 1431SOL     OW15751   4.622   2.004   8.821 -0.5526  0.2414  0.6251
 1431SOL    HW115752   4.553   1.984   8.885  0.8975 -0.3103  1.9951
 1431SOL    HW215753   4.600   2.088   8.780  0.1116 -0.2157 -0.6759
 1432SOL     OW15754   3.662   1.278  14.212 -0.0097 -0.3046  0.1331
 1432SOL    HW115755   3.594   1.318  14.267 -0.6535  0.2746 -1.1002
 1432SOL    HW215756   3.683   1.197  14.258  2.5763 -0.2030 -0.8684
 1433SOL     OW15757   3.074   3.094  11.070 -0.0077 -0.1365  0.1025
 1433SOL    HW115758   2.999   3.151  11.087  0.0473  0.0061 -0.1232
 1433SOL    HW215759   3.070   3.100  10.974  2.4986  0.0365  0.0138
 1434SOL     OW15760   0.972   1.595  13.017 -0.5080 -0.0079  0.5553
 1434SOL    HW115761   0.970   1.588  12.922 -2.5933 -1.0386  0.6676
 1434SOL    HW215762   0.908   1.665  13.027 -0.1201  0.2364  1.3928
 1435SOL     OW15763   0.976   0.156  14.745  0.4748  0.4339 -0.4083
 1435SOL    HW115764   0.907   0.097  14.716  0.2781  1.7733 -2.7072
 1435SOL    HW215765   1.042   0.155  14.675 -1.4876  0.1702 -2.2507
 1436SOL     OW15766   4.403   3.397   3.182 -0.1324  0.1953  0.3399
 1436SOL    HW115767   4.329   3.378   3.125  0.1016 -1.4953  0.5968
 1436SOL    HW215768   4.422   3.318   3.233 -0.1855 -0.5354 -0.7700
 1437SOL     OW15769   2.354   0.489   2.438 -0.0445 -0.4831  0.1070
 1437SOL    HW115770   2.294   0.465   2.368 -1.1363  0.8001  0.6012
 1437SOL    HW215771   2.407   0.547   2.383 -0.8781 -0.4237 -0.6287
 1438SOL     OW15772   0.879   3.591   7.461 -0.7844 -0.7199 -0.1716
 1438SOL    HW115773   0.810   3.541   7.505 -1.2941 -0.7469 -1.0002
 1438SOL    HW215774   0.894   3.665   7.519  0.8044 -1.8398  0.8376
 1439SOL     OW15775   4.487   1.455   4.351 -0.2802 -0.4257  0.0589
 1439SOL    HW115776   4.578   1.444   4.378 -0.0303  0.1713 -0.5548
 1439SOL    HW215777   4.436   1.475   4.430 -1.4026 -1.0995 -0.4898
 1440SOL     OW15778   2.143   1.373   0.789  0.2254 -0.3713  0.2714
 1440SOL    HW115779   2.102   1.374   0.875  0.2100 -3.5675  0.3030
 1440SOL    HW215780   2.232   1.341   0.804  0.4368 -0.3204 -0.8510
 1441SOL     OW15781   3.130   0.325   2.099 -0.1288  0.4693 -0.4834
 1441SOL    HW115782   3.087   0.276   2.029  1.6559  1.0823 -2.0236
 1441SOL    HW215783   3.068   0.393   2.122 -1.5356 -1.2864  0.9144
 1442SOL     OW15784   4.425   3.287   4.906 -0.3263 -0.8804  0.0411
 1442SOL    HW115785   4.388   3.318   4.824  0.2397  0.8612  0.4366
 1442SOL    HW215786   4.518   3.302   4.889 -0.3789 -1.1097 -0.4547
 1443SOL     OW15787   1.900   4.266   6.978 -0.0986  0.1823 -0.1768
 1443SOL    HW115788   1.893   4.224   7.063 -3.1397  1.0202 -0.0214
 1443SOL    HW215789   1.943   4.194   6.933  0.0351 -0.5378  1.1103
 1444SOL     OW15790   0.915   4.163   6.629  0.3277 -0.1450  0.2275
 1444SOL    HW115791   0.822   4.162   6.647  0.0892  0.3880 -0.9472
 1444SOL    HW215792   0.925   4.257   6.645  3.5339 -0.1209 -1.7170
 1445SOL     OW15793   3.377   3.630   2.020 -0.3033 -0.6246 -0.5722
 1445SOL    HW115794   3.336   3.592   1.941  1.1891  0.0857 -1.6843
 1445SOL    HW215795   3.361   3.556   2.079  0.9926  0.0824  0.6508
 1446SOL     OW15796   1.947   4.700   7.776 -0.1401  0.4120  0.0244
 1446SOL    HW115797   1.988   4.613   7.778  0.0231  0.5538  3.1848
 1446SOL    HW215798   1.934   4.712   7.870  0.4800  0.6811  0.0698
 1447SOL     OW15799   1.812   0.627   8.317  0.5088 -0.6375  0.5531
 1447SOL    HW115800   1.845   0.604   8.404  1.5532  0.1734  0.3672
 1447SOL    HW215801   1.760   0.547   8.309 -1.7778  1.0406 -1.3405
 1448SOL     OW15802   3.637   3.624   6.694  0.4690  0.1860 -0.6874
 1448SOL    HW115803   3.581   3.623   6.772 -0.4725 -1.9726 -1.4062
 1448SOL    HW215804   3.700   3.557   6.718  2.1675  1.9512 -0.1749
 1449SOL     OW15805   0.526   4.223  14.557 -0.1237  0.9163 -0.0629
 1449SOL    HW115806   0.544   4.131  14.537 -1.3223  0.2243  2.0060
 1449SOL    HW215807   0.492   4.215  14.646 -2.1745  2.2743 -0.7294
 1450SOL     OW15808   4.512   1.171  10.570  0.4861 -0.2237 -0.6857
 1450SOL    HW115809   4.596   1.169  10.616 -0.4232  2.3228  1.0405
 1450SOL    HW215810   4.453   1.134  10.635 -0.1442  0.6372 -0.7848
 1451SOL     OW15811   4.310   3.646   4.719  0.4360 -0.0123  0.2360
 1451SOL    HW115812   4.289   3.618   4.808  0.2479 -1.7034 -0.3405
 1451SOL    HW215813   4.385   3.591   4.696  1.3325  1.5614 -0.6042
 1452SOL     OW15814   4.348   2.912   5.228 -0.4946  0.1705 -0.1470
 1452SOL    HW115815   4.272   2.863   5.260 -1.2715  0.0094 -2.2429
 1452SOL    HW215816   4.418   2.848   5.244 -0.6019  0.3425  1.0126
 1453SOL     OW15817   0.803   4.088   8.613  0.0875 -0.7110  0.0832
 1453SOL    HW115818   0.718   4.093   8.656 -0.0650  0.4701 -0.3692
 1453SOL    HW215819   0.803   4.162   8.553 -1.3133 -1.5941 -1.0140
 1454SOL     OW15820   2.259   2.590   3.546  0.0745  0.3590 -0.5249
 1454SOL    HW115821   2.347   2.563   3.522  0.4394  1.5741 -0.5340
 1454SOL    HW215822   2.273   2.640   3.627 -0.7303  1.1864 -0.8986
 1455SOL     OW15823   0.719   1.302  17.154 -0.7799 -0.3238  0.3080
 1455SOL    HW115824   0.724   1.381  17.099  1.2178  0.7107  2.0040
 1455SOL    HW215825   0.624   1.292  17.161 -1.0882  1.1482 -1.7808
 1456SOL     OW15826   3.076   0.298   3.054 -0.1243  0.3123  0.0478
 1456SOL    HW115827   3.129   0.242   2.997  2.2742  1.7339  0.8235
 1456SOL    HW215828   3.015   0.320   2.984 -0.6483 -2.3409 -0.2892
 1457SOL     OW15829   4.439   4.179   1.319 -0.3171  0.1718  0.4854
 1457SOL    HW115830   4.524   4.163   1.278 -0.1346  0.6187  0.6946
 1457SOL    HW215831   4.456   4.161   1.411  2.5031 -0.1427 -0.1113
 1458SOL     OW15832   2.087   1.708   3.056  0.0994 -0.4178  0.5068
 1458SOL    HW115833   2.025   1.738   2.989  0.3190 -0.2769  0.3691
 1458SOL    HW215834   2.112   1.786   3.105  1.6580 -0.9787  0.5898
 1459SOL     OW15835   1.446   4.468   1.430  0.4552 -0.2223 -0.0498
 1459SOL    HW115836   1.466   4.489   1.339 -1.0904  2.1842  0.1611
 1459SOL    HW215837   1.412   4.552   1.461  1.0405 -0.4888  1.2865
 1460SOL     OW15838   3.519   2.489   5.910 -0.1840  0.3838 -0.6358
 1460SOL    HW115839   3.538   2.507   5.818  2.7767  0.6448  0.0533
 1460SOL    HW215840   3.443   2.544   5.933  0.4995 -0.1445  2.8520
 1461SOL     OW15841   4.227   2.571   4.538 -0.2238 -0.2780 -0.0510
 1461SOL    HW115842   4.183   2.654   4.555  0.1510 -0.1176  0.1441
 1461SOL    HW215843   4.310   2.587   4.583  0.7068 -1.3214 -1.3920
 1462SOL     OW15844   3.997   4.341   0.607  0.0991 -0.1874  0.2433
 1462SOL    HW115845   3.976   4.434   0.602  0.1441 -0.2465 -1.0263
 1462SOL    HW215846   3.926   4.315   0.666 -0.0072 -0.8416 -0.1702
 1463SOL     OW15847   3.570   0.278  15.245  0.6457 -0.2694 -0.4371
 1463SOL    HW115848   3.503   0.227  15.198 -1.2283  2.0219 -0.2733
 1463SOL    HW215849   3.611   0.206  15.293 -2.6482 -3.2422 -2.0168
 1464SOL     OW15850   1.553   1.974   5.917 -0.2279  0.3109  0.2030
 1464SOL    HW115851   1.609   2.032   5.866  1.4358  0.4228  2.1454
 1464SOL    HW215852   1.471   1.996   5.873  0.0232 -1.8765 -1.3311
 1465SOL     OW15853   4.086   4.623   0.455 -0.3162  0.5337 -0.4709
 1465SOL    HW115854   4.147   4.696   0.461  2.0928 -1.5750  0.3159
 1465SOL    HW215855   4.065   4.633   0.363 -0.2885 -1.0248 -0.6544
 1466SOL     OW15856   2.124   3.539   4.491  0.3009  0.4977  0.5832
 1466SOL    HW115857   2.072   3.460   4.505  0.7945 -0.0022 -0.3936
 1466SOL    HW215858   2.109   3.551   4.397 -1.8839 -0.2441  0.8443
 1467SOL     OW15859   3.153   2.105   5.595 -0.1697  0.1557  0.3366
 1467SOL    HW115860   3.081   2.148   5.550 -0.7058 -0.2691  0.8030
 1467SOL    HW215861   3.139   2.011   5.586  3.9999 -0.3270 -1.1293
 1468SOL     OW15862   1.249   4.034   7.763  0.2593  0.1087  0.2312
 1468SOL    HW115863   1.316   4.017   7.830  0.5055 -1.3292 -0.3847
 1468SOL    HW215864   1.167   4.024   7.811 -0.9819 -0.3610 -2.0355
 1469SOL     OW15865   0.736   0.976   3.520 -0.5665 -0.3103 -0.0405
 1469SOL    HW115866   0.816   0.960   3.470  0.4837 -1.2482  1.9460
 1469SOL    HW215867   0.766   1.032   3.592 -0.7113  1.7903 -1.5907
 1470SOL     OW15868   2.249   1.610   9.003 -0.1772  0.1352 -0.0453
 1470SOL    HW115869   2.235   1.519   8.974  1.6577  0.4087 -1.7618
 1470SOL    HW215870   2.192   1.659   8.944 -0.3398  0.4532  0.3790
 1471SOL     OW15871   1.834   1.832   5.954 -0.1689  0.4319 -0.3593
 1471SOL    HW115872   1.865   1.747   5.986  0.7260  0.7864 -0.2944
 1471SOL    HW215873   1.794   1.863   6.035 -0.6978  0.0949 -0.4876
 1472SOL     OW15874   3.801   3.382   0.699 -0.2522 -0.1633 -0.3621
 1472SOL    HW115875   3.802   3.464   0.749  0.2257 -0.6700  0.4483
 1472SOL    HW215876   3.896   3.372   0.695 -0.5838 -4.2787  2.3527
 1473SOL     OW15877   1.959   3.940   5.718 -0.1249  0.5435 -0.5939
 1473SOL    HW115878   1.877   3.961   5.674  0.9111  1.5393 -2.0564
 1473SOL    HW215879   1.991   3.868   5.664 -0.6919 -0.4467  0.3899
 1474SOL     OW15880   3.580   0.915   3.691  0.2550 -0.0226 -0.6035
 1474SOL    HW115881   3.525   0.856   3.639 -0.3190 -0.9213  1.0098
 1474SOL    HW215882   3.615   0.969   3.621  0.7901 -0.7583 -0.8941
 1475SOL     OW15883   2.293   1.435   4.990 -0.8444  0.1851 -0.1074
 1475SOL    HW115884   2.321   1.350   4.958  1.6282  0.5469  1.1657
 1475SOL    HW215885   2.286   1.414   5.083 -1.3858 -0.4699 -0.2941
 1476SOL     OW15886   0.054   2.446  17.582  0.5435 -0.1151  0.1794
 1476SOL    HW115887   0.048   2.361  17.539 -0.4390 -0.4453  0.9622
 1476SOL    HW215888   0.023   2.419  17.668  2.1029 -0.5540  0.6073
 1477SOL     OW15889   2.815   0.507   1.839 -0.3307 -0.2923 -0.0718
 1477SOL    HW115890   2.783   0.442   1.775  0.3833  0.5660 -1.2897
 1477SOL    HW215891   2.908   0.500   1.821 -0.5394  0.3768 -1.4393
 1478SOL     OW15892   0.785   2.449   2.249 -0.1267  0.4375  0.3750
 1478SOL    HW115893   0.844   2.425   2.178 -1.3035 -0.8953 -0.1579
 1478SOL    HW215894   0.754   2.536   2.223  1.1751  0.4025 -1.2908
 1479SOL     OW15895   3.860   4.403   5.381 -0.1867 -0.1135 -0.1566
 1479SOL    HW115896   3.952   4.379   5.368  0.1240  1.0969 -0.1856
 1479SOL    HW215897   3.821   4.317   5.364  0.7890 -1.0180  2.1427
 1480SOL     OW15898   0.782   1.713   8.618  0.1392 -0.0195  0.1149
 1480SOL    HW115899   0.736   1.771   8.680  0.4595  2.4930 -2.0206
 1480SOL    HW215900   0.770   1.633   8.670  1.2153 -0.7631 -0.7778
 1481SOL     OW15901   3.062   2.411   5.724  0.4104 -0.5883  0.0173
 1481SOL    HW115902   3.079   2.346   5.656  0.6021 -0.6731  0.1495
 1481SOL    HW215903   3.001   2.361   5.778 -1.2594 -1.3781 -2.5476
 1482SOL     OW15904   2.269   1.840   5.659  0.2211 -0.5593  0.1703
 1482SOL    HW115905   2.222   1.763   5.626  1.0857 -0.5591 -1.0416
 1482SOL    HW215906   2.290   1.812   5.748 -1.4662 -0.8041  0.4791
 1483SOL     OW15907   3.085   3.281   9.071  0.5872 -0.5289  0.0640
 1483SOL    HW115908   3.171   3.319   9.056  0.4705 -0.2895 -0.0067
 1483SOL    HW215909   3.062   3.304   9.161 -0.7210 -1.1326 -0.1068
 1484SOL     OW15910   1.558   1.260  13.956 -0.1530 -0.2569  0.3283
 1484SOL    HW115911   1.553   1.355  13.942 -0.5662 -0.5522 -1.6329
 1484SOL    HW215912   1.648   1.244  13.983 -0.3167 -1.4970  0.1339
 1485SOL     OW15913   0.257   3.578   4.873  0.3977 -0.2451  0.2271
 1485SOL    HW115914   0.254   3.647   4.939  1.0916  0.4730 -0.5068
 1485SOL    HW215915   0.219   3.501   4.916 -0.4030  0.4249  0.7186
 1486SOL     OW15916   3.246   3.943   7.252  0.3285  0.2303  0.4366
 1486SOL    HW115917   3.222   4.006   7.185 -0.2782  0.8824  1.2703
 1486SOL    HW215918   3.338   3.927   7.235  0.1455 -0.1907 -0.1600
 1487SOL     OW15919   3.345   4.072   6.896 -0.0865  1.0021  0.1767
 1487SOL    HW115920   3.259   4.070   6.937  0.1699 -0.2999  0.6262
 1487SOL    HW215921   3.392   4.147   6.934  0.5834 -0.4738  2.2334
 1488SOL     OW15922   3.753   3.519   0.451 -0.0802 -0.2561 -0.2406
 1488SOL    HW115923   3.717   3.451   0.394  1.0577  0.7741 -2.1889
 1488SOL    HW215924   3.741   3.485   0.540  3.2256 -0.1889  0.2103
 1489SOL     OW15925   4.304   3.511   1.884  0.2489 -0.6018 -0.0936
 1489SOL    HW115926   4.324   3.495   1.977 -0.0434 -1.9746 -0.2654
 1489SOL    HW215927   4.345   3.597   1.884  0.4639 -0.7252 -3.1564
 1490SOL     OW15928   2.295   0.064   7.417  0.0068  0.1491 -0.0456
 1490SOL    HW115929   2.271   0.049   7.509 -0.6562 -2.3437 -0.6217
 1490SOL    HW215930   2.328   0.154   7.415  1.3626 -0.2600  3.1730
 1491SOL     OW15931   1.990   1.685   6.713 -0.0329  0.6361 -0.2487
 1491SOL    HW115932   2.056   1.685   6.782 -0.3132 -0.6288  0.0139
 1491SOL    HW215933   2.053   1.678   6.641  0.8693  2.2372  0.3704
 1492SOL     OW15934   0.008   2.402   0.185 -0.4053 -0.0382  0.7297
 1492SOL    HW115935   4.642   2.359   0.181 -0.1598 -0.5015  0.4419
 1492SOL    HW215936   0.062   2.328   0.214  1.0381  0.5452 -0.4712
 1493SOL     OW15937   0.888   0.349   5.673  0.1011 -0.8898 -0.1624
 1493SOL    HW115938   0.940   0.291   5.728  0.5370 -0.4661 -0.1295
 1493SOL    HW215939   0.947   0.377   5.602  0.2179 -2.7078 -0.7969
 1494SOL     OW15940   1.774   3.021  16.706 -0.0004 -0.0390  0.2848
 1494SOL    HW115941   1.743   2.981  16.787  1.8630 -2.4391 -0.1915
 1494SOL    HW215942   1.724   2.977  16.637  0.4960  1.3786 -0.9727
 1495SOL     OW15943   3.168   4.531   0.150  0.1770 -0.1747  0.5316
 1495SOL    HW115944   3.201   4.456   0.101  0.9776  0.2559  0.4058
 1495SOL    HW215945   3.123   4.485   0.221  1.2470 -0.7487  0.8338
 1496SOL     OW15946   2.230   3.160   9.083  0.1589 -0.2595 -0.2693
 1496SOL    HW115947   2.145   3.196   9.111  0.5729  0.5387 -0.0138
 1496SOL    HW215948   2.267   3.124   9.164  0.0138 -0.6321 -0.3689
 1497SOL     OW15949   3.312   4.392   2.833  0.1425  0.1633  0.0541
 1497SOL    HW115950   3.243   4.339   2.794  0.6643 -0.5973  0.1584
 1497SOL    HW215951   3.285   4.415   2.921 -1.2347 -1.1794 -0.0103
 1498SOL     OW15952   3.244   1.535   9.359 -0.0968  0.4255 -0.6964
 1498SOL    HW115953   3.329   1.577   9.342  0.0505 -0.2728 -1.6756
 1498SOL    HW215954   3.193   1.609   9.390 -0.4432 -0.1723  0.1357
 1499SOL     OW15955   2.708   2.609  14.914 -0.2875 -0.4623  0.8565
 1499SOL    HW115956   2.654   2.590  14.991  1.2231  2.8029  2.7451
 1499SOL    HW215957   2.659   2.577  14.839  0.8341 -0.1781 -0.0034
 1500SOL     OW15958   4.687   2.933   5.709  0.4031  0.1935  0.0626
 1500SOL    HW115959   0.034   3.003   5.706 -0.0880  0.6745  0.4239
 1500SOL    HW215960   4.635   2.956   5.786  0.6675 -1.2153  0.6661
 1501SOL     OW15961   0.965   2.533   7.939  0.2249  0.4536  0.5474
 1501SOL    HW115962   0.936   2.471   8.006 -1.5470 -0.5924 -1.2158
 1501SOL    HW215963   0.972   2.476   7.863  0.3368  0.4781  0.5391
 1502SOL     OW15964   4.237   1.123  10.122  0.1550 -0.0628 -0.1215
 1502SOL    HW115965   4.236   1.111  10.217  0.8624  1.7293  0.1012
 1502SOL    HW215966   4.320   1.085  10.093  0.7224  0.2146  1.1290
 1503SOL     OW15967   0.091   1.939   6.708 -0.5319 -0.1411  0.2155
 1503SOL    HW115968   0.134   1.876   6.650 -1.0401  1.1981 -1.6278
 1503SOL    HW215969   0.154   2.010   6.721 -0.7453  0.2296 -0.7144
 1504SOL     OW15970   0.848   1.174   7.808  0.0893  0.2296 -0.1732
 1504SOL    HW115971   0.847   1.222   7.725  1.1178  1.7606  0.6940
 1504SOL    HW215972   0.836   1.085   7.776 -2.0064  0.0499  1.0996
 1505SOL     OW15973   2.904   1.516  12.231  0.5875  0.2283  0.8566
 1505SOL    HW115974   2.890   1.595  12.179 -1.0790 -0.4493  0.2833
 1505SOL    HW215975   2.878   1.541  12.319 -1.6512  1.1387 -0.0783
 1506SOL     OW15976   1.331   1.974   4.438 -0.1651 -0.1345 -0.1820
 1506SOL    HW115977   1.352   1.894   4.486  0.7099  0.9883  1.3141
 1506SOL    HW215978   1.385   1.957   4.362  0.2012 -0.0603  0.0615
 1507SOL     OW15979   1.777   0.060  12.995 -0.5117  0.0180 -0.3386
 1507SOL    HW115980   1.716   4.708  12.974  1.2366 -1.7923  0.7601
 1507SOL    HW215981   1.861   0.014  12.990 -0.3851  0.2064  0.0676
 1508SOL     OW15982   4.624   0.909   5.120 -0.3367 -0.0348  0.0107
 1508SOL    HW115983   4.574   0.923   5.039 -2.2717 -0.2737  1.1634
 1508SOL    HW215984   4.713   0.913   5.085  0.2444 -1.1566  1.3968
 1509SOL     OW15985   3.852   2.043   8.091  0.1939  0.5516  0.3520
 1509SOL    HW115986   3.893   2.127   8.109  2.5960 -0.4986 -0.1871
 1509SOL    HW215987   3.768   2.073   8.056 -1.0225 -0.9270  2.0515
 1510SOL     OW15988   3.827   3.084   4.560 -0.1807  0.2968  0.1614
 1510SOL    HW115989   3.813   3.094   4.466 -0.4930 -0.5161  0.1194
 1510SOL    HW215990   3.738   3.080   4.594  0.2004  0.6793  1.2130
 1511SOL     OW15991   2.373   4.523   6.227  0.5215 -0.6730  0.6938
 1511SOL    HW115992   2.368   4.428   6.237 -0.8527 -0.6186  0.5270
 1511SOL    HW215993   2.395   4.524   6.134  1.9554  0.6077  1.0442
 1512SOL     OW15994   1.696   2.041  13.971 -0.3663  0.2825  0.5408
 1512SOL    HW115995   1.743   1.960  13.993  0.5270  0.6426 -0.0181
 1512SOL    HW215996   1.635   2.031  14.043 -1.1669  0.3849 -0.1243
 1513SOL     OW15997   1.238   2.345   8.784 -0.2598  0.5618  0.4093
 1513SOL    HW115998   1.279   2.393   8.856 -2.0549  4.0227 -0.8916
 1513SOL    HW215999   1.233   2.418   8.723 -1.5517  0.3377  0.2384
 1514SOL     OW16000   1.383   1.751   4.140 -1.6592 -0.0063 -0.2875
 1514SOL    HW116001   1.465   1.753   4.189 -1.0718  1.1144 -1.3161
 1514SOL    HW216002   1.391   1.802   4.059 -1.8050  0.9629  0.3030
 1515SOL     OW16003   3.862   4.696   4.437  0.0645  0.3143 -0.5944
 1515SOL    HW116004   3.789   0.036   4.453 -0.5212 -0.4075 -0.5800
 1515SOL    HW216005   3.837   4.664   4.350  0.4467  1.6781 -1.1900
 1516SOL     OW16006   4.258   0.227  14.029 -0.0073  0.5199 -1.3839
 1516SOL    HW116007   4.190   0.291  14.051 -1.0131 -1.5055  1.4383
 1516SOL    HW216008   4.233   0.220  13.937 -1.4909 -0.3452 -0.9189
 1517SOL     OW16009   0.158   2.523   5.204  0.0777 -0.6116  0.4560
 1517SOL    HW116010   0.106   2.443   5.215  0.0772 -0.5241  1.1070
 1517SOL    HW216011   0.246   2.484   5.199 -0.6258 -2.2609  1.0249
 1518SOL     OW16012   4.155   0.516   3.079  0.1124  0.0317  0.3821
 1518SOL    HW116013   4.110   0.558   3.152 -0.4906  1.5393 -0.8527
 1518SOL    HW216014   4.213   0.583   3.043 -1.0848  0.7920 -0.1261
 1519SOL     OW16015   0.855   3.682   6.949  0.1311  0.4583  0.5938
 1519SOL    HW116016   0.776   3.690   7.003 -2.0003  0.4162 -2.5522
 1519SOL    HW216017   0.874   3.771   6.918 -1.4410 -0.3240 -2.5624
 1520SOL     OW16018   3.653   1.626   9.615 -0.2020 -0.3846  0.1545
 1520SOL    HW116019   3.728   1.683   9.635  0.8699 -1.0807 -1.9434
 1520SOL    HW216020   3.630   1.605   9.705  1.6402  0.9510  0.9608
 1521SOL     OW16021   4.585   0.861  10.917 -0.1665  0.5754  0.2972
 1521SOL    HW116022   4.615   0.937  10.967  0.8405  0.1117  0.3875
 1521SOL    HW216023   4.532   0.814  10.981  1.6267 -1.4246  0.2892
 1522SOL     OW16024   4.458   4.397   6.016  0.3709  0.3379  0.3391
 1522SOL    HW116025   4.418   4.477   6.052 -0.1257 -0.8966  2.5195
 1522SOL    HW216026   4.408   4.379   5.936 -0.8437 -1.9989  1.6056
 1523SOL     OW16027   2.353   3.601   1.270  0.1111 -0.4891 -0.3550
 1523SOL    HW116028   2.404   3.521   1.278  2.8531  1.2898  0.2193
 1523SOL    HW216029   2.401   3.671   1.315 -0.8234 -0.7269  1.0010
 1524SOL     OW16030   3.364   2.689   4.163  0.2339 -0.1403 -0.1337
 1524SOL    HW116031   3.337   2.705   4.254  2.1256 -2.1851  0.7891
 1524SOL    HW216032   3.348   2.778   4.132  1.5704  0.6592  1.4437
 1525SOL     OW16033   0.611   4.708   7.308 -0.1156 -0.4439  0.1600
 1525SOL    HW116034   0.526   0.022   7.280  0.0033  1.5653  2.1666
 1525SOL    HW216035   0.629   0.054   7.376  1.7307  1.1130 -1.8049
 1526SOL     OW16036   4.348   1.847   3.280  0.1758 -0.1069  0.3155
 1526SOL    HW116037   4.356   1.903   3.203  0.6415 -0.6633 -0.0368
 1526SOL    HW216038   4.435   1.806   3.285  0.3954  0.2178 -0.8874
 1527SOL     OW16039   2.832   3.191   1.620  0.3619 -0.8534  0.3070
 1527SOL    HW116040   2.885   3.221   1.694 -0.9106  0.0890  0.8375
 1527SOL    HW216041   2.885   3.215   1.545 -0.9406  1.5901  0.1781
 1528SOL     OW16042   2.047   2.124  13.835 -0.1698  0.7338 -0.1831
 1528SOL    HW116043   1.982   2.118  13.765  0.0199 -1.4639 -0.1515
 1528SOL    HW216044   2.097   2.045  13.816  0.1510  0.5587  1.3569
 1529SOL     OW16045   1.017   0.432   1.673 -0.3454 -0.0820  0.2565
 1529SOL    HW116046   1.024   0.404   1.582 -0.2880  0.5158  0.0829
 1529SOL    HW216047   0.999   0.525   1.663 -2.2358 -0.6778 -1.9185
 1530SOL     OW16048   2.248   0.094   2.068  0.1044  0.4773 -0.0748
 1530SOL    HW116049   2.211   0.156   2.005  0.0427 -0.2352 -0.7398
 1530SOL    HW216050   2.177   0.030   2.076 -0.4402  1.1664  0.6530
 1531SOL     OW16051   1.155   2.548   8.548  0.5422  0.5899 -0.2154
 1531SOL    HW116052   1.188   2.490   8.479  1.3858  0.6844  0.1019
 1531SOL    HW216053   1.089   2.602   8.504 -0.5796  0.7849  1.7190
 1532SOL     OW16054   3.045   0.009   4.521 -0.1980  0.4254  0.1049
 1532SOL    HW116055   3.077   0.098   4.505 -1.1287  0.8826  0.7658
 1532SOL    HW216056   3.058   4.717   4.615 -0.2993 -1.2868 -0.0860
 1533SOL     OW16057   0.638   1.110  11.643  0.1536  0.4537 -0.0995
 1533SOL    HW116058   0.620   1.031  11.592 -0.6138 -0.6813  1.9281
 1533SOL    HW216059   0.614   1.069  11.726 -1.5684  1.6090 -0.0363
 1534SOL     OW16060   0.749   1.530  16.471 -0.3199 -0.1766  0.1416
 1534SOL    HW116061   0.822   1.586  16.445 -0.2311  0.4072  1.6385
 1534SOL    HW216062   0.781   1.447  16.435  1.2275  0.4468  0.0882
 1535SOL     OW16063   2.715   1.385   1.489  0.5508 -0.0319  0.6093
 1535SOL    HW116064   2.658   1.311   1.509  0.5766  0.2445  1.7382
 1535SOL    HW216065   2.660   1.455   1.526  1.4516 -0.1166  2.1208
 1536SOL     OW16066   2.883   4.542   3.741 -0.0935  0.4173 -0.1276
 1536SOL    HW116067   2.854   4.527   3.651  2.6579  0.9520 -1.1039
 1536SOL    HW216068   2.809   4.598   3.765  1.1829  1.5027  1.2886
 1537SOL     OW16069   2.871   1.305   9.401  0.4952 -0.2103  0.5138
 1537SOL    HW116070   2.886   1.210   9.395  1.0649 -0.2347  2.2558
 1537SOL    HW216071   2.928   1.327   9.475  1.2220 -1.6504  0.3893
 1538SOL     OW16072   3.344   3.131   5.395  0.4636 -0.7813 -0.4647
 1538SOL    HW116073   3.346   3.207   5.453  1.1279 -0.8460 -0.3985
 1538SOL    HW216074   3.262   3.089   5.420  0.6117  0.1261  1.5375
 1539SOL     OW16075   3.262   4.252   8.154  0.4214  0.1869 -0.4169
 1539SOL    HW116076   3.183   4.263   8.102  0.0680  2.0729  0.5270
 1539SOL    HW216077   3.220   4.268   8.238  0.5627  0.6065 -0.4233
 1540SOL     OW16078   3.310   4.598   3.339  0.1603 -0.0580 -0.0110
 1540SOL    HW116079   3.299   4.535   3.411  0.4103 -0.6825 -0.5176
 1540SOL    HW216080   3.243   4.663   3.361  0.3969  0.8914 -2.1189
 1541SOL     OW16081   0.316   0.576   6.370 -0.1210  0.4470 -0.0006
 1541SOL    HW116082   0.392   0.522   6.348 -2.5030 -2.6370 -0.6769
 1541SOL    HW216083   0.356   0.661   6.388 -1.1121  0.7438  0.7921
 1542SOL     OW16084   4.137   2.041   3.587  0.3756 -0.1158 -0.2277
 1542SOL    HW116085   4.105   2.098   3.656  0.0195  0.7060 -1.0669
 1542SOL    HW216086   4.085   2.066   3.511 -0.3877 -1.0271 -0.0022
 1543SOL     OW16087   4.095   1.173   5.561  0.5946 -0.5229 -0.3523
 1543SOL    HW116088   4.029   1.143   5.499 -0.1814  1.0942 -0.3211
 1543SOL    HW216089   4.144   1.237   5.509 -0.4002 -0.0803 -0.7431
 1544SOL     OW16090   3.918   2.201   9.037  0.3974  0.7679  0.4203
 1544SOL    HW116091   3.981   2.183   9.106  0.7267 -1.1472 -0.3958
 1544SOL    HW216092   3.877   2.115   9.030  0.3803  0.6516  1.9690
 1545SOL     OW16093   3.904   3.308   8.254 -0.0115  0.0499 -0.1938
 1545SOL    HW116094   3.923   3.372   8.322  2.9936 -2.4445  1.2741
 1545SOL    HW216095   3.821   3.275   8.289  0.6410 -1.1741  0.1814
 1546SOL     OW16096   4.537   1.191   6.260 -0.1666 -0.0753  0.2753
 1546SOL    HW116097   4.547   1.165   6.351  1.2983 -0.2650  0.0613
 1546SOL    HW216098   4.553   1.283   6.278 -2.9094  0.4093  0.1586
 1547SOL     OW16099   0.484   0.472  12.775 -0.4188  0.2426 -0.1793
 1547SOL    HW116100   0.503   0.508  12.688 -1.9444 -1.1513 -1.0847
 1547SOL    HW216101   0.570   0.442  12.806 -1.4048 -1.7408  0.6007
 1548SOL     OW16102   0.382   0.303   6.664 -0.4339 -0.3152  0.3198
 1548SOL    HW116103   0.473   0.276   6.657 -0.2555  1.1447 -2.8209
 1548SOL    HW216104   0.331   0.231   6.700  1.0043 -2.6239 -2.3023
 1549SOL     OW16105   3.932   3.141  17.440  0.5472 -0.4431 -0.8176
 1549SOL    HW116106   3.971   3.229  17.437 -1.0386  0.2470 -1.0732
 1549SOL    HW216107   3.871   3.141  17.513 -0.6908 -0.6274 -1.8574
 1550SOL     OW16108   3.044   4.121   3.423 -0.3083 -0.1930  0.5001
 1550SOL    HW116109   3.039   4.216   3.408  1.8754 -0.1192  0.2313
 1550SOL    HW216110   3.030   4.096   3.331 -0.1314 -1.4159  0.8057
 1551SOL     OW16111   2.125   3.430   4.957 -0.2336  0.1819 -0.0324
 1551SOL    HW116112   2.056   3.494   4.974 -0.6852  0.1448 -1.7208
 1551SOL    HW216113   2.096   3.357   5.013  0.5670  0.7386  1.1130
 1552SOL     OW16114   0.539   1.533   8.085  0.5559  0.1095 -0.5059
 1552SOL    HW116115   0.520   1.618   8.125 -2.5223 -0.5228 -0.6198
 1552SOL    HW216116   0.539   1.477   8.162  1.5923  0.6741 -0.0853
 1553SOL     OW16117   1.430   1.266   8.673 -0.3358  0.0359 -0.3817
 1553SOL    HW116118   1.500   1.278   8.737 -0.8755 -1.5941  0.5056
 1553SOL    HW216119   1.377   1.345   8.682  1.2646  0.9931  0.6131
 1554SOL     OW16120   0.771   1.932   5.497 -0.3638 -0.1862  0.1589
 1554SOL    HW116121   0.706   1.865   5.474 -0.2291 -0.2425 -0.0592
 1554SOL    HW216122   0.735   2.007   5.449 -1.0062 -0.7830 -0.3047
 1555SOL     OW16123   3.948   0.789   6.937  0.5363 -0.0736  0.0231
 1555SOL    HW116124   3.961   0.874   6.895 -0.4379 -0.3160 -0.7933
 1555SOL    HW216125   4.035   0.751   6.936  0.7521  0.3639  3.4194
 1556SOL     OW16126   4.328   0.159  17.156 -0.2855  0.2571  0.5042
 1556SOL    HW116127   4.347   0.239  17.106 -0.3796 -1.2371 -1.8972
 1556SOL    HW216128   4.265   0.192  17.220 -0.5662  2.0608 -0.6942
 1557SOL     OW16129   3.689   4.633   6.512 -0.2826 -0.5141  0.2091
 1557SOL    HW116130   3.612   4.576   6.506 -1.4246  1.4284 -3.7941
 1557SOL    HW216131   3.734   4.630   6.427  2.0435 -1.2767  1.4941
 1558SOL     OW16132   1.963   1.869  14.642  0.1684 -0.4951 -0.2600
 1558SOL    HW116133   1.931   1.892  14.730  0.4736  0.3710 -0.3682
 1558SOL    HW216134   1.918   1.930  14.583  1.4264 -0.7870 -1.5039
 1559SOL     OW16135   0.440   0.009   1.093  0.4364  0.0265  0.0727
 1559SOL    HW116136   0.368   4.667   1.075  1.3191 -0.9584 -0.1074
 1559SOL    HW216137   0.432   0.025   1.187  0.6239 -4.5222  0.8710
 1560SOL     OW16138   2.289   0.035  14.213  0.5659  0.2316  0.9096
 1560SOL    HW116139   2.246   0.063  14.132  1.3163 -1.4851 -0.0742
 1560SOL    HW216140   2.260   4.663  14.216 -2.1227  1.1089  1.8573
 1561SOL     OW16141   1.417   4.382   7.629 -0.6873 -0.3969 -0.3895
 1561SOL    HW116142   1.477   4.355   7.699 -0.3756  1.7987  0.1889
 1561SOL    HW216143   1.455   4.469   7.615 -0.4479 -0.7125 -1.7370
 1562SOL     OW16144   1.729   1.891   6.198 -0.4352  0.2019  0.0308
 1562SOL    HW116145   1.767   1.809   6.229  1.2731  0.0171 -2.5420
 1562SOL    HW216146   1.778   1.957   6.247  1.3945 -1.6504  0.6971
 1563SOL     OW16147   1.371   0.955   4.850 -0.3878  0.1238 -0.0815
 1563SOL    HW116148   1.364   0.868   4.810  1.1380  0.7555 -1.7037
 1563SOL    HW216149   1.311   1.005   4.794 -0.2373  1.4500  0.9694
 1564SOL     OW16150   2.192   0.368   9.376 -0.6008 -0.1377 -0.4669
 1564SOL    HW116151   2.096   0.374   9.377 -0.7260 -2.4467  1.2203
 1564SOL    HW216152   2.211   0.457   9.404 -1.6809 -0.1921  0.4431
 1565SOL     OW16153   3.059   3.554   2.292 -0.1319 -0.0132 -0.2820
 1565SOL    HW116154   2.965   3.569   2.303 -0.4634 -1.0878 -1.5771
 1565SOL    HW216155   3.058   3.557   2.196  0.5215  0.5194 -0.2756
 1566SOL     OW16156   0.485   1.894  13.986  0.3290 -0.0595 -0.2809
 1566SOL    HW116157   0.436   1.976  13.994 -1.2334 -1.0740  0.6337
 1566SOL    HW216158   0.568   1.916  14.028  0.3984  0.3460 -0.6328
 1567SOL     OW16159   1.872   0.760   9.770  0.4502  0.1143 -0.4698
 1567SOL    HW116160   1.786   0.789   9.800  1.1587 -0.0216  1.7278
 1567SOL    HW216161   1.910   0.847   9.757  0.5726  0.3465  1.3478
 1568SOL     OW16162   0.277   4.661   8.494  0.8224 -0.7231 -0.2261
 1568SOL    HW116163   0.288   0.020   8.548  1.2607 -0.1522 -1.1317
 1568SOL    HW216164   0.237   4.702   8.417  0.2581  0.7681  0.8852
 1569SOL     OW16165   1.809   0.568   4.783 -0.3362 -0.1636 -0.4338
 1569SOL    HW116166   1.846   0.480   4.784 -2.3975 -1.0165  0.2253
 1569SOL    HW216167   1.891   0.613   4.761  0.4011 -0.6920  1.2144
 1570SOL     OW16168   2.768   1.692  17.057 -0.7519  0.0964 -0.4682
 1570SOL    HW116169   2.699   1.641  17.016 -0.4396  0.6723 -1.6945
 1570SOL    HW216170   2.728   1.757  17.115  0.8093  0.2714  0.4256
 1571SOL     OW16171   0.226   0.886  17.642  0.5396 -0.3504 -0.0186
 1571SOL    HW116172   0.154   0.945  17.622  0.7879 -0.0127  0.0709
 1571SOL    HW216173   0.303   0.943  17.635 -0.7568  1.5878  1.4974
 1572SOL     OW16174   3.709   0.267   9.189  0.3239 -0.0685  0.2747
 1572SOL    HW116175   3.621   0.289   9.159  0.1181 -0.7795  0.3640
 1572SOL    HW216176   3.754   0.306   9.114  0.6424  0.0854  0.5452
 1573SOL     OW16177   0.190   0.621   6.036 -0.2915  0.2623  0.0182
 1573SOL    HW116178   0.126   0.678   6.079  0.9281  0.7930  1.1533
 1573SOL    HW216179   0.158   0.532   6.053  1.5228 -0.7640 -1.9546
 1574SOL     OW16180   2.754   2.113   2.546  0.1998  0.4705 -0.3894
 1574SOL    HW116181   2.695   2.187   2.534 -0.2292  0.3060  0.7205
 1574SOL    HW216182   2.792   2.104   2.459  0.7798  1.5159 -0.2396
 1575SOL     OW16183   3.653   1.824   4.803  0.4086  0.0333  0.0935
 1575SOL    HW116184   3.712   1.764   4.758  0.2182  0.0176 -0.1358
 1575SOL    HW216185   3.720   1.889   4.827  1.4977 -0.8400 -0.5499
 1576SOL     OW16186   1.471   2.851   5.700  0.0801  0.3270  0.1951
 1576SOL    HW116187   1.454   2.886   5.788 -1.2155 -2.5723  1.1079
 1576SOL    HW216188   1.562   2.873   5.681 -0.5830  1.9504 -1.1237
 1577SOL     OW16189   1.119   0.319   2.131 -0.0555 -0.5397  0.2678
 1577SOL    HW116190   1.213   0.314   2.117  0.0927  1.6003  0.5538
 1577SOL    HW216191   1.088   0.279   2.050 -0.7351  1.7443 -0.5935
 1578SOL     OW16192   2.658   3.551   0.136 -0.1002 -0.7613 -0.2247
 1578SOL    HW116193   2.735   3.565   0.081 -0.7662 -0.8647 -1.1790
 1578SOL    HW216194   2.695   3.483   0.193  0.4814 -0.5324 -0.3274
 1579SOL     OW16195   3.685   3.786   3.104  0.1630 -0.0626  0.4424
 1579SOL    HW116196   3.719   3.713   3.156 -1.3048  0.5846  2.3285
 1579SOL    HW216197   3.690   3.748   3.017 -1.5334  0.5646  0.0839
 1580SOL     OW16198   3.325   1.304  13.400  0.4963  0.0200  0.3772
 1580SOL    HW116199   3.419   1.289  13.389  0.8030 -1.3587  4.6450
 1580SOL    HW216200   3.317   1.216  13.437 -0.5977  0.3494  0.9286
 1581SOL     OW16201   2.904   0.871   2.194  0.0188 -0.2567  0.3213
 1581SOL    HW116202   2.810   0.865   2.178 -0.0449  2.2230 -0.1002
 1581SOL    HW216203   2.929   0.817   2.270  1.4397  0.9875  0.7312
 1582SOL     OW16204   0.369   0.061  17.274 -0.4569 -0.5264  0.4181
 1582SOL    HW116205   0.334   4.695  17.299  0.4542 -0.3483  2.3048
 1582SOL    HW216206   0.435   0.031  17.211 -0.2418 -1.1050  0.9270
 1583SOL     OW16207   3.316   1.719   8.396 -0.4009  0.4098  0.0902
 1583SOL    HW116208   3.358   1.690   8.477  0.2635  0.8719 -0.0928
 1583SOL    HW216209   3.389   1.721   8.333 -0.2484 -1.5040  0.1926
 1584SOL     OW16210   1.462   1.562   0.302  0.4444 -0.5367 -0.0097
 1584SOL    HW116211   1.372   1.569   0.333  1.4793 -0.7010  2.9704
 1584SOL    HW216212   1.446   1.562   0.207 -0.3589 -1.1620  0.1203
 1585SOL     OW16213   3.599   2.216   3.194  0.4983 -0.1874  0.0835
 1585SOL    HW116214   3.628   2.303   3.223  1.5707 -0.8504  0.9582
 1585SOL    HW216215   3.555   2.187   3.273  0.5866 -0.6009 -0.0226
 1586SOL     OW16216   0.960   3.294   5.649 -0.0319 -0.2180 -0.1677
 1586SOL    HW116217   1.008   3.214   5.672 -1.6963 -1.0872  0.3607
 1586SOL    HW216218   0.957   3.296   5.553  0.5921  0.5347 -0.1669
 1587SOL     OW16219   4.431   2.760  14.653 -0.1278 -0.0096 -0.0304
 1587SOL    HW116220   4.361   2.730  14.595 -2.9422  2.2656  2.2690
 1587SOL    HW216221   4.404   2.845  14.685 -1.5213 -0.1000 -0.9436
 1588SOL     OW16222   4.689   0.561   2.048 -0.7213  0.5561  1.0478
 1588SOL    HW116223   0.003   0.479   2.084 -1.4054 -0.4418 -0.5961
 1588SOL    HW216224   0.032   0.595   1.984 -2.1118 -0.6703 -0.9212
 1589SOL     OW16225   0.464   3.447  16.269  0.3119  0.2304  0.2247
 1589SOL    HW116226   0.516   3.411  16.341 -0.2876 -2.0301 -0.4621
 1589SOL    HW216227   0.402   3.507  16.309 -1.1227 -1.1962  0.1462
 1590SOL     OW16228   2.063   1.180   2.810  0.1907 -0.1977 -0.0780
 1590SOL    HW116229   1.984   1.125   2.818  1.2069 -1.5194  0.9286
 1590SOL    HW216230   2.022   1.266   2.805  1.7461  0.7905  4.0345
 1591SOL     OW16231   0.339   1.541  17.072  0.6537  0.3177 -0.1871
 1591SOL    HW116232   0.318   1.580  17.157 -1.9744 -0.8137 -0.3133
 1591SOL    HW216233   0.358   1.610  17.008  0.4822  0.9078  0.4024
 1592SOL     OW16234   0.492   2.067   4.943  0.1272 -0.0054 -0.0466
 1592SOL    HW116235   0.482   2.096   5.034  1.7902  1.6585 -0.4114
 1592SOL    HW216236   0.561   2.002   4.957 -1.3142 -1.1163  1.9013
 1593SOL     OW16237   1.513   1.526   6.957  0.4829  0.1957 -0.6419
 1593SOL    HW116238   1.422   1.511   6.932 -0.2723  1.2412  1.4316
 1593SOL    HW216239   1.503   1.554   7.048 -0.1267 -0.6469 -0.4525
 1594SOL     OW16240   2.620   0.179   6.662 -0.4114  0.4147 -0.0627
 1594SOL    HW116241   2.529   0.204   6.678 -0.7134 -1.3632  0.9583
 1594SOL    HW216242   2.647   0.246   6.599 -1.4910 -0.4241 -1.4210
 1595SOL     OW16243   0.486   1.476  15.216  0.0746 -0.3063 -0.3764
 1595SOL    HW116244   0.468   1.415  15.144  2.9101  0.4416 -1.6738
 1595SOL    HW216245   0.581   1.471  15.208  0.1232 -2.1971  1.3752
 1596SOL     OW16246   4.610   3.726  16.551 -0.4985 -0.1696  0.1163
 1596SOL    HW116247   4.561   3.663  16.604 -0.2883 -1.3293 -1.0661
 1596SOL    HW216248   4.669   3.672  16.497  0.5327  1.4089 -0.3315
 1597SOL     OW16249   4.460   2.219  10.508  0.5598 -0.3106  0.1762
 1597SOL    HW116250   4.409   2.226  10.589  0.0682 -3.2076  0.1078
 1597SOL    HW216251   4.432   2.132  10.480  1.0580  0.1219 -1.6625
 1598SOL     OW16252   0.087   2.213  17.373  0.1675  0.4057 -0.1965
 1598SOL    HW116253   0.064   2.174  17.289  0.2311 -0.0229 -0.0120
 1598SOL    HW216254   0.072   2.138  17.430  0.0651 -0.2978 -1.1449
 1599SOL     OW16255   3.770   3.086   5.094  0.7857 -0.0201 -0.1127
 1599SOL    HW116256   3.800   2.999   5.121 -1.9412 -0.5537  1.1956
 1599SOL    HW216257   3.675   3.072   5.099  0.9255 -1.3324 -1.0077
 1600SOL     OW16258   1.748   2.485   4.426  0.4529 -0.2099 -0.0426
 1600SOL    HW116259   1.775   2.569   4.388  0.1008  0.8274  2.0020
 1600SOL    HW216260   1.833   2.442   4.422  0.4294 -0.4673  2.6513
 1601SOL     OW16261   1.577   0.778  16.114 -0.2362  0.4554  0.3647
 1601SOL    HW116262   1.558   0.776  16.020 -0.1393 -0.3853  0.3583
 1601SOL    HW216263   1.545   0.689  16.129 -2.2473  1.2333  0.6529
 1602SOL     OW16264   2.627   0.237  10.619 -0.0133  0.7748 -0.4333
 1602SOL    HW116265   2.644   0.208  10.529  2.6955 -0.9503  0.6443
 1602SOL    HW216266   2.655   0.328  10.611  1.7362  0.2538 -0.2497
 1603SOL     OW16267   2.862   0.671  12.064  0.2471  0.0625 -0.0146
 1603SOL    HW116268   2.841   0.660  11.971  0.5841  0.8098 -0.1828
 1603SOL    HW216269   2.783   0.630  12.097  0.0296  0.6491  0.1845
 1604SOL     OW16270   2.265   0.748   2.008 -0.5134  0.1518  0.6637
 1604SOL    HW116271   2.186   0.714   2.050 -1.4916 -1.1763 -2.2611
 1604SOL    HW216272   2.297   0.808   2.075 -1.0978 -0.0390  1.1093
 1605SOL     OW16273   1.480   3.017   7.314  0.0255  0.0418 -0.2893
 1605SOL    HW116274   1.532   3.059   7.383  0.4922  0.6439 -1.0177
 1605SOL    HW216275   1.533   3.013   7.235  4.3409  1.1178  2.5278
 1606SOL     OW16276   4.028   0.010   5.204  0.2045 -0.1127  0.4856
 1606SOL    HW116277   4.114   0.012   5.162 -0.2722 -3.0015 -0.6608
 1606SOL    HW216278   4.052   4.709   5.294 -2.1412  1.4265  1.4612
 1607SOL     OW16279   2.178   2.095  16.093  0.1857 -0.5620  0.1087
 1607SOL    HW116280   2.172   2.053  16.179 -0.0909 -2.9415 -1.0693
 1607SOL    HW216281   2.097   2.057  16.060  1.4326 -2.2258 -0.9780
 1608SOL     OW16282   1.547   1.852   0.386 -0.1369 -0.1821  0.5161
 1608SOL    HW116283   1.623   1.794   0.380  0.2677  0.4934 -0.8126
 1608SOL    HW216284   1.473   1.806   0.346 -0.5568  2.5185 -1.8256
 1609SOL     OW16285   0.201   3.468   1.801  0.3994  0.0308 -0.0420
 1609SOL    HW116286   0.296   3.468   1.813  0.4261 -0.6018 -0.2253
 1609SOL    HW216287   0.174   3.553   1.836  1.3613  0.8191 -1.2014
 1610SOL     OW16288   0.392   1.647   4.838  0.6053 -0.2251 -0.1627
 1610SOL    HW116289   0.476   1.612   4.869  1.5132  1.4468 -0.7660
 1610SOL    HW216290   0.414   1.703   4.764 -0.3789 -1.0203 -1.0627
 1611SOL     OW16291   3.411   3.272   7.987  0.4242 -0.5696 -0.1363
 1611SOL    HW116292   3.358   3.319   7.922  0.3179 -2.6372 -1.5457
 1611SOL    HW216293   3.496   3.277   7.943  0.7856 -2.1519  0.3976
 1612SOL     OW16294   4.279   3.071   3.925 -0.1422  0.0729 -0.5333
 1612SOL    HW116295   4.296   2.983   3.958  1.2822  0.5197 -0.0688
 1612SOL    HW216296   4.191   3.064   3.888  0.3940  0.7435 -1.9241
 1613SOL     OW16297   2.080   3.723   2.524  0.1903  0.1784 -0.0837
 1613SOL    HW116298   2.129   3.734   2.605  0.4103 -0.6678 -0.1004
 1613SOL    HW216299   2.043   3.637   2.540 -1.5177  1.4358  2.6823
 1614SOL     OW16300   1.008   1.876   7.878 -0.1778 -0.6862 -0.3781
 1614SOL    HW116301   1.065   1.808   7.841  0.7511 -0.5185  0.7236
 1614SOL    HW216302   0.935   1.826   7.914  0.7128 -2.3214 -0.8395
 1615SOL     OW16303   2.482   0.912   4.909  0.0812  0.1558 -0.9454
 1615SOL    HW116304   2.498   0.874   4.822 -0.3470 -1.7777 -0.1942
 1615SOL    HW216305   2.548   0.858   4.954  0.6581  0.1250 -1.8133
 1616SOL     OW16306   0.424   4.244   4.722 -0.2076  0.0565 -0.2147
 1616SOL    HW116307   0.359   4.248   4.652  1.4306  0.0050 -1.7221
 1616SOL    HW216308   0.402   4.156   4.751  1.6092 -0.5408 -0.6699
 1617SOL     OW16309   1.822   0.173   5.130 -0.2419 -0.6978  0.0651
 1617SOL    HW116310   1.771   0.221   5.064 -2.2282 -1.8700  0.7520
 1617SOL    HW216311   1.838   0.241   5.196 -0.6100 -0.5425 -0.0045
 1618SOL     OW16312   3.890   4.071  12.129 -0.3614 -0.4956 -0.8409
 1618SOL    HW116313   3.906   4.138  12.063 -1.2847  0.5623  0.0121
 1618SOL    HW216314   3.977   4.029  12.124 -0.8326 -1.7241  1.1585
 1619SOL     OW16315   1.508   3.638   5.502 -0.6067 -0.4313 -0.0268
 1619SOL    HW116316   1.528   3.637   5.409  1.1264  2.1527  0.3240
 1619SOL    HW216317   1.567   3.568   5.530 -1.3881 -1.1754 -0.2479
 1620SOL     OW16318   3.750   2.874  15.245 -0.1191 -0.1749 -0.6801
 1620SOL    HW116319   3.818   2.941  15.240 -1.7643  1.5208 -0.3333
 1620SOL    HW216320   3.802   2.798  15.221  0.2893  0.5704 -2.0890
 1621SOL     OW16321   0.840   3.975  11.681 -0.1178  0.3874  0.3884
 1621SOL    HW116322   0.920   3.931  11.711 -0.3599  0.2699  0.8624
 1621SOL    HW216323   0.834   4.026  11.762 -1.8212 -0.7114  0.9508
 1622SOL     OW16324   4.711   2.242  10.826 -0.2442  0.4549 -0.7042
 1622SOL    HW116325   0.034   2.222  10.909  1.7137  1.0380 -1.5673
 1622SOL    HW216326   4.654   2.316  10.847 -1.6768 -1.2374  1.3552
 1623SOL     OW16327   0.842   4.497   5.807  0.2888  0.3953 -0.1200
 1623SOL    HW116328   0.764   4.506   5.861  1.3959 -1.4329  1.7491
 1623SOL    HW216329   0.897   4.439   5.860  1.9098  2.4586  0.4909
 1624SOL     OW16330   1.939   2.475  14.185  0.1250 -0.6962 -0.0426
 1624SOL    HW116331   1.920   2.392  14.141  0.3222 -0.7941  0.0554
 1624SOL    HW216332   1.857   2.486  14.233  0.4577 -1.0032  0.5970
 1625SOL     OW16333   4.302   1.102   5.282  0.0933 -0.2407  0.4474
 1625SOL    HW116334   4.210   1.091   5.258 -0.2436 -2.0166  2.5765
 1625SOL    HW216335   4.329   1.159   5.210 -1.8190 -0.8632 -0.7557
 1626SOL     OW16336   3.195   4.414   3.062 -0.2832  0.4166  0.0706
 1626SOL    HW116337   3.220   4.322   3.070 -0.3195  0.6225  2.4395
 1626SOL    HW216338   3.211   4.448   3.150 -2.2704 -0.8293  0.9137
 1627SOL     OW16339   2.809   4.493   7.301  0.3850 -0.2460 -0.2606
 1627SOL    HW116340   2.751   4.455   7.236 -2.1890 -1.4815  2.7459
 1627SOL    HW216341   2.777   4.443   7.377  2.2717  0.3520  0.9406
 1628SOL     OW16342   1.282   3.121   6.315  0.0335  0.0420 -0.2266
 1628SOL    HW116343   1.195   3.161   6.310 -0.1389 -0.8095 -4.5257
 1628SOL    HW216344   1.312   3.188   6.376  3.2253 -1.2233 -0.4260
 1629SOL     OW16345   1.757   3.595  16.879  0.4767  0.1965  0.1862
 1629SOL    HW116346   1.749   3.531  16.949  0.9317  0.5340  0.5486
 1629SOL    HW216347   1.849   3.577  16.859  1.0059 -0.5982  3.4012
 1630SOL     OW16348   4.268   2.006  16.603  0.0367 -0.0457 -0.0088
 1630SOL    HW116349   4.263   1.993  16.509  3.8439  1.3821 -0.4030
 1630SOL    HW216350   4.199   2.072  16.613 -1.5565 -1.6759 -0.2079
 1631SOL     OW16351   2.008   1.768   4.401 -0.3535 -0.6915 -0.0136
 1631SOL    HW116352   2.103   1.776   4.404 -0.6612  2.8804  0.6953
 1631SOL    HW216353   1.997   1.690   4.456  4.0666 -1.6933 -0.6090
 1632SOL     OW16354   4.678   1.891  15.652  0.3641 -0.0009 -0.4739
 1632SOL    HW116355   4.623   1.966  15.630  0.6969  0.3583 -0.1033
 1632SOL    HW216356   0.038   1.911  15.601  0.5181  2.3132  0.6119
 1633SOL     OW16357   4.395   1.613   6.761 -0.1895 -0.4520 -0.3081
 1633SOL    HW116358   4.451   1.562   6.819  1.5475  1.7053 -0.0720
 1633SOL    HW216359   4.447   1.693   6.764 -0.5780 -0.1474 -1.4939
 1634SOL     OW16360   0.839   3.398   6.736  0.0279  0.1431  0.1787
 1634SOL    HW116361   0.802   3.457   6.671  2.6317  1.6045 -0.0047
 1634SOL    HW216362   0.776   3.389   6.807  0.7198 -3.2028  0.3757
 1635SOL     OW16363   3.301   2.962  13.192  0.7409  0.3234 -0.8336
 1635SOL    HW116364   3.234   3.003  13.137 -2.2715 -1.4850  1.4681
 1635SOL    HW216365   3.311   3.032  13.256 -0.5909  0.4100 -0.7214
 1636SOL     OW16366   1.627   2.088   5.177  0.0010 -0.3324  0.0063
 1636SOL    HW116367   1.548   2.045   5.145  0.3002 -1.7443  1.1749
 1636SOL    HW216368   1.614   2.173   5.135 -0.2308 -0.5919 -0.4451
 1637SOL     OW16369   0.989   3.446  10.268 -0.4448 -0.0116 -0.1445
 1637SOL    HW116370   1.045   3.524  10.273 -0.9933  0.2453  1.8507
 1637SOL    HW216371   0.935   3.475  10.194 -0.4917  1.5626  0.5092
 1638SOL     OW16372   4.318   0.944   6.902 -0.1527  0.3607  0.9338
 1638SOL    HW116373   4.326   1.039   6.903 -1.3950  0.4740  0.1635
 1638SOL    HW216374   4.279   0.937   6.989  0.0632 -1.1567  0.9082
 1639SOL     OW16375   3.135   2.518   0.554  0.1976 -0.4116  0.1699
 1639SOL    HW116376   3.119   2.515   0.648  0.7428  0.4211  0.2914
 1639SOL    HW216377   3.061   2.469   0.519  0.7238 -2.6764  2.2034
 1640SOL     OW16378   0.517   4.571   8.731  0.5356 -0.1627  0.0768
 1640SOL    HW116379   0.466   4.525   8.664 -0.2652 -0.2530  0.7583
 1640SOL    HW216380   0.459   4.643   8.755  1.2289  0.5685 -0.4351
 1641SOL     OW16381   3.225   1.435   0.665 -0.8632 -0.4558  0.5809
 1641SOL    HW116382   3.252   1.351   0.700  0.7501  0.8829  2.5477
 1641SOL    HW216383   3.165   1.468   0.732  0.2758 -1.7142  2.1861
 1642SOL     OW16384   2.775   4.435   5.915  0.2732  0.2188 -0.1754
 1642SOL    HW116385   2.857   4.461   5.956  0.2073 -0.4781  0.4095
 1642SOL    HW216386   2.738   4.523   5.911  0.1131  0.1596 -0.0044
 1643SOL     OW16387   4.160   0.469  12.381  0.6884 -0.1565 -0.1347
 1643SOL    HW116388   4.118   0.393  12.341 -0.0162  0.0395  0.2333
 1643SOL    HW216389   4.253   0.449  12.378  0.1118 -2.5923 -1.4729
 1644SOL     OW16390   3.648   3.845   6.515  0.1150 -0.1718 -0.1601
 1644SOL    HW116391   3.554   3.864   6.509  0.7494  2.0086 -3.0906
 1644SOL    HW216392   3.646   3.782   6.587 -1.0406  0.3961  0.3031
 1645SOL     OW16393   4.167   1.829  16.864  0.0761  0.0900 -0.2268
 1645SOL    HW116394   4.109   1.787  16.800 -0.1342  1.5573 -1.0106
 1645SOL    HW216395   4.135   1.812  16.952 -0.2549 -0.4981 -0.4615
 1646SOL     OW16396   1.096   1.481  11.894 -0.3957  0.3606 -0.0681
 1646SOL    HW116397   1.176   1.512  11.851 -1.9364  2.6249 -1.3036
 1646SOL    HW216398   1.117   1.523  11.977 -0.2764  0.4163 -0.1262
 1647SOL     OW16399   1.688   0.886   0.583 -0.5190  0.1398  0.0667
 1647SOL    HW116400   1.595   0.895   0.605 -1.1117 -3.8012 -0.8476
 1647SOL    HW216401   1.694   0.797   0.616 -1.2909 -0.9022 -2.5938
 1648SOL     OW16402   0.203   0.858   6.938  0.3000 -0.5330  0.1657
 1648SOL    HW116403   0.202   0.764   6.955 -0.1101 -0.9401 -2.0441
 1648SOL    HW216404   0.122   0.877   6.892 -0.0204 -1.0030  0.5336
 1649SOL     OW16405   0.548   4.292   5.584 -0.4031 -0.3310  0.3186
 1649SOL    HW116406   0.501   4.274   5.665  0.3374 -1.4969  0.4897
 1649SOL    HW216407   0.572   4.383   5.602 -2.8789  0.2902  0.5156
 1650SOL     OW16408   0.202   4.175   5.037 -0.2673 -0.2779 -0.2614
 1650SOL    HW116409   0.297   4.185   5.036 -0.1806 -0.7866  2.7413
 1650SOL    HW216410   0.184   4.266   5.015 -2.0653 -0.6382 -0.2590
 1651SOL     OW16411   1.035   2.091  17.123 -0.4699 -0.1040  0.1383
 1651SOL    HW116412   1.039   2.187  17.128  0.4960 -0.1770  0.8076
 1651SOL    HW216413   1.089   2.071  17.046  1.8965 -0.9332  2.0126
 1652SOL     OW16414   1.517   2.666   3.605 -0.3742 -0.5768  0.0323
 1652SOL    HW116415   1.423   2.667   3.587  0.2959  1.2239 -3.3103
 1652SOL    HW216416   1.530   2.578   3.642  1.0118  0.3399  1.6778
 1653SOL     OW16417   4.680   1.359   6.802 -0.4812 -0.4407  0.3410
 1653SOL    HW116418   0.006   1.401   6.728  2.7349 -0.6423  2.1555
 1653SOL    HW216419   0.002   1.412   6.871 -0.3435  1.8993 -1.5364
 1654SOL     OW16420   3.537   4.560  11.948 -0.1029 -0.2929 -0.3378
 1654SOL    HW116421   3.489   4.552  11.866 -0.9609  1.7247 -0.0435
 1654SOL    HW216422   3.489   4.633  11.988  1.1612  0.0554  0.5625
 1655SOL     OW16423   2.882   0.762  13.333  0.7761 -0.0262 -0.5063
 1655SOL    HW116424   2.936   0.840  13.324  0.4523  0.1670 -0.7538
 1655SOL    HW216425   2.843   0.757  13.246 -0.3014  1.6161 -0.0953
 1656SOL     OW16426   2.515   0.122  12.790 -0.3382 -0.0227  0.5584
 1656SOL    HW116427   2.440   0.176  12.766 -0.4342 -1.5971 -2.6508
 1656SOL    HW216428   2.469   0.048  12.830  0.6654 -0.4380  0.9697
 1657SOL     OW16429   0.582   4.293  14.950 -0.3288  0.1325  0.0823
 1657SOL    HW116430   0.553   4.231  14.884 -0.4403  0.4542 -0.1703
 1657SOL    HW216431   0.664   4.322  14.909 -0.3199  0.0793  0.0632
 1658SOL     OW16432   2.927   0.476   2.243  0.0429 -0.4504  0.1916
 1658SOL    HW116433   2.899   0.485   2.335 -1.9872 -0.0566 -0.4659
 1658SOL    HW216434   2.845   0.506   2.203  0.4762  0.9043  0.3135
 1659SOL     OW16435   2.305   4.413   5.159 -0.1348 -0.0971 -0.4877
 1659SOL    HW116436   2.353   4.403   5.242 -0.3904  0.7960 -0.2357
 1659SOL    HW216437   2.216   4.388   5.184  0.3594 -0.2101  1.2033
 1660SOL     OW16438   2.484   1.770   6.799 -0.7815  0.6833  0.1822
 1660SOL    HW116439   2.532   1.849   6.773  1.0888 -1.2788 -2.2379
 1660SOL    HW216440   2.515   1.718   6.725 -1.3376  1.5070 -0.6250
 1661SOL     OW16441   1.497   2.271  16.543  0.8299  0.1170 -0.7812
 1661SOL    HW116442   1.507   2.342  16.480 -2.0361  0.2852 -1.0462
 1661SOL    HW216443   1.590   2.273  16.565  0.3522  0.0482  1.2537
 1662SOL     OW16444   1.313   1.409   5.306 -0.6295  0.0057  0.0609
 1662SOL    HW116445   1.321   1.492   5.353  1.1068 -0.2975  0.2938
 1662SOL    HW216446   1.292   1.355   5.383 -1.5086  1.4593  0.8358
 1663SOL     OW16447   0.776   2.432   2.642  0.0124  0.2071  0.2794
 1663SOL    HW116448   0.681   2.431   2.629  0.0545 -0.5118  0.0502
 1663SOL    HW216449   0.783   2.477   2.726  0.0679  1.4700 -0.4018
 1664SOL     OW16450   4.629   2.719  15.621 -0.4669  0.2890 -0.1616
 1664SOL    HW116451   4.586   2.772  15.688  0.9865  1.2161  0.0383
 1664SOL    HW216452   4.631   2.631  15.658  1.4229  1.1925  1.8950
 1665SOL     OW16453   4.214   0.760   9.442  0.0194 -0.0892 -0.2715
 1665SOL    HW116454   4.160   0.838   9.431  0.8120  0.6098  0.7152
 1665SOL    HW216455   4.155   0.689   9.468 -0.0691 -0.4392 -1.4574
 1666SOL     OW16456   1.083   2.237  11.892  0.0404 -0.4505  0.0078
 1666SOL    HW116457   1.002   2.268  11.851 -0.4239 -1.2155  0.3403
 1666SOL    HW216458   1.088   2.295  11.969 -0.3044 -0.6593  0.1911
 1667SOL     OW16459   1.330   0.447   7.606 -0.5837 -0.4549  0.1466
 1667SOL    HW116460   1.391   0.390   7.653 -2.8338 -1.7998  1.4174
 1667SOL    HW216461   1.304   0.508   7.674 -0.7562  0.6865 -0.9556
 1668SOL     OW16462   4.459   0.691   1.919  0.6443 -0.4028 -0.3265
 1668SOL    HW116463   4.517   0.711   1.845 -0.1422 -0.1821 -0.8757
 1668SOL    HW216464   4.518   0.642   1.977  1.9256  0.1023 -1.1972
 1669SOL     OW16465   4.371   4.107   1.024  0.0986 -0.0803 -0.0778
 1669SOL    HW116466   4.352   4.114   1.118 -0.6203  1.5083 -0.3412
 1669SOL    HW216467   4.302   4.166   0.993  1.4004  1.0699 -0.7626
 1670SOL     OW16468   1.570   2.295   4.984  0.1628  0.0986 -0.0829
 1670SOL    HW116469   1.568   2.238   4.907  0.7978  1.9111 -1.4385
 1670SOL    HW216470   1.511   2.369   4.973 -1.9086 -1.3299  1.3148
 1671SOL     OW16471   1.667   2.268   6.923  0.5170 -0.0752  0.2227
 1671SOL    HW116472   1.653   2.173   6.930  0.0075 -0.1179 -1.4037
 1671SOL    HW216473   1.610   2.301   6.993  2.1256  0.4261  1.3111
 1672SOL     OW16474   1.625   2.957  12.685 -0.2157  0.3660 -0.1636
 1672SOL    HW116475   1.610   2.875  12.638 -1.2358  0.8538 -0.6851
 1672SOL    HW216476   1.536   2.977  12.713 -0.8883  0.0880 -2.1152
 1673SOL     OW16477   1.280   2.552   3.500  0.8539 -0.4247 -0.3989
 1673SOL    HW116478   1.238   2.540   3.585  1.5492  0.7349  0.1027
 1673SOL    HW216479   1.317   2.466   3.482 -0.7938 -1.6216  1.9572
 1674SOL     OW16480   0.825   2.065   7.923 -0.1280  0.3029 -0.1286
 1674SOL    HW116481   0.800   2.050   8.014 -0.5673 -2.0806 -0.6471
 1674SOL    HW216482   0.873   1.986   7.899 -1.3806 -0.5908  0.2632
 1675SOL     OW16483   3.107   2.504   9.823  0.1683 -0.7776  0.3667
 1675SOL    HW116484   3.199   2.496   9.849  0.1884 -0.6592  0.3279
 1675SOL    HW216485   3.055   2.462   9.892  0.3250 -2.6842 -0.6703
 1676SOL     OW16486   1.871   3.640   9.037 -0.3870  0.1648  0.2113
 1676SOL    HW116487   1.845   3.564   9.089 -1.0532 -0.6431 -1.2946
 1676SOL    HW216488   1.939   3.678   9.092  1.3085  0.0621 -1.7957
 1677SOL     OW16489   3.141   4.303   8.411 -0.0043 -0.2420 -0.2795
 1677SOL    HW116490   3.189   4.341   8.485  1.6593  1.9709 -2.5188
 1677SOL    HW216491   3.152   4.208   8.425  2.4729 -0.0108 -0.5833
 1678SOL     OW16492   3.202   3.361   7.745 -0.0741 -0.0634  0.2292
 1678SOL    HW116493   3.194   3.410   7.663  0.3463 -0.3413  0.0197
 1678SOL    HW216494   3.134   3.408   7.793  1.9834  2.4757  0.6637
 1679SOL     OW16495   1.821   2.642   5.544  0.3074  0.0929 -0.2798
 1679SOL    HW116496   1.793   2.718   5.593  3.6382  2.0939 -1.4975
 1679SOL    HW216497   1.742   2.628   5.491 -1.3363  3.2391  1.3253
 1680SOL     OW16498   1.806   3.721   9.316  0.1856  0.1005  0.6671
 1680SOL    HW116499   1.803   3.745   9.409  0.7224 -1.0705  0.9904
 1680SOL    HW216500   1.887   3.772   9.309  1.5886 -1.9007  2.2527
 1681SOL     OW16501   1.994   3.287   4.430  0.2193  0.1401  0.1068
 1681SOL    HW116502   2.016   3.259   4.341  1.0815  3.5567 -0.7598
 1681SOL    HW216503   2.037   3.220   4.483 -1.2022 -1.3819 -0.6632
 1682SOL     OW16504   2.176   3.576   6.641  0.4016 -0.4784 -0.3758
 1682SOL    HW116505   2.157   3.495   6.594 -1.6507 -0.2646  0.0791
 1682SOL    HW216506   2.192   3.543   6.730  1.2800  0.0350 -0.3426
 1683SOL     OW16507   2.721   4.279   9.212 -0.2123 -0.8443  0.0139
 1683SOL    HW116508   2.723   4.332   9.133  1.0643 -3.0076 -1.3793
 1683SOL    HW216509   2.795   4.317   9.261 -1.3114  1.2767  0.0545
 1684SOL     OW16510   2.874   3.913   0.904  0.3080 -0.2033  0.3814
 1684SOL    HW116511   2.892   3.939   0.814  0.0357 -2.6530 -0.3584
 1684SOL    HW216512   2.805   3.847   0.898  0.8132 -0.7662  0.7475
 1685SOL     OW16513   3.088   0.969  15.636  0.0399 -0.0079  0.1352
 1685SOL    HW116514   3.168   1.019  15.619 -1.1316  1.1956 -1.8836
 1685SOL    HW216515   3.019   1.010  15.584  0.6660 -0.0152 -0.7150
 1686SOL     OW16516   3.423   1.802   8.094 -0.1455  0.0605 -0.4462
 1686SOL    HW116517   3.464   1.737   8.150 -1.6871 -0.7875 -0.3201
 1686SOL    HW216518   3.374   1.751   8.030 -0.0485  0.6969 -1.0386
 1687SOL     OW16519   3.306   1.125  15.517 -0.7333 -0.3057 -0.4658
 1687SOL    HW116520   3.378   1.095  15.573  0.4004  1.5993 -0.9183
 1687SOL    HW216521   3.305   1.072  15.436  3.8965 -0.8833 -0.1236
 1688SOL     OW16522   3.148   1.247   3.571 -0.0358  0.4506 -0.5518
 1688SOL    HW116523   3.080   1.286   3.626  0.8755  1.7478 -0.3497
 1688SOL    HW216524   3.190   1.192   3.637  0.3808  0.2252 -1.0068
 1689SOL     OW16525   0.228   0.566   8.226 -0.3486 -0.1181 -0.4309
 1689SOL    HW116526   0.159   0.515   8.183 -0.7994 -0.3948  0.6269
 1689SOL    HW216527   0.238   0.633   8.158  0.1782 -0.6062 -0.8431
 1690SOL     OW16528   2.042   0.649   2.111  0.1494  0.0079  0.1559
 1690SOL    HW116529   1.956   0.687   2.093 -0.2458 -0.9537  0.0507
 1690SOL    HW216530   2.028   0.555   2.112 -1.6224  0.2675  0.5578
 1691SOL     OW16531   2.756   2.130   8.824 -0.5382 -0.4513 -0.6756
 1691SOL    HW116532   2.742   2.224   8.810  1.1158  0.3352  3.0062
 1691SOL    HW216533   2.756   2.133   8.920 -0.3438  0.1954 -0.6969
 1692SOL     OW16534   1.765   1.616   8.501 -0.0125 -0.2628 -0.3432
 1692SOL    HW116535   1.772   1.527   8.536  0.2194  0.1139  0.5614
 1692SOL    HW216536   1.859   1.629   8.492 -0.0294 -1.0823 -1.7007
 1693SOL     OW16537   4.299   3.424   8.692  0.3371 -0.2827 -0.2812
 1693SOL    HW116538   4.323   3.494   8.631  0.1622 -0.6259 -0.7410
 1693SOL    HW216539   4.332   3.345   8.650 -0.1717 -0.5468 -0.1829
 1694SOL     OW16540   3.009   2.973   3.810  0.3207 -0.5122 -0.0469
 1694SOL    HW116541   2.984   2.974   3.903  0.3915 -0.2892 -0.0310
 1694SOL    HW216542   3.035   2.881   3.800  0.4226 -0.4020 -0.7687
 1695SOL     OW16543   2.370   0.724   9.027 -0.4497 -0.1511 -0.4770
 1695SOL    HW116544   2.459   0.748   9.054 -1.4894 -0.7089  3.4795
 1695SOL    HW216545   2.389   0.683   8.943 -0.5548  0.1881 -0.6671
 1696SOL     OW16546   0.476   1.342   4.806 -0.2379 -0.9207  0.1637
 1696SOL    HW116547   0.539   1.296   4.862  0.1375  1.6794  1.9004
 1696SOL    HW216548   0.527   1.374   4.732 -2.1131  2.2035  0.2430
 1697SOL     OW16549   2.449   3.130   5.843  0.0486 -0.4162 -0.8549
 1697SOL    HW116550   2.409   3.109   5.759 -1.2018  1.0933 -0.6533
 1697SOL    HW216551   2.478   3.222   5.837 -1.0216 -0.0589 -0.5522
 1698SOL     OW16552   1.235   4.417  15.223  0.3170  0.0403  0.1885
 1698SOL    HW116553   1.312   4.362  15.208  1.4664  1.9113 -0.8352
 1698SOL    HW216554   1.205   4.415  15.132 -3.2570 -1.8685  1.3905
 1699SOL     OW16555   2.173   4.490   4.651 -0.3275  0.9711 -0.6192
 1699SOL    HW116556   2.248   4.442   4.617  0.7969 -1.0561  4.7362
 1699SOL    HW216557   2.190   4.498   4.745  2.0082 -0.8059 -0.8857
 1700SOL     OW16558   0.506   0.367  14.990  0.0712 -0.1649 -0.2107
 1700SOL    HW116559   0.509   0.291  14.932 -1.6752 -0.6383  0.2991
 1700SOL    HW216560   0.597   0.373  15.019  0.2634  1.6120 -1.1854
 1701SOL     OW16561   3.409   4.430   7.804  0.0534 -0.5950 -0.1040
 1701SOL    HW116562   3.329   4.449   7.852 -0.2955 -2.6655  0.1281
 1701SOL    HW216563   3.463   4.509   7.813  0.6651 -1.1400  0.9860
 1702SOL     OW16564   1.006   4.428   6.680 -0.2026  0.0999  0.0407
 1702SOL    HW116565   1.077   4.421   6.743  0.3577  1.6971 -0.4131
 1702SOL    HW216566   1.003   4.524   6.676 -2.0084  0.0802  1.0146
 1703SOL     OW16567   0.724   0.427   2.095  0.3172  0.8255  0.0393
 1703SOL    HW116568   0.784   0.395   2.027  0.6803  0.9760  0.2848
 1703SOL    HW216569   0.723   0.521   2.074  0.0844  0.7106 -0.4671
 1704SOL     OW16570   1.472   3.014  11.575  0.8778  0.1710 -0.1412
 1704SOL    HW116571   1.406   3.081  11.589  1.1222  0.7823 -2.0619
 1704SOL    HW216572   1.461   2.969  11.659 -1.2225  0.4811 -0.2705
 1705SOL     OW16573   1.705   1.080   9.170  0.0891  0.4543  0.1098
 1705SOL    HW116574   1.701   1.174   9.155  2.2563  0.6633  0.7653
 1705SOL    HW216575   1.613   1.061   9.151  0.2164 -0.4447  0.3872
 1706SOL     OW16576   4.192   3.326   6.279  0.7383 -0.2873 -0.2904
 1706SOL    HW116577   4.111   3.325   6.330  0.4974 -1.0258 -0.6736
 1706SOL    HW216578   4.251   3.324   6.354  2.2699  3.7506 -1.3858
 1707SOL     OW16579   0.681   2.572  16.280 -0.1879  0.2733 -0.0706
 1707SOL    HW116580   0.713   2.487  16.249 -1.0342 -0.5163  1.2323
 1707SOL    HW216581   0.640   2.551  16.364  1.0493 -1.1027  0.2069
 1708SOL     OW16582   3.033   3.833   5.348 -0.6910 -0.6290  0.3488
 1708SOL    HW116583   3.026   3.801   5.258 -2.3913  1.5632 -0.3146
 1708SOL    HW216584   3.040   3.928   5.334 -3.3717 -0.3147  1.0769
 1709SOL     OW16585   1.026   2.477   5.978 -0.0765  0.2569 -0.1872
 1709SOL    HW116586   1.092   2.461   5.910 -0.0962  0.8010 -0.3323
 1709SOL    HW216587   0.945   2.460   5.930 -1.1191  1.7069  1.0402
 1710SOL     OW16588   3.878   1.011   9.367  0.5808 -0.2536  0.2402
 1710SOL    HW116589   3.909   1.049   9.449  0.1417  3.2010 -1.2059
 1710SOL    HW216590   3.905   0.922   9.388  2.0002  0.3065  0.7879
 1711SOL     OW16591   1.518   0.701   5.423 -0.3070  0.3361  0.4276
 1711SOL    HW116592   1.488   0.791   5.409  0.0347  0.5379  1.0014
 1711SOL    HW216593   1.609   0.714   5.450  0.2343 -1.4577 -0.5745
 1712SOL     OW16594   4.673   4.484  10.446 -0.2055 -0.2401 -0.0828
 1712SOL    HW116595   4.653   4.398  10.483 -0.2974 -1.7235 -3.6037
 1712SOL    HW216596   4.617   4.547  10.490  2.1011  2.0460 -0.4218
 1713SOL     OW16597   1.053   0.578   8.059  0.3124  0.2063  0.1438
 1713SOL    HW116598   0.995   0.589   7.983  1.8554  2.5049 -0.7181
 1713SOL    HW216599   0.988   0.576   8.128  1.6795  2.1225  1.4685
 1714SOL     OW16600   3.546   3.889   6.844 -0.0836 -0.1554  0.0343
 1714SOL    HW116601   3.513   3.874   6.755  1.2855  1.3237 -0.7283
 1714SOL    HW216602   3.485   3.947   6.889  0.0091 -0.2634  0.3023
 1715SOL     OW16603   0.218   4.604   5.399 -0.5832 -0.7719  0.0503
 1715SOL    HW116604   0.217   4.675   5.335  0.8153 -1.5841 -0.8610
 1715SOL    HW216605   0.151   4.544   5.366 -1.8666  0.7718 -0.1331
 1716SOL     OW16606   3.366   4.649   8.206 -0.2804 -0.5038  0.3545
 1716SOL    HW116607   3.347   4.565   8.166  1.6186  0.0999 -1.7581
 1716SOL    HW216608   3.460   4.640   8.194  0.0414  1.3813  1.4228
 1717SOL     OW16609   0.345   2.161  13.936  0.0946 -0.1013  0.1089
 1717SOL    HW116610   0.385   2.174  13.850  1.6082  0.3482  0.8843
 1717SOL    HW216611   0.380   2.232  13.990  0.3774 -1.5234  1.8122
 1718SOL     OW16612   2.619   1.605  10.521 -0.5101 -0.2693 -0.2420
 1718SOL    HW116613   2.620   1.696  10.495 -1.1011 -0.0821  0.3791
 1718SOL    HW216614   2.566   1.566  10.451 -1.3054 -0.4354  0.4469
 1719SOL     OW16615   4.105   4.385   9.106  0.2594 -0.1285  0.4504
 1719SOL    HW116616   4.179   4.418   9.056 -1.3484  1.2013 -1.0217
 1719SOL    HW216617   4.107   4.297   9.067 -0.1636 -0.7773  1.8529
 1720SOL     OW16618   2.974   0.016   0.396  0.1641 -0.2523 -0.3472
 1720SOL    HW116619   2.933   4.674   0.335  2.1561 -0.1293 -1.8116
 1720SOL    HW216620   2.915   4.717   0.469 -0.7377  2.0819 -0.4961
 1721SOL     OW16621   2.314   2.668   6.077 -0.2544 -0.2862  0.4056
 1721SOL    HW116622   2.272   2.708   6.153  2.0303  0.7090  1.1494
 1721SOL    HW216623   2.324   2.740   6.013 -0.7625 -0.3434  0.2563
 1722SOL     OW16624   4.448   0.695   3.223  0.8049 -0.8306  0.0319
 1722SOL    HW116625   4.537   0.729   3.234 -0.7670  3.0841  0.9429
 1722SOL    HW216626   4.429   0.722   3.133 -0.2156 -0.7780  0.2626
 1723SOL     OW16627   1.792   0.511   9.881  0.1244 -0.6922  0.0707
 1723SOL    HW116628   1.839   0.582   9.838 -0.9154 -1.0876 -1.7244
 1723SOL    HW216629   1.729   0.476   9.819 -0.1440  1.5043 -0.8985
 1724SOL     OW16630   3.664   0.465   8.735 -0.0297  0.1416 -0.0774
 1724SOL    HW116631   3.668   0.371   8.751  1.6407  0.0211 -1.3007
 1724SOL    HW216632   3.570   0.477   8.754 -0.0501 -1.2614  0.6977
 1725SOL     OW16633   3.598   4.206   9.539  0.0167  0.0175 -0.4055
 1725SOL    HW116634   3.658   4.268   9.498 -0.0260 -0.1800 -0.7674
 1725SOL    HW216635   3.541   4.183   9.465 -0.3593  0.0735 -0.1348
 1726SOL     OW16636   1.638   3.076   9.073  0.4083 -0.3342 -0.5886
 1726SOL    HW116637   1.577   3.144   9.102 -1.1450 -3.1313  2.7352
 1726SOL    HW216638   1.576   3.003   9.082  1.9181 -1.4798  0.6131
 1727SOL     OW16639   2.911   0.818   5.238 -0.1115 -0.1024  0.1222
 1727SOL    HW116640   2.836   0.760   5.223 -1.2929  1.8333 -1.5219
 1727SOL    HW216641   2.982   0.763   5.205 -0.9190 -0.8397 -0.3815
 1728SOL     OW16642   4.673   0.197   2.516  0.0236  0.1406  0.2227
 1728SOL    HW116643   4.608   0.226   2.451 -1.6805 -1.5672  1.1861
 1728SOL    HW216644   4.638   0.111   2.537 -0.8892  0.3888 -0.2630
 1729SOL     OW16645   3.626   4.695   9.615 -0.2151  0.1068 -0.1584
 1729SOL    HW116646   3.718   4.705   9.639 -0.8996  4.7514  0.5463
 1729SOL    HW216647   3.585   0.038   9.675  0.5319  0.9939 -0.5716
 1730SOL     OW16648   0.626   1.493   4.322  0.0089 -0.0833  0.5919
 1730SOL    HW116649   0.706   1.453   4.288 -0.8770  0.1456 -1.7847
 1730SOL    HW216650   0.660   1.579   4.346 -0.2086 -0.3869  1.9895
 1731SOL     OW16651   1.650   2.641   0.270 -0.0959 -0.1678  0.0231
 1731SOL    HW116652   1.596   2.711   0.307  0.4423 -0.2268  0.9026
 1731SOL    HW216653   1.625   2.572   0.331 -1.5126 -0.8104 -1.2872
 1732SOL     OW16654   0.824   2.605  14.720 -0.6062 -0.8287 -0.0442
 1732SOL    HW116655   0.817   2.701  14.721  2.0732 -0.6389  0.9656
 1732SOL    HW216656   0.809   2.584  14.628  0.1229 -2.0626  0.1202
 1733SOL     OW16657   2.875   0.295   9.617  0.3068 -0.1082  0.6064
 1733SOL    HW116658   2.961   0.317   9.653  0.2282  1.7377 -0.3319
 1733SOL    HW216659   2.828   0.250   9.688 -0.1166 -1.3439 -0.4588
 1734SOL     OW16660   2.626   4.514   1.021 -0.1408  0.1361 -0.3004
 1734SOL    HW116661   2.576   4.436   1.044  1.8838 -1.2540 -0.6651
 1734SOL    HW216662   2.591   4.566   1.094 -0.6915  0.7032 -0.9672
 1735SOL     OW16663   1.036   4.537   6.091 -0.6667 -0.5913 -0.1644
 1735SOL    HW116664   1.073   4.511   6.007 -1.0416  1.6816 -1.0204
 1735SOL    HW216665   1.087   4.489   6.157 -1.5506 -0.3900  0.6653
 1736SOL     OW16666   2.879   2.302   2.042  0.1644  0.1584  0.2568
 1736SOL    HW116667   2.840   2.288   1.956 -0.0820  2.2292  0.0306
 1736SOL    HW216668   2.850   2.390   2.063 -0.1385  0.1958 -0.3326
 1737SOL     OW16669   0.915   1.420   6.485  0.0282 -0.1320 -0.0467
 1737SOL    HW116670   0.891   1.328   6.497  0.6902 -0.3267 -0.2187
 1737SOL    HW216671   0.854   1.446   6.416 -0.1826  0.4423  0.3491
 1738SOL     OW16672   0.415   1.263   4.252 -0.1036 -0.4553 -0.2627
 1738SOL    HW116673   0.506   1.278   4.276 -0.6821  0.1302  1.5744
 1738SOL    HW216674   0.430   1.200   4.182  2.3358 -0.7024  0.4820
 1739SOL     OW16675   0.992   2.183  12.548 -0.2471  0.0312 -0.1985
 1739SOL    HW116676   1.017   2.091  12.537  1.0984  0.5023 -1.1003
 1739SOL    HW216677   1.056   2.205  12.616  0.1559  0.3001 -0.6618
 1740SOL     OW16678   4.236   0.618   3.389  0.0620  0.0601 -0.1690
 1740SOL    HW116679   4.274   0.537   3.422  1.6193  0.3597 -1.2521
 1740SOL    HW216680   4.309   0.656   3.341 -1.1325  0.5031 -1.6425
 1741SOL     OW16681   3.637   4.221  12.035 -0.4789 -0.2622  0.3959
 1741SOL    HW116682   3.644   4.192  11.944 -0.7544 -0.1117  0.3275
 1741SOL    HW216683   3.681   4.305  12.023  0.9325 -0.9907  0.5341
 1742SOL     OW16684   2.667   3.823   8.015 -0.4539  0.2613  0.4802
 1742SOL    HW116685   2.741   3.775   8.050 -2.1590 -2.5254  0.2508
 1742SOL    HW216686   2.591   3.768   8.032 -0.5997  0.2567 -0.1868
 1743SOL     OW16687   3.747   0.786   8.437 -0.3112 -0.1979 -0.0306
 1743SOL    HW116688   3.659   0.753   8.417 -1.1839  0.4182  2.7763
 1743SOL    HW216689   3.745   0.864   8.381 -3.8703 -0.5358 -0.3573
 1744SOL     OW16690   1.283   1.533   4.414 -0.2460 -0.5092 -0.3473
 1744SOL    HW116691   1.369   1.573   4.427 -0.4118 -0.1775 -0.2708
 1744SOL    HW216692   1.316   1.454   4.369  1.2286 -0.7964  1.2378
 1745SOL     OW16693   0.133   0.601   3.304  0.5767  0.2557 -0.3461
 1745SOL    HW116694   0.178   0.517   3.298 -2.2074 -1.4411  2.7754
 1745SOL    HW216695   0.182   0.642   3.375 -0.2045  0.9992 -0.2322
 1746SOL     OW16696   2.050   1.902   0.848 -0.1030 -0.2313 -0.4030
 1746SOL    HW116697   1.962   1.870   0.831  0.0692  0.1765 -2.0628
 1746SOL    HW216698   2.100   1.823   0.827  0.5709 -0.8750  3.7060
 1747SOL     OW16699   4.168   1.696   6.326 -0.2921  0.5928 -0.4371
 1747SOL    HW116700   4.117   1.634   6.272  1.5309 -0.8635 -0.4814
 1747SOL    HW216701   4.096   1.733   6.378 -1.3143  0.3528 -1.6555
 1748SOL     OW16702   0.596   0.768   8.197  0.1794  0.1987 -0.1102
 1748SOL    HW116703   0.546   0.734   8.271 -0.9323 -0.1822 -1.0399
 1748SOL    HW216704   0.574   0.708   8.126  0.8181  1.4001 -1.3368
 1749SOL     OW16705   1.341   1.239  14.235  0.0072 -0.0256 -0.5071
 1749SOL    HW116706   1.393   1.183  14.178 -0.0539 -0.7146  0.1138
 1749SOL    HW216707   1.307   1.304  14.175 -2.3339  0.1300  0.9585
 1750SOL     OW16708   2.778   2.700  15.238 -0.9121 -0.7388 -0.1835
 1750SOL    HW116709   2.732   2.620  15.213 -0.4576 -0.5798 -1.5046
 1750SOL    HW216710   2.744   2.763  15.175 -2.3431  0.2548  1.6086
 1751SOL     OW16711   0.734   2.142   4.738  0.3639  0.1159  0.5061
 1751SOL    HW116712   0.659   2.191   4.704 -1.3975 -0.8407  3.0102
 1751SOL    HW216713   0.800   2.150   4.669  0.2046  1.2669  0.4906
 1752SOL     OW16714   3.492   2.901   3.142 -0.0089 -0.3024  0.3498
 1752SOL    HW116715   3.509   2.829   3.081 -2.0792 -0.8370  0.3939
 1752SOL    HW216716   3.445   2.969   3.093 -1.6882 -0.9857  1.0102
 1753SOL     OW16717   3.904   0.048   3.921  0.1801  0.1418 -0.6775
 1753SOL    HW116718   3.961   4.706   3.968 -1.7089 -0.5618  0.7052
 1753SOL    HW216719   3.835   0.057   3.987  0.5241  0.7904 -0.3986
 1754SOL     OW16720   4.592   3.993   6.646  0.4550 -0.1412  0.3693
 1754SOL    HW116721   4.533   3.965   6.716 -3.4667 -0.5649 -3.1211
 1754SOL    HW216722   4.635   3.910   6.627 -0.2707 -0.9066  2.0939
 1755SOL     OW16723   1.383   2.463  12.879 -0.2377  0.4003 -0.4070
 1755SOL    HW116724   1.323   2.518  12.829  0.1096  0.5392 -0.6681
 1755SOL    HW216725   1.416   2.402  12.813  0.5585 -0.6782  0.9889
 1756SOL     OW16726   2.655   0.515  12.127  0.2644 -0.2662 -0.1859
 1756SOL    HW116727   2.584   0.503  12.190 -0.5919 -0.9068 -1.2707
 1756SOL    HW216728   2.695   0.431  12.106 -0.9806 -1.0056  0.3750
 1757SOL     OW16729   3.868   4.075   5.921  0.3879  0.3038 -0.5552
 1757SOL    HW116730   3.854   4.170   5.930  0.1886 -0.0108  2.4844
 1757SOL    HW216731   3.963   4.070   5.913  0.6008  2.3892  0.6653
 1758SOL     OW16732   0.577   2.623   7.990 -0.1435  0.2894 -0.3298
 1758SOL    HW116733   0.515   2.553   7.970 -0.3295 -0.2961  2.3628
 1758SOL    HW216734   0.640   2.579   8.047  0.0017  0.2135 -0.5482
 1759SOL     OW16735   0.234   0.347   3.299 -0.2347  0.1077  0.0754
 1759SOL    HW116736   0.328   0.332   3.309 -0.5666 -0.5556  2.2024
 1759SOL    HW216737   0.217   0.309   3.213  1.3770 -0.2409 -0.1022
 1760SOL     OW16738   1.055   4.447  14.989 -0.0581  0.2334  0.0218
 1760SOL    HW116739   1.116   4.516  14.962 -3.5322  1.5098 -4.5795
 1760SOL    HW216740   1.083   4.369  14.941 -0.2163 -0.5821  1.2626
 1761SOL     OW16741   0.734   2.024   8.171  0.0627  0.0409 -0.4257
 1761SOL    HW116742   0.742   1.946   8.227 -0.6311 -0.9732 -1.7430
 1761SOL    HW216743   0.642   2.048   8.177  0.1156  0.2960 -0.6289
 1762SOL     OW16744   1.449   0.411   8.476  0.4723 -0.8478  0.1649
 1762SOL    HW116745   1.359   0.435   8.501  0.5197 -0.7032  0.2007
 1762SOL    HW216746   1.505   0.485   8.499 -1.5142  1.1011 -1.2414
 1763SOL     OW16747   1.439   0.290   4.781 -0.4707  0.1238  0.1420
 1763SOL    HW116748   1.503   0.220   4.794 -2.5785 -1.8953 -0.2469
 1763SOL    HW216749   1.455   0.314   4.689  1.7118  0.2137  0.5473
 1764SOL     OW16750   3.048   2.536  11.359 -1.1878  0.1732 -0.8933
 1764SOL    HW116751   3.139   2.566  11.353  0.3002 -3.9101  0.7336
 1764SOL    HW216752   3.064   2.442  11.370  1.2017  0.5985 -0.6654
 1765SOL     OW16753   1.653   3.798   7.733  0.3392  0.2376  0.5032
 1765SOL    HW116754   1.711   3.844   7.672 -0.1494  3.5356  2.5489
 1765SOL    HW216755   1.707   3.789   7.811  0.4348  1.5059  0.5709
 1766SOL     OW16756   4.174   2.289  12.666  0.3394 -0.0838 -0.1034
 1766SOL    HW116757   4.197   2.270  12.757 -0.2826 -2.6251 -0.4690
 1766SOL    HW216758   4.255   2.327  12.632 -1.1402  1.9596 -1.2950
 1767SOL     OW16759   3.285   1.305  11.203 -0.6720 -0.4352  0.5487
 1767SOL    HW116760   3.275   1.247  11.127 -0.0192  0.7516 -0.4458
 1767SOL    HW216761   3.333   1.382  11.171  1.2231 -1.5554  0.7303
 1768SOL     OW16762   2.976   1.400   2.722 -0.2220  0.5578  0.0875
 1768SOL    HW116763   2.896   1.376   2.675 -0.1737  0.5246  0.0224
 1768SOL    HW216764   2.976   1.330   2.787  0.7108 -0.8979 -1.5058
 1769SOL     OW16765   3.634   2.878  13.931  0.0507 -0.6871  0.6565
 1769SOL    HW116766   3.572   2.941  13.967 -1.5626 -1.3127 -1.0000
 1769SOL    HW216767   3.583   2.851  13.854 -0.7377 -0.9834  1.2928
 1770SOL     OW16768   0.605   4.426  12.753  0.2496 -0.7082  0.5519
 1770SOL    HW116769   0.682   4.406  12.807  0.2360 -1.6330  0.2369
 1770SOL    HW216770   0.647   4.455  12.672  0.3019 -0.2958  0.7270
 1771SOL     OW16771   2.516   3.653  14.908  0.5032 -0.3025 -0.1172
 1771SOL    HW116772   2.541   3.709  14.834  0.4466 -0.7339 -0.4652
 1771SOL    HW216773   2.571   3.695  14.974  0.5121 -2.8363  1.4840
 1772SOL     OW16774   3.007   4.516   6.018 -0.0312  0.1017 -0.6827
 1772SOL    HW116775   3.024   4.454   6.088 -1.4839 -1.0426 -1.3396
 1772SOL    HW216776   3.005   4.592   6.076 -1.4116 -2.1239  2.1664
 1773SOL     OW16777   0.739   1.365   3.440  0.3541 -0.2447 -0.4454
 1773SOL    HW116778   0.811   1.402   3.390 -0.9538  1.8104 -0.8259
 1773SOL    HW216779   0.780   1.292   3.486  0.6102 -0.8116 -1.5552
 1774SOL     OW16780   3.257   2.886   5.766 -0.4373  0.3033 -0.1980
 1774SOL    HW116781   3.252   2.922   5.855  1.2927 -0.5249  0.2418
 1774SOL    HW216782   3.296   2.799   5.777 -2.2509 -0.1463  2.8850
 1775SOL     OW16783   4.688   3.401  11.752  0.3201 -0.3865  0.3786
 1775SOL    HW116784   4.670   3.421  11.844 -0.4140 -0.1674  0.1897
 1775SOL    HW216785   0.064   3.410  11.751  0.1851  0.9198 -0.2614
 1776SOL     OW16786   4.396   1.345   6.760  0.0178  0.4849 -0.7327
 1776SOL    HW116787   4.485   1.334   6.793  0.7067  0.9631 -2.4108
 1776SOL    HW216788   4.394   1.426   6.709 -0.0872 -1.5316 -3.9662
 1777SOL     OW16789   4.047   0.228  12.301  0.3166 -0.2061 -0.0372
 1777SOL    HW116790   3.990   0.176  12.246 -0.9254  1.0281  0.0789
 1777SOL    HW216791   4.133   0.207  12.265 -0.0040 -1.5316 -0.0037
 1778SOL     OW16792   4.044   0.223   6.238 -0.0505  0.5468 -0.1534
 1778SOL    HW116793   4.090   0.299   6.201  1.8152 -0.3572  0.2857
 1778SOL    HW216794   4.118   0.175   6.277  0.3240  0.9000 -0.4248
 1779SOL     OW16795   0.602   3.638   7.043  0.1171 -0.3080  0.2707
 1779SOL    HW116796   0.579   3.614   7.133  0.2267  0.5857  0.5416
 1779SOL    HW216797   0.541   3.711   7.030 -0.5329 -0.6754  1.2010
 1780SOL     OW16798   3.441   1.074  16.402  0.1905  0.0795  0.3878
 1780SOL    HW116799   3.479   0.999  16.356  0.3267  0.5208 -0.2244
 1780SOL    HW216800   3.383   1.039  16.469 -1.1954  1.5132 -0.0580
 1781SOL     OW16801   3.930   4.154   4.040  0.4851 -0.2327 -0.0350
 1781SOL    HW116802   3.979   4.207   3.978  2.3189  0.0426  1.6647
 1781SOL    HW216803   3.843   4.171   4.004  1.0317 -0.4297 -1.4586
 1782SOL     OW16804   3.196   3.074  14.016  0.3977  0.0535  0.0534
 1782SOL    HW116805   3.132   3.010  13.987  1.2246  0.2872 -2.2856
 1782SOL    HW216806   3.132   3.131  14.058  1.0072  1.4688 -0.9174
 1783SOL     OW16807   1.278   4.637   1.547 -0.3631  0.1391  0.1038
 1783SOL    HW116808   1.228   4.568   1.589 -0.5631 -1.2946 -2.4669
 1783SOL    HW216809   1.314   4.690   1.618 -1.2257  1.1052 -0.1854
 1784SOL     OW16810   4.662   1.638   4.198 -0.2322  0.1414 -0.3939
 1784SOL    HW116811   4.698   1.702   4.136  0.2702  1.1970  0.9856
 1784SOL    HW216812   4.687   1.556   4.156 -0.8721 -0.0076 -0.4840
 1785SOL     OW16813   0.329   3.132   1.861  0.6024  0.2477  0.1646
 1785SOL    HW116814   0.321   3.145   1.766 -2.1075  0.5182  0.4344
 1785SOL    HW216815   0.342   3.218   1.901 -2.8465 -0.3627  2.6184
 1786SOL     OW16816   0.377   4.010  15.009 -0.1253  0.0487  0.0060
 1786SOL    HW116817   0.338   3.926  15.036  0.4971  0.6098  2.6652
 1786SOL    HW216818   0.374   4.053  15.095 -0.9633 -1.5919  0.8171
 1787SOL     OW16819   2.786   1.779   7.704  0.6147 -0.4582 -0.0900
 1787SOL    HW116820   2.758   1.813   7.789  1.4730 -0.5903  0.2426
 1787SOL    HW216821   2.842   1.703   7.720  0.2607 -0.2549  2.1120
 1788SOL     OW16822   2.002   3.905   5.278 -0.4208  0.1463 -0.1803
 1788SOL    HW116823   2.048   3.867   5.203  0.7488  0.1074  0.5704
 1788SOL    HW216824   1.945   3.968   5.234  1.2392  1.4685 -0.4260
 1789SOL     OW16825   2.719   2.442   0.671 -0.0971 -0.1903  0.6669
 1789SOL    HW116826   2.624   2.441   0.662 -0.0201  0.5465 -0.2990
 1789SOL    HW216827   2.735   2.401   0.756  3.6947 -1.3315 -0.6103
 1790SOL     OW16828   1.839   0.287   5.482 -0.7330  0.2043  0.1405
 1790SOL    HW116829   1.769   0.334   5.526 -0.2138  0.4368  0.7183
 1790SOL    HW216830   1.853   0.341   5.404  2.4371  1.2589  1.4401
 1791SOL     OW16831   3.566   0.637   2.232  0.3547 -0.1082 -0.2809
 1791SOL    HW116832   3.656   0.625   2.203  0.8393 -1.3514  1.7012
 1791SOL    HW216833   3.541   0.700   2.165  0.0650 -1.0791 -1.0771
 1792SOL     OW16834   3.321   1.252   6.947  0.3310  0.5801  0.4449
 1792SOL    HW116835   3.417   1.252   6.944  0.3568  1.6360  1.5959
 1792SOL    HW216836   3.309   1.323   7.010 -0.7030  2.1627 -1.5242
 1793SOL     OW16837   3.657   3.309   7.886 -0.5030  0.2077  0.6384
 1793SOL    HW116838   3.711   3.242   7.928  0.7850 -0.2637 -1.7348
 1793SOL    HW216839   3.718   3.335   7.817 -0.6303  1.2665  0.9182
 1794SOL     OW16840   2.555   2.337   2.246 -0.0900  0.0768  0.0458
 1794SOL    HW116841   2.519   2.382   2.169 -1.9099 -1.6393 -0.1226
 1794SOL    HW216842   2.581   2.253   2.209 -0.2648 -0.4066  1.0089
 1795SOL     OW16843   4.503   0.780   7.216  0.4166  0.1812  0.4078
 1795SOL    HW116844   4.440   0.844   7.182  3.1350  2.1010 -0.9808
 1795SOL    HW216845   4.550   0.761   7.135  1.0775 -1.9335  1.2681
 1796SOL     OW16846   1.303   2.829   1.084  0.4193 -0.3950  0.3202
 1796SOL    HW116847   1.376   2.854   1.027 -0.7369 -1.0216 -1.4606
 1796SOL    HW216848   1.346   2.771   1.146 -1.5696 -0.6345  1.4811
 1797SOL     OW16849   2.898   1.274   3.420  0.2580  0.2846  0.2551
 1797SOL    HW116850   2.994   1.273   3.428  0.3665  0.6663 -0.9655
 1797SOL    HW216851   2.873   1.365   3.405 -0.5215 -0.2238 -1.6006
 1798SOL     OW16852   3.255   2.930   4.880 -0.1683 -0.2834  0.0231
 1798SOL    HW116853   3.194   2.909   4.951 -2.2337 -0.1814 -1.7420
 1798SOL    HW216854   3.221   3.005   4.832 -3.4184 -0.7199  1.6722
 1799SOL     OW16855   2.146   1.349   1.489 -0.5100 -0.7007 -0.2374
 1799SOL    HW116856   2.063   1.396   1.480  0.8187  1.4783 -1.2173
 1799SOL    HW216857   2.126   1.264   1.451  2.8085 -2.2750  1.5850
 1800SOL     OW16858   3.225   3.487   6.892 -0.6605  0.0263 -0.0749
 1800SOL    HW116859   3.292   3.436   6.936 -0.8583 -0.0464  0.1418
 1800SOL    HW216860   3.219   3.438   6.810 -0.8201 -0.7112  0.3764
 1801SOL     OW16861   4.656   2.705   4.187 -0.3819 -0.3947  0.6066
 1801SOL    HW116862   0.021   2.682   4.147  0.6291  0.4214  2.2480
 1801SOL    HW216863   4.610   2.628   4.153  0.0714 -0.2029 -0.4530
 1802SOL     OW16864   2.326   3.726  12.710  0.1899 -0.1892 -0.4465
 1802SOL    HW116865   2.251   3.762  12.757 -0.2214  0.6711 -1.7522
 1802SOL    HW216866   2.376   3.696  12.786 -0.2074 -1.4585 -0.6933
 1803SOL     OW16867   0.007   1.590  11.713 -0.1755  0.3399  0.3416
 1803SOL    HW116868   0.006   1.516  11.652  0.2310 -1.5946  2.6577
 1803SOL    HW216869   4.701   1.553  11.798  1.1844  0.3568  0.7526
 1804SOL     OW16870   4.685   2.860   1.764  0.0888 -0.4003 -0.7113
 1804SOL    HW116871   4.673   2.770   1.735 -0.5468 -1.9587  4.3321
 1804SOL    HW216872   0.053   2.877   1.726  0.4510  0.4864  0.4828
 1805SOL     OW16873   3.580   4.108   6.322 -0.5490 -0.2427 -0.4481
 1805SOL    HW116874   3.531   4.180   6.281 -1.9968  1.2396  3.8768
 1805SOL    HW216875   3.665   4.150   6.328 -1.0158  0.8966 -1.8388
 1806SOL     OW16876   2.685   1.913   1.897 -0.1731 -0.2736 -0.5401
 1806SOL    HW116877   2.649   1.962   1.823 -0.5957 -0.8031 -0.6860
 1806SOL    HW216878   2.617   1.912   1.964  0.6495 -0.0331  0.3061
 1807SOL     OW16879   3.648   1.926   8.799 -0.5965  0.3902  0.0848
 1807SOL    HW116880   3.606   1.872   8.865  1.3920 -0.6218  0.5340
 1807SOL    HW216881   3.633   2.015   8.831 -1.3990  0.0464  0.6644
 1808SOL     OW16882   2.663   3.084   1.872  0.0337 -0.3036  0.2834
 1808SOL    HW116883   2.739   3.042   1.913  0.0087 -0.6873 -0.0601
 1808SOL    HW216884   2.688   3.100   1.781  0.7696  0.0076  0.5439
 1809SOL     OW16885   1.584   3.811   1.327 -0.4139 -0.5392 -0.6087
 1809SOL    HW116886   1.595   3.716   1.331 -2.7243 -0.7287  1.4266
 1809SOL    HW216887   1.644   3.850   1.390 -0.3401  1.9795 -2.2446
 1810SOL     OW16888   1.498   3.607   3.608  0.4094 -0.4785  0.7117
 1810SOL    HW116889   1.439   3.537   3.636  0.0760  0.2786  1.8815
 1810SOL    HW216890   1.456   3.647   3.532  2.3406  0.9610  0.3982
 1811SOL     OW16891   1.118   4.379   2.637 -0.1154  0.3958 -0.2213
 1811SOL    HW116892   1.118   4.450   2.573  2.4198  0.3779 -0.2259
 1811SOL    HW216893   1.186   4.406   2.698  0.9116  0.1792 -1.2742
 1812SOL     OW16894   3.199   0.212  11.961 -0.7693 -0.0339 -0.8204
 1812SOL    HW116895   3.107   0.236  11.970 -0.2914  1.4392  0.2070
 1812SOL    HW216896   3.233   0.251  11.881  0.2601 -1.7503 -1.2290
 1813SOL     OW16897   3.982   1.016  13.004  0.3555  0.0417 -0.7657
 1813SOL    HW116898   4.022   1.065  13.077  0.2132  0.5788 -1.0498
 1813SOL    HW216899   3.996   0.927  13.037 -1.0209 -0.3676 -1.2942
 1814SOL     OW16900   4.459   1.811  10.677 -0.2029  0.2822  0.4375
 1814SOL    HW116901   4.410   1.791  10.757 -1.4589 -0.8458 -0.6189
 1814SOL    HW216902   4.510   1.886  10.708 -2.3255  1.6497  0.6376
 1815SOL     OW16903   0.345   2.650   2.811  0.2191 -0.4306  0.2468
 1815SOL    HW116904   0.337   2.745   2.812  0.9746 -0.3507 -1.6059
 1815SOL    HW216905   0.264   2.619   2.852  0.8345 -0.1521  1.6461
 1816SOL     OW16906   0.386   3.620   8.594 -0.3448 -0.0197 -0.0118
 1816SOL    HW116907   0.465   3.661   8.560 -0.6019  3.1287  3.2572
 1816SOL    HW216908   0.321   3.674   8.549  0.5078  1.4239  0.5114
 1817SOL     OW16909   4.356   3.731   8.092 -0.2298 -0.1100  0.0251
 1817SOL    HW116910   4.397   3.645   8.081 -1.2459 -0.4340 -1.2445
 1817SOL    HW216911   4.437   3.782   8.104  1.0517 -2.0014 -0.5699
 1818SOL     OW16912   0.663   2.475  14.922  0.2113  0.1020  0.0818
 1818SOL    HW116913   0.649   2.397  14.868 -0.4525  0.5585 -0.4017
 1818SOL    HW216914   0.721   2.525  14.865 -0.6113  0.7878 -0.1516
 1819SOL     OW16915   3.049   3.291  14.096 -0.3674 -0.0427 -0.0056
 1819SOL    HW116916   3.118   3.357  14.092 -0.4859  0.1076  0.4359
 1819SOL    HW216917   2.977   3.331  14.046 -0.6904  0.6140  0.9784
 1820SOL     OW16918   0.554   0.097   8.162 -0.1223  0.0858  0.1490
 1820SOL    HW116919   0.538   0.008   8.130 -3.2155  0.6338  0.0926
 1820SOL    HW216920   0.477   0.154   8.157 -0.3469 -0.0426  2.2225
 1821SOL     OW16921   2.724   1.332   5.721 -0.0401 -1.0439 -0.3270
 1821SOL    HW116922   2.789   1.314   5.653 -0.8160  0.4054 -1.4664
 1821SOL    HW216923   2.725   1.427   5.728  0.5617 -1.0933  0.2537
 1822SOL     OW16924   4.326   1.147  12.635 -0.4189  0.8462  0.4327
 1822SOL    HW116925   4.351   1.056  12.647 -0.0478  0.7898 -0.7660
 1822SOL    HW216926   4.378   1.173  12.558 -2.6125  0.8547 -1.0331
 1823SOL     OW16927   1.329   3.390  13.589  0.1321  0.6178  0.4801
 1823SOL    HW116928   1.348   3.297  13.575 -1.9045  0.5302 -1.5959
 1823SOL    HW216929   1.393   3.411  13.657  0.3850 -2.5704  1.2589
 1824SOL     OW16930   3.891   0.054  10.302  0.1385 -0.3219  0.1216
 1824SOL    HW116931   3.941   0.040  10.382  0.6970  3.0556  0.3428
 1824SOL    HW216932   3.854   0.138  10.326  2.3865  1.1567 -1.6008
 1825SOL     OW16933   3.263   0.011   6.730  0.2082 -0.0104 -0.0716
 1825SOL    HW116934   3.222   0.078   6.784 -1.1074 -0.4612 -0.5101
 1825SOL    HW216935   3.195   4.662   6.725  0.7116 -0.4936 -0.3937
 1826SOL     OW16936   4.547   2.952   4.107  0.0264 -0.1418 -0.9394
 1826SOL    HW116937   4.586   3.018   4.164 -0.1139 -0.9408  0.0893
 1826SOL    HW216938   4.565   2.868   4.148 -0.3938  0.9921  1.5437
 1827SOL     OW16939   1.136   3.005   3.623 -0.0747  0.1200  0.4851
 1827SOL    HW116940   1.182   3.021   3.540 -0.4073  0.1704  0.3088
 1827SOL    HW216941   1.123   3.093   3.656 -0.9221  0.0995  0.1990
 1828SOL     OW16942   2.427   4.433   1.413 -0.7379 -0.3787 -0.2999
 1828SOL    HW116943   2.500   4.373   1.398  1.1753  1.5208  1.4672
 1828SOL    HW216944   2.394   4.398   1.496 -0.5199  0.0305 -0.0475
 1829SOL     OW16945   0.449   2.943   7.847 -0.0777 -0.1525 -0.3339
 1829SOL    HW116946   0.461   2.950   7.752 -0.0401  0.6138 -0.2732
 1829SOL    HW216947   0.525   2.992   7.878 -0.6762  0.7846 -0.3459
 1830SOL     OW16948   0.236   3.162  17.193  0.5379 -0.0518 -0.1598
 1830SOL    HW116949   0.219   3.075  17.158 -0.8479 -0.4020  1.3401
 1830SOL    HW216950   0.149   3.198  17.213  1.1580  0.1339  2.2414
 1831SOL     OW16951   3.785   4.343   5.927  0.4153  0.1435  0.1420
 1831SOL    HW116952   3.815   4.351   5.836  0.6803 -1.1976  0.1109
 1831SOL    HW216953   3.719   4.410   5.941  0.8972  0.8007 -0.7001
 1832SOL     OW16954   1.075   4.333   3.413  0.2263  0.1428  0.6608
 1832SOL    HW116955   1.110   4.249   3.384  2.1006  1.1311  0.0979
 1832SOL    HW216956   1.135   4.356   3.483 -0.8287  0.2807  1.5168
 1833SOL     OW16957   1.579   3.773   4.508 -0.3089 -0.5512 -0.1428
 1833SOL    HW116958   1.670   3.791   4.486  0.0253 -2.4411 -0.3579
 1833SOL    HW216959   1.550   3.864   4.509 -0.9053 -0.7359 -0.3992
 1834SOL     OW16960   4.234   0.825   6.251 -0.1491  0.1143  0.5673
 1834SOL    HW116961   4.193   0.771   6.184  2.4251 -0.3274 -0.6420
 1834SOL    HW216962   4.156   0.871   6.281 -0.3731 -0.5458  0.9998
 1835SOL     OW16963   2.132   1.401   4.765  0.0721 -0.6531 -0.3247
 1835SOL    HW116964   2.189   1.430   4.836  0.2084 -0.5006 -0.4965
 1835SOL    HW216965   2.103   1.326   4.816 -0.6948  0.2338  0.5575
 1836SOL     OW16966   2.650   3.315   9.248 -0.2205  0.0869 -0.9820
 1836SOL    HW116967   2.673   3.227   9.218  0.3319 -0.1342  0.0678
 1836SOL    HW216968   2.627   3.289   9.338 -0.5402 -2.3167 -1.7650
 1837SOL     OW16969   1.228   4.282   6.564  0.0750  0.2478  0.1780
 1837SOL    HW116970   1.262   4.268   6.653  0.9330  0.0365 -0.1750
 1837SOL    HW216971   1.138   4.308   6.581  0.6512  1.7084  1.0454
 1838SOL     OW16972   1.683   2.650   6.374  0.4104  0.4379 -0.4834
 1838SOL    HW116973   1.658   2.672   6.285 -3.1177  0.0098  0.3782
 1838SOL    HW216974   1.601   2.680   6.414  1.0921  1.3122  0.2539
 1839SOL     OW16975   2.729   3.066   9.201  0.3696  0.2747 -0.5275
 1839SOL    HW116976   2.809   3.069   9.253  0.2519 -2.2005 -0.1874
 1839SOL    HW216977   2.767   3.067   9.113 -2.5608  2.1505 -1.7737
 1840SOL     OW16978   1.638   4.049   2.904 -0.3336 -0.0950 -0.3506
 1840SOL    HW116979   1.712   4.006   2.862  0.6823  3.2790 -2.0578
 1840SOL    HW216980   1.633   4.131   2.856 -0.1474  0.1926  0.1132
 1841SOL     OW16981   2.268   1.879   8.072  0.0609 -0.1353 -0.0011
 1841SOL    HW116982   2.176   1.887   8.050  0.5428 -0.3548 -2.0508
 1841SOL    HW216983   2.258   1.854   8.164  2.2175  2.3845  0.9263
 1842SOL     OW16984   1.859   1.729   5.008  0.6645  0.1973  0.0641
 1842SOL    HW116985   1.852   1.638   5.036  0.0304  0.1255 -0.3128
 1842SOL    HW216986   1.947   1.724   4.970 -0.6550  1.1731 -3.1492
 1843SOL     OW16987   4.238   4.305   9.745  0.2764  0.5366  0.3856
 1843SOL    HW116988   4.242   4.235   9.809 -1.0389 -1.1831 -1.4292
 1843SOL    HW216989   4.180   4.372   9.781 -0.2924 -0.1763  0.7915
 1844SOL     OW16990   2.790   3.242  11.482  0.1601 -0.2026 -0.1527
 1844SOL    HW116991   2.840   3.161  11.486  0.9229  0.3721  2.1016
 1844SOL    HW216992   2.799   3.273  11.572 -2.3622 -1.7217  0.6193
 1845SOL     OW16993   3.898   4.640   9.141  0.1498  0.4043  0.1443
 1845SOL    HW116994   3.964   4.574   9.121  0.6596  1.4071 -1.5551
 1845SOL    HW216995   3.903   4.695   9.062  3.1383  2.4171  1.7304
 1846SOL     OW16996   1.208   0.334   8.801 -0.1592  0.3384 -0.1981
 1846SOL    HW116997   1.272   0.333   8.872  1.7219 -2.6384 -1.9228
 1846SOL    HW216998   1.188   0.242   8.786  0.3482  0.0005  1.2191
 1847SOL     OW16999   1.111   2.536   5.031  0.3038  0.1874  0.1685
 1847SOL    HW117000   1.067   2.541   5.116 -0.8021  2.0138 -0.5288
 1847SOL    HW217001   1.149   2.624   5.030  1.0436 -0.1379 -1.0119
 1848SOL     OW17002   4.468   4.613   4.277 -1.0534 -0.3022 -0.3104
 1848SOL    HW117003   4.426   4.653   4.201  1.7968  0.2055 -1.5969
 1848SOL    HW217004   4.485   4.690   4.331  2.2670  0.1646 -2.0369
 1849SOL     OW17005   3.385   1.836   1.062  0.6869  0.7161 -0.2015
 1849SOL    HW117006   3.326   1.869   0.994 -0.2308  0.5500  0.5112
 1849SOL    HW217007   3.321   1.788   1.114  2.5408  0.2744  1.6864
 1850SOL     OW17008   2.993   1.043   6.184  0.4372  0.5292  0.1524
 1850SOL    HW117009   3.069   1.082   6.141  1.1015 -2.4451 -1.4340
 1850SOL    HW217010   3.034   0.991   6.253 -0.5383 -0.0497  0.2928
 1851SOL     OW17011   1.023   1.685   8.248 -0.4695  0.0161  0.3274
 1851SOL    HW117012   0.996   1.719   8.333 -0.0912  1.2227 -0.0364
 1851SOL    HW217013   1.045   1.592   8.254 -2.3280 -0.4474  0.0801
 1852SOL     OW17014   4.548   2.346   4.683  0.2589 -0.1434 -0.1256
 1852SOL    HW117015   4.569   2.394   4.602 -0.3135 -0.7235 -0.6108
 1852SOL    HW217016   4.607   2.271   4.671 -1.0770 -1.0136 -1.2111
 1853SOL     OW17017   1.498   0.109   2.055 -0.4872  0.4549 -0.1549
 1853SOL    HW117018   1.542   0.144   2.133  0.3664 -1.9643  0.4534
 1853SOL    HW217019   1.520   0.177   1.991 -2.4363  1.1958 -0.0187
 1854SOL     OW17020   0.816   3.770   6.180 -0.0243  0.7004  0.2581
 1854SOL    HW117021   0.811   3.688   6.132 -1.4902  0.0670  1.5178
 1854SOL    HW217022   0.840   3.730   6.264 -0.6548  1.5387  0.8418
 1855SOL     OW17023   3.047   3.893   7.900  0.3934 -0.4687 -0.2114
 1855SOL    HW117024   3.136   3.915   7.873  0.0357 -0.2787 -1.2377
 1855SOL    HW217025   3.028   3.815   7.848  1.5798 -0.8020 -0.1346
 1856SOL     OW17026   3.335   0.123   9.283 -0.0777  0.1767  0.5164
 1856SOL    HW117027   3.283   0.198   9.255  1.8688  1.1750 -0.3994
 1856SOL    HW217028   3.383   0.159   9.357 -2.3325  1.7745  1.2064
 1857SOL     OW17029   1.995   2.858   8.095 -0.4038 -0.1953  0.2053
 1857SOL    HW117030   2.036   2.783   8.053 -0.8509 -0.2954 -0.0491
 1857SOL    HW217031   2.041   2.863   8.179  0.2138  0.5422 -0.1796
 1858SOL     OW17032   1.420   3.786   1.662  0.1602 -0.0783  0.1809
 1858SOL    HW117033   1.462   3.872   1.666  1.1048 -0.4594 -1.3949
 1858SOL    HW217034   1.356   3.811   1.596 -1.6504 -0.1500  1.9404
 1859SOL     OW17035   1.797   3.708   8.519 -0.7837 -0.1986 -0.4424
 1859SOL    HW117036   1.811   3.741   8.608 -1.9055 -1.2097  0.1115
 1859SOL    HW217037   1.844   3.626   8.534  2.0149  1.7003  1.2210
 1860SOL     OW17038   2.160   2.394  17.365 -0.0658  0.1850  0.0726
 1860SOL    HW117039   2.144   2.386  17.271 -1.0778  0.6597  0.2062
 1860SOL    HW217040   2.256   2.388  17.366 -0.3420 -3.7486 -0.3032
 1861SOL     OW17041   3.941   4.419   8.148  0.1891  1.0782 -0.2281
 1861SOL    HW117042   3.873   4.393   8.211  0.8837  2.9141  1.3067
 1861SOL    HW217043   3.923   4.513   8.153  1.3140  1.2735  0.1253
 1862SOL     OW17044   3.130   4.705   2.509  0.6460 -0.1448 -0.4519
 1862SOL    HW117045   3.162   0.008   2.421 -2.2408  1.2554 -1.1725
 1862SOL    HW217046   3.205   0.005   2.564  0.1970  0.7955 -0.1653
 1863SOL     OW17047   0.966   2.379   4.806  0.1042 -0.6110 -0.5252
 1863SOL    HW117048   1.021   2.443   4.850  0.4973 -0.2215 -1.5994
 1863SOL    HW217049   1.030   2.325   4.759 -1.9213 -0.2607 -3.6736
 1864SOL     OW17050   0.566   0.286   2.274  0.4433  0.3765 -0.0375
 1864SOL    HW117051   0.605   0.349   2.213  1.6540  0.0989  0.4427
 1864SOL    HW217052   0.589   0.327   2.357  1.6946 -0.0138 -0.1967
 1865SOL     OW17053   1.733   4.549   1.626  0.0466 -0.8407  0.7600
 1865SOL    HW117054   1.700   4.460   1.631 -2.5681  0.0590 -0.4393
 1865SOL    HW217055   1.670   4.590   1.686  1.1527  2.5046 -0.3602
 1866SOL     OW17056   2.125   0.858   2.279 -0.2288 -0.3625  0.4057
 1866SOL    HW117057   2.094   0.794   2.215 -0.6938  1.2788 -0.9753
 1866SOL    HW217058   2.219   0.851   2.258 -0.5366 -2.3969 -0.3324
 1867SOL     OW17059   3.930   2.283   5.516  0.2169  0.2020  0.1037
 1867SOL    HW117060   3.848   2.241   5.490  0.3348  0.7762 -1.1850
 1867SOL    HW217061   3.956   2.340   5.444 -0.1710  1.7383  1.1601
 1868SOL     OW17062   2.172   3.961  13.275 -0.6437 -0.7457 -0.5008
 1868SOL    HW117063   2.163   3.902  13.201 -0.7354 -0.5358 -0.6577
 1868SOL    HW217064   2.097   4.017  13.255  0.5500  1.1168  0.1428
 1869SOL     OW17065   4.047   2.017  12.680  0.3881 -0.0059 -0.6105
 1869SOL    HW117066   4.096   2.099  12.686  0.5833 -0.1189 -0.6607
 1869SOL    HW217067   4.122   1.959  12.665  0.8585  0.1269  1.2298
 1870SOL     OW17068   2.731   4.177   0.914  0.1137 -0.2044 -0.4943
 1870SOL    HW117069   2.742   4.083   0.901  3.9737  0.1540  0.1500
 1870SOL    HW217070   2.663   4.187   0.981  0.4424  3.3251 -0.6937
 1871SOL     OW17071   2.314   2.230   5.888 -0.0890 -0.5984  0.1211
 1871SOL    HW117072   2.401   2.193   5.870 -0.2716 -1.2058  0.5122
 1871SOL    HW217073   2.343   2.308   5.935  0.9717  0.5866 -2.4770
 1872SOL     OW17074   0.045   0.039   1.599  0.3141 -0.5212 -0.3639
 1872SOL    HW117075   0.068   0.117   1.549 -1.6575 -0.5191 -1.2870
 1872SOL    HW217076   0.127   4.709   1.604 -0.0698 -1.1052  0.3244
 1873SOL     OW17077   1.788   3.046   8.057  0.4582 -0.0215 -0.2173
 1873SOL    HW117078   1.866   3.003   8.091  1.0639 -0.5433 -2.2407
 1873SOL    HW217079   1.766   2.992   7.981  1.3972 -2.3272  1.1319
 1874SOL     OW17080   2.115   4.265   4.424  0.3763  0.4328 -1.1006
 1874SOL    HW117081   2.180   4.331   4.403 -0.1347  0.3895 -2.8275
 1874SOL    HW217082   2.041   4.307   4.380 -1.6795 -2.3684 -0.3478
 1875SOL     OW17083   2.562   2.814   8.185  0.3837  0.1953 -0.4716
 1875SOL    HW117084   2.473   2.780   8.194  0.5998 -0.2549 -0.0741
 1875SOL    HW217085   2.564   2.859   8.269 -0.9016 -0.5435 -0.0421
 1876SOL     OW17086   4.647   0.720  11.215 -0.9781  0.2810 -0.0274
 1876SOL    HW117087   4.697   0.641  11.195 -0.5267  0.7195 -0.6181
 1876SOL    HW217088   4.598   0.735  11.134 -1.6860 -1.3101  0.0884
 1877SOL     OW17089   0.294   1.490   7.099 -0.7652  0.0256  0.6717
 1877SOL    HW117090   0.247   1.407   7.105  0.3358 -0.4688  2.4189
 1877SOL    HW217091   0.333   1.481   7.012  2.1561 -0.9179  2.0696
 1878SOL     OW17092   1.204   2.614  12.126  0.3742  0.2441 -0.6349
 1878SOL    HW117093   1.142   2.545  12.102 -0.9196  0.5736  1.7469
 1878SOL    HW217094   1.275   2.567  12.170  0.1436  0.6520  0.1832
 1879SOL     OW17095   0.096   0.061  16.691 -0.2627  0.3372  0.5525
 1879SOL    HW117096   0.048   0.143  16.685 -1.0545 -0.4612 -3.4421
 1879SOL    HW217097   0.127   0.071  16.782  0.8068 -0.1437  0.2529
 1880SOL     OW17098   2.595   0.335   2.112 -0.2519  0.2347  0.1306
 1880SOL    HW117099   2.573   0.285   2.034 -3.8406  3.4375 -0.8838
 1880SOL    HW217100   2.542   0.280   2.170 -1.5297  0.6287 -0.6819
 1881SOL     OW17101   0.507   2.145   0.351  0.0317 -0.4219  0.1632
 1881SOL    HW117102   0.471   2.139   0.439  0.5856 -0.1398  0.4096
 1881SOL    HW217103   0.471   2.068   0.307 -1.4326  0.0271  0.5883
 1882SOL     OW17104   2.419   1.239   3.200  0.0982  0.2837  0.7400
 1882SOL    HW117105   2.426   1.311   3.137 -0.8682 -0.4131 -0.1485
 1882SOL    HW217106   2.401   1.299   3.273  0.5556  0.1774  0.9463
 1883SOL     OW17107   0.379   4.157  10.406  0.0879  0.3976  0.0164
 1883SOL    HW117108   0.306   4.164  10.467 -0.1458 -0.2547 -0.1935
 1883SOL    HW217109   0.344   4.214  10.337 -0.8201 -0.2489 -0.0510
 1884SOL     OW17110   4.017   1.792   5.083 -0.3984  0.5195  0.5636
 1884SOL    HW117111   3.966   1.746   5.150  1.9456  0.6542  2.4138
 1884SOL    HW217112   3.948   1.842   5.039  0.0960  0.1239 -0.6749
 1885SOL     OW17113   3.922   4.541   7.833 -0.6242 -0.1395 -0.3153
 1885SOL    HW117114   3.899   4.589   7.913 -0.5054 -0.8807  0.1612
 1885SOL    HW217115   4.002   4.494   7.857 -0.8454 -0.5057 -0.3080
 1886SOL     OW17116   3.744   2.887   3.729  0.4140 -0.6503  0.0709
 1886SOL    HW117117   3.741   2.949   3.802  2.2248 -1.0302  0.4667
 1886SOL    HW217118   3.766   2.942   3.654  0.1877 -2.1193 -1.0853
 1887SOL     OW17119   1.088   4.284  14.318  0.2711  0.4726  0.5881
 1887SOL    HW117120   1.156   4.344  14.348  2.4058 -1.2632 -0.7537
 1887SOL    HW217121   1.135   4.224  14.260 -0.3938 -0.7275  1.2978
 1888SOL     OW17122   3.386   3.909  13.982  0.0449  0.6093  0.5831
 1888SOL    HW117123   3.432   3.868  14.055  0.7189  0.4522  0.0673
 1888SOL    HW217124   3.437   3.883  13.905  1.4594  3.2741  0.6377
 1889SOL     OW17125   2.826   0.334   5.551  0.0886  0.0499  0.6538
 1889SOL    HW117126   2.853   0.369   5.636 -1.2788  0.0214  1.0943
 1889SOL    HW217127   2.783   0.255   5.582 -3.6259  1.6816 -0.3741
 1890SOL     OW17128   0.747   1.639  15.784  0.1600 -0.5207 -0.1711
 1890SOL    HW117129   0.709   1.649  15.871  1.6597  1.5196  0.2435
 1890SOL    HW217130   0.832   1.676  15.806 -0.5275  0.2358  1.2157
 1891SOL     OW17131   1.931   3.258   4.155  0.1229  0.5110 -0.7163
 1891SOL    HW117132   1.853   3.309   4.133 -0.3957  0.5294  1.1267
 1891SOL    HW217133   1.898   3.169   4.145 -0.8677  0.9203 -1.0633
 1892SOL     OW17134   3.674   4.095   7.746 -0.0748  0.3258 -0.4349
 1892SOL    HW117135   3.593   4.122   7.789 -0.5013 -0.7393 -0.5783
 1892SOL    HW217136   3.717   4.042   7.813 -0.3361  0.5974 -0.0461
 1893SOL     OW17137   3.911   3.923   6.536  0.3470 -0.2045 -0.0135
 1893SOL    HW117138   3.886   3.947   6.625  1.8892 -1.6701  0.8140
 1893SOL    HW217139   3.822   3.909   6.502  0.5463 -1.1842 -0.1507
 1894SOL     OW17140   0.934   1.169  17.093 -0.2826 -0.4487 -0.1110
 1894SOL    HW117141   0.867   1.222  17.137 -1.1296  0.3812 -2.4105
 1894SOL    HW217142   0.964   1.128  17.174 -0.2277  0.4308  0.3092
 1895SOL     OW17143   0.350   3.372   5.302  0.4495 -0.4450 -0.0576
 1895SOL    HW117144   0.302   3.361   5.384 -4.3075 -1.7495 -2.9727
 1895SOL    HW217145   0.345   3.468   5.298 -1.2561 -0.4791  1.2122
 1896SOL     OW17146   1.805   3.791   1.019  0.0631  0.1293 -0.3047
 1896SOL    HW117147   1.816   3.872   1.069 -1.3016  0.7764 -1.0371
 1896SOL    HW217148   1.710   3.780   1.024  0.1632 -2.3193 -3.5260
 1897SOL     OW17149   4.258   0.501  16.424 -0.4557 -0.1097 -0.0878
 1897SOL    HW117150   4.230   0.579  16.471 -0.5908  1.7216 -3.1696
 1897SOL    HW217151   4.343   0.521  16.383  0.1858 -2.3307  0.1590
 1898SOL     OW17152   0.775   1.507   7.899 -0.0128  0.1021 -0.5367
 1898SOL    HW117153   0.786   1.453   7.821  0.8532 -2.0645  1.1108
 1898SOL    HW217154   0.691   1.478   7.935 -0.0065 -0.4945 -1.0051
 1899SOL     OW17155   0.198   0.688  13.137 -0.2028 -0.6161 -0.0612
 1899SOL    HW117156   0.226   0.664  13.048 -0.4031  0.2447 -0.3612
 1899SOL    HW217157   0.278   0.731  13.165 -0.6122  0.1615 -0.0845
 1900SOL     OW17158   3.163   2.891   8.251  0.1596 -0.0260  0.7446
 1900SOL    HW117159   3.105   2.948   8.302  0.0704  0.1569  0.4429
 1900SOL    HW217160   3.203   2.946   8.183 -2.2881  1.5756  0.5969
 1901SOL     OW17161   1.987   0.787   8.930 -0.1195 -0.4289 -0.4394
 1901SOL    HW117162   2.018   0.749   9.012  1.3879  4.2072  1.1014
 1901SOL    HW217163   2.044   0.740   8.868  0.8061 -0.2732  0.2944
 1902SOL     OW17164   2.846   3.667  17.663  0.4987  0.6906  0.2719
 1902SOL    HW117165   2.938   3.694  17.655  1.0141 -0.7735  1.3535
 1902SOL    HW217166   2.790   3.739  17.635  0.9231 -0.2865 -3.1158
 1903SOL     OW17167   0.367   4.458   7.391 -0.2985 -0.0543 -0.1504
 1903SOL    HW117168   0.317   4.480   7.312  1.1702  0.6689 -0.8667
 1903SOL    HW217169   0.303   4.457   7.462 -0.1523 -1.1435 -0.0295
 1904SOL     OW17170   2.509   3.065   4.020  0.0243 -0.4214 -0.1564
 1904SOL    HW117171   2.428   3.080   3.971 -1.4377 -0.2845  2.3273
 1904SOL    HW217172   2.574   3.044   3.953 -1.3355 -1.9499 -0.9723
 1905SOL     OW17173   4.581   0.409  11.928  0.7530 -0.0971 -0.0982
 1905SOL    HW117174   4.607   0.492  11.890  2.2548 -0.4297  0.2241
 1905SOL    HW217175   4.524   0.382  11.856 -0.1524  0.3935  0.4339
 1906SOL     OW17176   1.274   0.608   1.431  1.1381 -0.3128  0.4423
 1906SOL    HW117177   1.210   0.633   1.497 -0.0179 -2.8358  0.3046
 1906SOL    HW217178   1.244   0.517   1.429  1.1079 -0.2317 -3.4655
 1907SOL     OW17179   0.851   1.716   0.448  0.3439  0.3344 -0.8632
 1907SOL    HW117180   0.850   1.811   0.436  0.8023  0.2484 -1.5763
 1907SOL    HW217181   0.812   1.698   0.363  0.6675 -2.5575 -0.3971
 1908SOL     OW17182   2.585   0.305   9.302 -0.4429 -0.2862 -0.3015
 1908SOL    HW117183   2.543   0.255   9.372 -2.2270  1.8539  0.1694
 1908SOL    HW217184   2.529   0.383   9.305  2.1625  1.5877 -1.1076
 1909SOL     OW17185   1.070   0.925   7.809 -0.3873  0.3070 -0.5810
 1909SOL    HW117186   1.109   0.838   7.808 -0.7274  0.1671 -2.1347
 1909SOL    HW217187   1.033   0.933   7.721 -0.4085 -2.7658 -0.8720
 1910SOL     OW17188   1.751   3.073   8.645  0.3476  0.1894  0.2137
 1910SOL    HW117189   1.782   3.046   8.731 -0.1407 -1.9217 -0.2673
 1910SOL    HW217190   1.733   3.167   8.652 -1.1179  0.1078 -2.1427
 1911SOL     OW17191   4.445   0.449   4.444  0.2168 -0.1200 -0.4004
 1911SOL    HW117192   4.399   0.457   4.360  2.0305  0.9278 -1.2849
 1911SOL    HW217193   4.482   0.537   4.449 -0.8149  0.1804  1.8361
 1912SOL     OW17194   3.283   4.530   5.966 -0.7170  0.0031  0.4070
 1912SOL    HW117195   3.202   4.501   6.007 -0.0356 -0.9179  1.1232
 1912SOL    HW217196   3.250   4.528   5.877  0.5452  0.9339 -0.0847
 1913SOL     OW17197   3.002   0.081   4.018  0.2616 -0.8067  0.3783
 1913SOL    HW117198   3.082   0.067   4.069  0.8976  1.4110 -0.0313
 1913SOL    HW217199   2.955   0.008   4.058 -0.5942 -0.8369 -0.6807
 1914SOL     OW17200   0.987   4.481  15.881 -0.5189 -0.0496 -0.0094
 1914SOL    HW117201   0.972   4.568  15.918  1.0619 -0.3236  1.3172
 1914SOL    HW217202   1.081   4.490  15.864 -0.1851 -0.9596  1.4186
 1915SOL     OW17203   1.311   3.079   3.404 -0.0366  0.6135  0.5518
 1915SOL    HW117204   1.313   3.166   3.444  0.6583  0.9469 -0.2272
 1915SOL    HW217205   1.389   3.039   3.442  1.5514  2.4174 -0.7967
 1916SOL     OW17206   1.720   3.720   2.178 -0.4128  0.7087 -0.0047
 1916SOL    HW117207   1.675   3.798   2.145 -0.0773  1.3773  1.1131
 1916SOL    HW217208   1.750   3.757   2.261 -2.7752  0.6310  0.8937
 1917SOL     OW17209   3.340   3.280   5.764 -0.2042 -0.3669  0.9313
 1917SOL    HW117210   3.393   3.217   5.813  1.7762 -0.5763 -1.4611
 1917SOL    HW217211   3.267   3.294   5.824  0.5452  0.2366  1.6946
 1918SOL     OW17212   1.572   1.816  13.867 -0.5828  0.0760  0.1185
 1918SOL    HW117213   1.536   1.881  13.927  3.6853  1.4400  1.1724
 1918SOL    HW217214   1.612   1.860  13.793  0.3347  0.6063  0.9363
 1919SOL     OW17215   3.618   4.591   5.709 -0.1800  0.4313 -0.3796
 1919SOL    HW117216   3.562   4.624   5.638 -0.7512 -2.2442 -1.1733
 1919SOL    HW217217   3.686   4.658   5.705  2.5584 -2.3922 -1.2174
 1920SOL     OW17218   3.038   0.486   7.480 -0.0971 -0.0288  0.4774
 1920SOL    HW117219   3.117   0.538   7.464  1.1375 -2.0307  0.1049
 1920SOL    HW217220   2.997   0.491   7.393 -0.1377 -0.1322  0.4897
 1921SOL     OW17221   1.535   0.189   7.509  0.0749 -0.3062  0.2394
 1921SOL    HW117222   1.549   0.221   7.598 -1.2376  0.8741  0.0182
 1921SOL    HW217223   1.584   0.247   7.451  0.3111 -2.1801 -1.4561
 1922SOL     OW17224   2.836   0.436  16.098 -0.5327 -0.3209  0.6707
 1922SOL    HW117225   2.741   0.437  16.090 -0.4561  0.0046 -0.2264
 1922SOL    HW217226   2.840   0.374  16.171 -0.8894 -0.0077  0.9571
 1923SOL     OW17227   0.398   1.224   7.717  0.1677  0.1194 -0.3433
 1923SOL    HW117228   0.456   1.202   7.790 -0.8679 -1.3699  0.0408
 1923SOL    HW217229   0.461   1.252   7.652  1.3330  0.2425  0.8499
 1924SOL     OW17230   0.686   2.629   7.731  0.0864  0.1398  0.1874
 1924SOL    HW117231   0.652   2.697   7.790  0.6074  0.8314 -0.3057
 1924SOL    HW217232   0.672   2.558   7.793  1.8872  1.6847  2.3836
 1925SOL     OW17233   3.826   0.886   6.598 -0.2594 -0.5751 -0.0084
 1925SOL    HW117234   3.847   0.834   6.675 -0.7877 -0.7610  0.0080
 1925SOL    HW217235   3.732   0.868   6.593 -0.2646 -1.0743  2.2036
 1926SOL     OW17236   3.327   4.543   1.117 -0.0591  0.2038  0.3744
 1926SOL    HW117237   3.341   4.515   1.208 -3.5990  0.1002  0.9280
 1926SOL    HW217238   3.232   4.551   1.104 -0.3114  0.1036  2.1343
 1927SOL     OW17239   2.943   3.890   6.300  0.3446  0.5313  0.4107
 1927SOL    HW117240   2.859   3.936   6.300  0.1756  0.2183 -0.0545
 1927SOL    HW217241   2.968   3.906   6.391  2.3455 -1.0779  0.1348
 1928SOL     OW17242   4.256   0.931   5.879 -0.1310 -0.4926  0.0624
 1928SOL    HW117243   4.300   0.967   5.956 -1.0501 -0.0138  0.3533
 1928SOL    HW217244   4.194   1.003   5.869  1.0295  0.8008  2.1891
 1929SOL     OW17245   1.596   0.747   9.017 -0.2434 -0.3068 -0.1540
 1929SOL    HW117246   1.543   0.826   9.024  1.5677  0.7239  2.0043
 1929SOL    HW217247   1.661   0.762   8.949 -0.9929 -0.6855 -0.9459
 1930SOL     OW17248   3.532   2.831  11.588  0.4431  0.1577 -0.2623
 1930SOL    HW117249   3.488   2.859  11.507  1.5687  0.7518 -0.6700
 1930SOL    HW217250   3.519   2.736  11.595  0.5990  0.1199 -0.5007
 1931SOL     OW17251   4.008   2.705  11.055 -0.0920  0.4143 -0.4200
 1931SOL    HW117252   4.084   2.757  11.030 -0.5454 -0.6301 -4.0297
 1931SOL    HW217253   4.022   2.625  11.005 -1.6069  0.0096 -0.1960
 1932SOL     OW17254   4.652   3.785   5.326  0.3156 -0.3931 -0.0432
 1932SOL    HW117255   4.683   3.806   5.238  3.8594 -2.5669  0.6798
 1932SOL    HW217256   4.690   3.854   5.380 -1.2019  0.8560 -0.6043
 1933SOL     OW17257   2.080   2.380   8.979  0.3575 -0.4456 -0.1092
 1933SOL    HW117258   2.071   2.370   9.074  1.6030 -0.8006 -0.0326
 1933SOL    HW217259   2.158   2.328   8.960  0.7141  0.0904 -0.1102
 1934SOL     OW17260   4.311   3.349   8.092  0.5287  0.0243  0.2332
 1934SOL    HW117261   4.316   3.404   8.170  2.6754  0.2876 -0.0779
 1934SOL    HW217262   4.386   3.378   8.040 -2.1745  2.5662 -2.2542
 1935SOL     OW17263   3.781   3.830   5.250  0.3303 -0.5464 -0.5505
 1935SOL    HW117264   3.718   3.798   5.314  1.7976 -0.0415  1.1262
 1935SOL    HW217265   3.851   3.765   5.253 -0.1644 -0.9564  1.8778
 1936SOL     OW17266   3.186   3.358   7.429 -0.0851 -0.5608  0.6655
 1936SOL    HW117267   3.188   3.426   7.361  0.8788 -2.2502 -0.9969
 1936SOL    HW217268   3.118   3.298   7.398  0.6168 -1.8401  1.5786
 1937SOL     OW17269   4.550   2.457   4.126  0.0961  0.2167  0.2562
 1937SOL    HW117270   4.597   2.377   4.100  1.0959  1.1099 -0.6751
 1937SOL    HW217271   4.476   2.452   4.066 -0.8137 -0.8914  1.4698
 1938SOL     OW17272   4.104   4.060   2.991  0.6855 -0.2855 -0.2229
 1938SOL    HW117273   4.159   4.136   2.972 -2.0016  1.1429 -2.3133
 1938SOL    HW217274   4.078   4.079   3.081  0.0304 -1.2922 -0.1988
 1939SOL     OW17275   3.707   0.892   2.705  0.3345  0.3243  0.2165
 1939SOL    HW117276   3.786   0.885   2.652  0.4215 -0.2816  0.4305
 1939SOL    HW217277   3.643   0.842   2.656  0.8102 -0.3051  0.2374
 1940SOL     OW17278   2.733   1.609   5.692  0.0842  0.3952 -0.3908
 1940SOL    HW117279   2.681   1.689   5.682 -0.3027  0.2886  0.7776
 1940SOL    HW217280   2.821   1.644   5.700  0.9504 -1.4647 -1.6040
 1941SOL     OW17281   2.241   2.665  11.093  0.1687  0.0328 -0.0878
 1941SOL    HW117282   2.249   2.573  11.067  1.5551 -0.0115  0.4958
 1941SOL    HW217283   2.218   2.709  11.011  0.4382  0.6245  0.1541
 1942SOL     OW17284   1.597   2.837   2.713  0.4905 -0.0145 -0.0643
 1942SOL    HW117285   1.637   2.921   2.691  1.5452 -0.3306  0.6608
 1942SOL    HW217286   1.566   2.842   2.804 -0.9982  0.3048 -0.5831
 1943SOL     OW17287   0.157   2.566   3.711 -0.0802  0.1921 -0.2739
 1943SOL    HW117288   0.118   2.528   3.633 -0.1195 -1.1767  0.4099
 1943SOL    HW217289   0.129   2.655   3.690 -0.3057 -0.1506 -1.3861
 1944SOL     OW17290   2.987   0.205   2.628 -0.0198  0.3830  0.0526
 1944SOL    HW117291   3.039   0.125   2.621 -0.2333  0.5045 -2.6187
 1944SOL    HW217292   2.997   0.221   2.722 -0.1918  0.8131 -0.0049
 1945SOL     OW17293   0.040   4.523   0.372 -0.1992 -0.6471 -0.3613
 1945SOL    HW117294   4.670   4.544   0.400  0.0319 -0.7790  0.4802
 1945SOL    HW217295   0.063   4.605   0.328 -1.4876 -0.1552 -0.1125
 1946SOL     OW17296   3.766   0.115   4.682  0.1337 -0.1278 -0.0427
 1946SOL    HW117297   3.768   0.192   4.624  2.7070 -0.1125  0.0418
 1946SOL    HW217298   3.847   0.133   4.730  0.4374 -1.6066 -0.0050
 1947SOL     OW17299   2.897   2.395  15.074  0.3566 -0.1588  0.1904
 1947SOL    HW117300   2.946   2.441  15.006  1.7316 -0.6007  0.8848
 1947SOL    HW217301   2.806   2.413  15.049 -0.5810 -0.5748  3.3268
 1948SOL     OW17302   2.910   1.692   6.563  0.6624 -0.1165  0.2598
 1948SOL    HW117303   2.938   1.604   6.586 -1.5752 -0.0659  3.1393
 1948SOL    HW217304   2.901   1.729   6.651  0.7949 -1.7403  0.9530
 1949SOL     OW17305   0.955   3.249   8.357  0.0918 -0.1770  0.3211
 1949SOL    HW117306   0.998   3.321   8.311  0.1111 -0.0491  0.5395
 1949SOL    HW217307   0.933   3.194   8.281 -1.6825 -1.0169  1.4267
 1950SOL     OW17308   2.444   3.021  16.244 -0.8364 -0.0026  0.0730
 1950SOL    HW117309   2.389   3.073  16.186  1.3929 -0.0385 -2.0609
 1950SOL    HW217310   2.408   3.048  16.329 -0.9078 -1.3567  0.4879
 1951SOL     OW17311   3.354   4.075  10.377 -0.3169 -0.2084 -0.3643
 1951SOL    HW117312   3.361   4.169  10.394  2.0668 -0.5600  0.5920
 1951SOL    HW217313   3.443   4.066  10.344  0.5370  1.0186  1.5547
 1952SOL     OW17314   0.075   0.769   7.352 -0.2247 -0.1472  0.1825
 1952SOL    HW117315   0.012   0.707   7.314 -1.8976  0.6978  1.5509
 1952SOL    HW217316   0.159   0.746   7.311  0.4458  0.3773  1.2786
 1953SOL     OW17317   3.901   0.570   8.136 -0.4056  0.0954 -0.0961
 1953SOL    HW117318   3.899   0.565   8.232 -0.3285 -1.8141 -0.1990
 1953SOL    HW217319   3.808   0.582   8.118  0.0526  0.5541 -2.2056
 1954SOL     OW17320   3.381   2.250   4.293 -0.1902 -0.6363 -0.1824
 1954SOL    HW117321   3.398   2.313   4.223 -3.0650  1.0148  0.5823
 1954SOL    HW217322   3.379   2.167   4.246 -0.5301 -0.8911  0.2805
 1955SOL     OW17323   1.342   0.881   3.617 -0.1958 -0.7192  0.0733
 1955SOL    HW117324   1.411   0.859   3.680  0.8467  0.2167 -0.7517
 1955SOL    HW217325   1.391   0.945   3.566 -1.9418  0.2128 -0.4375
 1956SOL     OW17326   2.968   2.987   5.844  0.3900 -0.4610 -0.8151
 1956SOL    HW117327   2.944   3.059   5.903 -0.6038 -1.5781  0.1588
 1956SOL    HW217328   2.883   2.942   5.841 -0.4337  0.9583  1.0328
 1957SOL     OW17329   3.394   2.688   8.167 -0.5722 -0.4329 -0.2684
 1957SOL    HW117330   3.338   2.759   8.198 -0.1856 -1.3422  2.5096
 1957SOL    HW217331   3.394   2.638   8.248  0.8869  2.3644  1.4352
 1958SOL     OW17332   1.057   3.089   7.616 -0.4904  0.5837  0.4444
 1958SOL    HW117333   1.129   3.031   7.592 -1.8736 -1.4095  1.1777
 1958SOL    HW217334   1.055   3.143   7.537 -0.3364 -0.7543 -0.4750
 1959SOL     OW17335   2.620   1.063   8.090  0.1991 -0.0135 -0.3972
 1959SOL    HW117336   2.626   0.976   8.130  1.1255 -0.2285 -1.0213
 1959SOL    HW217337   2.624   1.040   7.997  0.0540 -2.2359  0.1476
 1960SOL     OW17338   2.969   0.556   7.241 -0.1558  0.3413  0.1055
 1960SOL    HW117339   2.880   0.589   7.230 -0.6193 -0.5846  1.0611
 1960SOL    HW217340   3.016   0.617   7.184 -0.2059  1.4483  1.2627
 1961SOL     OW17341   2.723   0.099   5.619 -0.4296 -0.1482 -0.2583
 1961SOL    HW117342   2.634   0.079   5.649 -0.4718 -0.9057 -0.9106
 1961SOL    HW217343   2.775   0.072   5.695  2.3408  0.5921 -1.9326
 1962SOL     OW17344   2.895   0.580  14.011 -0.4864 -0.0708  0.1931
 1962SOL    HW117345   2.830   0.553  14.076 -0.8022 -1.9644 -0.8982
 1962SOL    HW217346   2.976   0.572  14.061 -0.4679 -3.5194 -0.3744
 1963SOL     OW17347   4.403   3.027   0.867  0.3365 -0.0698 -0.0236
 1963SOL    HW117348   4.405   3.059   0.777 -1.3731  0.6762  0.2046
 1963SOL    HW217349   4.494   2.998   0.876  0.1360 -1.8503 -3.7584
 1964SOL     OW17350   1.620   4.102   3.202 -0.0928  0.0040  0.0480
 1964SOL    HW117351   1.710   4.130   3.190 -0.1406  0.3560  0.5419
 1964SOL    HW217352   1.600   4.076   3.112  3.3447 -0.9161 -0.4464
 1965SOL     OW17353   2.482   0.535   8.178 -0.0393  0.0778  0.0474
 1965SOL    HW117354   2.533   0.559   8.255  0.6289 -0.5354 -0.2010
 1965SOL    HW217355   2.443   0.619   8.156 -1.8325  0.0149  2.9868
 1966SOL     OW17356   0.648   2.463   6.249 -0.1392  0.4442 -0.2715
 1966SOL    HW117357   0.744   2.464   6.246 -0.1549 -0.4850 -0.8481
 1966SOL    HW217358   0.636   2.542   6.196  2.0540  0.8322 -0.2174
 1967SOL     OW17359   1.831   0.864   7.477 -0.5578 -0.9582 -0.7577
 1967SOL    HW117360   1.744   0.843   7.443 -2.4090  0.1660  3.3033
 1967SOL    HW217361   1.804   0.909   7.557  0.1313 -0.1938 -0.9620
 1968SOL     OW17362   0.581   2.841   6.497 -0.0888  0.2951  0.2242
 1968SOL    HW117363   0.601   2.815   6.587 -0.8019 -1.6618 -0.1910
 1968SOL    HW217364   0.669   2.834   6.458  0.5990  1.4781  1.5792
 1969SOL     OW17365   4.133   3.913  14.172  0.2746 -0.3803  0.4714
 1969SOL    HW117366   4.083   3.989  14.203 -0.0493 -0.6082  0.5133
 1969SOL    HW217367   4.217   3.944  14.205  0.2378 -1.4302  1.5151
 1970SOL     OW17368   1.488   1.039   8.998 -0.1749  0.1123 -0.3188
 1970SOL    HW117369   1.397   1.061   8.978 -0.0314  0.6311 -0.4190
 1970SOL    HW217370   1.518   1.021   8.909 -0.0012 -0.8735 -0.0612
 1971SOL     OW17371   2.400   1.372   3.632 -0.5417 -0.1062 -0.0416
 1971SOL    HW117372   2.398   1.385   3.537  2.0510  0.7389  0.0051
 1971SOL    HW217373   2.493   1.350   3.635 -0.7977 -0.9902  1.5628
 1972SOL     OW17374   2.637   1.054   2.492  0.1066  0.6195 -0.3094
 1972SOL    HW117375   2.718   1.090   2.455  2.1246 -2.5164  1.0112
 1972SOL    HW217376   2.572   1.082   2.427  0.4221 -0.9891 -1.3355
 1973SOL     OW17377   3.267   3.593   0.717  0.2247 -0.4705 -0.2989
 1973SOL    HW117378   3.321   3.522   0.683  0.7927  0.1017 -0.6047
 1973SOL    HW217379   3.183   3.549   0.731  0.3100 -0.3675  0.5364
 1974SOL     OW17380   3.443   0.386  10.328 -0.2709  0.2120  0.0110
 1974SOL    HW117381   3.366   0.362  10.379 -0.2415  0.3096  0.0988
 1974SOL    HW217382   3.414   0.467  10.286  0.4864  1.4634  1.9477
 1975SOL     OW17383   0.591   0.269   7.904  0.2904  0.7108 -0.1140
 1975SOL    HW117384   0.686   0.278   7.898  0.4469 -1.4521 -0.6475
 1975SOL    HW217385   0.571   0.183   7.867 -0.4343  0.9892 -0.3791
 1976SOL     OW17386   3.959   0.161  16.584  0.0519 -0.5798  0.2937
 1976SOL    HW117387   3.925   0.139  16.671 -0.3821  0.1095  0.2999
 1976SOL    HW217388   3.910   0.100  16.528  0.4880 -0.0311 -0.6949
 1977SOL     OW17389   3.441   0.701   3.606  0.2068  0.0564 -0.2726
 1977SOL    HW117390   3.457   0.616   3.647  1.9383  0.4842 -0.0489
 1977SOL    HW217391   3.397   0.678   3.524  0.1472 -2.6346  0.4940
 1978SOL     OW17392   2.875   1.654  13.600 -0.1546 -0.0006 -0.2963
 1978SOL    HW117393   2.903   1.563  13.590  0.2162 -0.0602  1.2933
 1978SOL    HW217394   2.916   1.696  13.525 -1.1429  2.4226  0.5248
 1979SOL     OW17395   1.641   3.738  12.504 -0.6211 -0.5184  0.3749
 1979SOL    HW117396   1.563   3.791  12.497 -0.7548 -0.6346  1.0854
 1979SOL    HW217397   1.602   3.684  12.573 -1.6113 -1.1699 -0.6899
 1980SOL     OW17398   3.102   1.901   8.287 -0.3275  0.1051 -0.3279
 1980SOL    HW117399   3.100   1.828   8.225  0.9245 -1.3028  1.3130
 1980SOL    HW217400   3.159   1.861   8.353 -0.0601  1.4504  0.2527
 1981SOL     OW17401   0.778   3.155  17.027  0.5460  0.8100  0.2245
 1981SOL    HW117402   0.695   3.117  17.056 -0.3059  4.2806  2.3042
 1981SOL    HW217403   0.773   3.235  17.079 -1.9471  2.0914 -1.9524
 1982SOL     OW17404   2.327   1.726   4.400 -0.4254  0.4374  0.1885
 1982SOL    HW117405   2.329   1.806   4.453  1.7743 -0.0317  0.8283
 1982SOL    HW217406   2.402   1.678   4.433 -1.0143 -1.4503 -1.2663
 1983SOL     OW17407   1.513   3.901  15.287 -0.1678  0.4227 -0.0145
 1983SOL    HW117408   1.512   3.886  15.381 -2.1238 -0.8730 -0.2694
 1983SOL    HW217409   1.425   3.936  15.273  0.0214  0.5896 -0.7839
 1984SOL     OW17410   2.211   4.408   7.106 -0.5431  0.6106 -0.6003
 1984SOL    HW117411   2.135   4.406   7.049 -1.1017  0.6688  0.1350
 1984SOL    HW217412   2.207   4.501   7.128 -0.5423  0.4922 -0.0921
 1985SOL     OW17413   3.245   1.712  15.112  0.1017 -0.3233 -0.1870
 1985SOL    HW117414   3.314   1.718  15.046  0.9825 -1.5493  0.6289
 1985SOL    HW217415   3.271   1.636  15.165 -1.8785 -1.2509 -0.5241
 1986SOL     OW17416   4.659   1.859   8.598 -0.2806  0.6046 -0.3102
 1986SOL    HW117417   4.598   1.927   8.569 -0.7428  1.4584  2.6859
 1986SOL    HW217418   4.673   1.885   8.689  1.5871  2.0947 -1.0206
 1987SOL     OW17419   3.946   0.769  13.491 -0.0843 -0.0614  0.3826
 1987SOL    HW117420   3.908   0.686  13.461 -0.3697  0.6399 -1.2072
 1987SOL    HW217421   3.906   0.836  13.436  0.4571  0.4125  0.5737
 1988SOL     OW17422   1.038   0.466   6.164  0.0564  0.5094  0.0638
 1988SOL    HW117423   0.961   0.458   6.220  0.6993 -2.3745  0.5125
 1988SOL    HW217424   1.093   0.533   6.205  2.0588 -1.0294 -0.1027
 1989SOL     OW17425   1.142   0.394   8.333 -0.0863 -0.3576  0.0198
 1989SOL    HW117426   1.113   0.481   8.305 -1.4627 -1.2177 -1.2519
 1989SOL    HW217427   1.172   0.411   8.423 -1.0543  0.5419  0.1762
 1990SOL     OW17428   0.743   1.546  10.797  0.1661  0.1267  0.2110
 1990SOL    HW117429   0.736   1.626  10.849 -5.2932 -0.8282  0.9331
 1990SOL    HW217430   0.802   1.576  10.728 -1.0009 -1.3123 -1.4313
 1991SOL     OW17431   0.559   2.453  16.552  0.2502 -0.6137  0.6703
 1991SOL    HW117432   0.469   2.468  16.524  0.9578 -1.3198 -2.0094
 1991SOL    HW217433   0.551   2.430  16.644 -0.1928  0.9532  1.0336
 1992SOL     OW17434   1.799   1.212  14.056  0.0062 -0.7301  0.1348
 1992SOL    HW117435   1.809   1.233  14.149 -1.7307  2.0350 -0.3005
 1992SOL    HW217436   1.889   1.223  14.026 -0.6259  3.4182 -0.1572
 1993SOL     OW17437   4.268   0.411   5.853  0.2095  0.2322 -0.3615
 1993SOL    HW117438   4.228   0.404   5.766  1.4766  1.5693 -1.0564
 1993SOL    HW217439   4.296   0.502   5.856  1.4802 -0.2435  1.6536
 1994SOL     OW17440   2.593   2.013   1.668 -0.5598  0.0083  0.1940
 1994SOL    HW117441   2.512   1.999   1.618  0.2586 -0.6236 -0.9550
 1994SOL    HW217442   2.656   2.031   1.599 -2.7260  1.1766 -1.4843
 1995SOL     OW17443   2.661   0.773  11.474 -0.1606  0.2103  0.0462
 1995SOL    HW117444   2.615   0.856  11.475  2.1434  1.4848  0.1501
 1995SOL    HW217445   2.630   0.746  11.388 -0.7773  0.5637  0.1654
 1996SOL     OW17446   2.643   3.620   2.638 -0.0791 -0.0960  0.3593
 1996SOL    HW117447   2.686   3.588   2.559 -1.5188  1.4635 -1.0628
 1996SOL    HW217448   2.698   3.693   2.664  0.5357  0.2689 -1.9659
 1997SOL     OW17449   2.372   0.679   7.085  0.1410  0.0144  0.2082
 1997SOL    HW117450   2.396   0.627   7.162 -0.8227 -0.2705  0.3239
 1997SOL    HW217451   2.433   0.752   7.088 -1.5600  1.4413  0.3105
 1998SOL     OW17452   0.079   4.680   8.265  0.6243 -0.3545 -0.2383
 1998SOL    HW117453   0.099   4.605   8.209 -0.1958  0.5018 -1.6940
 1998SOL    HW217454   0.046   0.014   8.192  0.6928  0.7758  0.5525
 1999SOL     OW17455   1.991   3.056   3.283  0.4432  0.0490 -0.3525
 1999SOL    HW117456   2.004   2.962   3.268  0.3979 -0.2239  1.2420
 1999SOL    HW217457   2.029   3.073   3.369 -1.1411 -0.1045  0.3861
 2000SOL     OW17458   1.915   3.577   5.317 -0.2658  0.6333  0.1272
 2000SOL    HW117459   2.007   3.603   5.326 -0.0902  0.4862 -1.3408
 2000SOL    HW217460   1.869   3.610   5.394  0.4756 -0.5418  1.0784
 2001SOL     OW17461   4.710   1.965   6.254 -0.3806  0.1624  0.3215
 2001SOL    HW117462   0.086   1.951   6.257 -0.2551  0.9137 -0.0618
 2001SOL    HW217463   4.687   1.892   6.310 -0.1910  0.0698  0.2805
 2002SOL     OW17464   2.244   4.252   3.487 -0.3501  0.1472  0.0462
 2002SOL    HW117465   2.214   4.280   3.574  0.3523 -3.9963  1.5964
 2002SOL    HW217466   2.331   4.220   3.513 -0.2717  0.5940  0.3382
 2003SOL     OW17467   3.005   3.326   7.214 -0.3135  0.1472  0.3629
 2003SOL    HW117468   3.038   3.251   7.164  2.4468  0.9438  0.9698
 2003SOL    HW217469   2.926   3.289   7.253  0.2782 -0.2930  1.1614
 2004SOL     OW17470   2.901   1.801   2.965 -0.4354 -0.0119 -0.0805
 2004SOL    HW117471   2.865   1.714   2.949 -1.5414  0.1984  1.2726
 2004SOL    HW217472   2.834   1.863   2.937  0.2079  0.3602 -0.8111
 2005SOL     OW17473   3.049   2.865   5.074  0.7519  0.9107  0.6966
 2005SOL    HW117474   3.023   2.797   5.137  0.0501  1.3919  0.9279
 2005SOL    HW217475   2.970   2.876   5.020  1.7171 -2.8201 -1.5064
 2006SOL     OW17476   0.572   3.056   4.980  0.1356  0.4119 -0.2044
 2006SOL    HW117477   0.520   3.136   4.992 -1.2860 -0.4813 -0.4249
 2006SOL    HW217478   0.519   2.979   5.000 -3.0518  2.5324 -0.4840
 2007SOL     OW17479   1.969   3.194   5.070  0.0457  0.1592 -0.5760
 2007SOL    HW117480   2.016   3.147   5.002  1.0805  0.5554 -0.1475
 2007SOL    HW217481   1.977   3.135   5.145 -2.2271 -0.9518 -1.2029
 2008SOL     OW17482   0.573   2.845  12.455  0.4243  0.6979 -0.1881
 2008SOL    HW117483   0.622   2.774  12.415 -0.3433  0.5719 -0.8952
 2008SOL    HW217484   0.544   2.890  12.376 -0.6168 -0.1248 -0.2689
 2009SOL     OW17485   0.450   2.976   1.508  0.6798 -0.3889  0.2754
 2009SOL    HW117486   0.414   2.892   1.479  1.9630 -0.8821  0.1399
 2009SOL    HW217487   0.517   2.976   1.441  0.7346 -0.9842  0.3236
 2010SOL     OW17488   1.429   1.927   2.649 -0.2529 -0.0221 -0.6700
 2010SOL    HW117489   1.404   1.975   2.570 -0.4969 -1.0098 -1.1904
 2010SOL    HW217490   1.416   1.834   2.627  0.0670  0.3001 -2.2785
 2011SOL     OW17491   2.361   4.340   8.462  0.0065  0.5623  0.0877
 2011SOL    HW117492   2.388   4.420   8.418  1.3455  0.5617  0.9072
 2011SOL    HW217493   2.329   4.285   8.391  1.8217 -1.1821  0.6217
 2012SOL     OW17494   1.840   0.349   6.560 -0.2266  0.6269  0.3742
 2012SOL    HW117495   1.793   0.376   6.640  3.5222  0.5655  2.5911
 2012SOL    HW217496   1.888   0.430   6.546 -0.7259  0.8984  0.2323
 2013SOL     OW17497   1.790   2.268   2.671 -0.0840 -0.6722  0.4197
 2013SOL    HW117498   1.707   2.229   2.698 -0.2793  0.7214  1.8128
 2013SOL    HW217499   1.796   2.222   2.587 -0.0463  1.7741 -0.9005
 2014SOL     OW17500   3.717   0.152   7.825  0.3873  1.0682  0.1730
 2014SOL    HW117501   3.628   0.186   7.833  0.7685  2.1866 -0.2811
 2014SOL    HW217502   3.760   0.236   7.841 -1.1725  2.0387 -0.7245
 2015SOL     OW17503   1.695   0.916   1.730  0.2296  0.5857 -0.1182
 2015SOL    HW117504   1.699   0.977   1.803  3.8307  3.4459 -2.7046
 2015SOL    HW217505   1.757   0.847   1.754 -0.3418 -0.0429 -0.4415
 2016SOL     OW17506   2.995   3.494  13.683  0.4022 -0.2590 -0.4947
 2016SOL    HW117507   2.963   3.416  13.638  1.6338 -1.7028  1.1521
 2016SOL    HW217508   3.089   3.475  13.687  0.3885 -0.0553  0.6934
 2017SOL     OW17509   1.202   4.283   2.109 -0.6445  0.4926  0.1973
 2017SOL    HW117510   1.227   4.270   2.018  1.0011  1.1431  0.5553
 2017SOL    HW217511   1.116   4.242   2.100 -0.0398 -1.0696  1.5037
 2018SOL     OW17512   1.785   3.903  14.854  0.7381  0.0998  0.1893
 2018SOL    HW117513   1.870   3.914  14.896  1.5078 -0.8473 -1.1327
 2018SOL    HW217514   1.748   3.988  14.880  2.6110  1.0315 -0.1866
 2019SOL     OW17515   3.409   2.160   8.683  0.2935 -0.1269  0.4657
 2019SOL    HW117516   3.317   2.183   8.669  0.4910  1.2877  1.4877
 2019SOL    HW217517   3.424   2.119   8.597  1.1104 -0.8999  0.9827
 2020SOL     OW17518   1.390   1.801   4.789  0.5331  0.1049  0.1826
 2020SOL    HW117519   1.451   1.819   4.718  1.0354 -0.1574  0.5478
 2020SOL    HW217520   1.438   1.784   4.870  1.6766  0.9240 -0.3245
 2021SOL     OW17521   2.268   4.365  11.351  0.0300 -0.2937 -0.4542
 2021SOL    HW117522   2.341   4.384  11.411 -0.3341  0.3267 -0.2122
 2021SOL    HW217523   2.271   4.272  11.328  0.4279  0.0664 -1.8610
 2022SOL     OW17524   0.758   3.317   0.373  0.2246  0.6534  0.4482
 2022SOL    HW117525   0.836   3.365   0.399  0.1602 -0.1587  2.1559
 2022SOL    HW217526   0.749   3.268   0.454  2.3036  0.2039  0.3946
 2023SOL     OW17527   3.738   1.411   6.512 -0.1661  0.2824 -0.0132
 2023SOL    HW117528   3.742   1.494   6.465 -2.9964  0.5879  0.3184
 2023SOL    HW217529   3.660   1.410   6.567 -0.2993  2.0818 -0.1534
 2024SOL     OW17530   2.431   2.102   9.014 -0.2241  0.5814 -0.1656
 2024SOL    HW117531   2.451   2.030   8.954 -0.7117  1.3239 -1.2220
 2024SOL    HW217532   2.341   2.098   9.046 -0.1163 -1.4872 -0.1438
 2025SOL     OW17533   2.558   1.941   5.599 -0.2271  0.3436 -0.7790
 2025SOL    HW117534   2.470   1.904   5.611 -0.3787 -0.0711 -3.2949
 2025SOL    HW217535   2.571   1.912   5.509 -0.2094  0.1202 -0.7038
 2026SOL     OW17536   1.416   1.158  17.277  0.7447 -0.1369 -0.3171
 2026SOL    HW117537   1.375   1.148  17.363  0.0083 -2.4605 -0.9432
 2026SOL    HW217538   1.493   1.212  17.296  0.8364 -1.0817  1.9568
 2027SOL     OW17539   0.356   3.613   4.592 -0.2116 -0.0600 -1.2165
 2027SOL    HW117540   0.308   3.672   4.534 -3.4322  1.1499  2.6392
 2027SOL    HW217541   0.342   3.639   4.683  2.2359 -1.6447 -0.3863
 2028SOL     OW17542   3.414   0.179   0.042  0.0316 -0.0031 -0.2643
 2028SOL    HW117543   3.493   0.208   0.088  0.4267 -0.5889 -0.5763
 2028SOL    HW217544   3.396   0.252  17.661 -1.1062 -1.7947 -2.1186
 2029SOL     OW17545   2.024   4.586   2.754  0.3856 -0.0687 -0.2539
 2029SOL    HW117546   2.026   4.507   2.806  2.6851  0.1376 -0.0207
 2029SOL    HW217547   2.007   4.657   2.816 -1.2227  0.7843 -1.6900
 2030SOL     OW17548   2.318   2.859   3.041 -0.1495 -0.1851  0.3124
 2030SOL    HW117549   2.237   2.901   3.013  0.8353  0.2686 -1.7846
 2030SOL    HW217550   2.291   2.845   3.132 -2.4308  2.4741  0.0048
 2031SOL     OW17551   0.796   0.943   5.889  0.4409  0.6280  0.6804
 2031SOL    HW117552   0.736   0.919   5.959  0.5554  1.1904  0.9723
 2031SOL    HW217553   0.869   0.969   5.946  1.1853  1.4911 -0.6494
 2032SOL     OW17554   0.412   1.737   3.701  0.1911 -0.2076  0.5571
 2032SOL    HW117555   0.440   1.756   3.791  2.4304 -1.0646  0.0316
 2032SOL    HW217556   0.486   1.691   3.661 -1.3536 -1.3288 -1.0341
 2033SOL     OW17557   0.195   1.796   6.514  0.0852  0.1907 -0.1966
 2033SOL    HW117558   0.221   1.856   6.443 -0.3578  1.1397  0.4373
 2033SOL    HW217559   0.114   1.754   6.486  0.2945 -1.5312  1.7971
 2034SOL     OW17560   4.450   3.771   8.860 -0.3732  0.3939  0.3171
 2034SOL    HW117561   4.371   3.724   8.885  0.7016 -0.8730  1.3653
 2034SOL    HW217562   4.422   3.861   8.876 -0.2373  0.4697  0.1243
 2035SOL     OW17563   3.264   3.966   1.482  0.4058  0.2980  0.1278
 2035SOL    HW117564   3.279   4.040   1.541  2.3825  0.5633 -0.6897
 2035SOL    HW217565   3.347   3.963   1.435 -0.7612  0.3281 -1.9119
 2036SOL     OW17566   2.189   2.395   6.310  0.1212 -0.1737 -0.1463
 2036SOL    HW117567   2.142   2.473   6.339  0.6161 -0.2736  0.9243
 2036SOL    HW217568   2.281   2.419   6.326  0.7259 -1.5165 -1.5556
 2037SOL     OW17569   2.365   0.074   7.081 -0.2254 -0.6341 -0.1220
 2037SOL    HW117570   2.359   0.043   7.172  1.5675 -1.2991 -0.2200
 2037SOL    HW217571   2.458   0.063   7.059  0.6703  3.1902  1.7197
 2038SOL     OW17572   3.166   1.826   5.530  0.2969  0.4477 -0.2092
 2038SOL    HW117573   3.170   1.788   5.442  0.0842  0.0678 -0.0562
 2038SOL    HW217574   3.241   1.884   5.518  0.7522  0.1538  1.2478
 2039SOL     OW17575   1.118   0.999   3.706 -0.1667  0.5713  0.1547
 2039SOL    HW117576   1.112   1.056   3.630 -1.4696 -0.1465 -0.2958
 2039SOL    HW217577   1.202   0.961   3.681 -0.9163 -1.6009  0.9462
 2040SOL     OW17578   1.793   0.582  15.935  0.4322 -0.1278 -0.8085
 2040SOL    HW117579   1.820   0.673  15.946 -2.8802  0.9034 -1.0246
 2040SOL    HW217580   1.739   0.593  15.856  1.3029  1.3653 -1.1801
 2041SOL     OW17581   3.614   1.283   4.202  0.0765 -0.1231  0.1541
 2041SOL    HW117582   3.572   1.321   4.279  0.6356 -0.0703  0.4327
 2041SOL    HW217583   3.706   1.266   4.221  0.5023  1.1208 -0.7765
 2042SOL     OW17584   0.934   4.337   4.208  0.2433  0.2652  0.1876
 2042SOL    HW117585   0.843   4.314   4.190  0.2185 -0.8076  1.6899
 2042SOL    HW217586   0.979   4.321   4.125  1.4280  0.1188  0.8655
 2043SOL     OW17587   3.273   4.167   3.119 -0.0551  0.0971  0.4342
 2043SOL    HW117588   3.355   4.126   3.090  0.0823  0.3819  0.4221
 2043SOL    HW217589   3.215   4.109   3.070 -0.8907  2.0864 -0.8934
 2044SOL     OW17590   1.023   4.161   8.176  0.1214 -0.1871 -0.2212
 2044SOL    HW117591   0.929   4.179   8.183  0.2806 -0.1782  1.7296
 2044SOL    HW217592   1.049   4.139   8.265  0.1922  0.7709 -0.0079
 2045SOL     OW17593   3.087   0.158  14.616  0.5724  0.0312  0.4631
 2045SOL    HW117594   3.025   0.217  14.658  2.3357  1.4056  1.1429
 2045SOL    HW217595   3.025   0.087  14.602  1.4308 -0.5317 -0.4902
 2046SOL     OW17596   1.615   4.558   8.462 -0.4411  0.3642 -0.0298
 2046SOL    HW117597   1.702   4.581   8.430 -0.7593 -0.6375 -1.6305
 2046SOL    HW217598   1.571   4.641   8.446  0.1225  0.7004  0.1743
 2047SOL     OW17599   0.815   1.980  10.629  0.2132  0.4174 -0.1438
 2047SOL    HW117600   0.798   2.034  10.552 -0.7171 -1.0036 -0.9498
 2047SOL    HW217601   0.796   2.036  10.704 -0.2202 -0.6725  0.5743
 2048SOL     OW17602   0.236   0.798  15.643  0.5343 -0.5777  0.0809
 2048SOL    HW117603   0.177   0.727  15.669 -0.9561  1.5107  2.4533
 2048SOL    HW217604   0.282   0.765  15.565  1.2422  0.7903 -0.0766
 2049SOL     OW17605   0.072   0.089   3.179 -0.2826 -0.3278  0.5457
 2049SOL    HW117606   0.131   0.018   3.153  1.0328  0.7572  0.5859
 2049SOL    HW217607   0.107   0.161   3.127 -1.4114 -0.6083 -0.5847
 2050SOL     OW17608   3.354   3.585   5.968  0.4778 -0.3833 -0.1297
 2050SOL    HW117609   3.279   3.564   5.912  0.3069  0.6914 -0.2947
 2050SOL    HW217610   3.375   3.672   5.936  1.5334 -1.6877 -2.9342
 2051SOL     OW17611   3.357   0.288   2.493 -0.5549 -0.0973 -0.1715
 2051SOL    HW117612   3.328   0.227   2.426  2.5072 -1.8766  0.1285
 2051SOL    HW217613   3.353   0.375   2.453  1.6343 -0.6850 -1.6612
 2052SOL     OW17614   0.674   4.251   4.614  0.0232 -0.1180 -0.1637
 2052SOL    HW117615   0.708   4.239   4.703 -1.4042 -3.4815 -0.1074
 2052SOL    HW217616   0.581   4.247   4.635  0.3462 -2.2617  0.7870
 2053SOL     OW17617   1.274   4.229   1.837  0.0880 -0.6642 -0.3756
 2053SOL    HW117618   1.195   4.184   1.807 -1.7323  2.0831  0.3080
 2053SOL    HW217619   1.308   4.237   1.748 -2.0982  0.5735 -1.0967
 2054SOL     OW17620   1.546   2.167   2.703  0.3911  0.7714 -0.6503
 2054SOL    HW117621   1.457   2.195   2.726  0.0298 -0.7993 -0.1553
 2054SOL    HW217622   1.534   2.085   2.657 -0.5501 -1.8427  4.2052
 2055SOL     OW17623   0.799   2.698   5.672  0.1027  1.0640 -0.0334
 2055SOL    HW117624   0.857   2.742   5.734 -1.1987  1.7571  0.6908
 2055SOL    HW217625   0.843   2.613   5.671 -0.5943  0.7086 -0.1066
 2056SOL     OW17626   4.464   1.089   3.950 -0.2910  0.8384  0.1257
 2056SOL    HW117627   4.554   1.096   3.917 -0.7656  0.9049 -1.1366
 2056SOL    HW217628   4.475   1.151   4.023  1.0213 -0.0161  0.6604
 2057SOL     OW17629   2.799   3.970   9.423 -0.1571  0.5662 -0.0043
 2057SOL    HW117630   2.848   3.920   9.489 -0.0665 -0.5220 -0.8993
 2057SOL    HW217631   2.777   4.048   9.474 -0.5016 -2.8106  5.0110
 2058SOL     OW17632   1.947   4.167   0.103 -0.0414 -0.1000 -0.2759
 2058SOL    HW117633   1.940   4.219   0.183 -1.4709  0.6694 -0.9074
 2058SOL    HW217634   1.858   4.157   0.069  0.3826  1.7864 -1.9570
 2059SOL     OW17635   2.972   1.764  13.001 -0.2523  0.2917  0.2007
 2059SOL    HW117636   2.941   1.841  13.049  0.8780  0.1892  1.1131
 2059SOL    HW217637   3.061   1.795  12.982 -0.2820  0.8656  0.9792
 2060SOL     OW17638   1.498   1.258  13.657  0.0632 -0.3002  0.1009
 2060SOL    HW117639   1.447   1.251  13.738  1.9655 -1.8498  1.1576
 2060SOL    HW217640   1.583   1.280  13.694 -0.1442 -0.3747  0.6285
 2061SOL     OW17641   2.446   3.750   0.133 -0.4707  0.0022  0.2515
 2061SOL    HW117642   2.529   3.703   0.122  0.0567  0.6957  1.2527
 2061SOL    HW217643   2.421   3.700   0.210 -0.5410 -0.2382  0.0750
 2062SOL     OW17644   1.232   0.869   3.297  0.4403 -0.0008  0.1640
 2062SOL    HW117645   1.221   0.787   3.249 -1.4380  0.5109 -0.2723
 2062SOL    HW217646   1.301   0.903   3.240  0.4184 -0.2896 -0.0329
 2063SOL     OW17647   0.526   3.645   4.861 -0.3807 -0.1276 -0.3710
 2063SOL    HW117648   0.441   3.602   4.856  0.3226 -1.5566  0.1034
 2063SOL    HW217649   0.587   3.572   4.850 -0.9621  0.1218 -4.9574
 2064SOL     OW17650   0.800   2.628   3.209 -0.0774  0.4003 -0.2313
 2064SOL    HW117651   0.811   2.655   3.300  1.7371 -1.5058  0.1067
 2064SOL    HW217652   0.730   2.563   3.217 -1.7085  2.0445 -1.1211
 2065SOL     OW17653   4.251   1.911  16.352 -0.2929 -0.2337 -1.2554
 2065SOL    HW117654   4.276   1.839  16.295  0.5553 -1.0951  0.1866
 2065SOL    HW217655   4.279   1.985  16.298  0.1455 -0.1820 -0.9547
 2066SOL     OW17656   4.417   4.413   8.721  0.4035  0.7323  0.1609
 2066SOL    HW117657   4.421   4.508   8.714 -2.9296  1.0156  1.9608
 2066SOL    HW217658   4.367   4.394   8.642  0.6446 -0.8436  0.3791
 2067SOL     OW17659   0.066   3.492  13.415  0.4093  0.1641 -0.0543
 2067SOL    HW117660   0.086   3.443  13.495  0.6039 -0.9490 -0.7996
 2067SOL    HW217661   4.690   3.479  13.409  0.2573  0.9764  0.4923
 2068SOL     OW17662   0.670   1.522   0.935 -0.7984  0.2122 -0.0963
 2068SOL    HW117663   0.665   1.613   0.966  0.4112 -0.3794  1.7566
 2068SOL    HW217664   0.730   1.475   0.991 -1.3398  1.8354  1.8592
 2069SOL     OW17665   1.293   4.649   5.486  0.0238  0.5107  0.2342
 2069SOL    HW117666   1.345   4.568   5.483 -0.8197 -0.0125 -0.1291
 2069SOL    HW217667   1.215   4.629   5.536  0.2900  2.4492  1.3914
 2070SOL     OW17668   3.502   3.377   0.660  0.5614 -0.3637 -0.3706
 2070SOL    HW117669   3.473   3.393   0.570 -1.6196  0.3656  0.4679
 2070SOL    HW217670   3.475   3.287   0.682  3.9292 -1.4673 -0.8343
 2071SOL     OW17671   3.684   3.157   3.512 -0.5674 -0.5909 -0.3291
 2071SOL    HW117672   3.613   3.176   3.573 -0.7337 -0.1309 -0.6619
 2071SOL    HW217673   3.643   3.175   3.428  1.8180  1.1478 -1.1428
 2072SOL     OW17674   0.085   0.871   0.650  0.6021 -0.3553 -0.1222
 2072SOL    HW117675   0.019   0.804   0.668  2.4408 -2.0439  0.3008
 2072SOL    HW217676   0.157   0.826   0.693  0.7155 -1.2713 -1.2869
 2073SOL     OW17677   1.639   2.600   9.130  0.0850 -0.0618  0.2810
 2073SOL    HW117678   1.581   2.531   9.097  0.4511 -0.6430  0.8545
 2073SOL    HW217679   1.654   2.567   9.219  2.5148  0.1952 -0.0473
 2074SOL     OW17680   0.096   4.121  13.098  0.2862 -0.0522 -0.1837
 2074SOL    HW117681   0.061   4.054  13.157  2.3857  0.0423  1.1638
 2074SOL    HW217682   0.088   4.071  13.016  1.6458  1.7111 -1.3844
 2075SOL     OW17683   0.076   2.996   3.762 -0.2545 -0.1241  1.0253
 2075SOL    HW117684   0.064   2.979   3.855 -3.1529  1.4746  0.9235
 2075SOL    HW217685   0.011   2.942   3.718  0.0171  0.0828  0.3678
 2076SOL     OW17686   2.512   3.142   0.322  0.1109  0.6766  0.6849
 2076SOL    HW117687   2.447   3.081   0.358  1.5100 -1.1103  0.1613
 2076SOL    HW217688   2.488   3.160   0.231 -0.5711 -1.4609  0.4212
 2077SOL     OW17689   1.081   1.579   5.310 -0.0286  0.0308  0.5300
 2077SOL    HW117690   1.052   1.666   5.336 -0.4371 -0.4030  1.5619
 2077SOL    HW217691   1.166   1.583   5.355  1.3392  0.2780 -2.0718
 2078SOL     OW17692   1.138   0.245  17.601 -0.0346  0.3792  0.4084
 2078SOL    HW117693   1.201   0.246  17.529  1.6619 -0.7155  1.9042
 2078SOL    HW217694   1.195   0.278  17.670  0.8437  1.3783 -0.7939
 2079SOL     OW17695   1.477   4.237  12.700  0.7365 -0.5166 -0.3668
 2079SOL    HW117696   1.503   4.247  12.609  0.8001  4.1006  0.1554
 2079SOL    HW217697   1.390   4.198  12.695  0.5650 -0.3267  0.9310
 2080SOL     OW17698   2.905   0.173   4.829 -0.3817 -0.8014  0.1393
 2080SOL    HW117699   2.898   0.148   4.921 -2.3539  0.1519  0.2472
 2080SOL    HW217700   2.999   0.189   4.823 -0.3077 -0.5653  1.8495
 2081SOL     OW17701   3.654   4.613   3.412 -0.7621 -0.3649 -0.9070
 2081SOL    HW117702   3.720   4.664   3.459 -2.1512  1.0102 -0.4559
 2081SOL    HW217703   3.623   4.558   3.484 -1.4147 -0.4205 -1.2241
 2082SOL     OW17704   2.343   1.263   6.752  0.1216 -0.0328  0.1225
 2082SOL    HW117705   2.249   1.250   6.744 -0.3968  2.6213  1.7629
 2082SOL    HW217706   2.350   1.315   6.672  2.6529  0.2497  0.5403
 2083SOL     OW17707   0.506   1.785   6.571 -0.4305  0.6359 -0.3084
 2083SOL    HW117708   0.572   1.810   6.507  0.4840 -1.0387 -0.0318
 2083SOL    HW217709   0.431   1.786   6.512  1.9625  2.1082 -3.3033
 2084SOL     OW17710   1.303   1.364  15.870  0.2241 -0.2060  0.1731
 2084SOL    HW117711   1.218   1.401  15.849  0.8338  2.1455  1.8935
 2084SOL    HW217712   1.310   1.414  15.952  2.1887  1.0302 -0.7554
 2085SOL     OW17713   0.423   3.344  17.255 -0.2519  0.3640  0.3108
 2085SOL    HW117714   0.366   3.278  17.215 -0.8031  1.4482 -0.7292
 2085SOL    HW217715   0.365   3.369  17.326 -0.7109  1.0244 -0.2930
 2086SOL     OW17716   3.983   0.229   3.017  0.0566 -0.2571  0.6958
 2086SOL    HW117717   4.012   0.185   2.937 -0.8328 -0.8158  0.6893
 2086SOL    HW217718   4.042   0.305   3.018  0.4110 -0.4341 -4.6043
 2087SOL     OW17719   2.955   1.942   2.607 -0.4365  0.6027  0.6957
 2087SOL    HW117720   2.909   2.024   2.587 -1.0207  0.0087 -0.3703
 2087SOL    HW217721   2.882   1.881   2.615  1.2340 -1.3630  1.1140
 2088SOL     OW17722   4.486   0.588   4.865  0.1415 -0.0978 -0.6542
 2088SOL    HW117723   4.504   0.494   4.856  1.2137 -0.1618  2.1860
 2088SOL    HW217724   4.574   0.612   4.894 -0.0091  0.4426 -0.6558
 2089SOL     OW17725   2.380   0.960   9.545  0.5877  0.5298  0.2606
 2089SOL    HW117726   2.332   0.935   9.466  2.0216 -0.7195 -0.2322
 2089SOL    HW217727   2.447   0.891   9.541 -0.9269 -0.9025 -0.5050
 2090SOL     OW17728   2.303   3.526   8.941 -0.0024 -0.4439 -0.1529
 2090SOL    HW117729   2.380   3.470   8.949  1.2544  1.3834  0.5838
 2090SOL    HW217730   2.247   3.485   9.007 -2.7534  0.9686 -1.6396
 2091SOL     OW17731   1.312   0.222   6.514  0.2969  0.5366  0.1669
 2091SOL    HW117732   1.303   0.315   6.533 -1.2086  0.6131 -0.9405
 2091SOL    HW217733   1.333   0.213   6.421 -0.7857 -1.9048  0.1447
 2092SOL     OW17734   0.835   1.156   4.115 -0.0611  0.3882  0.2738
 2092SOL    HW117735   0.882   1.203   4.184  0.8110 -2.7120  1.8050
 2092SOL    HW217736   0.908   1.112   4.072 -0.0516  1.3125 -0.6763
 2093SOL     OW17737   0.035   1.981   4.910 -0.3807  0.4516 -0.0148
 2093SOL    HW117738   0.015   1.897   4.869  0.0081  0.8123 -0.9479
 2093SOL    HW217739   0.126   1.996   4.882 -1.0139  1.8568 -1.3403
 2094SOL     OW17740   1.114   2.826  16.874  0.1486  0.0624 -0.0542
 2094SOL    HW117741   1.113   2.920  16.859  2.5197  0.1113  0.1892
 2094SOL    HW217742   1.044   2.818  16.940 -0.5571 -0.5908 -0.8825
 2095SOL     OW17743   0.124   2.676   3.990 -0.1678 -0.1645 -0.3635
 2095SOL    HW117744   0.118   2.770   4.010 -0.3912 -0.0599 -0.9342
 2095SOL    HW217745   0.190   2.659   3.923  0.1141 -0.2305 -0.0689
 2096SOL     OW17746   3.488   2.766   9.459  0.9690  0.1748 -1.1207
 2096SOL    HW117747   3.488   2.672   9.442  0.1005 -0.6011  3.2090
 2096SOL    HW217748   3.394   2.780   9.460  1.2841  2.1383  0.3493
 2097SOL     OW17749   4.716   2.514   6.539 -0.0154  0.6918  0.5027
 2097SOL    HW117750   4.708   2.451   6.610 -0.4042 -1.0425 -1.0727
 2097SOL    HW217751   0.025   2.448   6.475  1.6495  0.5572  1.3723
 2098SOL     OW17752   1.233   0.080   1.993 -0.2956 -0.0605  0.5787
 2098SOL    HW117753   1.292   0.153   2.014  1.0727 -1.1346  0.5071
 2098SOL    HW217754   1.304   0.019   1.976 -1.5154 -1.7959  1.7165
 2099SOL     OW17755   3.908   1.070  11.397 -0.0857 -0.4238  0.1824
 2099SOL    HW117756   3.927   1.153  11.440 -2.4003  0.8123 -1.1998
 2099SOL    HW217757   3.993   1.025  11.391  0.7069  1.1668 -0.6223
 2100SOL     OW17758   3.550   2.981   1.584  0.2920  0.1209  0.0139
 2100SOL    HW117759   3.566   2.888   1.565  2.8712  0.3296  1.1541
 2100SOL    HW217760   3.566   2.989   1.678 -3.4685  0.6583  0.5866
 2101SOL     OW17761   4.087   2.965  15.119  0.3550  0.5257  0.5921
 2101SOL    HW117762   4.101   2.874  15.147 -1.5106 -0.2781 -1.1030
 2101SOL    HW217763   4.140   2.970  15.040  0.4647 -1.8702  0.5039
 2102SOL     OW17764   2.573   3.389   3.926 -0.4122  0.3674 -0.0129
 2102SOL    HW117765   2.620   3.362   3.847 -2.4031  0.3538 -1.1853
 2102SOL    HW217766   2.498   3.331   3.930 -0.1167  0.1673  2.8066
 2103SOL     OW17767   2.965   3.447   4.254 -0.4406  0.0987  0.5050
 2103SOL    HW117768   2.873   3.446   4.228  0.0758 -2.5510 -1.1873
 2103SOL    HW217769   3.005   3.383   4.194 -0.5834  0.9949 -0.5572
 2104SOL     OW17770   3.815   1.645   6.388 -0.4154  0.3401  0.0558
 2104SOL    HW117771   3.721   1.659   6.402  0.1325  3.1164  1.1115
 2104SOL    HW217772   3.856   1.725   6.421 -1.0036  0.1199  1.3154
 2105SOL     OW17773   2.889   2.792   7.495 -0.1893  0.2473 -0.6487
 2105SOL    HW117774   2.942   2.718   7.466  1.6072  1.1192  0.3668
 2105SOL    HW217775   2.937   2.811   7.576  2.0459 -0.6416 -1.7526
 2106SOL     OW17776   0.622   3.189   8.498 -0.7365  0.3428  0.5865
 2106SOL    HW117777   0.565   3.174   8.573 -1.8474  0.5048 -0.2387
 2106SOL    HW217778   0.638   3.283   8.497 -1.3952  0.4452 -0.1917
 2107SOL     OW17779   2.970   0.842   8.059  0.4041  0.0619 -0.0484
 2107SOL    HW117780   2.939   0.912   8.002  0.1418 -1.5578 -1.9255
 2107SOL    HW217781   3.054   0.866   8.097  0.6064  0.8707 -1.0208
 2108SOL     OW17782   2.342   1.667   2.048 -0.0971 -0.5408  0.4407
 2108SOL    HW117783   2.275   1.709   2.102  1.0470 -0.0183  1.4738
 2108SOL    HW217784   2.310   1.578   2.035 -1.5856  0.2291 -1.1302
 2109SOL     OW17785   3.652   0.582   3.983  0.1125  0.7063  0.1336
 2109SOL    HW117786   3.694   0.565   3.899 -0.0671  0.3386  0.1150
 2109SOL    HW217787   3.670   0.675   3.991 -0.8747  1.1087 -2.3094
 2110SOL     OW17788   1.297   4.577   0.750 -0.2196 -0.4947  0.2089
 2110SOL    HW117789   1.374   4.628   0.727 -0.1992 -0.1145  1.1157
 2110SOL    HW217790   1.234   4.640   0.715  0.9763  0.6130  0.0619
 2111SOL     OW17791   1.205   0.323   7.282  0.2152 -0.1446 -0.1741
 2111SOL    HW117792   1.136   0.308   7.218 -1.8061 -1.0720  2.2257
 2111SOL    HW217793   1.192   0.246   7.338 -0.5781 -1.6044 -2.3710
 2112SOL     OW17794   0.542   3.423   4.522 -0.0495  0.6939 -0.0495
 2112SOL    HW117795   0.467   3.479   4.540  0.4389  2.0534 -2.1490
 2112SOL    HW217796   0.554   3.377   4.605 -0.4704  0.1264 -0.3049
 2113SOL     OW17797   2.577   0.414   7.072 -0.7744  0.2939  0.0635
 2113SOL    HW117798   2.617   0.443   7.155 -0.1793  1.1710 -0.5197
 2113SOL    HW217799   2.644   0.437   7.007 -0.3057  1.1471  0.8417
 2114SOL     OW17800   4.367   2.714  14.926  0.0166 -0.0491  0.1918
 2114SOL    HW117801   4.294   2.776  14.917  1.8036  2.1270  0.9480
 2114SOL    HW217802   4.413   2.715  14.842  0.4760 -1.9818  0.4097
 2115SOL     OW17803   3.067   1.844   3.492  0.2862  0.0520  0.0061
 2115SOL    HW117804   3.153   1.881   3.472  0.4541 -0.6999 -0.6801
 2115SOL    HW217805   3.029   1.848   3.404 -2.3690  0.0661  1.1465
 2116SOL     OW17806   2.243   4.423   9.527 -0.2951 -0.0061  0.1602
 2116SOL    HW117807   2.231   4.510   9.490 -0.5626 -0.1544 -0.1016
 2116SOL    HW217808   2.336   4.408   9.507  0.3097  1.6318  1.6770
 2117SOL     OW17809   0.272   0.786   4.093 -0.3381  0.5005 -0.9302
 2117SOL    HW117810   0.212   0.782   4.168 -2.6010 -0.5641 -2.8097
 2117SOL    HW217811   0.335   0.716   4.111  0.3872  0.7048 -2.6302
 2118SOL     OW17812   4.574   1.689   3.319 -0.1555 -0.1362  0.5166
 2118SOL    HW117813   4.609   1.700   3.407  1.9168 -1.1295 -0.1655
 2118SOL    HW217814   4.647   1.689   3.257 -2.7189 -0.6383 -2.5212
 2119SOL     OW17815   2.048   1.283   3.315  0.0678  0.3683  0.2385
 2119SOL    HW117816   1.992   1.296   3.238  2.1107  1.1232 -1.1255
 2119SOL    HW217817   2.078   1.193   3.300 -0.1474  0.4828 -0.8978
 2120SOL     OW17818   3.896   0.272   8.698 -0.9467 -0.5282  0.6683
 2120SOL    HW117819   3.849   0.277   8.614  1.0305 -2.6926 -0.5567
 2120SOL    HW217820   3.981   0.306   8.672 -1.9703  1.2607 -0.3614
 2121SOL     OW17821   3.367   4.523   0.627  1.0761  0.5707 -0.2725
 2121SOL    HW117822   3.461   4.541   0.625  1.2133  0.2330  2.9569
 2121SOL    HW217823   3.332   4.577   0.556 -1.2500 -0.4785  0.0805
 2122SOL     OW17824   3.798   2.001  15.116  0.1826 -0.4568 -0.0966
 2122SOL    HW117825   3.776   1.909  15.099 -0.6797 -0.2765  0.0451
 2122SOL    HW217826   3.825   1.987  15.207 -2.8775 -1.0539  0.7397
 2123SOL     OW17827   3.950   3.061   2.320 -0.2755  0.2414 -0.6481
 2123SOL    HW117828   3.982   3.151   2.333 -0.4937 -0.0845  2.2658
 2123SOL    HW217829   4.005   3.017   2.256  0.8798 -0.5156  0.8599
 2124SOL     OW17830   1.736   0.926  16.303  0.3394  0.4256 -0.0788
 2124SOL    HW117831   1.749   1.019  16.322 -0.6884  0.8475 -1.3502
 2124SOL    HW217832   1.698   0.912  16.216  1.6364  0.9350 -0.7316
 2125SOL     OW17833   0.870   4.352   2.491  0.5704 -0.6580 -0.2544
 2125SOL    HW117834   0.951   4.329   2.537  2.5746 -0.1529 -3.5253
 2125SOL    HW217835   0.818   4.391   2.561  0.1316 -0.1139 -0.8916
 2126SOL     OW17836   2.789   0.335   6.855 -0.3941  0.1648  0.0623
 2126SOL    HW117837   2.733   0.272   6.809 -0.4529  2.0591 -2.4742
 2126SOL    HW217838   2.853   0.282   6.901 -0.8156  0.3009  0.8052
 2127SOL     OW17839   4.639   4.427   9.359  0.7716  0.3513 -0.1988
 2127SOL    HW117840   4.689   4.358   9.317 -0.1550 -0.0420 -0.6486
 2127SOL    HW217841   4.579   4.380   9.417 -1.2857  0.9512 -1.8357
 2128SOL     OW17842   2.440   0.143   8.478  0.0809  0.2860 -0.7479
 2128SOL    HW117843   2.348   0.133   8.503  0.2552  0.0764 -0.1799
 2128SOL    HW217844   2.432   0.152   8.383 -1.3391 -0.5211 -0.7071
 2129SOL     OW17845   4.107   0.998   3.144  0.2942  0.0400 -0.4524
 2129SOL    HW117846   4.195   0.990   3.182  0.7829  2.1179 -1.1940
 2129SOL    HW217847   4.068   1.069   3.195  1.0907 -0.8544  1.4474
 2130SOL     OW17848   4.311   4.684   8.563 -0.0515  0.3194  0.0767
 2130SOL    HW117849   4.380   0.026   8.537 -1.7901  1.0311 -2.9342
 2130SOL    HW217850   4.291   4.626   8.489  2.6005  0.3107 -0.6194
 2131SOL     OW17851   2.712   0.781   9.401 -0.7528 -0.0008  0.5723
 2131SOL    HW117852   2.750   0.863   9.430  0.2191  0.4695 -1.9488
 2131SOL    HW217853   2.632   0.767   9.451  1.0706 -0.3899  3.3688
 2132SOL     OW17854   0.889   1.629   5.678  0.8078 -0.1070 -0.1566
 2132SOL    HW117855   0.971   1.581   5.687  0.0935 -1.2943 -0.0090
 2132SOL    HW217856   0.916   1.689   5.608  0.2930  1.5601  1.0617
 2133SOL     OW17857   1.986   3.272  16.826  0.3050 -0.0986  0.0265
 2133SOL    HW117858   2.006   3.179  16.840 -0.8496 -0.0063  2.2768
 2133SOL    HW217859   1.909   3.275  16.769  0.2817 -0.9821  0.0182
 2134SOL     OW17860   4.293   1.906  12.687 -0.3763 -1.3848 -0.2305
 2134SOL    HW117861   4.336   1.906  12.602 -1.2940 -1.5669 -0.6993
 2134SOL    HW217862   4.344   1.976  12.729  0.1047 -0.4614 -2.3418
 2135SOL     OW17863   1.511   1.246   7.189 -0.4247 -0.3442 -0.0736
 2135SOL    HW117864   1.583   1.243   7.126 -0.3508 -1.6939  0.0569
 2135SOL    HW217865   1.552   1.300   7.256 -1.7187 -0.3718  0.7318
 2136SOL     OW17866   1.492   4.636   3.137  0.5137 -0.0544  0.0384
 2136SOL    HW117867   1.401   4.606   3.146  0.9348 -1.1826  0.5323
 2136SOL    HW217868   1.539   4.588   3.205  0.9882 -1.3695 -1.1933
 2137SOL     OW17869   0.419   0.704   1.775 -0.1834  0.0834  0.0334
 2137SOL    HW117870   0.511   0.728   1.786 -0.0896 -0.7636  1.0874
 2137SOL    HW217871   0.420   0.623   1.724 -0.0856 -0.4072  0.8287
 2138SOL     OW17872   2.316   1.648   3.222 -0.4502  0.1201  0.1814
 2138SOL    HW117873   2.288   1.585   3.288 -2.2851 -1.0637 -1.7178
 2138SOL    HW217874   2.247   1.649   3.155  0.3969  1.6337 -0.6788
 2139SOL     OW17875   0.936   4.383   1.907  0.4813  0.7907  0.5674
 2139SOL    HW117876   0.852   4.430   1.907  1.0116  1.7803  2.6796
 2139SOL    HW217877   0.928   4.339   1.823  1.4552  0.8648  0.4435
 2140SOL     OW17878   3.427   1.316   9.889  0.3560 -0.0497  0.8875
 2140SOL    HW117879   3.477   1.397   9.902  0.4529  0.6054 -3.5830
 2140SOL    HW217880   3.435   1.286   9.980 -0.2143 -0.9078  0.6451
 2141SOL     OW17881   4.619   0.043   5.125  0.2523 -0.2714 -0.6778
 2141SOL    HW117882   4.523   0.046   5.121  0.1870  0.0599  1.1849
 2141SOL    HW217883   4.630   0.128   5.168  1.0837 -0.6252 -0.1982
 2142SOL     OW17884   2.835   0.284  11.275 -0.2408 -0.4300  0.9036
 2142SOL    HW117885   2.929   0.303  11.281  0.2227 -2.9425  1.1862
 2142SOL    HW217886   2.853   0.222  11.205  2.2940  2.0684 -0.6803
 2143SOL     OW17887   0.021   2.278   7.932  0.1339 -0.3769 -0.8874
 2143SOL    HW117888   0.071   2.236   8.002  1.9714  1.4788 -1.0841
 2143SOL    HW217889   0.076   2.347   7.896 -1.0806  1.9312  1.6102
 2144SOL     OW17890   0.432   4.069   8.564 -0.3478 -0.4795  0.1352
 2144SOL    HW117891   0.354   4.106   8.606 -0.7461 -1.5916  0.3745
 2144SOL    HW217892   0.458   4.009   8.634  0.5142 -0.6195 -0.3020
 2145SOL     OW17893   2.683   4.271   6.144  0.3285 -0.1686  0.8531
 2145SOL    HW117894   2.733   4.320   6.209 -2.1851  2.9601  0.4602
 2145SOL    HW217895   2.711   4.309   6.061  3.9772 -0.8057  1.8163
 2146SOL     OW17896   1.921   1.117   6.128 -0.3563 -0.0523  0.4799
 2146SOL    HW117897   2.016   1.127   6.121 -0.5425  2.3727  1.3342
 2146SOL    HW217898   1.887   1.199   6.164  1.9074  0.9762  0.3241
 2147SOL     OW17899   3.838   2.788   5.565  0.9206 -0.2588 -0.2054
 2147SOL    HW117900   3.812   2.872   5.528  0.0379  0.6665  2.4923
 2147SOL    HW217901   3.873   2.735   5.493 -2.4068 -0.2543 -1.8374
 2148SOL     OW17902   2.696   4.331   8.456  0.3504  0.4813 -0.1432
 2148SOL    HW117903   2.665   4.241   8.445  2.2496 -0.2569  0.6890
 2148SOL    HW217904   2.623   4.392   8.448 -0.9278 -1.2366 -1.6037
 2149SOL     OW17905   2.304   2.804  10.418 -0.0988  0.2666 -0.1520
 2149SOL    HW117906   2.369   2.867  10.386  1.5033 -0.3532  1.8390
 2149SOL    HW217907   2.226   2.826  10.367 -0.3398  0.8952  0.5041
 2150SOL     OW17908   1.374   3.092   7.923 -0.1778 -0.4368  0.1192
 2150SOL    HW117909   1.418   3.034   7.861  0.1086 -0.7658  0.6278
 2150SOL    HW217910   1.349   3.030   7.992 -0.2476 -1.6356 -0.9799
 2151SOL     OW17911   0.991   1.743   6.280  0.1127  0.0664 -0.2930
 2151SOL    HW117912   1.002   1.807   6.211 -1.5263  0.9593  0.2661
 2151SOL    HW217913   0.988   1.657   6.237 -0.4380  0.1631 -0.4519
 2152SOL     OW17914   3.427   3.662  17.607  0.3172 -0.1805 -0.1327
 2152SOL    HW117915   3.456   3.571  17.601  2.9004  0.6652 -0.7906
 2152SOL    HW217916   3.508   3.706  17.636  1.4776 -1.7103 -1.0859
 2153SOL     OW17917   1.396   2.087   3.389  0.3051  0.0296 -0.4253
 2153SOL    HW117918   1.402   2.066   3.295 -0.1342 -0.9182 -0.2420
 2153SOL    HW217919   1.468   2.037   3.426  1.3272  1.0672 -1.0023
 2154SOL     OW17920   3.947   0.770   2.642 -0.0112  0.6672 -0.5612
 2154SOL    HW117921   4.037   0.760   2.611 -0.1675 -0.3884 -0.6644
 2154SOL    HW217922   3.894   0.722   2.578  1.2907 -1.4709 -0.0332
 2155SOL     OW17923   2.257   0.692   5.552 -0.2106  0.7435  0.8218
 2155SOL    HW117924   2.272   0.744   5.473 -1.7082 -0.8345 -0.4868
 2155SOL    HW217925   2.167   0.667   5.534 -0.1814  0.8131  0.5762
 2156SOL     OW17926   2.753   3.014   5.321 -0.0764 -0.5927 -0.1239
 2156SOL    HW117927   2.770   3.041   5.231 -0.0147 -0.6277 -0.1226
 2156SOL    HW217928   2.748   3.102   5.360  1.2005 -1.1823  1.4053
 2157SOL     OW17929   0.331   0.140   2.188 -0.6368 -0.1889 -0.4016
 2157SOL    HW117930   0.338   0.149   2.093  3.0553 -2.8251 -0.3741
 2157SOL    HW217931   0.419   0.167   2.213 -1.1812  1.2718 -0.0355
 2158SOL     OW17932   3.797   1.791   5.543  0.0603 -0.1703 -0.6512
 2158SOL    HW117933   3.847   1.805   5.623 -1.2030 -3.1781  0.6579
 2158SOL    HW217934   3.705   1.786   5.570  0.0898  0.0117 -0.5185
 2159SOL     OW17935   3.355   1.164   8.895  0.6596  0.7563  0.4145
 2159SOL    HW117936   3.324   1.079   8.863 -1.9088  2.5313 -1.7807
 2159SOL    HW217937   3.413   1.135   8.966 -0.1971 -0.8999  0.4367
 2160SOL     OW17938   1.322   0.412  15.352  0.2424  0.5073 -0.2490
 2160SOL    HW117939   1.263   0.416  15.277 -0.9100 -1.1289  0.5560
 2160SOL    HW217940   1.399   0.375  15.309 -0.9191 -1.0966 -0.9422
 2161SOL     OW17941   0.870   3.335  12.838  0.7711  0.7525  0.1145
 2161SOL    HW117942   0.945   3.279  12.858 -0.6330 -1.4237 -0.7743
 2161SOL    HW217943   0.847   3.371  12.924  2.8755  2.9201 -0.2087
 2162SOL     OW17944   4.636   3.450   3.038 -0.6127  0.1156  0.1957
 2162SOL    HW117945   4.605   3.533   3.002 -1.6911 -2.0179 -3.7729
 2162SOL    HW217946   4.565   3.422   3.095 -0.8806  1.0450  0.3182
 2163SOL     OW17947   1.123   0.199   2.895 -0.3567 -0.5049  0.6004
 2163SOL    HW117948   1.046   0.179   2.948 -1.1458  2.0978  0.4109
 2163SOL    HW217949   1.182   0.231   2.962  0.3262  1.7206 -1.0393
 2164SOL     OW17950   4.283   1.385  17.369  0.2070  0.4012 -0.5125
 2164SOL    HW117951   4.318   1.360  17.283  1.3074  0.2984 -0.0442
 2164SOL    HW217952   4.298   1.302  17.415 -1.7229  0.1080 -0.4361
 2165SOL     OW17953   1.487   3.715   8.125  0.9298 -0.6139  0.1188
 2165SOL    HW117954   1.510   3.791   8.180 -1.8881 -0.2762  0.8463
 2165SOL    HW217955   1.491   3.634   8.176  0.8619 -0.4704  0.3535
 2166SOL     OW17956   0.403   3.041   8.378 -0.3978  0.7790 -0.2695
 2166SOL    HW117957   0.491   3.078   8.369  0.2421 -0.6068  0.2988
 2166SOL    HW217958   0.375   3.065   8.290  0.4885  0.8225 -0.5374
 2167SOL     OW17959   2.712   4.009   6.237 -0.1488 -0.1318  0.0285
 2167SOL    HW117960   2.705   4.052   6.322 -1.9201  1.2891 -0.8329
 2167SOL    HW217961   2.700   4.090   6.187 -1.6271 -0.7975 -0.6650
 2168SOL     OW17962   3.183   2.802  11.504  0.5921 -0.3967 -0.0918
 2168SOL    HW117963   3.133   2.813  11.585  1.6327  3.3841 -0.0003
 2168SOL    HW217964   3.246   2.873  11.496 -0.6882  0.6921 -0.4046
 2169SOL     OW17965   1.687   3.802   5.876  0.1042 -0.5868 -0.4056
 2169SOL    HW117966   1.678   3.709   5.855 -1.5518 -0.8146  1.3486
 2169SOL    HW217967   1.756   3.790   5.940 -1.4954 -1.3898  1.1705
 2170SOL     OW17968   2.823   1.290  15.754 -0.0050 -0.5970  0.2443
 2170SOL    HW117969   2.802   1.381  15.774 -0.3346 -0.9734  1.6172
 2170SOL    HW217970   2.914   1.277  15.782 -0.1197  1.0214  1.3669
 2171SOL     OW17971   4.487   2.726   1.113 -0.8459  0.4177  0.3804
 2171SOL    HW117972   4.401   2.755   1.143 -0.6838  0.9168  0.3691
 2171SOL    HW217973   4.532   2.711   1.197 -1.6833  2.6625  1.2437
 2172SOL     OW17974   0.606   1.846   8.795  0.2742  0.1009 -0.0517
 2172SOL    HW117975   0.544   1.916   8.775 -0.0869 -0.9932 -2.8524
 2172SOL    HW217976   0.643   1.862   8.882 -0.3627  4.5061 -0.5792
 2173SOL     OW17977   0.500   4.675   2.768 -0.9948  0.5226 -0.2989
 2173SOL    HW117978   0.427   4.661   2.707  0.6880 -0.9027 -2.0058
 2173SOL    HW217979   0.539   0.039   2.739  1.9710  0.1192  2.5159
 2174SOL     OW17980   3.962   0.844   5.130  0.4238 -0.1094 -0.1664
 2174SOL    HW117981   3.896   0.866   5.195 -0.1277  1.1987 -1.1662
 2174SOL    HW217982   4.000   0.929   5.107  1.0523 -0.8017 -1.7324
 2175SOL     OW17983   2.737   0.036   1.592  0.0714 -0.3656  0.8646
 2175SOL    HW117984   2.691   4.708   1.662 -2.2150 -0.5024 -0.7324
 2175SOL    HW217985   2.828   0.007   1.595  0.1411 -0.3693 -1.7741
 2176SOL     OW17986   1.652   4.207  12.893 -0.2090  0.2383 -0.2736
 2176SOL    HW117987   1.586   4.213  12.824  0.4573  0.7029 -0.8739
 2176SOL    HW217988   1.606   4.247  12.966 -0.5035 -0.9959  0.2176
 2177SOL     OW17989   4.716   3.463   7.611  0.1557 -0.1481  0.4241
 2177SOL    HW117990   0.003   3.467   7.707 -1.4895  1.6118  0.4418
 2177SOL    HW217991   4.652   3.392   7.613  0.1725 -0.1752 -0.0088
 2178SOL     OW17992   1.793   2.983   5.266 -0.1212 -0.2258 -0.1558
 2178SOL    HW117993   1.879   2.942   5.264  0.2430  0.4593  0.9715
 2178SOL    HW217994   1.751   2.933   5.196  1.1038  1.4570 -2.1044
 2179SOL     OW17995   2.753   3.838   2.440  0.3786  0.5795 -0.8678
 2179SOL    HW117996   2.661   3.858   2.460  0.6145 -0.2532  0.9846
 2179SOL    HW217997   2.751   3.852   2.345 -1.4581 -2.2765 -1.2465
 2180SOL     OW17998   2.417   3.604   2.788 -0.2332 -0.0652  0.0917
 2180SOL    HW117999   2.407   3.511   2.808 -0.8276  0.0178  0.1932
 2180SOL    HW218000   2.493   3.612   2.730 -1.6310  1.2139 -1.5986
 2181SOL     OW18001   3.486   4.076  12.320  0.5066  0.3728  0.5026
 2181SOL    HW118002   3.477   4.016  12.394 -1.2205 -1.2231 -1.0247
 2181SOL    HW218003   3.395   4.103  12.313  0.2532 -0.3786  0.8232
 2182SOL     OW18004   2.041   2.606  14.668 -0.3734 -0.4151 -0.5360
 2182SOL    HW118005   2.031   2.675  14.602  0.8401  0.6549  0.3825
 2182SOL    HW218006   2.137   2.611  14.675 -0.3138  0.0449 -1.6177
 2183SOL     OW18007   0.435   0.660   3.253 -0.2305 -0.3910  0.2857
 2183SOL    HW118008   0.513   0.691   3.206 -2.5479  2.5226 -1.6078
 2183SOL    HW218009   0.390   0.616   3.182  0.6671 -1.0947  0.1508
 2184SOL     OW18010   3.731   2.683   6.140  0.0549  0.3409  0.3742
 2184SOL    HW118011   3.674   2.689   6.216  0.2567  2.1655  0.3673
 2184SOL    HW218012   3.732   2.588   6.150 -1.0132  0.4317  1.2959
 2185SOL     OW18013   3.026   0.066   8.192  0.3561 -0.1676 -0.3642
 2185SOL    HW118014   2.939   0.078   8.230  0.2789  2.1366 -1.2423
 2185SOL    HW218015   3.036   4.690   8.198 -0.3307 -0.4474 -3.3592
 2186SOL     OW18016   2.101   2.502   9.772  0.1028  0.1556 -0.0127
 2186SOL    HW118017   2.013   2.521   9.739 -0.6190 -0.9314  1.2897
 2186SOL    HW218018   2.102   2.406   9.767  0.4230  0.1033  1.0112
 2187SOL     OW18019   3.092   1.778   4.752  0.3748 -0.1291 -0.1949
 2187SOL    HW118020   3.187   1.773   4.762  0.7381  1.6119 -3.0258
 2187SOL    HW218021   3.074   1.700   4.699 -1.1918  1.2925 -1.7585
 2188SOL     OW18022   2.039   1.232   3.867 -0.1654  0.3473  0.0327
 2188SOL    HW118023   2.048   1.141   3.896  1.2029  0.5666  0.3262
 2188SOL    HW218024   2.024   1.272   3.952  0.1145 -2.2258  1.3075
 2189SOL     OW18025   4.676   0.473   2.576  0.0796  0.6757  0.3982
 2189SOL    HW118026   0.050   0.479   2.556  0.1382 -1.7010 -0.0613
 2189SOL    HW218027   4.669   0.386   2.537  1.2515  0.8174 -0.1282
 2190SOL     OW18028   2.849   0.002  10.153  0.3981  0.3543 -0.0337
 2190SOL    HW118029   2.823   0.082  10.109  3.3516  1.0885 -0.4007
 2190SOL    HW218030   2.886   4.663  10.086  1.4541 -0.6633  1.4369
 2191SOL     OW18031   2.562   0.418   5.060 -0.1044 -0.0770  0.0435
 2191SOL    HW118032   2.578   0.356   4.989  0.2523 -0.0877  0.1361
 2191SOL    HW218033   2.572   0.361   5.137  0.8229 -1.0033 -0.7555
 2192SOL     OW18034   3.510   0.086   6.626 -0.0072 -0.4479  0.4515
 2192SOL    HW118035   3.442   0.044   6.679 -0.7027 -0.3462 -0.3628
 2192SOL    HW218036   3.572   0.013   6.619 -0.3540 -0.6572 -0.4861
 2193SOL     OW18037   1.684   0.413   9.610 -0.2413 -0.2131 -0.6494
 2193SOL    HW118038   1.623   0.487   9.612 -1.9657 -1.5483 -5.1094
 2193SOL    HW218039   1.766   0.451   9.579 -1.7323  1.3163 -2.7726
 2194SOL     OW18040   4.519   1.815   4.374  0.0057 -0.1090  0.2624
 2194SOL    HW118041   4.574   1.757   4.321 -1.0590 -0.3311 -0.6051
 2194SOL    HW218042   4.535   1.772   4.457 -2.0287 -0.4700  0.4632
 2195SOL     OW18043   2.631   2.609   8.606  0.5215  0.2632  0.2985
 2195SOL    HW118044   2.574   2.553   8.554 -0.7496  2.4613 -0.6746
 2195SOL    HW218045   2.574   2.672   8.650 -0.8561 -1.4417  0.9854
 2196SOL     OW18046   0.446   3.277   5.055  0.1421 -0.2458 -0.1846
 2196SOL    HW118047   0.408   3.306   5.139  0.4258  1.9758 -0.8188
 2196SOL    HW218048   0.376   3.308   4.998 -1.3982 -0.7122  1.4761
 2197SOL     OW18049   3.769   1.326   2.067  0.1116  0.3388 -0.0263
 2197SOL    HW118050   3.837   1.281   2.017  0.4082  0.8173 -0.0496
 2197SOL    HW218051   3.817   1.326   2.149  0.8509 -1.3259 -0.4720
 2198SOL     OW18052   3.840   2.256   0.261 -0.7195  0.1813 -0.0018
 2198SOL    HW118053   3.857   2.329   0.320 -1.1035  1.4572 -1.4859
 2198SOL    HW218054   3.802   2.192   0.321 -0.7249 -1.7848 -2.0898
 2199SOL     OW18055   0.849   2.198   7.510  0.0953  0.1892  0.1673
 2199SOL    HW118056   0.907   2.131   7.474  0.4748  0.8190 -0.4001
 2199SOL    HW218057   0.836   2.242   7.426 -0.9222 -0.0117  0.2110
 2200SOL     OW18058   0.736   0.562   5.750  0.4825 -0.0585  0.8258
 2200SOL    HW118059   0.773   0.577   5.837 -0.8670 -0.9048  1.5426
 2200SOL    HW218060   0.779   0.479   5.726 -0.4898 -0.5163  0.6923
 2201SOL     OW18061   4.238   1.608   5.319  0.6916 -0.6536  0.2242
 2201SOL    HW118062   4.317   1.554   5.330  1.4696  0.9220  2.5394
 2201SOL    HW218063   4.166   1.557   5.357 -1.7388 -0.7393 -4.5379
 2202SOL     OW18064   2.330   0.374   7.793  0.1892  0.0660  0.2639
 2202SOL    HW118065   2.273   0.448   7.812  1.7031  1.8013 -2.0117
 2202SOL    HW218066   2.297   0.337   7.710  1.7664 -0.6865 -0.0281
 2203SOL     OW18067   0.279   2.489  17.335 -0.0741 -0.7041  0.4236
 2203SOL    HW118068   0.243   2.410  17.376  1.2084 -1.3852  0.2350
 2203SOL    HW218069   0.228   2.562  17.369  0.3833  0.0891 -0.5747
 2204SOL     OW18070   2.400   4.376  12.315 -0.1868 -0.1992 -0.0197
 2204SOL    HW118071   2.370   4.467  12.305  0.8677  0.1513  0.0200
 2204SOL    HW218072   2.323   4.332  12.351 -0.3019  1.0179  1.2080
 2205SOL     OW18073   4.680   4.200   8.837  0.1266 -0.1844 -0.2876
 2205SOL    HW118074   0.035   4.261   8.835  0.2439 -0.3335 -0.5370
 2205SOL    HW218075   4.660   4.209   8.930 -0.8269  0.3182 -0.5438
 2206SOL     OW18076   3.495   2.546   3.666 -0.4359  0.2351 -0.1074
 2206SOL    HW118077   3.521   2.592   3.746 -1.0375  0.1887  0.1118
 2206SOL    HW218078   3.564   2.479   3.665 -1.2380 -0.6067  0.4063
 2207SOL     OW18079   3.088   3.279   4.069 -0.2907  0.3020  0.3352
 2207SOL    HW118080   3.175   3.264   4.107  0.8051  3.6740 -0.7856
 2207SOL    HW218081   3.112   3.342   4.001 -1.3625 -0.6291 -0.8861
 2208SOL     OW18082   3.111   3.162   6.982 -0.1589 -0.2420 -0.3697
 2208SOL    HW118083   3.039   3.145   6.922 -0.6852  0.7002 -0.0090
 2208SOL    HW218084   3.184   3.170   6.921  0.3920  0.8422  0.4288
 2209SOL     OW18085   2.546   0.910   1.481 -0.0725  0.3999 -0.1087
 2209SOL    HW118086   2.454   0.888   1.468  0.1557  0.4833 -1.8801
 2209SOL    HW218087   2.570   0.844   1.546  2.1461 -0.7260 -2.0571
 2210SOL     OW18088   0.695   4.460   7.624  0.0231  0.6176  0.2757
 2210SOL    HW118089   0.746   4.384   7.596 -0.0023  0.5475  0.4187
 2210SOL    HW218090   0.634   4.477   7.553  1.2197  1.1895 -0.6202
 2211SOL     OW18091   0.976   3.590   3.516 -0.1762  0.2929  0.0573
 2211SOL    HW118092   1.035   3.616   3.447  0.4787  0.1344  0.5575
 2211SOL    HW218093   1.032   3.598   3.594 -0.7713 -2.2399  0.7609
 2212SOL     OW18094   2.890   2.656   5.075 -0.2703 -0.0595  0.0172
 2212SOL    HW118095   2.822   2.669   5.009  0.6180 -4.4650 -1.8092
 2212SOL    HW218096   2.951   2.621   5.011 -1.6199 -1.3260 -0.5973
 2213SOL     OW18097   2.817   0.699   0.773  0.8252  0.5484  0.2212
 2213SOL    HW118098   2.811   0.660   0.685  1.6923 -0.9594  0.8412
 2213SOL    HW218099   2.912   0.707   0.780  0.9908 -0.3690 -0.9149
 2214SOL     OW18100   3.838   3.283  12.337  0.0363 -0.2771  0.2565
 2214SOL    HW118101   3.905   3.338  12.377 -0.5766 -0.8090  2.0082
 2214SOL    HW218102   3.846   3.201  12.386 -0.0077 -1.4491 -1.6892
 2215SOL     OW18103   1.868   0.355   2.691 -0.2570 -0.4014 -0.4940
 2215SOL    HW118104   1.948   0.404   2.674 -0.3270  0.1959  0.9080
 2215SOL    HW218105   1.802   0.416   2.659  2.3384  1.8910 -1.4170
 2216SOL     OW18106   1.250   3.447  12.131 -0.2673 -0.7669  0.4480
 2216SOL    HW118107   1.246   3.396  12.212 -1.0365 -0.4391  0.6232
 2216SOL    HW218108   1.156   3.458  12.117 -0.5438 -0.5875  2.4668
 2217SOL     OW18109   0.181   1.840   4.201 -0.3117  0.1083 -0.4912
 2217SOL    HW118110   0.239   1.915   4.214  2.6424 -2.0201 -1.3436
 2217SOL    HW218111   0.230   1.761   4.222 -0.7235 -0.2447 -0.8461
 2218SOL     OW18112   2.552   4.019   0.590  0.0493  0.3382 -0.1984
 2218SOL    HW118113   2.520   3.981   0.508  0.4221  1.8863 -1.0728
 2218SOL    HW218114   2.644   4.027   0.566 -0.1736 -0.4916 -1.3024
 2219SOL     OW18115   3.978   4.491  11.065 -0.0084 -0.2237  0.1116
 2219SOL    HW118116   4.029   4.462  11.141  1.1450  0.9613 -0.2262
 2219SOL    HW218117   3.978   4.586  11.075  1.7745 -0.0996 -1.1550
 2220SOL     OW18118   0.554   0.186   4.958 -0.4795  0.5534 -0.4361
 2220SOL    HW118119   0.605   0.129   5.017  0.3324  1.8331  0.0914
 2220SOL    HW218120   0.604   0.187   4.877  0.2566  0.1867  0.0133
 2221SOL     OW18121   4.295   1.291   2.848  0.1264  0.6430 -0.1909
 2221SOL    HW118122   4.340   1.262   2.927 -0.3209 -0.0334 -0.1825
 2221SOL    HW218123   4.215   1.332   2.882 -1.0279 -1.8966  0.1756
 2222SOL     OW18124   4.573   1.669   4.581  0.0866  0.3499  0.1341
 2222SOL    HW118125   4.658   1.650   4.541  0.0782 -0.5737  0.5643
 2222SOL    HW218126   4.564   1.587   4.630  0.6383 -0.8624 -1.8123
 2223SOL     OW18127   2.928   2.328   6.214  0.2224 -0.3223  0.0757
 2223SOL    HW118128   2.834   2.340   6.199  0.1638 -1.8556 -0.7951
 2223SOL    HW218129   2.933   2.232   6.219  1.0734 -0.2673  0.2455
 2224SOL     OW18130   4.578   2.426   7.494  0.4913 -0.3220  0.0398
 2224SOL    HW118131   4.529   2.355   7.454  0.6847 -1.8194  2.4809
 2224SOL    HW218132   4.578   2.399   7.586 -0.3859  1.8676  0.6855
 2225SOL     OW18133   0.765   3.119   3.181  0.3643 -0.4978  0.0302
 2225SOL    HW118134   0.785   3.154   3.095  0.8543  0.4055  0.5103
 2225SOL    HW218135   0.676   3.087   3.163 -0.3943  0.8916  1.2929
 2226SOL     OW18136   0.024   0.830   2.654  0.2109 -0.0034  0.0583
 2226SOL    HW118137   0.078   0.886   2.709  0.4019 -1.7328  1.6523
 2226SOL    HW218138   0.085   0.817   2.581 -1.4997 -2.0441 -1.0105
 2227SOL     OW18139   3.531   4.079   3.044  0.3886 -0.3476  0.0228
 2227SOL    HW118140   3.484   4.064   2.963 -0.2008 -0.6194  0.4171
 2227SOL    HW218141   3.553   3.989   3.070 -0.4958 -0.2385  1.1371
 2228SOL     OW18142   0.508   2.598  11.195 -0.0501 -0.3737 -0.0014
 2228SOL    HW118143   0.574   2.613  11.128  0.4266  0.1325  0.5763
 2228SOL    HW218144   0.538   2.514  11.231  0.0432  0.0781  0.9861
 2229SOL     OW18145   0.205   1.155   4.402 -0.0205  0.0281 -0.0618
 2229SOL    HW118146   0.239   1.228   4.454 -1.8495  1.0325 -0.2792
 2229SOL    HW218147   0.267   1.161   4.329  0.7416 -0.5773  0.5391
 2230SOL     OW18148   0.597   2.654  16.776  0.1875 -0.3953  0.4196
 2230SOL    HW118149   0.686   2.620  16.764  0.4574 -0.2043  1.8937
 2230SOL    HW218150   0.547   2.572  16.775  1.5275 -1.2128 -1.0895
 2231SOL     OW18151   2.865   2.169   3.103  0.2269  0.3941  0.1504
 2231SOL    HW118152   2.857   2.256   3.064 -0.9611  0.5181  0.6931
 2231SOL    HW218153   2.831   2.108   3.037 -2.6873  2.2190 -0.0172
 2232SOL     OW18154   2.112   2.406   7.485  0.4709 -0.1795  0.2483
 2232SOL    HW118155   2.169   2.349   7.536 -2.0185 -1.0335  2.0725
 2232SOL    HW218156   2.114   2.492   7.526  0.6549 -1.4086  2.8079
 2233SOL     OW18157   2.315   3.081   2.146 -0.1309 -0.4171 -0.0704
 2233SOL    HW118158   2.323   3.026   2.068 -1.6822 -1.4102  0.4785
 2233SOL    HW218159   2.301   3.166   2.106 -1.2251 -0.6801 -0.2470
 2234SOL     OW18160   0.789   2.966  10.150 -0.8392 -0.3294  0.1411
 2234SOL    HW118161   0.883   2.976  10.165 -0.8208 -0.6681  0.2533
 2234SOL    HW218162   0.779   2.918  10.068 -0.9772 -0.7061  0.3782
 2235SOL     OW18163   3.241   2.465   8.718  0.1518 -0.4804  0.7373
 2235SOL    HW118164   3.264   2.445   8.627 -0.2809 -0.5755  0.6452
 2235SOL    HW218165   3.166   2.524   8.708  0.6221 -0.1001 -0.5203
 2236SOL     OW18166   3.234   2.488   3.768  0.7879 -0.4785 -0.0839
 2236SOL    HW118167   3.315   2.487   3.717  1.0948 -0.6055  0.3975
 2236SOL    HW218168   3.205   2.397   3.762 -0.5686 -0.2815  3.2275
 2237SOL     OW18169   3.374   3.478   3.356  0.0299  0.8385 -0.4877
 2237SOL    HW118170   3.363   3.386   3.333  0.3784  0.5086  0.6650
 2237SOL    HW218171   3.369   3.462   3.451  2.8408  0.4262 -0.4097
 2238SOL     OW18172   1.326   3.257   9.315  0.0361  0.7889  0.0164
 2238SOL    HW118173   1.341   3.247   9.409 -0.5304 -0.5080 -0.0404
 2238SOL    HW218174   1.299   3.166   9.301  1.3857  0.0635  2.1797
 2239SOL     OW18175   2.081   3.069  16.126  0.2830 -0.2867  0.5142
 2239SOL    HW118176   2.124   3.003  16.070 -0.5788 -1.8866  1.7421
 2239SOL    HW218177   2.033   3.124  16.064 -0.3575 -0.0447  1.2219
 2240SOL     OW18178   3.889   4.484   1.660 -0.3512 -0.5345 -0.2424
 2240SOL    HW118179   3.839   4.455   1.736  0.5229 -1.1037  0.1140
 2240SOL    HW218180   3.919   4.396   1.635  1.0455 -0.2807  0.5360
 2241SOL     OW18181   2.048   2.339   3.593 -0.6473  0.6179  0.3263
 2241SOL    HW118182   1.975   2.363   3.651 -1.1464 -2.5471  1.0374
 2241SOL    HW218183   2.092   2.283   3.657 -0.0140 -0.0423 -0.7030
 2242SOL     OW18184   1.443   4.163   6.473  0.8086  0.0038 -0.4542
 2242SOL    HW118185   1.355   4.202   6.471 -0.5496 -3.0358  0.5083
 2242SOL    HW218186   1.501   4.225   6.517 -1.6203  2.5056 -0.7651
 2243SOL     OW18187   4.579   4.619  11.730 -0.6707  0.0429 -0.2518
 2243SOL    HW118188   4.646   4.576  11.783 -0.9421  0.9288  0.8061
 2243SOL    HW218189   4.570   4.563  11.652  0.8699  2.5434 -2.2481
 2244SOL     OW18190   4.429   4.510   7.277  0.1038 -0.2166 -0.2877
 2244SOL    HW118191   4.420   4.604   7.260 -1.5673 -0.0515  1.4827
 2244SOL    HW218192   4.346   4.481   7.237  0.6385 -0.1589 -1.4422
 2245SOL     OW18193   1.001   3.525  12.137  0.1364  0.5077 -0.3162
 2245SOL    HW118194   0.953   3.456  12.184  0.5921  1.5150  1.6404
 2245SOL    HW218195   0.934   3.594  12.139  0.0584  0.4110  0.6024
 2246SOL     OW18196   2.912   3.473   7.518 -0.1656 -0.0569  0.3359
 2246SOL    HW118197   3.006   3.492   7.524 -0.2024  0.7023 -1.6375
 2246SOL    HW218198   2.908   3.392   7.570 -1.6723 -0.5563 -0.5705
 2247SOL     OW18199   0.524   0.190   1.967  0.1269  0.0721  0.0540
 2247SOL    HW118200   0.571   0.117   2.007 -1.3447 -0.9925 -0.1351
 2247SOL    HW218201   0.591   0.256   1.981  0.4707  0.1355 -1.8791
 2248SOL     OW18202   2.785   4.206  16.932  0.0762 -0.2399  0.0911
 2248SOL    HW118203   2.864   4.218  16.880 -0.1584 -1.7379 -0.6136
 2248SOL    HW218204   2.826   4.238  17.012  1.8075 -1.0497 -0.4640
 2249SOL     OW18205   3.571   3.884  13.709  0.1896  0.1675  0.2124
 2249SOL    HW118206   3.627   3.863  13.784  1.1572 -1.3903 -0.9564
 2249SOL    HW218207   3.545   3.794  13.688 -0.2335  0.4944 -0.6159
 2250SOL     OW18208   3.594   1.202  17.234 -0.3354  0.2581  0.8228
 2250SOL    HW118209   3.499   1.211  17.246 -0.7122 -0.6312 -1.5826
 2250SOL    HW218210   3.624   1.291  17.251  2.5600 -0.3418 -1.2069
 2251SOL     OW18211   0.027   0.493  15.237 -0.1931 -0.2373  0.2877
 2251SOL    HW118212   0.088   0.507  15.164 -0.6664 -0.6320 -0.1826
 2251SOL    HW218213   4.665   0.501  15.186 -0.5534 -0.9631  0.7555
 2252SOL     OW18214   2.510   3.596   6.311  0.2016  0.5842 -0.1277
 2252SOL    HW118215   2.549   3.681   6.290 -0.1993  0.2337 -2.2928
 2252SOL    HW218216   2.416   3.614   6.306 -0.4438 -1.8385  3.1506
 2253SOL     OW18217   3.283   1.545  14.439 -0.0063 -0.2720 -0.1118
 2253SOL    HW118218   3.214   1.595  14.482 -0.1441 -0.5143 -0.0497
 2253SOL    HW218219   3.218   1.481  14.411 -0.6570  0.6389 -0.6891
 2254SOL     OW18220   3.608   0.966   0.460  0.3214  0.0545 -0.3233
 2254SOL    HW118221   3.599   0.913   0.381  0.4022 -2.1958  1.1930
 2254SOL    HW218222   3.686   0.929   0.500  0.8270  0.8033 -0.6116
 2255SOL     OW18223   1.600   4.257   4.987  0.3712  0.5251 -0.1236
 2255SOL    HW118224   1.581   4.168   5.014  0.0359  0.6925  0.1843
 2255SOL    HW218225   1.684   4.241   4.945  0.3344  2.1035 -0.8263
 2256SOL     OW18226   0.038   2.662   6.089 -0.0510 -0.4530  0.2589
 2256SOL    HW118227   0.122   2.630   6.057  1.1211  0.9105  1.9684
 2256SOL    HW218228   4.702   2.633   6.016  2.1539  2.5369 -2.5675
 2257SOL     OW18229   2.725   1.661   9.614  0.3093  0.6333 -0.0564
 2257SOL    HW118230   2.661   1.652   9.685 -0.8764  0.9881 -1.0939
 2257SOL    HW218231   2.804   1.616   9.644  0.8779  1.6122 -0.0754
 2258SOL     OW18232   1.151   4.647  14.791  0.3730  0.5474 -0.0536
 2258SOL    HW118233   1.241   4.640  14.758  0.4023  1.5557 -0.1888
 2258SOL    HW218234   1.097   4.622  14.716  2.7117  1.4112 -2.0350
 2259SOL     OW18235   3.469   4.132  13.329 -0.1908  0.1229  0.4796
 2259SOL    HW118236   3.424   4.137  13.413 -0.3213  0.1777  0.4078
 2259SOL    HW218237   3.397   4.110  13.269  0.7602  0.8300 -0.9380
 2260SOL     OW18238   0.244   2.975   8.592  0.0472  0.0297  0.2733
 2260SOL    HW118239   0.165   3.024   8.569 -0.6444 -0.7202  1.0318
 2260SOL    HW218240   0.307   3.016   8.533  0.8010 -0.0094  1.0440
 2261SOL     OW18241   4.007   3.024   1.891 -0.0816 -0.6358 -0.2855
 2261SOL    HW118242   4.099   3.001   1.893 -0.2754 -1.3381  0.4702
 2261SOL    HW218243   3.963   2.940   1.901 -1.6430  0.2872  0.6914
 2262SOL     OW18244   4.486   2.665   6.518 -0.4945  0.2262  0.1335
 2262SOL    HW118245   4.465   2.651   6.426  0.9633 -0.2622 -0.1248
 2262SOL    HW218246   4.559   2.604   6.532  0.6255  1.9674  1.7815
 2263SOL     OW18247   0.982   2.570   9.165  0.3135 -0.2541  0.1063
 2263SOL    HW118248   0.946   2.561   9.253  0.9391  2.3053  0.6162
 2263SOL    HW218249   1.026   2.485   9.157  0.3976 -0.2114  0.1138
 2264SOL     OW18250   1.607   1.003   8.748 -0.1395  0.0634 -0.5061
 2264SOL    HW118251   1.658   1.023   8.670  2.2336  0.5103  1.1694
 2264SOL    HW218252   1.679   1.002   8.811  0.8429  0.4430 -1.6147
 2265SOL     OW18253   1.170   0.766  10.645 -0.0691 -0.3639 -0.5448
 2265SOL    HW118254   1.235   0.787  10.712 -0.0751 -1.1166 -0.3037
 2265SOL    HW218255   1.209   0.685  10.612  0.2774 -0.0870 -0.8166
 2266SOL     OW18256   2.973   4.692   6.550  0.4967  0.0505 -0.2048
 2266SOL    HW118257   3.033   4.642   6.606 -0.9050 -1.8803 -0.4179
 2266SOL    HW218258   2.899   4.634   6.570  1.9303 -1.1782  1.5574
 2267SOL     OW18259   4.671   2.565   1.677 -0.0723  0.2802 -0.5009
 2267SOL    HW118260   4.629   2.539   1.595 -0.4196  0.2766 -0.3206
 2267SOL    HW218261   4.704   2.486   1.719 -0.6026  0.0368 -0.5444
 2268SOL     OW18262   1.088   3.777   8.008 -0.2333  0.3421 -0.1786
 2268SOL    HW118263   1.067   3.867   7.986 -1.3557  0.3902  1.1006
 2268SOL    HW218264   1.033   3.738   7.939  0.5089  0.2917 -0.7414
 2269SOL     OW18265   0.116   2.326  12.118  0.3385  0.3760 -0.6086
 2269SOL    HW118266   0.078   2.412  12.097 -0.6881 -0.6969 -3.2309
 2269SOL    HW218267   0.209   2.344  12.130  0.8327 -0.7570 -2.7610
 2270SOL     OW18268   2.468   0.449   5.506  0.0021 -0.1275 -0.1392
 2270SOL    HW118269   2.533   0.434   5.574 -0.6746 -0.0196  0.5367
 2270SOL    HW218270   2.391   0.428   5.559  0.7000  1.0231  1.3170
 2271SOL     OW18271   3.270   3.485  13.633 -0.4134 -0.2996  0.0977
 2271SOL    HW118272   3.278   3.412  13.695 -1.3459  0.1197  0.7181
 2271SOL    HW218273   3.359   3.520  13.630 -0.8172  0.6445 -0.7596
 2272SOL     OW18274   4.344   3.090   1.989 -0.1830  0.4045 -0.3858
 2272SOL    HW118275   4.373   3.015   2.042  2.3157  1.9310  0.4287
 2272SOL    HW218276   4.386   3.167   2.028 -2.2760  1.4271 -0.1484
 2273SOL     OW18277   3.300   4.322   0.065  0.0014  0.8290 -0.1142
 2273SOL    HW118278   3.358   4.324   0.141 -0.4154  0.9934  0.2026
 2273SOL    HW218279   3.353   4.268   0.008  0.0293  0.1600  0.5429
 2274SOL     OW18280   3.881   3.721   8.615  0.0223 -0.0651  0.6337
 2274SOL    HW118281   3.843   3.714   8.703 -1.0626  0.8266  0.2259
 2274SOL    HW218282   3.954   3.658   8.620  0.9200  1.0990  2.3304
 2275SOL     OW18283   0.732   3.003  16.790 -0.3666 -0.4004  0.8336
 2275SOL    HW118284   0.745   3.050  16.872 -1.4595  0.0866  0.7179
 2275SOL    HW218285   0.788   2.928  16.811 -0.3456 -0.5716  0.1869
 2276SOL     OW18286   0.574   3.625   7.293 -0.5064  0.0554 -0.0178
 2276SOL    HW118287   0.556   3.681   7.369 -0.9111 -0.9953  0.6572
 2276SOL    HW218288   0.495   3.571   7.298 -0.3789 -0.1094  0.2417
 2277SOL     OW18289   3.024   3.500   0.827  0.1227 -0.2977  0.0820
 2277SOL    HW118290   2.939   3.482   0.786 -0.7386 -1.2692  2.2387
 2277SOL    HW218291   2.988   3.507   0.916  0.6062 -0.4116  0.2837
 2278SOL     OW18292   3.006   1.241   7.227  0.3995 -0.7917  0.3804
 2278SOL    HW118293   2.978   1.303   7.160 -3.2771 -1.5024  1.2426
 2278SOL    HW218294   3.007   1.307   7.296  1.6825 -0.1442 -0.2600
 2279SOL     OW18295   3.433   2.716   7.452 -0.1252 -0.1708 -0.3189
 2279SOL    HW118296   3.371   2.649   7.481  1.0645 -1.8224 -1.5991
 2279SOL    HW218297   3.450   2.759   7.536 -3.6372 -0.2395  0.4253
 2280SOL     OW18298   3.574   4.166  13.679  0.0694  0.0512 -0.1774
 2280SOL    HW118299   3.667   4.189  13.670 -0.0703  0.7409  0.0713
 2280SOL    HW218300   3.576   4.076  13.710  1.9506 -0.4885 -1.8485
 2281SOL     OW18301   0.715   3.638   7.830  0.3972  0.4947  0.3068
 2281SOL    HW118302   0.746   3.592   7.907  0.7320 -1.1622 -0.8148
 2281SOL    HW218303   0.794   3.635   7.777  0.6928  0.8405  0.7335
 2282SOL     OW18304   4.633   0.203   8.859  0.2122  0.2499  0.2875
 2282SOL    HW118305   4.546   0.198   8.820  0.0492 -1.4915  0.8765
 2282SOL    HW218306   4.613   0.271   8.923 -0.3490 -0.4666  0.8827
 2283SOL     OW18307   0.224   3.268   2.825  0.3970 -0.7967 -0.2275
 2283SOL    HW118308   0.284   3.288   2.754  1.0063 -0.7711  0.2986
 2283SOL    HW218309   0.277   3.277   2.904 -0.5254 -1.0427  0.4257
 2284SOL     OW18310   4.193   3.478  15.758 -0.1439  0.3395  0.9840
 2284SOL    HW118311   4.146   3.544  15.707 -1.9645 -1.0383  0.8540
 2284SOL    HW218312   4.274   3.456  15.713 -0.6704 -0.5357  0.4722
 2285SOL     OW18313   2.680   0.229   5.955  0.1779  0.2720 -0.2339
 2285SOL    HW118314   2.770   0.203   5.936 -0.7496 -2.3358 -1.0690
 2285SOL    HW218315   2.701   0.281   6.033 -1.6735 -0.5616  0.8046
 2286SOL     OW18316   1.761   3.317   7.957  0.4265 -0.1746  0.2787
 2286SOL    HW118317   1.783   3.237   8.004  1.5948 -0.2690 -0.4436
 2286SOL    HW218318   1.836   3.319   7.898 -0.9504  1.1910 -1.4320
 2287SOL     OW18319   2.080   1.000   3.181  0.1088 -0.1514  0.1460
 2287SOL    HW118320   2.009   0.994   3.116 -0.7462 -0.5983  1.1217
 2287SOL    HW218321   2.036   0.985   3.265  0.1076 -0.3550  0.1082
 2288SOL     OW18322   4.041   1.460   5.761  0.0260  0.2628  0.0156
 2288SOL    HW118323   3.958   1.500   5.786 -1.1652 -1.7007 -0.7997
 2288SOL    HW218324   4.100   1.452   5.836  1.4681  0.4128 -1.1056
 2289SOL     OW18325   2.872   3.266  11.194 -0.0425 -0.0764  0.3247
 2289SOL    HW118326   2.959   3.245  11.230  0.1382  0.5838  0.2698
 2289SOL    HW218327   2.829   3.309  11.268  2.8806  0.8269  1.5022
 2290SOL     OW18328   4.029   2.988   9.250  0.1227 -0.0066  0.0848
 2290SOL    HW118329   4.122   2.966   9.262 -0.0135 -0.3949  0.4364
 2290SOL    HW218330   4.027   3.077   9.285  0.8762  0.0364  0.0317
 2291SOL     OW18331   2.192   2.048   1.667 -0.4882  0.1695  0.4282
 2291SOL    HW118332   2.102   2.021   1.688  0.0157 -2.2238 -0.4916
 2291SOL    HW218333   2.238   1.969   1.639 -2.5700 -1.6616  2.1243
 2292SOL     OW18334   2.478   4.412   4.032  0.0656 -0.4977  0.1702
 2292SOL    HW118335   2.392   4.449   4.012 -0.7073 -1.9383  0.8221
 2292SOL    HW218336   2.489   4.462   4.113  1.3042 -0.6142  0.0727
 2293SOL     OW18337   4.547   0.218   9.362  0.5840  0.1794 -0.0388
 2293SOL    HW118338   4.534   0.302   9.318 -1.0214 -1.2147 -2.2656
 2293SOL    HW218339   4.497   0.151   9.315  1.5892 -2.3775  2.5410
 2294SOL     OW18340   3.711   2.417   2.058 -0.5055  0.1107 -0.4276
 2294SOL    HW118341   3.725   2.500   2.104  0.5785 -0.6997  0.6941
 2294SOL    HW218342   3.616   2.413   2.070 -0.7113  0.7757 -1.8283
 2295SOL     OW18343   3.575   4.585  15.490 -0.0315 -0.1325 -0.2030
 2295SOL    HW118344   3.492   4.556  15.453  0.6383  0.1016 -1.8997
 2295SOL    HW218345   3.634   4.551  15.422 -1.1372 -2.6542  0.0856
 2296SOL     OW18346   2.048   2.443  16.249 -0.1838 -0.2740 -0.7002
 2296SOL    HW118347   2.079   2.413  16.163 -0.4424  0.3591 -1.0197
 2296SOL    HW218348   2.095   2.388  16.311 -1.3511  0.7246  1.0642
 2297SOL     OW18349   2.773   0.593   0.525  0.7597  0.1608  0.0768
 2297SOL    HW118350   2.759   0.683   0.494  0.3549 -0.2945 -1.0732
 2297SOL    HW218351   2.689   0.549   0.512  1.4679 -0.5919 -1.9457
 2298SOL     OW18352   1.028   1.472   6.703  0.0651  0.5511  0.1702
 2298SOL    HW118353   1.117   1.454   6.673 -0.0938 -0.2448  0.1825
 2298SOL    HW218354   0.984   1.460   6.619  1.9729  1.6604 -0.9890
 2299SOL     OW18355   1.148   2.429  11.699 -0.3864 -0.1663  0.5287
 2299SOL    HW118356   1.191   2.508  11.731 -0.0808 -0.8446  1.7798
 2299SOL    HW218357   1.161   2.373  11.775  0.4178  1.6793  1.7649
 2300SOL     OW18358   1.710   1.701   6.896  0.1827  0.6472  0.4973
 2300SOL    HW118359   1.639   1.637   6.894  2.0656 -1.4380  0.5557
 2300SOL    HW218360   1.753   1.666   6.974  2.0849  1.6972 -0.0744
 2301SOL     OW18361   0.916   2.321   7.761 -0.4640 -0.1979  0.1138
 2301SOL    HW118362   0.894   2.266   7.686 -0.8423 -1.6899  1.3213
 2301SOL    HW218363   0.923   2.255   7.830 -0.1223  0.1684  0.4343
 2302SOL     OW18364   3.847   2.073  13.203  0.1620  0.0065  0.5652
 2302SOL    HW118365   3.844   2.053  13.110 -1.0556 -0.6228  0.7420
 2302SOL    HW218366   3.893   1.997  13.238  0.8666  1.6160  3.1775
 2303SOL     OW18367   1.246   2.435   5.820  0.2219  0.6085  0.5887
 2303SOL    HW118368   1.302   2.441   5.742 -1.0847 -0.6550 -0.4667
 2303SOL    HW218369   1.221   2.343   5.831 -0.8187  0.9976  1.3564
 2304SOL     OW18370   0.400   1.549  10.757  0.4500  0.2015 -0.0343
 2304SOL    HW118371   0.480   1.530  10.806 -0.5733  0.6687  1.8083
 2304SOL    HW218372   0.395   1.644  10.771 -3.0293 -0.0647  0.5223
 2305SOL     OW18373   1.905   4.458   4.619 -0.1922  0.1275  0.0223
 2305SOL    HW118374   1.904   4.517   4.694 -0.4110  2.1671 -1.5869
 2305SOL    HW218375   1.999   4.444   4.612 -0.1970  0.5439 -0.9063
 2306SOL     OW18376   4.175   3.910  12.126  0.3179  0.0374  0.2303
 2306SOL    HW118377   4.262   3.888  12.160  1.7389 -0.5942 -3.8179
 2306SOL    HW218378   4.190   3.966  12.050 -0.4891  0.6322  0.5089
 2307SOL     OW18379   4.060   2.192   4.369  0.6071  0.3145 -0.2849
 2307SOL    HW118380   4.126   2.238   4.420  2.5899 -1.1090 -1.5608
 2307SOL    HW218381   4.099   2.104   4.370  0.8094  0.4434  3.3806
 2308SOL     OW18382   2.768   1.928   7.403 -0.0622 -0.5720  0.0371
 2308SOL    HW118383   2.813   2.007   7.372 -1.9588 -0.1759 -1.7536
 2308SOL    HW218384   2.688   1.932   7.350 -1.2144 -1.2991  1.7308
 2309SOL     OW18385   2.289   2.681   5.391  0.2946 -0.4446  0.0792
 2309SOL    HW118386   2.252   2.725   5.468 -1.0186  0.7080 -1.1850
 2309SOL    HW218387   2.369   2.644   5.426  0.5755  0.8783  0.8443
 2310SOL     OW18388   3.472   3.884   0.823  0.1208  0.1179 -0.0359
 2310SOL    HW118389   3.467   3.967   0.776 -2.4246  0.7963  1.4305
 2310SOL    HW218390   3.562   3.858   0.805  0.0382 -0.4030  0.2917
 2311SOL     OW18391   1.908   3.160   3.046 -0.0011  0.2379 -0.1430
 2311SOL    HW118392   1.926   3.135   3.137 -2.2325 -0.2133  0.1841
 2311SOL    HW218393   1.816   3.187   3.052 -0.4517 -0.9479 -1.5905
 2312SOL     OW18394   3.191   3.884   9.803 -0.0031 -0.1750  0.4070
 2312SOL    HW118395   3.235   3.964   9.833  0.3479 -0.4192  0.5458
 2312SOL    HW218396   3.225   3.868   9.715 -1.5593 -1.6238  0.0766
 2313SOL     OW18397   4.566   0.482  10.750 -0.2437  0.1651 -0.5177
 2313SOL    HW118398   4.639   0.544  10.753 -1.3647  1.3764  1.4351
 2313SOL    HW218399   4.506   0.518  10.814 -0.1330  1.6591 -1.2387
 2314SOL     OW18400   1.873   3.864  11.891  0.3360  0.6888 -0.1909
 2314SOL    HW118401   1.871   3.948  11.846  3.2624  0.5152 -0.6341
 2314SOL    HW218402   1.846   3.898  11.976  0.2867 -1.0824  0.5241
 2315SOL     OW18403   3.112   4.374   0.363  0.0712 -0.2660 -0.3116
 2315SOL    HW118404   3.150   4.294   0.398 -1.8810 -0.8575  0.4149
 2315SOL    HW218405   3.073   4.408   0.443 -0.5804 -2.5628  0.3372
 2316SOL     OW18406   0.676   2.993   7.400  0.2508  0.3998 -0.6109
 2316SOL    HW118407   0.708   2.965   7.314  2.4946  1.0459  0.0145
 2316SOL    HW218408   0.745   2.962   7.458 -0.0873  2.4063  0.8915
 2317SOL     OW18409   3.216   3.380   1.557 -0.3305  0.0236  0.1226
 2317SOL    HW118410   3.151   3.317   1.526  0.8448 -0.6251 -1.0628
 2317SOL    HW218411   3.290   3.323   1.535 -0.2319 -0.0911  0.7648
 2318SOL     OW18412   0.397   2.992   5.899  0.4639  0.1228 -0.2053
 2318SOL    HW118413   0.444   2.910   5.886 -0.6596 -0.3727 -1.0108
 2318SOL    HW218414   0.434   3.005   5.986  2.0534  0.9243 -0.9903
 2319SOL     OW18415   3.148   1.431   2.053  0.1254  0.3998 -0.0456
 2319SOL    HW118416   3.149   1.462   2.143  0.4414  1.3513 -0.3716
 2319SOL    HW218417   3.061   1.393   2.037  0.6689 -0.7292 -0.3040
 2320SOL     OW18418   2.037   2.427   4.218 -0.2392 -0.2155  0.3642
 2320SOL    HW118419   2.064   2.396   4.304  2.0007 -0.4610 -0.4155
 2320SOL    HW218420   1.993   2.504   4.255 -1.5637 -0.1912 -1.2694
 2321SOL     OW18421   4.120   2.951   0.133 -0.0852  0.3530  0.8757
 2321SOL    HW118422   4.094   2.917   0.219  2.5284 -0.5245  1.3098
 2321SOL    HW218423   4.042   2.945   0.079  0.3054 -0.8692  0.4420
 2322SOL     OW18424   1.775   4.093  17.581  0.0918 -0.2735 -0.0620
 2322SOL    HW118425   1.702   4.044  17.544  1.7551 -2.1806 -0.7942
 2322SOL    HW218426   1.810   4.134  17.502  1.2629 -0.5912  0.2875
 2323SOL     OW18427   4.649   4.329   3.943 -0.1601 -0.4403 -0.2144
 2323SOL    HW118428   4.642   4.364   4.032  1.4483  1.0331 -0.6406
 2323SOL    HW218429   4.591   4.390   3.897  0.3455 -1.5788 -2.3905
 2324SOL     OW18430   3.861   2.227  14.330  0.1743  0.0887  0.3212
 2324SOL    HW118431   3.933   2.237  14.268  0.2657 -0.4940  0.3339
 2324SOL    HW218432   3.849   2.302  14.388  2.5955  0.3651  0.4495
 2325SOL     OW18433   4.698   2.297  13.834 -0.2520  0.1029 -0.6074
 2325SOL    HW118434   0.036   2.304  13.910 -2.3589  1.3471  0.8734
 2325SOL    HW218435   4.622   2.254  13.875 -0.8704  1.0272 -0.7743
 2326SOL     OW18436   2.025   0.784  12.605 -0.1228  0.8665 -0.4584
 2326SOL    HW118437   2.055   0.806  12.693 -0.2438 -0.1418 -0.1584
 2326SOL    HW218438   2.015   0.871  12.566 -1.0842  1.8912  2.1230
 2327SOL     OW18439   1.571   2.134   3.635 -0.2493 -0.5415  0.1014
 2327SOL    HW118440   1.545   2.073   3.704 -2.0827  0.2981  0.1456
 2327SOL    HW218441   1.594   2.079   3.560 -0.3074 -1.1689  0.5497
 2328SOL     OW18442   3.966   3.035   5.714 -0.4784 -0.0477  0.0670
 2328SOL    HW118443   3.876   3.067   5.714 -0.1890  0.7308  1.3615
 2328SOL    HW218444   3.994   3.019   5.623 -1.2135 -0.8290 -0.0289
 2329SOL     OW18445   2.596   3.936  16.755  0.7257 -0.1228  0.0286
 2329SOL    HW118446   2.611   3.904  16.844  0.6880  0.9979  0.4360
 2329SOL    HW218447   2.638   3.868  16.703  1.1751 -2.3784  3.3312
 2330SOL     OW18448   3.629   3.689   2.207 -0.2897  0.8768 -0.5178
 2330SOL    HW118449   3.553   3.738   2.238 -2.1090 -2.0222 -0.3983
 2330SOL    HW218450   3.623   3.715   2.115  0.3619 -1.1619 -1.1233
 2331SOL     OW18451   4.397   2.428   5.953 -0.2117 -0.0543 -0.1959
 2331SOL    HW118452   4.356   2.359   5.901 -0.6072  0.1930 -0.2121
 2331SOL    HW218453   4.415   2.376   6.031  0.1529 -1.0266 -0.9333
 2332SOL     OW18454   0.198   3.718   2.612  0.1531 -0.4806 -0.0135
 2332SOL    HW118455   0.260   3.679   2.674 -0.9808  1.5680  2.4377
 2332SOL    HW218456   0.143   3.644   2.587  0.1806 -0.9685  1.3890
 2333SOL     OW18457   2.641   4.264   3.020 -0.2128  0.3328 -0.3770
 2333SOL    HW118458   2.619   4.258   3.113  1.6646  1.3833  0.1241
 2333SOL    HW218459   2.666   4.356   3.019 -3.9199  1.3460  0.1001
 2334SOL     OW18460   0.177   3.394   4.640 -0.0265  0.2299  0.4939
 2334SOL    HW118461   0.192   3.332   4.568 -1.9238  0.1082  0.1886
 2334SOL    HW218462   0.241   3.459   4.612 -0.2138  0.7605  1.3235
 2335SOL     OW18463   2.869   4.463   7.750 -0.1557  0.1475  0.4200
 2335SOL    HW118464   2.857   4.488   7.659 -0.7118  0.1928  0.5070
 2335SOL    HW218465   2.898   4.371   7.747 -0.0605  0.2455 -1.6015
 2336SOL     OW18466   4.542   3.560   4.953 -0.7125 -0.2827  0.5045
 2336SOL    HW118467   4.447   3.570   4.959 -0.8341  1.1998 -3.6235
 2336SOL    HW218468   4.553   3.520   4.866 -0.0862 -0.4115  0.6440
 2337SOL     OW18469   4.135   4.593   6.014 -0.7377  0.0401 -0.4706
 2337SOL    HW118470   4.210   4.575   6.070 -2.3577 -1.1012  1.3144
 2337SOL    HW218471   4.083   4.514   6.026  0.4299 -0.6564 -0.0652
 2338SOL     OW18472   1.490   0.048   6.938 -0.1795  0.2403 -0.3006
 2338SOL    HW118473   1.466   0.136   6.968 -0.9516 -0.6769  1.7181
 2338SOL    HW218474   1.495   0.068   6.844 -3.8896 -2.9542 -1.1384
 2339SOL     OW18475   1.083   2.601   8.834  0.0372 -0.3878  0.0011
 2339SOL    HW118476   1.069   2.567   8.746 -0.3992 -0.5048  0.1133
 2339SOL    HW218477   1.008   2.566   8.882 -1.1113  0.5937 -1.0805
 2340SOL     OW18478   4.527   2.540   2.819 -0.2348  0.4193 -0.6020
 2340SOL    HW118479   4.496   2.489   2.744 -0.4160  1.4312 -1.2174
 2340SOL    HW218480   4.583   2.601   2.772 -0.2503  0.8616 -0.0561
 2341SOL     OW18481   1.442   2.530   3.222  0.4372  0.4612  0.5188
 2341SOL    HW118482   1.397   2.531   3.307  0.3319 -2.1373  0.4849
 2341SOL    HW218483   1.512   2.468   3.241 -1.2365 -1.6933 -0.2982
 2342SOL     OW18484   4.415   0.022  14.360 -0.0399  0.1642 -0.3712
 2342SOL    HW118485   4.408   0.101  14.414  1.1981 -0.6052  0.8836
 2342SOL    HW218486   4.356   4.680  14.404  0.2893 -0.8108 -1.2974
 2343SOL     OW18487   4.367   3.732  16.388 -0.3341  0.0685  0.1970
 2343SOL    HW118488   4.393   3.799  16.451 -1.9697  0.1498  0.7983
 2343SOL    HW218489   4.329   3.669  16.449 -2.5373 -1.1545 -2.4160
 2344SOL     OW18490   0.965   0.867  14.280 -0.7920  0.1373  0.4664
 2344SOL    HW118491   1.026   0.941  14.286 -0.9693  0.1236  2.5514
 2344SOL    HW218492   1.028   0.803  14.314 -0.0579  1.0770  0.8723
 2345SOL     OW18493   4.509   4.283   9.541 -0.4842 -0.1948 -0.3916
 2345SOL    HW118494   4.519   4.191   9.564  0.4271  0.2020  0.7840
 2345SOL    HW218495   4.426   4.295   9.587 -0.4327 -0.6970 -0.1673
 2346SOL     OW18496   4.175   4.526   0.886  0.3680 -0.4540 -0.2253
 2346SOL    HW118497   4.123   4.606   0.897  0.7086 -0.0374 -1.6809
 2346SOL    HW218498   4.238   4.544   0.816 -2.6336  1.8112 -2.3848
 2347SOL     OW18499   3.106   1.808   3.130  0.1380  0.0400 -0.2675
 2347SOL    HW118500   3.055   1.797   3.049 -0.9072  1.8018  0.1677
 2347SOL    HW218501   3.140   1.897   3.120 -2.1345  1.3063  3.4267
 2348SOL     OW18502   0.849   4.682  12.810  0.0685  0.1877  0.1868
 2348SOL    HW118503   0.912   4.638  12.752 -0.0166  1.3606 -0.7961
 2348SOL    HW218504   0.834   0.048  12.769  1.8322 -0.0334 -0.9266
 2349SOL     OW18505   1.205   3.303   4.848  0.4159  0.1415 -0.0020
 2349SOL    HW118506   1.179   3.334   4.762 -0.0325 -1.7784 -0.5521
 2349SOL    HW218507   1.258   3.224   4.837  1.0917  1.0416 -3.0271
 2350SOL     OW18508   2.660   4.105   4.817 -0.3106  0.7031  0.0266
 2350SOL    HW118509   2.632   4.026   4.863 -0.0930  0.3607 -0.4285
 2350SOL    HW218510   2.714   4.068   4.748  0.5762  0.6500  0.7522
 2351SOL     OW18511   1.311   3.107   8.835 -0.1609 -0.4471 -0.2057
 2351SOL    HW118512   1.325   3.148   8.921 -1.1265  0.0892 -0.3052
 2351SOL    HW218513   1.227   3.060   8.840  0.4395 -1.4802  0.2992
 2352SOL     OW18514   0.586   1.804  15.264 -0.1675  0.1790 -0.4975
 2352SOL    HW118515   0.627   1.719  15.246  0.3720  0.2726  0.3076
 2352SOL    HW218516   0.607   1.810  15.357  0.4176 -1.8380 -0.4862
 2353SOL     OW18517   4.467   2.373  10.882 -0.3846  0.9029  0.8683
 2353SOL    HW118518   4.417   2.310  10.831  1.4875  0.2652 -0.2033
 2353SOL    HW218519   4.406   2.443  10.861 -0.0869  0.5450 -1.2032
 2354SOL     OW18520   4.081   0.363   7.834 -0.2466 -0.1286 -0.0516
 2354SOL    HW118521   4.166   0.406   7.836  0.5093 -1.6704  0.7627
 2354SOL    HW218522   4.106   0.276   7.865  0.2033  0.6936  1.9209
 2355SOL     OW18523   1.335   2.614   0.737 -0.4300 -0.2745  0.1426
 2355SOL    HW118524   1.425   2.616   0.704 -0.2884  2.0582  0.6781
 2355SOL    HW218525   1.299   2.580   0.655  0.0122 -0.5995  0.0863
 2356SOL     OW18526   3.163   1.860   0.182  0.0229 -0.0035  0.9027
 2356SOL    HW118527   3.125   1.924   0.121  0.7778 -0.2778  0.1462
 2356SOL    HW218528   3.243   1.846   0.132 -0.2340 -2.8351  1.2843
 2357SOL     OW18529   0.122   1.449   7.500  0.1231 -0.6199 -0.0331
 2357SOL    HW118530   0.170   1.521   7.541  0.4254 -0.9323  0.1611
 2357SOL    HW218531   0.189   1.385   7.475  0.2728 -0.8195  0.9096
 2358SOL     OW18532   3.017   4.176  16.752  0.0627  0.0434  0.1682
 2358SOL    HW118533   3.072   4.166  16.674  0.9020  1.2546  0.6003
 2358SOL    HW218534   3.080   4.217  16.812  1.1968  2.0553 -2.3704
 2359SOL     OW18535   3.583   1.711   3.001 -0.0810 -0.5926 -0.1153
 2359SOL    HW118536   3.520   1.727   3.071 -2.2612 -1.5762 -1.8544
 2359SOL    HW218537   3.553   1.784   2.947 -0.6449 -0.5480  0.2607
 2360SOL     OW18538   1.610   3.085   3.818  0.6142  0.5469  0.3474
 2360SOL    HW118539   1.539   3.046   3.870  2.1215  0.7547  2.5468
 2360SOL    HW218540   1.680   3.019   3.826 -0.8827 -1.3254 -1.8714
 2361SOL     OW18541   3.694   2.297   8.463 -0.1163 -0.8336 -0.1319
 2361SOL    HW118542   3.732   2.218   8.503 -0.9778 -1.5799 -0.7774
 2361SOL    HW218543   3.636   2.332   8.530  1.6257  2.3271 -0.2854
 2362SOL     OW18544   4.225   2.934   5.870  0.1084 -0.5242  0.9009
 2362SOL    HW118545   4.169   2.872   5.822 -0.8819  0.3186  0.9595
 2362SOL    HW218546   4.169   3.009   5.890 -0.1207 -0.6569  0.7630
 2363SOL     OW18547   0.503   3.020  10.798 -0.2970  0.1155  0.3337
 2363SOL    HW118548   0.552   2.976  10.867  0.3104 -0.3079 -0.3681
 2363SOL    HW218549   0.561   3.025  10.722 -0.3248  0.1727  0.3165
 2364SOL     OW18550   1.190   0.358   7.839  0.6904  0.0511 -0.5373
 2364SOL    HW118551   1.154   0.401   7.916  1.1428 -1.8258  0.7385
 2364SOL    HW218552   1.231   0.277   7.870  0.2340 -1.0242 -2.7364
 2365SOL     OW18553   4.010   3.657  10.056 -0.1066 -0.0091  0.0296
 2365SOL    HW118554   3.990   3.628  10.145 -0.3302 -0.7074 -0.2521
 2365SOL    HW218555   3.928   3.706  10.056 -0.6689 -0.9400 -0.8002
 2366SOL     OW18556   2.424   0.041   4.778  0.0127  0.5450  0.2135
 2366SOL    HW118557   2.443   0.099   4.851 -1.9993  0.3261  0.8942
 2366SOL    HW218558   2.415   4.679   4.827 -0.1752 -0.7844 -1.9907
 2367SOL     OW18559   1.981   3.910  14.246  0.1934 -0.0670  0.3444
 2367SOL    HW118560   2.045   3.959  14.298  0.9820 -1.1992  0.4435
 2367SOL    HW218561   1.922   3.871  14.311  0.3071  0.0031  0.4898
 2368SOL     OW18562   3.000   0.613   6.455  0.2170 -0.5872  0.5134
 2368SOL    HW118563   3.020   0.529   6.497 -1.1898 -1.4522 -0.5425
 2368SOL    HW218564   2.907   0.606   6.479  0.5291 -2.1293  1.2862
 2369SOL     OW18565   2.795   0.527   1.250 -0.3028  0.1440 -0.1183
 2369SOL    HW118566   2.877   0.525   1.200 -0.0804  1.5071  0.2001
 2369SOL    HW218567   2.790   0.616   1.285  1.4588  1.4501 -3.1891
 2370SOL     OW18568   0.644   0.231   5.589 -0.0948  0.6840  0.0844
 2370SOL    HW118569   0.574   0.281   5.547  0.3164  1.1238 -0.0824
 2370SOL    HW218570   0.716   0.294   5.589 -0.1515  0.7507 -0.0328
 2371SOL     OW18571   3.733   1.305   2.854 -0.0810  0.3005  0.1268
 2371SOL    HW118572   3.688   1.357   2.921 -0.7788 -0.6475  0.4028
 2371SOL    HW218573   3.685   1.222   2.850 -0.4260  0.4563  0.9398
 2372SOL     OW18574   1.366   4.390   2.825 -0.3022  0.3062 -0.0756
 2372SOL    HW118575   1.344   4.312   2.876  0.9453 -0.2525 -0.3774
 2372SOL    HW218576   1.387   4.449   2.898 -0.9398 -1.6075  1.6591
 2373SOL     OW18577   3.557   2.643  13.374 -0.6301 -0.3647  0.2922
 2373SOL    HW118578   3.605   2.587  13.436 -1.3616 -1.6697 -0.3013
 2373SOL    HW218579   3.511   2.581  13.317 -1.3018 -0.3391  0.7988
 2374SOL     OW18580   4.224   1.969   6.199  0.2937  0.1301  0.2425
 2374SOL    HW118581   4.193   1.981   6.109 -0.1496  2.4347  0.6940
 2374SOL    HW218582   4.190   1.881   6.215  0.5326 -0.0355 -0.1758
 2375SOL     OW18583   3.311   1.829   2.242  0.1513  0.1180 -0.3726
 2375SOL    HW118584   3.370   1.781   2.299 -0.3940  0.0513  0.1403
 2375SOL    HW218585   3.229   1.782   2.257  0.8901 -0.5983  1.4340
 2376SOL     OW18586   3.105   0.762   3.103  0.0746  0.2721  0.3678
 2376SOL    HW118587   3.018   0.722   3.094 -0.4965  1.5171  0.4515
 2376SOL    HW218588   3.158   0.711   3.041 -4.3193 -1.1483 -2.1948
 2377SOL     OW18589   0.236   1.715   2.585  0.6439 -0.2817 -0.6179
 2377SOL    HW118590   0.148   1.727   2.549  0.6265 -0.8845 -0.7684
 2377SOL    HW218591   0.242   1.621   2.600 -2.0282 -0.6353 -1.6854
 2378SOL     OW18592   3.267   1.975   6.113  0.5340 -0.3138 -0.1262
 2378SOL    HW118593   3.216   1.898   6.087 -0.6991  0.3636  0.3054
 2378SOL    HW218594   3.234   1.981   6.202  0.3497 -3.1253 -0.0060
 2379SOL     OW18595   3.955   1.747  16.693 -0.4080 -0.2873  0.4553
 2379SOL    HW118596   3.887   1.756  16.760 -0.9296  0.4688 -0.1772
 2379SOL    HW218597   3.911   1.700  16.622  1.3353 -0.7885 -0.2929
 2380SOL     OW18598   3.437   0.966   5.005 -0.0730  0.3412  0.0809
 2380SOL    HW118599   3.346   0.946   4.980  0.6068 -1.6429 -0.8042
 2380SOL    HW218600   3.489   0.940   4.929 -0.6828  2.0588 -0.9246
 2381SOL     OW18601   1.106   0.567   7.314 -0.4155 -0.4502  0.1446
 2381SOL    HW118602   1.120   0.614   7.232 -0.1487 -0.2872  0.2819
 2381SOL    HW218603   1.157   0.487   7.303  0.2033 -0.0976  0.4643
 2382SOL     OW18604   3.596   3.377  15.875  0.2513 -0.1321 -0.1898
 2382SOL    HW118605   3.651   3.411  15.946 -0.8449  0.0421  0.5652
 2382SOL    HW218606   3.546   3.454  15.848 -1.0317 -0.5656  0.9487
 2383SOL     OW18607   3.280   2.995   1.971 -0.0828 -0.4918  0.0411
 2383SOL    HW118608   3.214   2.958   2.029  1.6315 -1.7367  1.1743
 2383SOL    HW218609   3.219   2.991   1.898 -1.8596 -2.3140  1.6322
 2384SOL     OW18610   1.248   0.068   7.716  0.2064 -0.0179 -0.0084
 2384SOL    HW118611   1.171   0.021   7.747  0.6289 -1.7848 -1.5637
 2384SOL    HW218612   1.307   0.055   7.790  1.3175 -0.3627 -0.9563
 2385SOL     OW18613   0.431   2.755  11.413 -0.0314  0.1416  0.1954
 2385SOL    HW118614   0.447   2.703  11.335 -2.8231 -0.0737 -0.2194
 2385SOL    HW218615   0.510   2.733  11.464  0.2998  1.6981  0.3670
 2386SOL     OW18616   3.014   4.256   9.970  0.0836  0.1286  0.0040
 2386SOL    HW118617   3.103   4.271   9.938  1.4481 -0.3654  3.6111
 2386SOL    HW218618   3.031   4.220  10.057 -2.2124  0.3077  0.5390
 2387SOL     OW18619   2.175   2.628  13.531 -0.4021 -0.2232  0.4054
 2387SOL    HW118620   2.166   2.534  13.547  0.9968 -0.7275 -1.7602
 2387SOL    HW218621   2.114   2.633  13.458  1.8409  1.6718 -1.3616
 2388SOL     OW18622   2.051   0.821   7.619 -0.2306  0.1282  0.1950
 2388SOL    HW118623   1.974   0.794   7.568 -0.6129  0.8950  0.3701
 2388SOL    HW218624   2.123   0.811   7.557 -0.7104 -1.6839 -0.0500
 2389SOL     OW18625   4.445   2.660  10.000 -0.5367  0.5065 -0.1613
 2389SOL    HW118626   4.416   2.675  10.090 -0.2901  1.7059 -0.2827
 2389SOL    HW218627   4.369   2.616   9.962 -0.6404 -0.4491  1.1423
 2390SOL     OW18628   3.857   3.619   8.184  0.5911 -0.3393 -0.0193
 2390SOL    HW118629   3.816   3.647   8.266 -0.4288  0.2820 -0.7401
 2390SOL    HW218630   3.779   3.584   8.140 -0.3185 -0.9548  2.1108
 2391SOL     OW18631   0.983   3.183   6.657 -0.0347 -0.5580 -0.1149
 2391SOL    HW118632   1.069   3.222   6.640 -0.8308  0.0962 -2.5902
 2391SOL    HW218633   0.927   3.260   6.658 -1.2394 -1.4426 -0.2864
 2392SOL     OW18634   1.768   0.673   3.018  0.3247  0.2537  0.4530
 2392SOL    HW118635   1.819   0.724   2.955 -1.1431 -0.5825 -1.4025
 2392SOL    HW218636   1.804   0.730   3.086  0.2678  0.0318  0.6702
 2393SOL     OW18637   0.175   2.441   3.252 -0.2279  0.7495 -0.0802
 2393SOL    HW118638   0.198   2.354   3.286 -0.8446  0.8742  0.6616
 2393SOL    HW218639   0.155   2.399   3.168  0.2104  2.3668 -0.9987
 2394SOL     OW18640   4.182   4.378  15.795 -0.7481  0.1001  0.0535
 2394SOL    HW118641   4.135   4.305  15.755  0.5276 -1.4187  1.3330
 2394SOL    HW218642   4.192   4.442  15.725 -0.5949  1.3631  1.2097
 2395SOL     OW18643   1.299   1.679   8.110  0.1392 -0.3047 -0.0455
 2395SOL    HW118644   1.260   1.754   8.156 -1.0432 -1.3750  0.6875
 2395SOL    HW218645   1.239   1.612   8.141  0.4989 -2.2530 -3.5347
 2396SOL     OW18646   3.668   3.493   7.641  1.2081 -0.2035  0.0360
 2396SOL    HW118647   3.696   3.461   7.555 -3.2192 -0.9399 -1.1398
 2396SOL    HW218648   3.574   3.480   7.631  1.4549  0.0464 -2.5042
 2397SOL     OW18649   3.981   1.681   0.254  0.3880 -0.1438 -0.0370
 2397SOL    HW118650   3.902   1.735   0.260  1.6953  1.9479 -1.7323
 2397SOL    HW218651   3.938   1.596   0.248  0.5838 -0.5530  4.2396
 2398SOL     OW18652   0.093   0.038  17.367  0.0668  0.0604  0.1955
 2398SOL    HW118653   0.096   0.005  17.278 -0.9225 -0.5750  0.3942
 2398SOL    HW218654   0.007   0.081  17.365  0.5800  1.1717  1.4501
 2399SOL     OW18655   2.798   2.634  14.576 -0.1032 -0.7171 -0.0128
 2399SOL    HW118656   2.755   2.603  14.495 -0.7576  1.4200 -0.4821
 2399SOL    HW218657   2.786   2.729  14.571 -0.9858 -0.6830  2.7042
 2400SOL     OW18658   2.744   0.463   4.458 -0.1543  0.4415  0.5021
 2400SOL    HW118659   2.709   0.396   4.399 -1.0028 -0.6679  2.2619
 2400SOL    HW218660   2.723   0.530   4.393 -0.9255 -2.5251 -2.3114
 2401SOL     OW18661   2.540   1.033   2.913  0.0355 -0.3569 -0.1462
 2401SOL    HW118662   2.469   1.055   2.853 -1.3572 -1.6005  1.0268
 2401SOL    HW218663   2.492   1.039   2.996  2.1558 -1.2574  1.1423
 2402SOL     OW18664   0.471   2.825   8.140  0.5327  0.4042  0.0824
 2402SOL    HW118665   0.384   2.786   8.151  1.3770 -1.3643  0.5663
 2402SOL    HW218666   0.494   2.772   8.063  1.4674  1.1261 -0.1296
 2403SOL     OW18667   1.904   1.821   2.336  0.0167  0.2048  0.3282
 2403SOL    HW118668   1.809   1.820   2.344  0.0596  1.2121  1.0210
 2403SOL    HW218669   1.933   1.913   2.343 -1.5842  0.5959  1.8402
 2404SOL     OW18670   0.411   1.714  16.770  0.3255  1.1216 -0.0416
 2404SOL    HW118671   0.450   1.628  16.783 -4.0997 -0.7550  0.6760
 2404SOL    HW218672   0.478   1.756  16.716 -0.4223 -0.8959 -2.5276
 2405SOL     OW18673   4.413   4.262   0.310  0.5384  0.0786 -0.1130
 2405SOL    HW118674   4.340   4.277   0.370  0.9623 -2.7799  1.1081
 2405SOL    HW218675   4.471   4.199   0.352  1.3275  0.4579 -0.6393
 2406SOL     OW18676   3.890   1.897   9.384 -0.0953 -0.1670 -0.1113
 2406SOL    HW118677   3.923   1.985   9.367 -2.9190  1.1188  1.0593
 2406SOL    HW218678   3.870   1.904   9.477 -0.0304  2.0728 -0.2563
 2407SOL     OW18679   2.061   1.633   7.430  0.5438 -0.0348 -0.0576
 2407SOL    HW118680   2.133   1.575   7.457  1.7264  2.6490  2.5911
 2407SOL    HW218681   1.990   1.572   7.410 -1.0044  1.7634  0.0353
 2408SOL     OW18682   1.197   2.549   2.162  0.6375  0.2113 -0.1491
 2408SOL    HW118683   1.184   2.579   2.072  0.7020 -0.5229 -0.4017
 2408SOL    HW218684   1.286   2.584   2.173  1.0129 -1.1031  0.9919
 2409SOL     OW18685   2.746   1.484   3.114 -0.5072 -0.3226 -0.1790
 2409SOL    HW118686   2.755   1.426   3.038  2.3343 -1.6369  1.1635
 2409SOL    HW218687   2.687   1.556   3.092  1.3524  1.5743  1.0427
 2410SOL     OW18688   2.692   2.832   6.688 -0.4587 -0.4889 -0.3610
 2410SOL    HW118689   2.611   2.849   6.736 -1.2332 -1.5691 -1.2523
 2410SOL    HW218690   2.745   2.802   6.761 -1.7524  0.0786  0.8074
 2411SOL     OW18691   1.614   3.050   5.449  0.0301 -0.0128 -0.4616
 2411SOL    HW118692   1.557   2.976   5.426  1.1356 -0.7038 -0.9451
 2411SOL    HW218693   1.683   3.030   5.386  1.6704  1.2452  0.9419
 2412SOL     OW18694   1.040   1.258   4.301 -0.5218  0.3519  0.1363
 2412SOL    HW118695   1.021   1.262   4.395 -0.6815 -1.2882  0.1891
 2412SOL    HW218696   1.115   1.198   4.304  0.5405  1.7354  1.5198
 2413SOL     OW18697   0.308   2.899   9.068  0.5009 -0.2992 -0.0321
 2413SOL    HW118698   0.305   2.818   9.118 -1.1325 -0.9925 -1.2749
 2413SOL    HW218699   0.349   2.869   8.987  1.6545  1.1742 -0.0100
 2414SOL     OW18700   0.177   0.929   7.783 -0.2914 -0.0203  0.2367
 2414SOL    HW118701   0.264   0.946   7.818 -0.4110 -0.8076  0.9289
 2414SOL    HW218702   0.194   0.958   7.693 -0.2495  1.0032  0.5697
 2415SOL     OW18703   0.064   4.036  13.605 -0.1140  0.7098  0.2425
 2415SOL    HW118704   4.711   3.988  13.565 -1.7541  0.8066  3.0409
 2415SOL    HW218705   0.111   4.056  13.525 -0.6969  1.0502 -0.0167
 2416SOL     OW18706   0.041   4.576   7.846 -0.5804  0.0544  0.4857
 2416SOL    HW118707   4.665   4.577   7.854 -0.6986 -1.4098 -0.7193
 2416SOL    HW218708   0.063   4.657   7.893 -2.9609 -0.4607  2.5460
 2417SOL     OW18709   3.794   2.991   9.375 -0.0423 -0.4309  0.0005
 2417SOL    HW118710   3.784   3.056   9.444 -3.4507 -0.5090 -0.4277
 2417SOL    HW218711   3.888   2.971   9.368  0.1088  0.3084 -0.0338
 2418SOL     OW18712   0.912   1.858   6.907 -0.1223 -0.0960  0.4720
 2418SOL    HW118713   0.856   1.798   6.859 -0.3342 -0.3755  1.0660
 2418SOL    HW218714   0.995   1.868   6.861  0.7501 -1.5570  1.7172
 2419SOL     OW18715   2.542   1.453   1.870  0.1657 -0.4526 -0.1276
 2419SOL    HW118716   2.601   1.412   1.934  0.0274  0.2351  0.4357
 2419SOL    HW218717   2.459   1.450   1.918  0.4730  1.4215  0.5271
 2420SOL     OW18718   0.991   3.924   4.587  0.1715  0.0112 -0.1569
 2420SOL    HW118719   0.985   3.920   4.682 -1.5210  2.7094 -0.1387
 2420SOL    HW218720   0.940   4.001   4.563  0.0539 -0.1774 -0.5283
 2421SOL     OW18721   3.801   2.647   2.172 -0.1121  0.3234  0.1484
 2421SOL    HW118722   3.747   2.721   2.142  1.3239  2.0986  1.9704
 2421SOL    HW218723   3.815   2.679   2.261 -3.2563 -1.6724  1.3447
 2422SOL     OW18724   2.898   0.686  13.763 -0.0264 -0.3362  0.2659
 2422SOL    HW118725   2.953   0.627  13.712  1.3133  0.1341  1.1443
 2422SOL    HW218726   2.905   0.649  13.851  2.7573 -1.6679 -0.5254
 2423SOL     OW18727   0.193   2.712   5.381 -0.2951 -0.5731 -0.1911
 2423SOL    HW118728   0.123   2.678   5.437 -1.2066 -0.4864 -1.2821
 2423SOL    HW218729   0.176   2.657   5.305  0.7502 -1.2440  0.0718
 2424SOL     OW18730   3.289   0.311   7.760 -0.2011  0.1609 -0.1565
 2424SOL    HW118731   3.232   0.305   7.683  0.4896  0.8062 -0.7247
 2424SOL    HW218732   3.339   0.229   7.749 -0.8105 -0.4687  1.7775
 2425SOL     OW18733   2.720   2.235   0.097 -0.3695  0.3120  0.5623
 2425SOL    HW118734   2.795   2.217   0.041 -0.7917  0.4556 -0.0474
 2425SOL    HW218735   2.730   2.176   0.171  2.1590  1.4637  1.1530
 2426SOL     OW18736   1.076   2.749  15.161 -0.4887  0.3120  0.5119
 2426SOL    HW118737   1.018   2.731  15.235  1.5568 -0.5921  1.9018
 2426SOL    HW218738   1.037   2.710  15.083  0.8663 -1.8630  0.9286
 2427SOL     OW18739   4.395   2.114   3.393  0.5596  0.1106  0.2058
 2427SOL    HW118740   4.321   2.123   3.452 -0.6906  0.6113 -1.4276
 2427SOL    HW218741   4.392   2.018   3.385  1.4056  0.2130 -1.4066
 2428SOL     OW18742   3.607   2.172   6.936 -0.6233  0.2625  0.4314
 2428SOL    HW118743   3.543   2.221   6.885  2.1877 -1.0036 -4.3287
 2428SOL    HW218744   3.687   2.213   6.902 -1.4614 -0.7512 -2.7614
 2429SOL     OW18745   0.734   3.083  12.295  0.1736 -0.3537 -0.0750
 2429SOL    HW118746   0.645   3.048  12.290  0.6697 -1.9740  2.1953
 2429SOL    HW218747   0.721   3.145  12.223  3.0600 -1.0528 -1.2002
 2430SOL     OW18748   2.421   2.809   5.642  0.2144  0.2683  0.2570
 2430SOL    HW118749   2.467   2.810   5.559 -0.5646  1.1781 -0.1625
 2430SOL    HW218750   2.345   2.867   5.637 -0.1981 -0.1914  1.0669
 2431SOL     OW18751   4.224   0.632   1.991  1.0689  0.1061  0.5579
 2431SOL    HW118752   4.207   0.670   1.905 -2.4707  0.7937  1.5414
 2431SOL    HW218753   4.319   0.641   1.988  1.2705 -3.1181 -2.6909
 2432SOL     OW18754   1.003   3.268   1.276 -0.2016 -0.4076  0.0381
 2432SOL    HW118755   1.052   3.193   1.310  1.0742  0.9811  1.2530
 2432SOL    HW218756   0.917   3.233   1.255  0.6654 -1.4661 -1.7639
 2433SOL     OW18757   0.167   0.094  10.289  0.4378 -0.4624 -0.2126
 2433SOL    HW118758   0.188   0.167  10.347  0.5790 -0.5680 -0.1300
 2433SOL    HW218759   0.092   0.125  10.238 -0.0926 -0.5980  0.4725
 2434SOL     OW18760   2.094   0.517   8.809 -0.4004  0.0029 -0.1188
 2434SOL    HW118761   2.165   0.488   8.752 -0.1230 -0.3240  0.3895
 2434SOL    HW218762   2.121   0.483   8.894 -0.7180 -1.9835 -0.8153
 2435SOL     OW18763   2.861   3.586   8.094  0.0651  0.2709  0.7295
 2435SOL    HW118764   2.870   3.589   8.190 -2.3827 -2.1204  1.0256
 2435SOL    HW218765   2.776   3.543   8.087 -0.2448  1.0659 -0.2321
 2436SOL     OW18766   3.888   0.189   2.073 -0.2137  0.0455  0.3959
 2436SOL    HW118767   3.931   0.104   2.081  0.1096  0.3996  2.4297
 2436SOL    HW218768   3.811   0.187   2.131 -1.1157 -0.0160 -0.8153
 2437SOL     OW18769   1.449   4.202  11.553  0.4481  0.2330 -0.6625
 2437SOL    HW118770   1.432   4.294  11.533 -0.2773  0.5062  1.1934
 2437SOL    HW218771   1.365   4.165  11.582  0.1021 -0.0961 -2.1175
 2438SOL     OW18772   0.278   2.701   8.544 -0.5123  0.4964 -0.2768
 2438SOL    HW118773   0.318   2.773   8.592  0.3823  0.9291 -1.6727
 2438SOL    HW218774   0.358   2.666   8.503  0.0587 -0.1851  1.4320
 2439SOL     OW18775   3.798   2.607   9.770 -0.1248  0.3043 -0.4196
 2439SOL    HW118776   3.880   2.630   9.813 -1.1407 -0.4037  1.8509
 2439SOL    HW218777   3.779   2.682   9.713 -0.3742 -0.0150 -0.7607
 2440SOL     OW18778   4.558   3.679   7.208 -0.2159  0.0031 -0.7882
 2440SOL    HW118779   4.462   3.676   7.204 -0.3118  2.2968 -0.5031
 2440SOL    HW218780   4.575   3.720   7.293 -1.8379  1.6145 -1.2407
 2441SOL     OW18781   1.627   4.465   9.067  0.8213  0.1929 -0.3815
 2441SOL    HW118782   1.598   4.468   9.158  0.1932  0.0142 -0.5754
 2441SOL    HW218783   1.668   4.379   9.056 -0.1576 -0.5286  1.6971
 2442SOL     OW18784   1.929   4.388  16.577  0.3609  0.0765  0.4399
 2442SOL    HW118785   2.006   4.357  16.529  1.1286 -0.6645  2.1748
 2442SOL    HW218786   1.928   4.315  16.639  1.5455  0.2341  0.6548
 2443SOL     OW18787   0.144   3.726  12.121 -0.2979  0.0724 -0.0514
 2443SOL    HW118788   0.240   3.727  12.123 -0.2195 -1.0821 -2.5811
 2443SOL    HW218789   0.120   3.637  12.095  0.6447 -1.3683  4.0215
 2444SOL     OW18790   3.037   1.491  13.922  0.1010  0.0120  0.5175
 2444SOL    HW118791   3.024   1.460  13.832 -0.0915  0.2512  0.4636
 2444SOL    HW218792   3.075   1.414  13.965 -0.8346  0.3070  1.8763
 2445SOL     OW18793   3.258   1.629   9.030 -0.9024  0.0450  0.2174
 2445SOL    HW118794   3.282   1.557   9.089  1.5277 -1.6183 -2.7473
 2445SOL    HW218795   3.213   1.581   8.960  0.3614 -0.6841 -0.1112
 2446SOL     OW18796   1.565   0.032   8.713  0.0786  0.0478 -0.2481
 2446SOL    HW118797   1.503   0.096   8.747 -2.3942 -1.7008 -1.3978
 2446SOL    HW218798   1.645   0.083   8.720  0.4987 -0.7746  1.1375
 2447SOL     OW18799   0.079   0.313   8.642 -0.2563  0.3084 -0.1310
 2447SOL    HW118800   0.045   0.399   8.618  0.7173  0.0105 -2.5208
 2447SOL    HW218801   0.030   0.305   8.724  0.5018  1.3820  0.4359
 2448SOL     OW18802   1.460   2.693   7.710  0.5667 -0.4573  0.1869
 2448SOL    HW118803   1.523   2.627   7.681 -1.0289 -2.3258  0.9513
 2448SOL    HW218804   1.386   2.632   7.717  0.5820 -0.0924  3.1899
 2449SOL     OW18805   1.432   3.877   5.953  0.3317  0.3066  0.2172
 2449SOL    HW118806   1.398   3.855   5.867  0.7775 -0.8501  0.3472
 2449SOL    HW218807   1.526   3.879   5.935  0.1566 -1.5213 -0.8057
 2450SOL     OW18808   0.856   4.020   3.373 -0.2654  1.1780  0.2181
 2450SOL    HW118809   0.946   4.002   3.346 -0.5071  0.2301  0.0387
 2450SOL    HW218810   0.874   4.017   3.467 -0.0201  0.4163  0.1458
 2451SOL     OW18811   0.914   1.938  16.194 -0.0436 -0.2473  0.0511
 2451SOL    HW118812   0.954   1.883  16.262  0.1390 -2.1725 -1.6170
 2451SOL    HW218813   0.925   2.026  16.231  0.0962 -0.6482  0.9802
 2452SOL     OW18814   1.746   1.509   2.974 -0.0459 -0.3853 -0.5880
 2452SOL    HW118815   1.737   1.594   2.930  2.4508  0.4867  0.5479
 2452SOL    HW218816   1.762   1.454   2.897 -2.2663  0.6064 -1.7399
 2453SOL     OW18817   2.795   1.393  10.195  0.5346 -0.0213  0.6684
 2453SOL    HW118818   2.780   1.474  10.145  0.7931  0.4202  1.3139
 2453SOL    HW218819   2.707   1.372  10.225 -0.1165  2.2492  0.3978
 2454SOL     OW18820   2.565   1.948  16.132  0.6649  0.0551  0.2882
 2454SOL    HW118821   2.520   1.980  16.054  2.3797 -2.6360 -1.8014
 2454SOL    HW218822   2.503   1.887  16.171 -0.6069 -0.1670 -2.1076
 2455SOL     OW18823   4.657   3.061   0.572 -0.3351 -0.0360 -0.2017
 2455SOL    HW118824   4.565   3.066   0.546 -0.7148 -3.9522  0.4582
 2455SOL    HW218825   4.678   2.975   0.535 -0.0949  0.8151 -2.0532
 2456SOL     OW18826   0.690   0.048   1.550 -0.4315  0.1478  0.0023
 2456SOL    HW118827   0.611   4.712   1.547 -0.1110 -0.4034  1.7219
 2456SOL    HW218828   0.749   4.712   1.601 -0.8369 -0.1563  0.1486
 2457SOL     OW18829   4.319   0.326   5.281  0.2844  0.2394 -1.1068
 2457SOL    HW118830   4.273   0.309   5.363 -1.4811  1.2066 -1.8750
 2457SOL    HW218831   4.404   0.351   5.316 -1.2257  0.7321  2.1756
 2458SOL     OW18832   0.138   1.983  17.513 -0.2988  0.0849 -0.4281
 2458SOL    HW118833   0.195   1.922  17.465  1.3078  0.3467  1.1369
 2458SOL    HW218834   0.115   1.927  17.586 -1.3499 -0.2698 -1.0375
 2459SOL     OW18835   0.220   1.567  14.751 -0.0063 -0.4693 -0.3340
 2459SOL    HW118836   0.160   1.519  14.695  2.3196 -1.7640 -1.7204
 2459SOL    HW218837   0.197   1.535  14.838  0.5521  0.1640  0.0501
 2460SOL     OW18838   1.308   2.130   5.344 -0.6828 -0.2687  0.4262
 2460SOL    HW118839   1.230   2.089   5.307 -0.9236 -0.3589  1.0444
 2460SOL    HW218840   1.333   2.057   5.401 -1.3748  0.9215  2.2574
 2461SOL     OW18841   3.745   3.871  13.917 -0.3550 -0.6153  0.0834
 2461SOL    HW118842   3.706   3.950  13.955 -1.5909 -1.5276  0.7339
 2461SOL    HW218843   3.839   3.879  13.931  0.0823 -0.3251 -3.1963
 2462SOL     OW18844   3.219   1.879  17.472 -0.3071  0.4425  0.4317
 2462SOL    HW118845   3.170   1.921  17.542 -2.6588 -1.9141  0.2228
 2462SOL    HW218846   3.245   1.800  17.519 -0.9166  0.2831  0.5035
 2463SOL     OW18847   3.992   0.481   9.241  0.5112 -0.5898  0.5967
 2463SOL    HW118848   3.996   0.390   9.270  1.0250 -1.1994 -1.3461
 2463SOL    HW218849   4.086   0.489   9.227  0.1126  5.1512  1.3724
 2464SOL     OW18850   2.687   3.728  16.567 -0.2773 -0.1607  0.4639
 2464SOL    HW118851   2.678   3.698  16.477  1.1353 -1.0286  0.6120
 2464SOL    HW218852   2.749   3.657  16.586 -0.2481  0.1660  1.6143
 2465SOL     OW18853   0.988   4.082   7.044 -0.5240 -0.6512  0.2626
 2465SOL    HW118854   0.900   4.116   7.024  0.1000  0.4033 -0.6790
 2465SOL    HW218855   1.034   4.160   7.074 -0.3959 -1.1788  1.4734
 2466SOL     OW18856   1.407   4.007   1.954 -0.2252  0.8037  0.0317
 2466SOL    HW118857   1.338   4.065   1.921  0.3684  1.8743  0.6973
 2466SOL    HW218858   1.470   4.016   1.883 -0.1915  1.0057  0.0866
 2467SOL     OW18859   3.188   0.834  16.956 -0.2902 -0.1123 -0.3090
 2467SOL    HW118860   3.139   0.842  16.874 -0.1421  1.7363 -0.2263
 2467SOL    HW218861   3.172   0.920  16.995 -1.7413 -1.0962  1.2539
 2468SOL     OW18862   4.078   4.577   6.588  0.3894 -0.0254  0.2504
 2468SOL    HW118863   4.114   4.664   6.567 -1.9056  0.9520  0.3213
 2468SOL    HW218864   4.142   4.514   6.557  0.9569  0.7558 -0.1848
 2469SOL     OW18865   0.643   3.225  12.083 -0.0853 -0.4609  0.3558
 2469SOL    HW118866   0.575   3.162  12.057 -1.4980  0.9280  0.6831
 2469SOL    HW218867   0.700   3.238  12.007 -1.3160  1.5511 -0.2386
 2470SOL     OW18868   1.070   2.768  11.474  0.2329  0.8160  0.2530
 2470SOL    HW118869   0.999   2.820  11.512 -3.0544 -4.1589  0.8646
 2470SOL    HW218870   1.143   2.778  11.535  0.4241 -0.3267  0.2099
 2471SOL     OW18871   2.356   1.783  11.631 -0.2147 -0.2613  0.2006
 2471SOL    HW118872   2.447   1.756  11.642  0.4181  1.0911 -1.5829
 2471SOL    HW218873   2.327   1.793  11.722 -0.7980 -1.1679  0.1164
 2472SOL     OW18874   0.220   3.138   7.170  0.0624 -0.0753 -0.0947
 2472SOL    HW118875   0.177   3.219   7.198  2.0915  0.6859  0.8252
 2472SOL    HW218876   0.296   3.129   7.228  1.7652  0.4882 -2.2243
 2473SOL     OW18877   0.986   2.889   1.006  0.0550  0.0401  0.0480
 2473SOL    HW118878   1.048   2.820   0.981 -1.0537 -0.0577 -2.4297
 2473SOL    HW218879   0.959   2.864   1.094  0.6698  1.1512  0.5472
 2474SOL     OW18880   3.694   1.211  12.489  0.3774 -0.1966  0.2742
 2474SOL    HW118881   3.651   1.159  12.557 -0.4229  2.2001  1.5837
 2474SOL    HW218882   3.618   1.267  12.469  0.3783  0.0120  0.8599
 2475SOL     OW18883   0.975   0.867   0.603 -0.3724 -0.6116 -0.1357
 2475SOL    HW118884   0.888   0.883   0.568 -0.8126  2.6230  2.4476
 2475SOL    HW218885   1.013   0.953   0.622  0.4072 -0.8253 -0.7127
 2476SOL     OW18886   4.641   0.362   5.921 -0.5604 -0.5592  0.0575
 2476SOL    HW118887   4.684   0.329   5.841 -0.8320 -1.3662  0.2459
 2476SOL    HW218888   4.601   0.447   5.902 -0.4025 -0.4049  0.4194
 2477SOL     OW18889   3.205   1.916  13.059 -0.2871  0.3012 -0.2514
 2477SOL    HW118890   3.274   1.981  13.053  2.7924 -3.1152 -1.6973
 2477SOL    HW218891   3.133   1.977  13.043 -0.3145  0.2944 -0.1559
 2478SOL     OW18892   0.810   1.684   6.687  0.2761 -0.0314  0.3226
 2478SOL    HW118893   0.899   1.653   6.673  1.9320  4.0584  1.6551
 2478SOL    HW218894   0.793   1.714   6.597  0.7113 -1.2177 -0.1445
 2479SOL     OW18895   3.409   2.699   6.596 -0.3950 -0.1226 -0.3190
 2479SOL    HW118896   3.444   2.758   6.530 -0.2820  0.7093  0.4841
 2479SOL    HW218897   3.427   2.615   6.555 -1.5952 -0.6529  0.2375
 2480SOL     OW18898   3.342   3.722   7.465  0.2771 -0.3970  0.1099
 2480SOL    HW118899   3.407   3.787   7.491 -0.9438  0.7373  0.2846
 2480SOL    HW218900   3.305   3.753   7.383 -2.1727 -1.6649  0.7114
 2481SOL     OW18901   1.585   3.336   2.668 -0.2134 -0.3239 -0.2619
 2481SOL    HW118902   1.549   3.268   2.724  1.9706 -2.4399 -1.4026
 2481SOL    HW218903   1.665   3.291   2.638  0.8830  1.8294 -0.5670
 2482SOL     OW18904   3.477   1.190   0.520  0.0045 -0.9094 -0.3724
 2482SOL    HW118905   3.539   1.217   0.588 -0.6608 -0.8311  0.2031
 2482SOL    HW218906   3.515   1.108   0.490  2.3230 -0.5183  1.4310
 2483SOL     OW18907   1.326   4.261  12.983 -0.7696  0.2136  0.2602
 2483SOL    HW118908   1.290   4.198  12.920  0.3709 -3.6428  3.4653
 2483SOL    HW218909   1.326   4.208  13.063  1.2034  1.2358  0.9355
 2484SOL     OW18910   3.444   3.611   2.578 -0.5190 -0.0648 -0.5875
 2484SOL    HW118911   3.368   3.562   2.547 -0.0183 -0.7148 -0.7867
 2484SOL    HW218912   3.422   3.636   2.668  1.6046 -2.1607  0.5290
 2485SOL     OW18913   1.637   3.656   3.845  0.1072 -0.4225  0.4467
 2485SOL    HW118914   1.578   3.644   3.919  0.9917 -1.1296  1.0406
 2485SOL    HW218915   1.582   3.656   3.767 -1.0915 -0.0832  1.2994
 2486SOL     OW18916   1.100   4.328   0.831  0.7673  0.8591 -0.0002
 2486SOL    HW118917   1.118   4.313   0.924  0.4714  1.9577  0.2337
 2486SOL    HW218918   1.040   4.403   0.829  0.8784  0.9310 -0.5330
 2487SOL     OW18919   2.762   0.938   3.763 -0.1773 -0.7921  0.2366
 2487SOL    HW118920   2.774   0.876   3.691 -2.6872 -0.1871 -0.6858
 2487SOL    HW218921   2.836   0.912   3.818  1.6968 -1.6625 -2.6828
 2488SOL     OW18922   2.867   2.625   7.807 -0.2081 -0.2299  0.4150
 2488SOL    HW118923   2.781   2.642   7.847  0.6842 -1.2920  2.7270
 2488SOL    HW218924   2.920   2.702   7.827 -0.7983  0.1323  0.5891
 2489SOL     OW18925   4.146   3.723   5.729  0.3566 -0.2908  0.4811
 2489SOL    HW118926   4.204   3.772   5.670  0.1207  0.0817  0.5607
 2489SOL    HW218927   4.112   3.666   5.661  0.9434  0.1983 -0.2164
 2490SOL     OW18928   0.790   3.918   2.943  0.2565  0.2521  0.2736
 2490SOL    HW118929   0.872   3.940   2.987 -0.1676  2.8355 -0.2304
 2490SOL    HW218930   0.821   3.857   2.876  2.2776  0.2572  1.2204
 2491SOL     OW18931   0.658   3.443  14.181 -0.7961  0.4559 -0.0470
 2491SOL    HW118932   0.710   3.430  14.102 -0.3385  0.7832  0.2036
 2491SOL    HW218933   0.616   3.357  14.181  0.8435 -0.3429 -0.9329
 2492SOL     OW18934   1.199   2.121   4.125 -0.0985  0.0850 -0.0605
 2492SOL    HW118935   1.201   2.111   4.030 -2.7928  0.5212 -0.1718
 2492SOL    HW218936   1.291   2.146   4.136 -0.1850  0.5373 -0.3526
 2493SOL     OW18937   4.174   2.801   9.621 -0.0332  0.5887 -0.7175
 2493SOL    HW118938   4.082   2.793   9.598  0.3438 -2.8497 -1.0567
 2493SOL    HW218939   4.210   2.714   9.603  0.6754  1.0146 -1.2973
 2494SOL     OW18940   1.794   1.783   0.849 -0.6397 -0.0285  0.0232
 2494SOL    HW118941   1.770   1.747   0.935 -0.4928 -0.5031 -0.1372
 2494SOL    HW218942   1.711   1.818   0.817  0.5391  0.9606 -1.9459
 2495SOL     OW18943   0.704   0.437  12.022 -0.5308  0.4358 -0.1394
 2495SOL    HW118944   0.748   0.352  12.027 -2.7603 -0.8394 -2.5054
 2495SOL    HW218945   0.617   0.417  11.988 -0.7030 -0.0585  0.5800
 2496SOL     OW18946   0.816   0.303   3.299  0.2473  0.5038 -0.4332
 2496SOL    HW118947   0.815   0.241   3.372  0.9591  0.2741 -0.6166
 2496SOL    HW218948   0.779   0.382   3.339 -1.0853  0.1538 -0.9693
 2497SOL     OW18949   1.854   1.103  13.706  0.5834 -0.0040  0.5996
 2497SOL    HW118950   1.795   1.080  13.634  1.4464  0.6628 -0.3405
 2497SOL    HW218951   1.824   1.187  13.740 -1.3699  0.0549 -1.3161
 2498SOL     OW18952   2.400   0.611   7.360 -0.0123 -0.0733  0.2157
 2498SOL    HW118953   2.327   0.672   7.353 -1.2430 -1.6694 -0.9063
 2498SOL    HW218954   2.421   0.612   7.453 -0.4140 -3.3263  0.3328
 2499SOL     OW18955   0.012   1.059  17.622  0.3754  0.3540  0.0502
 2499SOL    HW118956   4.663   1.049   0.010 -0.2434 -0.5120 -0.7073
 2499SOL    HW218957   4.714   1.137  17.569  2.4786 -0.6474 -2.0739
 2500SOL     OW18958   3.691   3.135   9.631  0.1367 -0.1373 -0.4088
 2500SOL    HW118959   3.602   3.130   9.666  0.8197  0.5422  1.4075
 2500SOL    HW218960   3.728   3.063   9.683  0.5944 -0.2840 -0.9419
 2501SOL     OW18961   2.387   3.145   4.460  0.1565 -0.1956 -0.2503
 2501SOL    HW118962   2.414   3.071   4.515  1.1078  0.4715  0.1737
 2501SOL    HW218963   2.462   3.200   4.484 -1.0837  2.2839 -2.1960
 2502SOL     OW18964   0.973   2.742   3.052  0.0454  0.0704 -0.3400
 2502SOL    HW118965   1.019   2.780   3.127  2.4867  0.9160 -2.2729
 2502SOL    HW218966   0.900   2.710   3.105 -0.7911  0.8422 -1.0290
 2503SOL     OW18967   0.103   2.707  17.465 -0.0612  0.3661  0.2593
 2503SOL    HW118968   0.011   2.714  17.442  1.0162  1.7175 -3.5420
 2503SOL    HW218969   0.089   2.627  17.515 -2.6164  2.1282  2.3304
 2504SOL     OW18970   4.345   3.254   3.735  0.6457  0.3909  0.3183
 2504SOL    HW118971   4.415   3.318   3.742 -0.4212  1.6962 -1.0762
 2504SOL    HW218972   4.345   3.211   3.821  1.1871  1.5790  0.9083
 2505SOL     OW18973   1.899   4.526   3.009 -0.5640  0.3476  0.1600
 2505SOL    HW118974   1.821   4.486   2.970 -1.0689  1.3763  0.1108
 2505SOL    HW218975   1.962   4.454   3.016 -0.2128  0.5552 -0.8416
 2506SOL     OW18976   3.210   2.329   2.091 -0.4748 -0.1281  0.6772
 2506SOL    HW118977   3.191   2.235   2.086  1.0446 -0.3862 -0.1790
 2506SOL    HW218978   3.140   2.372   2.042  1.0300  1.5819  0.0342
 2507SOL     OW18979   1.082   2.914   6.555  0.5050 -0.7294  0.1669
 2507SOL    HW118980   1.026   2.991   6.554  1.1780 -0.2533 -0.2575
 2507SOL    HW218981   1.015   2.856   6.592  2.3019 -2.3458  0.8776
 2508SOL     OW18982   4.420   3.733   2.449 -0.3671  0.3388 -0.0563
 2508SOL    HW118983   4.340   3.748   2.500 -0.7705 -1.4081 -0.1442
 2508SOL    HW218984   4.377   3.739   2.364 -1.0537  1.9442  0.4027
 2509SOL     OW18985   2.653   4.409  11.342  0.0237  0.0495 -0.2410
 2509SOL    HW118986   2.712   4.344  11.381 -0.8600 -1.0418 -0.7272
 2509SOL    HW218987   2.605   4.433  11.421  0.6252  0.3024  0.0443
 2510SOL     OW18988   0.171   2.079   8.774 -0.1409 -0.1044 -0.2059
 2510SOL    HW118989   0.081   2.056   8.798 -0.2875  0.8533  0.1774
 2510SOL    HW218990   0.204   1.997   8.737  0.5593 -0.7765  1.8826
 2511SOL     OW18991   1.558   1.912  15.647  0.0578  0.3238 -0.2289
 2511SOL    HW118992   1.544   1.945  15.558  1.8110  0.0041 -0.6186
 2511SOL    HW218993   1.515   1.827  15.651  2.2728 -0.7387  1.2099
 2512SOL     OW18994   1.181   0.454  16.603  0.1555 -0.7256 -0.4016
 2512SOL    HW118995   1.231   0.489  16.677 -1.6313 -0.8926  0.8899
 2512SOL    HW218996   1.099   0.502  16.618  0.2001 -0.9782  0.6587
 2513SOL     OW18997   2.993   3.646  17.034 -0.3863 -0.1222  0.7679
 2513SOL    HW118998   2.990   3.703  17.111 -0.9659  0.5525  0.2563
 2513SOL    HW218999   2.970   3.565  17.080 -1.3902 -0.1150  0.2900
 2514SOL     OW19000   2.526   1.743   8.230  0.0181 -0.2849 -0.1418
 2514SOL    HW119001   2.595   1.784   8.281 -1.3127  0.5871  0.9382
 2514SOL    HW219002   2.453   1.796   8.263  2.1034  1.3430  1.8054
 2515SOL     OW19003   0.353   2.894   5.035  0.0608  0.8101 -0.1619
 2515SOL    HW119004   0.301   2.902   4.955  1.3737 -1.5913 -1.2453
 2515SOL    HW219005   0.296   2.933   5.101 -1.4241  0.4574 -1.2240
 2516SOL     OW19006   4.490   3.570  12.024  0.0328 -0.2456  0.4051
 2516SOL    HW119007   4.406   3.586  12.067  1.4241  2.5638  2.0377
 2516SOL    HW219008   4.554   3.584  12.093 -2.0940  1.1398  2.0847
 2517SOL     OW19009   0.395   4.386   5.288 -0.3979  0.2172 -0.1389
 2517SOL    HW119010   0.324   4.333   5.323  0.7082 -1.0854  0.1369
 2517SOL    HW219011   0.374   4.473   5.321 -2.4836 -0.9294  1.5943
 2518SOL     OW19012   2.341   2.160   7.956 -0.4905 -0.6872  0.0215
 2518SOL    HW119013   2.384   2.076   7.973 -2.2175 -1.3523  1.0863
 2518SOL    HW219014   2.282   2.134   7.886 -0.9226 -1.2787  0.5983
 2519SOL     OW19015   3.689   2.859   0.749  0.7405  0.1875 -0.4591
 2519SOL    HW119016   3.701   2.950   0.775  0.7867  0.1885 -0.4841
 2519SOL    HW219017   3.667   2.866   0.656  0.0387 -2.6102 -0.5146
 2520SOL     OW19018   0.253   2.331   5.508  0.2656 -0.3197 -0.1860
 2520SOL    HW119019   0.165   2.363   5.488  0.3081  0.3056  0.6410
 2520SOL    HW219020   0.225   2.248   5.547 -0.1603  0.3054  0.8437
 2521SOL     OW19021   2.676   4.385   0.686  0.4299 -0.5011  0.5440
 2521SOL    HW119022   2.698   4.382   0.779  0.8787 -1.7392  0.3946
 2521SOL    HW219023   2.660   4.294   0.660 -2.6299  0.2590 -0.1445
 2522SOL     OW19024   0.257   1.046   4.014 -0.0006 -0.0565 -0.8886
 2522SOL    HW119025   0.238   0.975   4.075 -1.7506  0.8318 -0.4077
 2522SOL    HW219026   0.351   1.038   4.032  0.9241  0.8479 -5.3317
 2523SOL     OW19027   0.286   1.207   3.165  0.3504  0.2224  0.2128
 2523SOL    HW119028   0.341   1.134   3.133 -0.4675 -1.0091  1.6149
 2523SOL    HW219029   0.352   1.237   3.227 -1.6176  1.4796  1.6785
 2524SOL     OW19030   1.634   1.701   3.889  0.0378  0.2976  0.3355
 2524SOL    HW119031   1.634   1.789   3.928  0.5101  0.6562 -0.4800
 2524SOL    HW219032   1.571   1.719   3.819  0.0137 -1.7486 -0.1640
 2525SOL     OW19033   2.460   0.242  13.187  0.1582 -0.6126  0.5049
 2525SOL    HW119034   2.429   0.285  13.266 -0.0311 -0.2134  0.2091
 2525SOL    HW219035   2.383   0.208  13.142 -0.1598 -0.5664  1.0235
 2526SOL     OW19036   1.282   0.851   1.213  0.5814 -0.2132  0.4386
 2526SOL    HW119037   1.242   0.933   1.241 -0.6552 -0.9126  0.7218
 2526SOL    HW219038   1.281   0.856   1.117 -2.4190  1.8350  0.5880
 2527SOL     OW19039   1.075   3.920   4.850  0.2431 -0.1775  0.3144
 2527SOL    HW119040   0.993   3.880   4.879  0.3281  0.8762  2.0148
 2527SOL    HW219041   1.056   4.009   4.878 -1.0679  0.2658 -1.9865
 2528SOL     OW19042   3.763   0.375  11.156 -0.1026 -0.3135 -0.0359
 2528SOL    HW119043   3.726   0.286  11.154 -1.8171  0.3907 -0.3541
 2528SOL    HW219044   3.717   0.410  11.079 -0.5577  0.5414  0.6266
 2529SOL     OW19045   3.771   2.915   7.903  0.3450  0.6315  0.2527
 2529SOL    HW119046   3.799   2.937   7.991  0.3776 -0.6814  0.5687
 2529SOL    HW219047   3.681   2.883   7.914 -0.4291  1.5425 -3.2939
 2530SOL     OW19048   0.844   0.836   4.127 -0.3694  0.0911 -0.1236
 2530SOL    HW119049   0.895   0.901   4.078 -1.6160  1.3518  0.2369
 2530SOL    HW219050   0.842   0.764   4.064  2.0780 -1.0745  1.1373
 2531SOL     OW19051   3.802   2.846  11.671 -0.5094  0.0550  0.5831
 2531SOL    HW119052   3.779   2.803  11.753 -0.3210 -1.6293 -0.2379
 2531SOL    HW219053   3.715   2.860  11.633 -1.2107  0.6894  2.4475
 2532SOL     OW19054   3.178   0.000   1.777 -0.1580  0.0420 -0.1268
 2532SOL    HW119055   3.200   0.093   1.784 -2.3199  0.3872  2.0534
 2532SOL    HW219056   3.181   4.697   1.870  3.0519  1.1420  0.0496
 2533SOL     OW19057   3.474   0.295   4.528  0.0485  0.0819 -0.2024
 2533SOL    HW119058   3.437   0.325   4.611  0.3805 -0.1135  0.0149
 2533SOL    HW219059   3.404   0.315   4.465 -0.5868  0.3979  0.6027
 2534SOL     OW19060   0.109   1.081   4.777  0.2867 -0.2051  0.6213
 2534SOL    HW119061   0.069   1.164   4.804 -2.0052 -1.8411  2.1943
 2534SOL    HW219062   0.167   1.122   4.712  0.6231 -2.9805 -0.8099
 2535SOL     OW19063   3.368   0.974   6.755 -0.3505  0.3012 -0.2112
 2535SOL    HW119064   3.313   0.960   6.833 -0.3637 -1.2834 -0.5180
 2535SOL    HW219065   3.452   0.979   6.800 -0.0885 -0.0587 -0.6777
 2536SOL     OW19066   0.948   3.367   2.676 -0.0773  0.7810 -0.4685
 2536SOL    HW119067   1.028   3.415   2.699 -1.3398  1.7506  1.9729
 2536SOL    HW219068   0.879   3.433   2.688  0.2597  0.8965  0.8493
 2537SOL     OW19069   1.328   4.462   3.879  0.4412  0.1810  0.1885
 2537SOL    HW119070   1.314   4.511   3.798  1.7146 -0.6589 -0.5437
 2537SOL    HW219071   1.383   4.520   3.932  2.0874 -1.3228  0.1125
 2538SOL     OW19072   4.227   0.162   4.942  0.0057  0.8201  0.5879
 2538SOL    HW119073   4.139   0.127   4.929  0.8799 -1.7222  1.3016
 2538SOL    HW219074   4.287   0.087   4.936 -1.5471 -0.1151 -2.9405
 2539SOL     OW19075   4.575   4.230   4.389  0.2814  0.4831 -0.5713
 2539SOL    HW119076   4.619   4.225   4.474  0.6981  0.2250 -0.7967
 2539SOL    HW219077   4.484   4.209   4.408  0.0490  3.9119  2.1203
 2540SOL     OW19078   0.768   1.049   6.872  0.5849 -0.1330  0.3569
 2540SOL    HW119079   0.699   1.040   6.937 -0.8431  1.5232 -0.9568
 2540SOL    HW219080   0.717   1.065   6.793 -0.8480 -1.7779  0.9681
 2541SOL     OW19081   2.807   4.484  11.107 -0.5763 -0.1651 -0.8364
 2541SOL    HW119082   2.804   4.442  11.194 -0.3787 -0.7848 -1.1309
 2541SOL    HW219083   2.760   4.566  11.123  0.1636 -0.2810  2.0668
 2542SOL     OW19084   0.045   1.235  11.263  0.0296 -0.4085  0.2616
 2542SOL    HW119085   0.006   1.246  11.177  2.2462 -1.5768 -0.8949
 2542SOL    HW219086   0.084   1.148  11.254 -0.0381 -0.4169  0.0525
 2543SOL     OW19087   3.634   3.148   4.243 -0.3377 -0.4470  0.0175
 2543SOL    HW119088   3.596   3.103   4.318 -0.2492 -0.4147  0.0826
 2543SOL    HW219089   3.664   3.232   4.277  1.0484 -0.8531 -0.1752
 2544SOL     OW19090   2.758   0.523   4.728 -0.5045 -0.9663 -0.0565
 2544SOL    HW119091   2.741   0.491   4.639  1.2975 -3.9386  0.6915
 2544SOL    HW219092   2.774   0.616   4.715  1.9027 -1.5052 -0.9394
 2545SOL     OW19093   3.662   2.233   9.281  0.2912  1.0548 -0.6283
 2545SOL    HW119094   3.648   2.184   9.362 -0.6520 -2.8729 -3.1557
 2545SOL    HW219095   3.756   2.220   9.264  0.7982 -1.8153  4.0694
 2546SOL     OW19096   0.038   1.641   9.303  0.2044  0.2625 -0.0210
 2546SOL    HW119097   4.679   1.585   9.306  0.1243  0.3034 -1.4793
 2546SOL    HW219098   0.104   1.576   9.277 -0.3404  0.5118 -1.9837
 2547SOL     OW19099   1.378   3.650  16.044 -0.6371  0.3138 -0.0214
 2547SOL    HW119100   1.314   3.605  15.989 -0.9131 -0.3462  0.8354
 2547SOL    HW219101   1.410   3.576  16.096  1.1516  0.8974 -0.3169
 2548SOL     OW19102   2.281   4.005   9.046 -0.2166  0.4029 -0.6551
 2548SOL    HW119103   2.361   3.954   9.057 -0.5764  0.4150  1.8666
 2548SOL    HW219104   2.269   4.027   9.138 -0.5747  1.4647 -0.9619
 2549SOL     OW19105   3.948   3.068   1.172 -0.2977  0.0642  0.2128
 2549SOL    HW119106   4.019   3.090   1.231 -2.2847  0.9851  2.2836
 2549SOL    HW219107   3.888   3.047   1.243 -3.3713  2.9646 -1.5065
 2550SOL     OW19108   3.600   0.366   5.099 -0.3807  0.0902  0.0936
 2550SOL    HW119109   3.579   0.371   5.192  0.0339 -0.6744  0.2239
 2550SOL    HW219110   3.681   0.316   5.098 -0.9066 -0.7200 -1.7241
 2551SOL     OW19111   1.821   3.537   7.394  0.4382 -0.0021  0.1004
 2551SOL    HW119112   1.755   3.514   7.459  0.2708 -1.2708 -0.5176
 2551SOL    HW219113   1.827   3.456   7.342  0.3015  0.4217 -0.5780
 2552SOL     OW19114   2.857   4.380   1.605 -0.2764 -0.2210 -0.1067
 2552SOL    HW119115   2.893   4.457   1.649  2.7735 -1.4843 -0.3509
 2552SOL    HW219116   2.801   4.425   1.542  0.4257  1.3406  0.3704
 2553SOL     OW19117   1.723   3.535  12.293 -0.0159 -0.2446  0.3683
 2553SOL    HW119118   1.653   3.566  12.235  1.1312  2.2937  0.3323
 2553SOL    HW219119   1.737   3.604  12.357  0.9096 -0.3431  0.2649
 2554SOL     OW19120   1.947   3.817   6.920 -0.2354 -0.1575  0.5004
 2554SOL    HW119121   1.964   3.723   6.913 -0.8680 -0.1874 -0.6785
 2554SOL    HW219122   1.851   3.816   6.928 -0.3791 -1.7642 -1.4555
 2555SOL     OW19123   1.153   3.633   3.707 -0.2744 -0.2511 -0.2759
 2555SOL    HW119124   1.153   3.569   3.779 -0.2679 -1.4049 -1.3053
 2555SOL    HW219125   1.190   3.712   3.746 -1.6039 -0.1340  0.7657
 2556SOL     OW19126   2.973   1.434   7.040 -0.1142  0.3214 -0.3599
 2556SOL    HW119127   3.065   1.446   7.063 -0.5126  2.5870  0.0202
 2556SOL    HW219128   2.950   1.524   7.019 -0.5760  0.0765 -0.9161
 2557SOL     OW19129   2.175   0.633   3.566  0.1396  0.5323 -0.0832
 2557SOL    HW119130   2.223   0.555   3.538 -0.6840 -0.9975  2.7806
 2557SOL    HW219131   2.128   0.641   3.483  0.5813  0.3615 -0.3464
 2558SOL     OW19132   1.495   1.282   2.532 -0.2313 -0.3265 -0.1806
 2558SOL    HW119133   1.525   1.203   2.487  0.3458 -0.1075 -0.1693
 2558SOL    HW219134   1.411   1.300   2.489 -1.1372 -1.2480  1.2211
 2559SOL     OW19135   2.693   4.340   4.384 -0.3232 -0.4462  0.2129
 2559SOL    HW119136   2.779   4.298   4.390 -1.0525 -2.0648 -0.7058
 2559SOL    HW219137   2.636   4.276   4.428 -0.6653 -1.1270 -1.2296
 2560SOL     OW19138   4.374   2.119   7.941 -0.0054 -0.3724 -0.4806
 2560SOL    HW119139   4.288   2.116   7.983  0.3783 -0.7307  0.2721
 2560SOL    HW219140   4.426   2.090   8.016  0.2240 -0.5457 -0.7075
 2561SOL     OW19141   0.958   2.519  11.522  0.0364 -0.4171  0.0007
 2561SOL    HW119142   1.010   2.596  11.500 -1.6385  0.4556 -0.8711
 2561SOL    HW219143   1.022   2.477  11.580 -1.0815  1.2230  2.4155
 2562SOL     OW19144   3.808   0.372   8.969  0.9451 -0.2841  0.8249
 2562SOL    HW119145   3.897   0.406   8.977 -0.4739  3.6058 -0.0508
 2562SOL    HW219146   3.799   0.377   8.873 -0.7898 -0.8779  0.9540
 2563SOL     OW19147   0.489   2.666  17.402 -0.1684  0.6435 -0.2681
 2563SOL    HW119148   0.475   2.572  17.394 -1.0168  0.6571  0.9975
 2563SOL    HW219149   0.566   2.680  17.347  0.2322 -1.3971 -0.2109
 2564SOL     OW19150   0.290   1.842   6.877 -0.0597  0.0160  0.6476
 2564SOL    HW119151   0.222   1.869   6.815 -0.7146 -0.9496  0.9482
 2564SOL    HW219152   0.251   1.819   6.961  1.0216 -2.8015  0.3971
 2565SOL     OW19153   1.068   2.046  10.436 -0.1995  0.3037 -0.0438
 2565SOL    HW119154   0.996   2.102  10.465 -1.5416 -1.6248  0.3795
 2565SOL    HW219155   1.138   2.107  10.459  0.5557 -1.9804  3.6727
 2566SOL     OW19156   4.695   0.929   6.771  0.0853 -0.2817 -0.0620
 2566SOL    HW119157   4.612   0.886   6.790 -0.0292 -0.3734 -0.7606
 2566SOL    HW219158   0.008   0.900   6.685 -0.2666 -0.7416 -0.0341
 2567SOL     OW19159   4.655   3.243   3.422 -0.2246 -0.7277 -0.1870
 2567SOL    HW119160   4.617   3.323   3.457 -0.4869 -1.4123  1.0574
 2567SOL    HW219161   0.003   3.291   3.372  1.1720 -3.4519 -0.9414
 2568SOL     OW19162   3.708   3.858   9.069 -0.6195  0.2269  0.3803
 2568SOL    HW119163   3.630   3.861   9.014 -0.8331  0.1191  0.6800
 2568SOL    HW219164   3.712   3.950   9.097  0.5144  0.7948 -1.5961
 2569SOL     OW19165   4.343   0.700   2.964 -0.1936 -0.2735  0.5552
 2569SOL    HW119166   4.329   0.789   2.932 -0.2042 -0.9492 -1.3068
 2569SOL    HW219167   4.405   0.664   2.900 -1.8443  0.3040 -1.3403
 2570SOL     OW19168   1.551   2.942   3.422  0.0437  0.2379  1.2659
 2570SOL    HW119169   1.582   2.862   3.465  2.5527 -0.0921 -1.0726
 2570SOL    HW219170   1.562   2.928   3.327  0.6877  0.5350  1.2951
 2571SOL     OW19171   4.681   2.977   0.891  0.0294 -0.2515 -0.1802
 2571SOL    HW119172   4.697   2.973   0.797  3.5491  0.2896  0.4181
 2571SOL    HW219173   0.033   2.922   0.924  1.0508  0.0506 -1.8999
 2572SOL     OW19174   2.854   1.553   7.813  0.0589  0.1165 -0.0700
 2572SOL    HW119175   2.901   1.478   7.777 -0.5494 -0.1835 -0.2250
 2572SOL    HW219176   2.886   1.554   7.904  1.1026 -1.9416 -0.4151
 2573SOL     OW19177   2.945   0.682  10.326  0.0220  0.2166  0.1786
 2573SOL    HW119178   2.871   0.742  10.334  0.6132  1.1168 -1.0203
 2573SOL    HW219179   3.019   0.727  10.367  0.4000 -1.5210  1.4266
 2574SOL     OW19180   1.779   3.264   6.555  0.2496  0.5951 -0.3273
 2574SOL    HW119181   1.761   3.327   6.485  4.3297  1.5233 -0.5557
 2574SOL    HW219182   1.695   3.252   6.599  0.4815  1.3460  0.3482
 2575SOL     OW19183   1.683   2.019   7.835 -0.1210  0.2745 -0.1519
 2575SOL    HW119184   1.735   2.036   7.757 -0.7627  4.0962  0.2323
 2575SOL    HW219185   1.657   1.929   7.818 -0.4649  0.5587 -1.1090
 2576SOL     OW19186   2.361   0.011  16.589  0.2920 -0.4239 -0.6666
 2576SOL    HW119187   2.432   4.671  16.566  1.4691  0.8295 -0.2472
 2576SOL    HW219188   2.293   4.695  16.532  1.7757 -0.4595 -2.4013
 2577SOL     OW19189   4.601   0.274  12.786  0.4474  0.0877 -0.4586
 2577SOL    HW119190   4.586   0.261  12.692  2.4623 -0.8288 -0.6563
 2577SOL    HW219191   4.519   0.315  12.812  0.2521 -1.0338  0.7576
 2578SOL     OW19192   1.171   1.174  11.847  0.0942  0.1454  0.7598
 2578SOL    HW119193   1.218   1.114  11.905  0.7164 -2.1106 -2.0642
 2578SOL    HW219194   1.241   1.206  11.791 -1.6618  3.1076  0.2671
 2579SOL     OW19195   2.996   3.793   8.534 -0.0063 -0.8086  0.0119
 2579SOL    HW119196   3.078   3.834   8.561 -0.8775  2.3240 -2.0847
 2579SOL    HW219197   2.981   3.754   8.620  2.0998 -0.6120  0.4544
 2580SOL     OW19198   3.817   2.608   3.635  0.6150 -0.6735 -0.1255
 2580SOL    HW119199   3.771   2.691   3.643  1.2386 -0.1477 -1.8602
 2580SOL    HW219200   3.820   2.605   3.539  0.3192 -3.7306 -0.0224
 2581SOL     OW19201   2.633   0.319   5.337 -0.1017  0.4197 -0.0025
 2581SOL    HW119202   2.713   0.339   5.386  0.5403  0.7837 -1.2076
 2581SOL    HW219203   2.568   0.366   5.389  3.4623  2.2240  2.8998
 2582SOL     OW19204   3.895   4.425   3.218  0.7413  0.5548 -0.3423
 2582SOL    HW119205   3.944   4.501   3.250  2.1631 -0.2284 -0.6603
 2582SOL    HW219206   3.804   4.450   3.236  0.8194  1.1720 -0.7900
 2583SOL     OW19207   1.027   1.423   3.359 -0.7146 -0.5490  0.0176
 2583SOL    HW119208   1.066   1.488   3.302 -0.7307  0.4471  1.1361
 2583SOL    HW219209   1.101   1.363   3.345 -0.4099 -0.4290  1.1219
 2584SOL     OW19210   1.682   2.551   2.934  0.7758 -0.3159  0.2454
 2584SOL    HW119211   1.622   2.559   2.859  0.2528  0.1014  0.7079
 2584SOL    HW219212   1.623   2.579   3.004  0.3217  0.3890 -0.4193
 2585SOL     OW19213   3.543   3.316  11.059 -0.8219  0.3302 -0.7218
 2585SOL    HW119214   3.516   3.404  11.032 -0.8795  0.8382  0.9904
 2585SOL    HW219215   3.622   3.300  11.007 -1.8062 -1.7216 -1.5867
 2586SOL     OW19216   2.392   3.516   7.179 -0.2635  0.3052 -0.0272
 2586SOL    HW119217   2.487   3.511   7.188 -0.5661  0.1185  2.9760
 2586SOL    HW219218   2.345   3.446   7.223  3.4092 -1.1159  1.6006
 2587SOL     OW19219   4.140   3.112   8.930  0.3190 -0.4286 -0.1719
 2587SOL    HW119220   4.190   3.033   8.951 -0.0004  0.1355  2.7775
 2587SOL    HW219221   4.179   3.159   9.004 -3.1039  1.7011  0.2728
 2588SOL     OW19222   1.898   2.339   6.548  1.2329  0.3774 -0.2117
 2588SOL    HW119223   1.861   2.312   6.464 -0.4915  0.9223  0.3818
 2588SOL    HW219224   1.957   2.264   6.563  2.4850  1.5780  0.8864
 2589SOL     OW19225   0.233   3.064   2.568  0.8547 -0.0379  0.3082
 2589SOL    HW119226   0.262   3.034   2.481 -0.9082 -0.7552 -0.0474
 2589SOL    HW219227   0.138   3.060   2.558  0.8543 -1.8760  0.9402
 2590SOL     OW19228   4.255   2.841  13.694  0.3910  0.2590  0.1914
 2590SOL    HW119229   4.327   2.789  13.659  1.9044  1.1421  2.0423
 2590SOL    HW219230   4.303   2.898  13.754 -0.0710  1.6752 -0.7772
 2591SOL     OW19231   4.057   1.526   5.500 -0.0736 -0.1836  0.0091
 2591SOL    HW119232   4.056   1.508   5.594 -0.5134 -0.9039 -0.1422
 2591SOL    HW219233   3.966   1.505   5.483  0.6065 -1.3874 -2.0080
 2592SOL     OW19234   0.465   1.250   5.222 -0.4382 -0.2854 -0.2783
 2592SOL    HW119235   0.464   1.161   5.257 -0.5016 -0.4044 -0.5838
 2592SOL    HW219236   0.518   1.301   5.284 -3.3865  2.1696  0.2088
 2593SOL     OW19237   0.162   3.621   7.450 -0.3767  0.3322  0.3442
 2593SOL    HW119238   0.082   3.574   7.474  0.1117 -0.3888  0.5353
 2593SOL    HW219239   0.231   3.562   7.423 -0.8431  0.2848 -0.7550
 2594SOL     OW19240   4.011   1.129   7.134 -0.1391 -0.2579 -0.3907
 2594SOL    HW119241   3.982   1.099   7.220 -0.9493 -0.8706 -0.8797
 2594SOL    HW219242   4.001   1.222   7.155 -1.3981 -0.9014  1.8536
 2595SOL     OW19243   2.499   0.446  13.831 -0.2792  0.3079  0.0888
 2595SOL    HW119244   2.571   0.423  13.772 -0.2063  2.0397 -0.4826
 2595SOL    HW219245   2.470   0.526  13.788  2.6207  1.5364  0.4753
 2596SOL     OW19246   4.177   0.444   4.949 -0.2829  0.2218  0.1626
 2596SOL    HW119247   4.146   0.459   5.038 -0.6756  0.2380  0.0248
 2596SOL    HW219248   4.179   0.348   4.940 -0.3748  0.3185 -0.9675
 2597SOL     OW19249   1.823   2.004  13.692  0.4384 -0.0194  0.1063
 2597SOL    HW119250   1.797   1.995  13.783  2.7678  1.8681  0.9621
 2597SOL    HW219251   1.732   1.986  13.666  0.5763 -0.2058 -0.2385
 2598SOL     OW19252   4.452   3.851   1.191  0.0166 -0.2714  0.5462
 2598SOL    HW119253   4.547   3.865   1.192 -0.4125  2.7197 -1.1769
 2598SOL    HW219254   4.442   3.847   1.096  1.0464  0.5779  0.3981
 2599SOL     OW19255   1.354   0.306   0.053 -0.1585 -0.3448  0.1086
 2599SOL    HW119256   1.361   0.322   0.147 -1.0040  1.1179 -0.0876
 2599SOL    HW219257   1.417   0.364   0.009 -0.0892  1.3490  2.4631
 2600SOL     OW19258   0.042   3.859  15.851 -0.0510 -0.1591 -0.2945
 2600SOL    HW119259   4.703   3.788  15.881 -0.7293 -0.1356 -1.5753
 2600SOL    HW219260   0.039   3.926  15.919 -1.3888 -0.4283 -0.0771
 2601SOL     OW19261   1.339   3.472   3.101 -0.0082  0.1993 -0.1458
 2601SOL    HW119262   1.316   3.445   3.012 -2.8339 -0.5741  0.8376
 2601SOL    HW219263   1.341   3.393   3.155 -0.1528 -0.4130 -1.0376
 2602SOL     OW19264   2.420   1.224   8.202 -0.1845 -0.4016  0.1422
 2602SOL    HW119265   2.442   1.315   8.178  0.5565  0.6756  4.9365
 2602SOL    HW219266   2.501   1.174   8.194 -0.8640 -1.2839 -1.1209
 2603SOL     OW19267   4.000   3.642   6.453 -0.4469 -0.0065 -1.1252
 2603SOL    HW119268   3.981   3.721   6.504  0.4014 -1.5124  1.5248
 2603SOL    HW219269   4.068   3.680   6.396 -0.5487  1.1634 -0.4662
 2604SOL     OW19270   1.968   2.693   1.852 -0.0371 -0.2487 -0.0264
 2604SOL    HW119271   1.909   2.650   1.913 -1.4291  1.1804 -0.3634
 2604SOL    HW219272   1.958   2.625   1.786 -2.4567  0.5293 -0.4701
 2605SOL     OW19273   4.151   3.462   7.408 -0.4514 -0.2725 -0.8936
 2605SOL    HW119274   4.089   3.393   7.387 -0.7026 -0.1202 -0.6567
 2605SOL    HW219275   4.234   3.416   7.400 -0.4660 -0.4748  0.0649
 2606SOL     OW19276   2.632   4.626   1.813 -0.0829  0.0513  0.1440
 2606SOL    HW119277   2.632   4.698   1.876 -1.3174  0.3763 -0.2250
 2606SOL    HW219278   2.674   4.558   1.866 -1.0739  0.1917  1.1241
 2607SOL     OW19279   0.992   1.762  15.088  0.6391  0.2837 -0.9487
 2607SOL    HW119280   1.071   1.766  15.033  0.2095  0.5531 -1.5570
 2607SOL    HW219281   0.953   1.676  15.072  0.7421 -0.2416  1.7421
 2608SOL     OW19282   2.832   1.234   6.926 -0.2112 -0.1539  0.4214
 2608SOL    HW119283   2.748   1.278   6.916  0.3151  0.2812 -2.1749
 2608SOL    HW219284   2.886   1.309   6.953  0.3816 -0.7807  1.0000
 2609SOL     OW19285   0.136   1.451  17.623  0.0673 -0.6358 -0.3329
 2609SOL    HW119286   0.231   1.444  17.613 -0.0321 -0.4504 -1.4138
 2609SOL    HW219287   0.122   1.407   0.029 -0.1171  0.3879  0.1630
 2610SOL     OW19288   2.506   0.795   4.658 -0.2127  0.1374 -0.5299
 2610SOL    HW119289   2.601   0.787   4.651 -0.0395 -0.0838  2.0603
 2610SOL    HW219290   2.486   0.746   4.737 -2.5855  0.4579 -0.9239
 2611SOL     OW19291   2.619   2.809   5.901 -0.0116 -0.5179  0.2161
 2611SOL    HW119292   2.629   2.730   5.849 -0.8396 -0.4737 -0.0125
 2611SOL    HW219293   2.534   2.787   5.939 -1.7395  0.0173 -3.3612
 2612SOL     OW19294   1.655   3.569   2.454 -0.7985 -0.5999  0.5229
 2612SOL    HW119295   1.591   3.640   2.445  0.5533  0.5671  0.1888
 2612SOL    HW219296   1.652   3.558   2.549  0.3869 -3.4550  0.2366
 2613SOL     OW19297   1.976   2.887   4.653 -0.0092  0.1086 -0.1462
 2613SOL    HW119298   2.059   2.866   4.611  0.0271 -2.5802  1.2702
 2613SOL    HW219299   2.000   2.980   4.651  1.2757 -0.2417 -1.1932
 2614SOL     OW19300   0.455   0.944   6.855  0.2960 -0.7032  0.0564
 2614SOL    HW119301   0.363   0.945   6.878  0.6327  0.4654  1.3633
 2614SOL    HW219302   0.466   0.849   6.862 -0.0777 -0.7036  0.6298
 2615SOL     OW19303   1.321   3.539  15.013 -0.6758 -0.7265 -0.2526
 2615SOL    HW119304   1.374   3.514  14.938  2.0013  2.2279  0.6627
 2615SOL    HW219305   1.388   3.535  15.082 -0.7356 -2.2355 -0.2879
 2616SOL     OW19306   1.211   3.972   2.660  0.2618  0.0386 -0.2239
 2616SOL    HW119307   1.288   4.007   2.615  0.3998 -2.0518 -1.6262
 2616SOL    HW219308   1.257   3.899   2.701  3.6958  1.8567 -0.8566
 2617SOL     OW19309   0.214   1.195   0.133  0.0786  0.1096  0.4490
 2617SOL    HW119310   0.283   1.262   0.138  1.3561 -1.2003  0.2740
 2617SOL    HW219311   0.219   1.162   0.044 -0.3398 -0.7411  0.7417
 2618SOL     OW19312   3.246   3.469   3.951  0.0326  0.0959  0.7991
 2618SOL    HW119313   3.276   3.530   3.883  0.8165 -0.3900  0.7144
 2618SOL    HW219314   3.323   3.441   4.000  1.0849  1.5396 -0.0576
 2619SOL     OW19315   2.005   2.718  16.874 -0.1002  0.0668 -0.5632
 2619SOL    HW119316   2.051   2.784  16.822  0.3347  0.2572  0.0743
 2619SOL    HW219317   2.048   2.724  16.958  0.0126  1.4882 -0.7228
 2620SOL     OW19318   4.291   4.338   8.185  0.3350  0.3413 -0.7937
 2620SOL    HW119319   4.209   4.322   8.138  0.6971  2.4319 -2.1078
 2620SOL    HW219320   4.296   4.255   8.232  1.9884  2.0830  2.0884
 2621SOL     OW19321   1.217   4.096   1.452  0.8046  0.6333  0.2711
 2621SOL    HW119322   1.196   4.100   1.358  1.9146  2.5781  0.1288
 2621SOL    HW219323   1.224   4.002   1.471 -0.2707  0.4865 -0.0548
 2622SOL     OW19324   3.392   3.619   8.678  0.5414  0.2397 -0.4152
 2622SOL    HW119325   3.446   3.561   8.732 -1.8064  0.0089  1.7325
 2622SOL    HW219326   3.396   3.571   8.596  0.9364  0.2530 -0.4056
 2623SOL     OW19327   0.945   4.181   2.075  0.8316  0.3134  0.2555
 2623SOL    HW119328   0.884   4.203   2.146  1.4345  0.5519  0.7010
 2623SOL    HW219329   0.924   4.235   1.999 -0.5781 -0.8897 -0.1939
 2624SOL     OW19330   2.487   2.038   2.057 -0.3718 -1.2109 -0.2646
 2624SOL    HW119331   2.415   2.076   2.107  0.7947 -0.4269  0.8097
 2624SOL    HW219332   2.502   2.110   1.996 -0.7010 -0.4436  0.5541
 2625SOL     OW19333   4.365   4.318   8.974 -0.1267 -0.1530 -0.6176
 2625SOL    HW119334   4.404   4.367   8.902 -0.2433  0.6306 -0.1531
 2625SOL    HW219335   4.445   4.288   9.017 -1.1193 -1.2460  0.4970
 2626SOL     OW19336   3.867   4.353   6.678  0.3115  0.2911  0.0112
 2626SOL    HW119337   3.956   4.325   6.702  0.9007  1.8840 -0.3214
 2626SOL    HW219338   3.805   4.289   6.712 -1.3415  1.3464 -1.0169
 2627SOL     OW19339   3.626   0.564   0.101  0.1659  0.1389 -0.3934
 2627SOL    HW119340   3.587   0.506   0.167  0.1482 -0.6337 -1.0775
 2627SOL    HW219341   3.624   0.508   0.023 -3.7728 -1.4546  0.8550
 2628SOL     OW19342   2.155   3.766  14.076 -0.6245 -0.4881  0.1364
 2628SOL    HW119343   2.191   3.678  14.065 -3.1792 -1.3472 -1.1972
 2628SOL    HW219344   2.098   3.765  14.153 -1.5943  1.8169 -0.5342
 2629SOL     OW19345   3.223   4.614   7.059  0.1054 -0.2554  0.6096
 2629SOL    HW119346   3.136   4.573   7.055  0.2237 -0.5221  0.8109
 2629SOL    HW219347   3.230   4.644   7.149 -0.7050 -0.4007  0.7218
 2630SOL     OW19348   3.830   0.578   2.193  0.6391  0.1571 -0.0648
 2630SOL    HW119349   3.806   0.523   2.118 -1.1377  0.9657 -0.0770
 2630SOL    HW219350   3.917   0.538   2.200  0.7836  0.9765  2.6228
 2631SOL     OW19351   4.450   0.058   7.244  0.0069 -0.1908  0.4735
 2631SOL    HW119352   4.456   0.122   7.173  1.8183 -0.7900  0.0717
 2631SOL    HW219353   4.483   0.112   7.316  0.7886 -1.1600  0.8434
 2632SOL     OW19354   3.251   4.409   5.690  0.0025  0.3044  0.4540
 2632SOL    HW119355   3.248   4.491   5.639  1.6857  1.3640  2.0703
 2632SOL    HW219356   3.343   4.389   5.702 -0.0540  0.5190  1.1998
 2633SOL     OW19357   2.140   4.453   5.558 -0.3061  0.2624 -0.0943
 2633SOL    HW119358   2.114   4.362   5.567  1.7274 -0.3563 -0.6108
 2633SOL    HW219359   2.093   4.496   5.630  1.2070  0.5679  0.7104
 2634SOL     OW19360   1.416   0.398   2.320 -0.0939 -0.6023  0.5732
 2634SOL    HW119361   1.427   0.403   2.415  0.8682 -0.6397  0.4600
 2634SOL    HW219362   1.453   0.311   2.305  0.1519 -0.5627  0.9790
 2635SOL     OW19363   3.111   0.729   7.038  0.4630  0.5766 -0.7130
 2635SOL    HW119364   3.182   0.707   6.977  2.5821 -3.4224  3.2043
 2635SOL    HW219365   3.107   0.823   7.023 -0.2989  0.8056  0.9028
 2636SOL     OW19366   2.479   0.537   8.842  0.1121  0.8282  0.1276
 2636SOL    HW119367   2.444   0.512   8.757 -0.6906 -1.5543  1.1437
 2636SOL    HW219368   2.569   0.553   8.813  0.9546 -1.0158  1.6618
 2637SOL     OW19369   3.904   4.595   0.655 -0.2753  0.0565  0.1231
 2637SOL    HW119370   3.951   4.613   0.574  0.1303  2.2138  0.8457
 2637SOL    HW219371   3.936   4.660   0.717 -0.4801 -0.1486  0.4438
 2638SOL     OW19372   0.362   2.739   1.418 -0.2042 -0.1428 -0.3668
 2638SOL    HW119373   0.409   2.656   1.408 -0.0168 -0.0616 -0.1788
 2638SOL    HW219374   0.310   2.718   1.496  1.1293 -1.0406  0.2898
 2639SOL     OW19375   0.452   0.843   2.618  0.0073  0.3720 -0.4392
 2639SOL    HW119376   0.372   0.887   2.648  1.1233  0.4701  2.4543
 2639SOL    HW219377   0.486   0.910   2.559  0.1994  0.4381 -0.2528
 2640SOL     OW19378   0.175   2.505   2.430 -0.5133 -0.1096  0.2536
 2640SOL    HW119379   0.255   2.544   2.466 -0.9420 -0.4707  1.5919
 2640SOL    HW219380   0.142   2.455   2.504  0.9290 -0.0551  0.9453
 2641SOL     OW19381   3.675   3.570   2.456 -0.5884  0.2696 -0.1999
 2641SOL    HW119382   3.674   3.614   2.371 -2.2318 -0.5861 -0.6295
 2641SOL    HW219383   3.599   3.602   2.504 -0.0776 -0.8625  1.3686
 2642SOL     OW19384   3.946   3.692  17.612  0.0433 -0.1603 -0.0236
 2642SOL    HW119385   3.996   3.726  17.539 -1.1079  1.2212 -0.1692
 2642SOL    HW219386   3.943   3.599  17.591  1.7379 -0.0261 -0.7923
 2643SOL     OW19387   3.454   4.054   9.765 -0.2466  0.9680  0.3740
 2643SOL    HW119388   3.451   4.068   9.671  0.2013 -0.2844  0.1813
 2643SOL    HW219389   3.537   4.100   9.779  0.8155 -0.5766 -0.9335
 2644SOL     OW19390   4.210   3.462  12.407  0.5484 -0.3017  0.2850
 2644SOL    HW119391   4.235   3.384  12.455 -0.4977 -1.4592 -1.0614
 2644SOL    HW219392   4.135   3.496  12.456  1.2072 -2.3937  2.7442
 2645SOL     OW19393   0.788   2.696  12.394 -0.3082 -0.4365  0.5996
 2645SOL    HW119394   0.808   2.627  12.331  2.1305  0.8419 -0.0321
 2645SOL    HW219395   0.857   2.753  12.361 -0.4897  0.6386  2.0556
 2646SOL     OW19396   4.139   3.547   6.017 -0.3055 -0.5156 -0.5562
 2646SOL    HW119397   4.167   3.619   5.961  1.0992  0.2956  1.1599
 2646SOL    HW219398   4.082   3.492   5.964  1.3915 -3.2926  0.4523
 2647SOL     OW19399   0.045   0.590  14.946  0.3885  0.2656  0.0858
 2647SOL    HW119400   0.079   0.671  14.985  0.5000 -0.0226  0.5880
 2647SOL    HW219401   0.121   0.531  14.941 -0.2699 -0.6567  0.9897
 2648SOL     OW19402   2.661   2.672  11.116  0.1585  0.5218 -0.1698
 2648SOL    HW119403   2.693   2.614  11.186 -2.8329 -2.6629 -1.4651
 2648SOL    HW219404   2.591   2.714  11.166  0.1488 -0.7306  0.9084
 2649SOL     OW19405   2.165   1.615   7.051 -0.5388  0.0181 -0.7423
 2649SOL    HW119406   2.255   1.633   7.025 -0.6801 -1.2526 -2.1286
 2649SOL    HW219407   2.127   1.703   7.060  0.6247  0.6163 -1.6022
 2650SOL     OW19408   3.788   2.222   4.981 -0.0250 -0.2301 -0.1552
 2650SOL    HW119409   3.753   2.254   5.065 -1.5417 -0.9570 -0.5081
 2650SOL    HW219410   3.838   2.302   4.963 -0.7707  0.0240 -1.0948
 2651SOL     OW19411   3.811   1.568   7.208  0.1627 -0.6259 -0.1760
 2651SOL    HW119412   3.810   1.625   7.284  2.1481  1.3069 -1.6136
 2651SOL    HW219413   3.901   1.535   7.214  0.7465  1.2502  1.3478
 2652SOL     OW19414   4.499   3.041  17.495  0.0459  0.4424 -0.1989
 2652SOL    HW119415   4.574   3.048  17.554 -1.7414 -0.6969  2.1965
 2652SOL    HW219416   4.423   3.029  17.553 -0.3596  2.1559 -0.3536
 2653SOL     OW19417   2.963   3.232   6.457  0.0009  0.5296  0.2800
 2653SOL    HW119418   2.922   3.264   6.377 -0.2726  0.0889  0.2445
 2653SOL    HW219419   2.902   3.166   6.490  2.7780 -2.1329 -0.0205
 2654SOL     OW19420   2.999   2.754  16.087 -0.2834  0.3682 -0.6524
 2654SOL    HW119421   3.003   2.843  16.120  0.1405 -0.4734  1.5745
 2654SOL    HW219422   3.012   2.763  15.993  0.9604  0.0624 -0.5092
 2655SOL     OW19423   2.703   3.827   6.712 -0.4280  0.5399 -0.1677
 2655SOL    HW119424   2.669   3.740   6.731  3.3335 -0.4171  2.2934
 2655SOL    HW219425   2.635   3.868   6.659 -1.2837 -0.5536  0.0972
 2656SOL     OW19426   0.690   4.228   4.894  0.1492  0.1095 -0.0972
 2656SOL    HW119427   0.757   4.212   4.959 -0.5940  2.2433  1.1966
 2656SOL    HW219428   0.628   4.159   4.918  0.8130 -0.5313 -0.2372
 2657SOL     OW19429   3.549   2.171  12.344 -0.0307 -0.1549  0.0736
 2657SOL    HW119430   3.523   2.083  12.371  0.6613  0.0980  1.5572
 2657SOL    HW219431   3.583   2.158  12.255 -0.2854 -0.1566 -0.0221
 2658SOL     OW19432   4.618   1.126   8.283  0.5088 -0.6051  0.3644
 2658SOL    HW119433   4.558   1.152   8.213  2.9904  0.7636 -1.2531
 2658SOL    HW219434   4.673   1.063   8.236  1.7546 -0.1856  1.2778
 2659SOL     OW19435   4.134   3.397   3.089 -0.1773  0.1266 -0.0470
 2659SOL    HW119436   4.100   3.365   3.172  0.7739  0.5675  0.5125
 2659SOL    HW219437   4.085   3.343   3.027  1.4079 -0.0175 -1.1596
 2660SOL     OW19438   3.392   2.638   7.199 -0.1307 -0.1882 -0.5027
 2660SOL    HW119439   3.351   2.714   7.156  1.6069  0.3229 -1.2646
 2660SOL    HW219440   3.395   2.670   7.289 -1.3754 -0.7386 -0.2648
 2661SOL     OW19441   4.644   1.496  10.712  0.0774  0.0914  0.2567
 2661SOL    HW119442   4.681   1.580  10.686  2.3021 -0.9948 -0.0791
 2661SOL    HW219443   4.716   1.446  10.674  1.1292  0.9463  1.1155
 2662SOL     OW19444   3.331   4.043   4.494  1.1449  0.2561  0.1731
 2662SOL    HW119445   3.239   4.048   4.470  1.2817 -0.1240 -0.4312
 2662SOL    HW219446   3.353   3.966   4.442  1.2269  2.3707 -2.9467
 2663SOL     OW19447   4.091   1.837  17.142 -0.1040  0.0170 -0.3301
 2663SOL    HW119448   4.013   1.870  17.187 -0.8742 -2.1658 -0.0779
 2663SOL    HW219449   4.158   1.873  17.201  3.0662 -1.5446 -2.9749
 2664SOL     OW19450   1.089   1.876   6.686 -0.2402  0.4232  0.4613
 2664SOL    HW119451   1.152   1.941   6.714 -0.2060 -0.4611  2.4107
 2664SOL    HW219452   1.067   1.920   6.603 -0.2679 -0.8533 -0.2099
 2665SOL     OW19453   1.976   0.861   9.482  0.2883 -0.9684 -0.1428
 2665SOL    HW119454   1.983   0.777   9.528  0.2435 -0.7518  0.2523
 2665SOL    HW219455   1.996   0.915   9.558  1.4961 -0.8257 -0.5704
 2666SOL     OW19456   3.968   0.722  10.492 -0.1766 -0.1879 -0.4983
 2666SOL    HW119457   4.016   0.701  10.411 -1.8275  1.6854 -1.9718
 2666SOL    HW219458   4.039   0.754  10.548 -0.8453  2.7086 -1.3099
 2667SOL     OW19459   4.482   0.500   9.346 -0.5188 -0.8872  0.5856
 2667SOL    HW119460   4.559   0.551   9.323 -1.9023  0.6019 -0.7913
 2667SOL    HW219461   4.474   0.513   9.440  2.4670  0.6777  0.6266
 2668SOL     OW19462   3.807   4.611   7.086 -0.5484  0.5264  0.2223
 2668SOL    HW119463   3.863   4.687   7.067 -2.1420  1.5800 -0.3232
 2668SOL    HW219464   3.816   4.599   7.180 -0.9875 -1.4306  0.0137
 2669SOL     OW19465   4.106   1.854   2.068 -0.1001 -0.4273 -0.3386
 2669SOL    HW119466   4.054   1.807   2.133 -2.3359  0.6784 -1.3233
 2669SOL    HW219467   4.057   1.846   1.986  0.0972 -1.2395 -0.3784
 2670SOL     OW19468   0.413   1.662  13.500 -0.5035  0.1708  0.0693
 2670SOL    HW119469   0.462   1.585  13.470  0.6969  0.2585  1.8792
 2670SOL    HW219470   0.454   1.693  13.580  3.1289 -0.4213 -1.5713
 2671SOL     OW19471   2.114   4.242   2.063  0.0347 -0.0480  0.3621
 2671SOL    HW119472   2.029   4.239   2.108 -0.0558  0.9282  0.2585
 2671SOL    HW219473   2.145   4.312   2.119  0.6785 -0.7635  0.8905
 2672SOL     OW19474   2.718   3.040   1.292  0.2187  0.4778  0.0742
 2672SOL    HW119475   2.719   3.045   1.197 -1.3883 -1.3568 -0.0499
 2672SOL    HW219476   2.722   2.946   1.308 -0.0355  0.5039  0.2974
 2673SOL     OW19477   4.450   3.001   8.101 -0.4082  0.1269  0.4004
 2673SOL    HW119478   4.531   2.949   8.106 -0.9955 -0.7501  0.8786
 2673SOL    HW219479   4.422   2.986   8.191  0.0306  0.5044  0.5941
 2674SOL     OW19480   1.147   1.063   5.083  0.3145  0.0487 -0.5053
 2674SOL    HW119481   1.181   0.979   5.115 -0.7679  0.5879  2.0473
 2674SOL    HW219482   1.130   1.048   4.990  1.2070 -1.3886 -0.4395
 2675SOL     OW19483   3.667   2.715   6.414  0.1595 -0.0127 -0.3513
 2675SOL    HW119484   3.747   2.697   6.464  0.3405  0.1184 -0.5912
 2675SOL    HW219485   3.662   2.810   6.403 -0.2627 -0.1620 -1.4969
 2676SOL     OW19486   0.164   2.141   9.197 -0.1476  0.1396 -0.0361
 2676SOL    HW119487   0.098   2.080   9.229  0.1429  0.7181  1.6770
 2676SOL    HW219488   0.115   2.171   9.121  1.2255 -2.3957 -1.9149
 2677SOL     OW19489   2.721   1.220   6.235  0.2491  0.1953 -0.0157
 2677SOL    HW119490   2.806   1.176   6.226 -0.0716 -0.8435  2.1204
 2677SOL    HW219491   2.683   1.234   6.149 -1.2174 -0.2500  0.5654
 2678SOL     OW19492   1.435   3.889   8.563 -0.2664  0.2753  0.5538
 2678SOL    HW119493   1.386   3.825   8.512  0.4535 -0.0499  0.2660
 2678SOL    HW219494   1.480   3.836   8.628 -0.8815 -0.0585  0.7063
 2679SOL     OW19495   1.668   2.715  13.446 -0.6960 -0.4126 -0.4972
 2679SOL    HW119496   1.680   2.708  13.541 -2.0726  1.8776 -0.1455
 2679SOL    HW219497   1.756   2.697  13.413 -0.0810  2.7886 -0.6464
 2680SOL     OW19498   0.718   4.028  11.403 -0.5943 -0.0975  0.1029
 2680SOL    HW119499   0.703   3.935  11.388 -1.7446  0.1063  0.0214
 2680SOL    HW219500   0.773   4.027  11.482 -0.4079  0.4767 -0.0157
 2681SOL     OW19501   3.913   2.478   4.565 -0.1302 -0.4651 -1.0173
 2681SOL    HW119502   3.945   2.454   4.478 -0.2583 -0.1195 -1.1604
 2681SOL    HW219503   3.846   2.411   4.581  2.4243 -2.6027  0.5363
 2682SOL     OW19504   4.649   2.497   9.898  0.2053  0.2191 -0.4758
 2682SOL    HW119505   4.586   2.548   9.950 -2.9508 -1.6890 -2.4564
 2682SOL    HW219506   4.601   2.414   9.897  1.6480 -0.6138 -0.9699
 2683SOL     OW19507   2.875   4.094  10.252  0.1011 -0.1172 -0.2307
 2683SOL    HW119508   2.962   4.063  10.280  0.0773 -1.5214 -1.7318
 2683SOL    HW219509   2.823   4.039  10.311  1.6917 -0.4052  0.9072
 2684SOL     OW19510   0.734   4.123   9.902  0.5966  0.0879 -0.6309
 2684SOL    HW119511   0.788   4.108   9.824 -1.5269 -0.1225 -2.0804
 2684SOL    HW219512   0.643   4.113   9.871 -0.0339 -0.1021  1.3057
 2685SOL     OW19513   1.655   1.091   7.593  0.6939  0.0110  0.4836
 2685SOL    HW119514   1.581   1.067   7.650  1.3303 -0.1087  1.2640
 2685SOL    HW219515   1.697   1.162   7.641  1.4856 -0.5542  0.6239
 2686SOL     OW19516   0.242   1.001  14.785 -0.4446 -0.4440 -0.2989
 2686SOL    HW119517   0.325   0.964  14.816 -0.4286  2.6612  3.3872
 2686SOL    HW219518   0.196   0.929  14.742  0.5418 -1.0256 -0.3722
 2687SOL     OW19519   2.330   3.201   6.361 -0.4691 -0.5887  0.5235
 2687SOL    HW119520   2.242   3.195   6.400 -1.2496  0.5670 -1.0445
 2687SOL    HW219521   2.314   3.239   6.274  0.7526  0.1653  0.6270
 2688SOL     OW19522   2.318   3.325   4.760  0.3214  0.2989 -0.0838
 2688SOL    HW119523   2.347   3.376   4.684 -0.2075  0.0356 -0.4643
 2688SOL    HW219524   2.241   3.377   4.782  0.9608  0.2378  2.3254
 2689SOL     OW19525   3.506   1.263   7.235 -0.1112 -0.0276 -0.1172
 2689SOL    HW119526   3.544   1.179   7.213  2.2472  0.3446  2.6540
 2689SOL    HW219527   3.413   1.240   7.239 -0.0336  0.0480  2.1961
 2690SOL     OW19528   3.505   4.546   8.791 -0.1512 -0.1360 -0.1991
 2690SOL    HW119529   3.514   4.622   8.734 -0.6192 -0.3244 -0.5202
 2690SOL    HW219530   3.494   4.588   8.877  0.6625  0.5776 -0.4389
 2691SOL     OW19531   4.077   1.977   5.980 -0.4460 -0.0929 -0.5568
 2691SOL    HW119532   4.036   2.053   5.939  1.2564  1.6795  1.0161
 2691SOL    HW219533   4.063   1.914   5.910 -1.4977 -0.1816 -0.2685
 2692SOL     OW19534   3.927   2.763   0.600  0.5675  0.0024 -0.4765
 2692SOL    HW119535   3.868   2.709   0.547 -1.2784  1.1366  0.4608
 2692SOL    HW219536   3.923   2.724   0.687  1.7268 -0.0976 -0.4627
 2693SOL     OW19537   1.092   0.698   6.610  0.4091 -0.4098  0.2960
 2693SOL    HW119538   1.022   0.708   6.675 -0.5868  1.6197 -1.1157
 2693SOL    HW219539   1.134   0.783   6.620 -0.6422  0.0687  0.6529
 2694SOL     OW19540   2.541   1.320   6.999 -0.7135  0.0458  0.5619
 2694SOL    HW119541   2.462   1.272   6.974  0.1103 -0.8124 -0.4061
 2694SOL    HW219542   2.511   1.410   6.989  1.5978  0.6143 -1.2228
 2695SOL     OW19543   4.321   0.027   5.253 -0.4439  0.3303 -0.2922
 2695SOL    HW119544   4.376   0.026   5.331 -0.1001 -1.9823 -0.5713
 2695SOL    HW219545   4.331   0.119   5.226 -0.2903 -0.1544 -1.9232
 2696SOL     OW19546   2.959   3.034  11.482  0.6002 -0.2472 -0.1002
 2696SOL    HW119547   3.043   3.051  11.526  0.2741 -0.0110  0.4320
 2696SOL    HW219548   2.929   2.962  11.537  1.3070 -0.3109  0.2043
 2697SOL     OW19549   1.909   3.724   6.099 -0.0754 -0.7151 -0.5657
 2697SOL    HW119550   1.902   3.663   6.172  1.2671  2.4438  2.2236
 2697SOL    HW219551   2.001   3.726   6.073 -0.3672  1.1944 -1.5137
 2698SOL     OW19552   2.211   1.010   4.184  0.0970  0.1411 -0.0113
 2698SOL    HW119553   2.250   0.983   4.268  0.4463  0.5823 -0.0326
 2698SOL    HW219554   2.279   1.065   4.145  0.3494 -1.0833 -1.3008
 2699SOL     OW19555   3.814   0.757   6.074  0.0201  0.3410 -0.4900
 2699SOL    HW119556   3.813   0.767   6.170  0.8758 -0.8407 -0.3614
 2699SOL    HW219557   3.809   0.663   6.062  0.4820  0.4633 -1.6695
 2700SOL     OW19558   2.395   3.309   7.715  0.6494  0.2875  0.2346
 2700SOL    HW119559   2.415   3.270   7.630  2.0609  0.9740  0.2559
 2700SOL    HW219560   2.374   3.396   7.681  2.0668  0.3712 -0.4317
 2701SOL     OW19561   1.369   1.303   3.031  0.5790 -0.0036  0.3953
 2701SOL    HW119562   1.389   1.378   2.975 -0.8075  1.2855  1.6393
 2701SOL    HW219563   1.334   1.241   2.967 -2.4715  2.0932  0.0240
 2702SOL     OW19564   3.645   2.288   0.071 -0.0258 -0.0271 -0.0346
 2702SOL    HW119565   3.731   2.296   0.114 -0.2188  0.3919  0.2770
 2702SOL    HW219566   3.587   2.311   0.144 -0.7296 -0.0505 -0.5959
 2703SOL     OW19567   3.157   1.942   4.215  0.1845  0.0647  0.6563
 2703SOL    HW119568   3.231   1.980   4.168 -0.1188  0.6336  0.6362
 2703SOL    HW219569   3.209   1.894   4.278  0.5764 -0.8539 -0.3650
 2704SOL     OW19570   3.506   0.028   2.331 -0.1130 -0.2496  0.0110
 2704SOL    HW119571   3.415   0.049   2.310 -0.2220  0.6613  1.3627
 2704SOL    HW219572   3.539   4.680   2.271 -0.6977 -1.2791  0.8373
 2705SOL     OW19573   2.360   1.783  17.625 -0.7811  0.3353  0.1695
 2705SOL    HW119574   2.278   1.745  17.593 -1.4685  1.0651  1.0695
 2705SOL    HW219575   2.328   1.873  17.618  0.2497  0.6549 -0.5376
 2706SOL     OW19576   1.011   0.225   4.346  0.3860 -0.2512 -0.1139
 2706SOL    HW119577   1.034   0.202   4.256 -0.0113  0.0402 -0.2866
 2706SOL    HW219578   0.922   0.260   4.350  0.9174  1.1008 -0.2610
 2707SOL     OW19579   3.223   4.179   0.479 -0.0313  0.1728 -0.3648
 2707SOL    HW119580   3.249   4.161   0.569  0.6772  0.1368 -0.5772
 2707SOL    HW219581   3.260   4.104   0.432  1.9449  0.9880 -0.1119
 2708SOL     OW19582   3.007   0.416  12.254 -0.7111  0.3580  0.5701
 2708SOL    HW119583   3.089   0.452  12.218  1.1129 -1.2976  3.0361
 2708SOL    HW219584   2.951   0.427  12.177  1.5007  0.7740 -0.9847
 2709SOL     OW19585   2.691   1.752   5.999  0.2992  0.1151 -0.3591
 2709SOL    HW119586   2.609   1.706   5.982 -0.2194  2.1524 -3.3947
 2709SOL    HW219587   2.693   1.842   5.968 -0.1317  0.0702 -0.5125
 2710SOL     OW19588   2.747   3.556   3.158 -0.1998 -0.1220  0.0343
 2710SOL    HW119589   2.839   3.543   3.184  0.0687  0.0489 -0.8295
 2710SOL    HW219590   2.761   3.584   3.067  1.1777  1.5908  0.7790
 2711SOL     OW19591   2.730   3.443  15.129  0.7327  0.0325 -0.2203
 2711SOL    HW119592   2.806   3.483  15.172  0.2916  0.1445  0.4486
 2711SOL    HW219593   2.763   3.431  15.040 -0.8491 -0.4257 -0.7440
 2712SOL     OW19594   0.844   1.090  13.718  0.4589 -0.1214 -0.1847
 2712SOL    HW119595   0.934   1.119  13.735 -0.0909  1.7686 -0.5615
 2712SOL    HW219596   0.834   1.007  13.765 -0.3915 -0.3696 -0.8028
 2713SOL     OW19597   2.900   3.487  11.907  0.2275 -0.2587 -0.1195
 2713SOL    HW119598   2.951   3.528  11.837 -0.0688  0.7593  0.2529
 2713SOL    HW219599   2.867   3.409  11.863 -1.2114  0.5898 -0.5541
 2714SOL     OW19600   0.403   2.848   8.791 -0.0363 -0.1524  0.2072
 2714SOL    HW119601   0.324   2.879   8.746  1.1118 -0.0170 -1.7103
 2714SOL    HW219602   0.465   2.850   8.718 -0.9120 -0.6985 -0.5563
 2715SOL     OW19603   1.485   1.279   9.551  0.1518 -0.3366  0.2898
 2715SOL    HW119604   1.517   1.349   9.609 -1.1385 -0.1315  0.7549
 2715SOL    HW219605   1.483   1.317   9.463 -0.3972  2.6376  1.5569
 2716SOL     OW19606   3.307   1.940   1.547 -0.1868 -0.0635  0.4213
 2716SOL    HW119607   3.393   1.939   1.590  0.3933 -2.7555 -0.8664
 2716SOL    HW219608   3.287   1.847   1.539 -0.7718 -0.2898  4.3672
 2717SOL     OW19609   1.043   1.362  12.163  0.1844  0.3519  0.1247
 2717SOL    HW119610   0.995   1.300  12.218 -1.0284  1.7709  0.6477
 2717SOL    HW219611   1.115   1.379  12.224  0.2764 -0.5488  0.2756
 2718SOL     OW19612   0.833   3.858   4.911  0.4235 -0.2545 -0.0936
 2718SOL    HW119613   0.765   3.879   4.975 -1.4813 -2.5480 -1.3524
 2718SOL    HW219614   0.804   3.769   4.889  0.9497 -0.2050 -1.0221
 2719SOL     OW19615   2.128   2.667  12.237  0.5392 -0.0450  0.2938
 2719SOL    HW119616   2.036   2.647  12.218  0.7381 -0.9596  0.2926
 2719SOL    HW219617   2.128   2.761  12.254 -1.5750  0.1615 -0.9109
 2720SOL     OW19618   0.256   0.799   8.083 -0.5687  0.0390  0.5398
 2720SOL    HW119619   0.313   0.838   8.017  1.4155 -1.3947  1.3938
 2720SOL    HW219620   0.187   0.865   8.091 -0.9684 -0.2452 -0.5416
 2721SOL     OW19621   4.373   2.848   0.407  0.7194 -0.3446  0.0866
 2721SOL    HW119622   4.337   2.788   0.342  0.6106  1.4912 -1.5422
 2721SOL    HW219623   4.407   2.775   0.459  2.1398 -0.1614 -0.5741
 2722SOL     OW19624   3.528   4.317   5.681  0.4409  0.7431 -0.2109
 2722SOL    HW119625   3.587   4.392   5.677  3.0461 -1.4952 -3.5558
 2722SOL    HW219626   3.550   4.277   5.597 -0.3292  2.6547 -1.3062
 2723SOL     OW19627   4.079   3.720   7.885 -0.2366 -0.5902  0.1052
 2723SOL    HW119628   4.097   3.653   7.951  2.1021 -0.4068 -0.3385
 2723SOL    HW219629   3.998   3.688   7.845  0.9977 -1.8187 -1.4263
 2724SOL     OW19630   1.044   4.060   0.186 -0.3055  0.2718  0.0403
 2724SOL    HW119631   1.089   4.143   0.169  0.7243 -0.3141 -0.0840
 2724SOL    HW219632   1.078   4.055   0.275 -1.9095  0.6905  0.6861
 2725SOL     OW19633   2.416   4.393  15.701 -0.0741  0.3766  0.2357
 2725SOL    HW119634   2.418   4.334  15.625  0.2827  1.8354 -0.8853
 2725SOL    HW219635   2.335   4.439  15.682  0.9679  1.7715 -0.8884
 2726SOL     OW19636   2.425   2.341   6.881 -0.3690 -0.0800  0.1576
 2726SOL    HW119637   2.517   2.314   6.887 -1.2237 -2.9713  0.2038
 2726SOL    HW219638   2.430   2.393   6.961 -1.2209  0.3687 -0.0844
 2727SOL     OW19639   3.022   0.447  11.536  0.1073 -0.5803 -0.0087
 2727SOL    HW119640   2.927   0.456  11.525  0.5742  0.2013 -3.6295
 2727SOL    HW219641   3.036   0.389  11.462  0.7970 -0.0322 -0.3074
 2728SOL     OW19642   4.578   2.544   2.510 -0.1591  0.0731 -0.0116
 2728SOL    HW119643   4.639   2.603   2.554 -1.5696  2.1755 -0.9355
 2728SOL    HW219644   4.643   2.473   2.509  0.4592  0.6223  2.1986
 2729SOL     OW19645   0.074   0.503  16.673 -0.8508  0.0186  0.0012
 2729SOL    HW119646   0.126   0.449  16.733  1.0783  0.0162 -1.6652
 2729SOL    HW219647   0.084   0.584  16.722 -0.2696  1.1293 -1.9542
 2730SOL     OW19648   4.657   0.837   4.695 -0.3175 -0.2845  0.1664
 2730SOL    HW119649   4.712   0.913   4.673  0.5759 -0.1839  2.7859
 2730SOL    HW219650   4.707   0.761   4.667  0.7587 -0.3656  2.2793
 2731SOL     OW19651   1.973   2.175  11.482 -0.7273 -0.1589  0.2636
 2731SOL    HW119652   2.012   2.127  11.410  1.3715 -1.6266  2.3951
 2731SOL    HW219653   1.887   2.173  11.440 -0.5055  0.8941 -0.2386
 2732SOL     OW19654   1.336   4.047   7.138 -0.0774 -0.1807  0.0511
 2732SOL    HW119655   1.279   3.971   7.142  2.4175 -1.8746  3.0587
 2732SOL    HW219656   1.316   4.100   7.215  1.1810 -1.7640  1.4588
 2733SOL     OW19657   1.640   1.734   2.375  0.2706 -0.7130 -0.7226
 2733SOL    HW119658   1.588   1.718   2.296 -1.1893 -1.2866  0.3548
 2733SOL    HW219659   1.577   1.695   2.435 -0.1453 -0.0682 -0.7331
 2734SOL     OW19660   0.206   2.226   5.882 -0.3200  0.3656 -0.2630
 2734SOL    HW119661   0.135   2.203   5.822  0.5257 -1.4070 -0.6035
 2734SOL    HW219662   0.187   2.314   5.914  1.4680  0.7383 -0.2091
 2735SOL     OW19663   0.721   0.135  14.912  0.0011  0.0020 -0.2002
 2735SOL    HW119664   0.779   0.070  14.872 -0.8951  0.6057 -2.4867
 2735SOL    HW219665   0.685   0.087  14.987  2.4244 -1.4308  0.0580
 2736SOL     OW19666   0.767   0.406   8.069 -0.0812  0.0477  0.0374
 2736SOL    HW119667   0.711   0.385   8.145  0.9621 -1.3311  0.4249
 2736SOL    HW219668   0.699   0.456   8.024  0.1402  1.6268  1.4433
 2737SOL     OW19669   0.712   2.893  14.151  0.2881  0.2856 -0.1463
 2737SOL    HW119670   0.732   2.987  14.146  3.0200 -0.3227 -0.6696
 2737SOL    HW219671   0.750   2.862  14.069  1.5807 -1.6328  1.1845
 2738SOL     OW19672   0.923   3.001   7.849 -0.1854 -0.4260 -0.3396
 2738SOL    HW119673   0.963   3.040   7.771 -1.3086  0.2589 -0.5700
 2738SOL    HW219674   0.995   2.948   7.883  0.9380  1.8490  0.8317
 2739SOL     OW19675   2.306   1.195  16.920  0.7855 -0.2117 -0.5772
 2739SOL    HW119676   2.271   1.161  16.837 -2.2170  0.4706  0.4246
 2739SOL    HW219677   2.226   1.195  16.972  0.9379 -0.2340 -0.3460
 2740SOL     OW19678   4.135   1.368  10.733 -0.2533  0.2657  0.2059
 2740SOL    HW119679   4.087   1.312  10.672 -0.5462 -1.5527  2.0809
 2740SOL    HW219680   4.223   1.353  10.698  0.1612 -0.6709  1.6630
 2741SOL     OW19681   0.327   1.579  11.742  0.0163  0.0781 -0.0452
 2741SOL    HW119682   0.293   1.617  11.661  1.3888 -1.9408 -1.5510
 2741SOL    HW219683   0.324   1.656  11.799 -1.2438 -2.0611  2.8007
 2742SOL     OW19684   3.668   3.793  16.649  0.1315  0.3654 -0.4426
 2742SOL    HW119685   3.668   3.880  16.610  3.6425  1.2923  1.6700
 2742SOL    HW219686   3.595   3.751  16.603 -0.7855  1.1406  0.3061
 2743SOL     OW19687   1.885   3.304  12.625  0.3569 -0.4443 -0.3205
 2743SOL    HW119688   1.827   3.303  12.549 -0.9979 -1.1721  0.7221
 2743SOL    HW219689   1.900   3.210  12.633 -0.4852 -0.6663 -1.3037
 2744SOL     OW19690   0.068   2.620  13.470  0.5563 -0.8716  0.0415
 2744SOL    HW119691   0.059   2.545  13.529  2.1564 -0.0783  1.3221
 2744SOL    HW219692   0.085   2.695  13.528  0.4029  0.0815 -1.1318
 2745SOL     OW19693   0.505   1.959   3.333  0.2409  0.1877  0.4658
 2745SOL    HW119694   0.485   2.051   3.345 -0.1748  0.3088 -1.2360
 2745SOL    HW219695   0.444   1.910   3.388  0.0588  2.0358  1.8936
 2746SOL     OW19696   2.913   2.183   5.798 -0.4510 -0.3422 -0.0031
 2746SOL    HW119697   2.997   2.144   5.820  0.4363  0.0151 -2.7771
 2746SOL    HW219698   2.914   2.194   5.703  1.8668  1.8762  0.2676
 2747SOL     OW19699   0.416   2.857   1.175 -0.2145 -0.3574 -0.0622
 2747SOL    HW119700   0.499   2.897   1.201 -1.6522  2.8877 -0.4808
 2747SOL    HW219701   0.390   2.815   1.257  0.9743 -0.6604  0.1636
 2748SOL     OW19702   0.040   2.033   5.258  0.0862  0.6586 -0.3458
 2748SOL    HW119703   0.017   1.941   5.267  2.2777  0.1606  0.1800
 2748SOL    HW219704   0.053   2.031   5.163  0.8648 -0.0296 -0.2274
 2749SOL     OW19705   0.300   2.627   7.346 -0.4691 -0.4452  0.2707
 2749SOL    HW119706   0.242   2.627   7.269 -0.8061  1.4695  0.5345
 2749SOL    HW219707   0.352   2.705   7.330  0.0056 -0.8907 -0.3465
 2750SOL     OW19708   3.187   3.119   0.371 -0.4824  0.1334  0.6307
 2750SOL    HW119709   3.144   3.055   0.313  1.2343  0.3864 -0.9220
 2750SOL    HW219710   3.133   3.111   0.449 -1.6009  0.8426 -0.0769
 2751SOL     OW19711   4.011   0.769  16.020 -0.5433 -0.0708  0.0772
 2751SOL    HW119712   4.027   0.702  15.954 -2.0068 -1.0984  0.7572
 2751SOL    HW219713   3.973   0.717  16.091  1.2530  1.1954  1.9519
 2752SOL     OW19714   3.788   0.688  11.814 -0.0503 -0.1234  0.1308
 2752SOL    HW119715   3.704   0.735  11.816  0.4429  0.8009 -0.5907
 2752SOL    HW219716   3.802   0.689  11.720 -1.7479  0.1490 -0.1375
 2753SOL     OW19717   0.983   1.355   5.433  0.0297 -0.4364 -0.1026
 2753SOL    HW119718   1.067   1.332   5.473  2.3384  3.2127 -2.8860
 2753SOL    HW219719   1.000   1.428   5.374  0.2993  0.4458  1.0686
 2754SOL     OW19720   2.877   1.383  13.457  0.7086 -0.3214 -0.3136
 2754SOL    HW119721   2.810   1.387  13.389  1.3300 -0.6512 -0.9541
 2754SOL    HW219722   2.956   1.377  13.403  0.9254 -1.5351  0.1321
 2755SOL     OW19723   1.718   1.556   1.920 -0.0203 -0.5071  0.0870
 2755SOL    HW119724   1.801   1.591   1.952  1.4267 -1.8807 -2.1827
 2755SOL    HW219725   1.672   1.540   2.002 -0.8991 -0.7364 -0.4523
 2756SOL     OW19726   4.248   1.646   1.677 -0.9655 -0.2139  0.7057
 2756SOL    HW119727   4.302   1.585   1.727 -1.9455  0.3481  2.4097
 2756SOL    HW219728   4.174   1.653   1.737 -1.3930 -1.4948  0.3351
 2757SOL     OW19729   2.265   4.501   1.988  0.0371  0.5442 -0.4049
 2757SOL    HW119730   2.308   4.539   1.911  1.3351  0.1791  0.1425
 2757SOL    HW219731   2.186   4.463   1.950 -0.1088  0.0911  0.3507
 2758SOL     OW19732   4.589   3.280   2.428  0.3890 -0.3210 -0.2450
 2758SOL    HW119733   4.592   3.332   2.348 -1.7139 -0.4340 -0.4086
 2758SOL    HW219734   4.587   3.193   2.388  1.3021 -0.2929 -0.3571
 2759SOL     OW19735   2.121   3.544   4.209 -0.1958  0.1808 -0.3496
 2759SOL    HW119736   2.179   3.602   4.160  0.5808  1.6291  2.2676
 2759SOL    HW219737   2.046   3.543   4.150  1.1230  2.0048 -2.0415
 2760SOL     OW19738   4.198   0.667  17.144  0.0928 -0.0700 -0.2502
 2760SOL    HW119739   4.115   0.714  17.142  0.4661  0.6209  0.9184
 2760SOL    HW219740   4.207   0.635  17.233  0.7654  0.7205 -0.0407
 2761SOL     OW19741   1.692   4.329   6.231 -0.2048 -0.1664  0.4162
 2761SOL    HW119742   1.612   4.323   6.179 -1.3828  3.1372  1.9022
 2761SOL    HW219743   1.679   4.415   6.270 -0.2720  0.0032  0.0107
 2762SOL     OW19744   0.518   2.850   8.554 -0.1546 -0.1101  0.2674
 2762SOL    HW119745   0.582   2.807   8.498 -1.6791 -1.9856 -0.0087
 2762SOL    HW219746   0.470   2.898   8.486  0.1815  0.2410  0.2796
 2763SOL     OW19747   1.986   0.023   1.759  0.0482 -0.7867 -0.1150
 2763SOL    HW119748   2.072   4.710   1.731 -0.2214 -1.6899  0.0854
 2763SOL    HW219749   1.935   0.020   1.678  0.2247  1.4141 -0.2932
 2764SOL     OW19750   1.205   3.414   2.222 -0.1382  0.5248  0.4578
 2764SOL    HW119751   1.164   3.353   2.283 -0.9411 -1.1905 -1.7946
 2764SOL    HW219752   1.130   3.437   2.168  0.6374  0.0499 -0.8116
 2765SOL     OW19753   0.629   2.108   7.675 -0.1153 -1.0167 -0.2550
 2765SOL    HW119754   0.687   2.146   7.609  0.5058 -1.4290  0.0520
 2765SOL    HW219755   0.683   2.103   7.754  1.7915 -2.3724 -1.6614
 2766SOL     OW19756   2.569   1.583   1.635 -0.0121 -0.1383 -0.1859
 2766SOL    HW119757   2.601   1.531   1.709 -3.0944  1.0376  1.9849
 2766SOL    HW219758   2.484   1.612   1.668  1.3259  2.3137  1.1238
 2767SOL     OW19759   4.157   3.779   6.751 -0.0324 -0.5081  0.0783
 2767SOL    HW119760   4.203   3.716   6.695  0.5246 -2.2016  2.4154
 2767SOL    HW219761   4.209   3.762   6.829 -3.0646  1.6963  2.5642
 2768SOL     OW19762   1.928   0.512  11.942  1.0451 -0.4567  0.8998
 2768SOL    HW119763   1.970   0.479  11.863  2.0826  2.5626  0.1846
 2768SOL    HW219764   2.000   0.521  12.005  1.4194  1.4355  0.2067
 2769SOL     OW19765   1.976   0.442   7.219  0.5501 -0.1176  0.5032
 2769SOL    HW119766   2.034   0.508   7.182  0.0624  0.0553  0.0495
 2769SOL    HW219767   1.903   0.452   7.158  0.4013 -0.5059  0.6133
 2770SOL     OW19768   3.250   3.351   0.514  0.6465  0.1633 -0.0575
 2770SOL    HW119769   3.231   3.291   0.442 -2.1344 -0.4474  1.2108
 2770SOL    HW219770   3.195   3.308   0.579  1.4896 -1.1136 -0.1844
 2771SOL     OW19771   0.068   3.952  12.835  0.0749  0.8100 -0.4160
 2771SOL    HW119772   0.038   3.862  12.839  5.0630 -0.8657 -0.6951
 2771SOL    HW219773   0.114   3.952  12.752 -0.7472 -1.8572 -0.8569
 2772SOL     OW19774   0.008   1.859   4.005  0.4239 -1.0961  0.0492
 2772SOL    HW119775   0.074   1.853   4.075 -1.4359 -2.3040  1.7035
 2772SOL    HW219776   4.664   1.918   4.046  0.1674 -0.5097 -1.1983
 2773SOL     OW19777   0.871   1.286   6.191 -0.2518  0.2000  0.4230
 2773SOL    HW119778   0.911   1.199   6.199 -1.3618 -0.3539 -0.2190
 2773SOL    HW219779   0.782   1.254   6.205  0.3793 -0.8329  2.0628
 2774SOL     OW19780   4.396   0.670  12.096  0.2892  0.5588  0.1432
 2774SOL    HW119781   4.365   0.749  12.140 -0.1420 -0.3667  1.5232
 2774SOL    HW219782   4.318   0.653  12.043  1.3054  1.6561 -1.7084
 2775SOL     OW19783   1.115   0.562   0.262 -0.1302 -0.1332  0.0840
 2775SOL    HW119784   1.203   0.584   0.295  1.4676 -1.1467 -3.5653
 2775SOL    HW219785   1.120   0.467   0.261 -0.0202 -0.1402  1.1034
 2776SOL     OW19786   1.710   0.248   7.062 -0.1496  0.2278  0.3066
 2776SOL    HW119787   1.636   0.252   7.123 -0.7077 -1.4813 -0.2620
 2776SOL    HW219788   1.671   0.274   6.979 -0.6834 -0.8465  0.2253
 2777SOL     OW19789   4.679   2.516  11.812  0.4158  0.7458  0.2386
 2777SOL    HW119790   4.709   2.560  11.891  2.1775 -0.6713  0.3699
 2777SOL    HW219791   4.650   2.429  11.839 -1.5729  1.8302  1.5088
 2778SOL     OW19792   3.899   4.162   1.130  0.9022  0.3646  0.7549
 2778SOL    HW119793   3.973   4.222   1.124  0.3427  1.2194  2.5050
 2778SOL    HW219794   3.835   4.225   1.099  0.8564 -1.1357 -2.1835
 2779SOL     OW19795   3.638   3.544   8.066 -0.4383 -0.0614  0.1821
 2779SOL    HW119796   3.549   3.577   8.059 -0.8743 -0.8870  1.8695
 2779SOL    HW219797   3.633   3.468   8.008  2.7788 -0.2618  0.1403
 2780SOL     OW19798   3.254   2.311  16.966 -0.2340 -0.1507 -0.1360
 2780SOL    HW119799   3.316   2.309  16.893 -0.2453  0.7104 -0.1699
 2780SOL    HW219800   3.271   2.230  17.013 -1.8216 -0.1496  0.4404
 2781SOL     OW19801   3.423   4.499   6.710 -0.5973 -0.0994  0.5044
 2781SOL    HW119802   3.438   4.525   6.620 -0.5120  1.1380  0.8779
 2781SOL    HW219803   3.363   4.570   6.731 -1.3230  0.2557 -2.7887
 2782SOL     OW19804   0.536   4.180   7.179 -0.3836 -0.4460  0.0491
 2782SOL    HW119805   0.543   4.217   7.091  0.4628  0.3248  0.4365
 2782SOL    HW219806   0.599   4.227   7.234 -0.6795  1.8527 -1.6194
 2783SOL     OW19807   2.076   2.253  15.449  0.1013  0.4327 -0.2627
 2783SOL    HW119808   2.043   2.259  15.539 -0.8500 -2.0960 -0.4439
 2783SOL    HW219809   2.109   2.163  15.446  1.1416  0.9100 -2.8759
 2784SOL     OW19810   1.378   1.673   2.575 -0.3519 -0.8765 -0.3648
 2784SOL    HW119811   1.380   1.586   2.616 -1.8226  0.5602  2.7370
 2784SOL    HW219812   1.295   1.668   2.529 -0.0858 -0.4862 -0.8917
 2785SOL     OW19813   4.338   1.621   2.769 -0.0330 -0.2838 -0.4330
 2785SOL    HW119814   4.296   1.551   2.819  1.4911 -0.4989  0.5416
 2785SOL    HW219815   4.353   1.686   2.838  1.0884 -0.1180 -0.8279
 2786SOL     OW19816   1.695   3.349   8.643 -0.2034 -0.4299  0.3275
 2786SOL    HW119817   1.734   3.430   8.610  2.4193 -2.3937 -1.4075
 2786SOL    HW219818   1.660   3.381   8.727  0.6602 -1.1758  0.9760
 2787SOL     OW19819   4.470   1.844  10.215 -0.2090  0.0857  0.3243
 2787SOL    HW119820   4.404   1.779  10.190 -0.1637  0.6317 -1.2429
 2787SOL    HW219821   4.494   1.881  10.130  0.3374  0.7162  0.7503
 2788SOL     OW19822   3.257   0.387  11.733  0.0389  0.7263 -0.2817
 2788SOL    HW119823   3.309   0.462  11.763  0.1331  0.8258 -0.6912
 2788SOL    HW219824   3.183   0.427  11.687 -1.0749  0.6360  1.4286
 2789SOL     OW19825   2.217   2.419   8.637 -0.0834  0.1783  0.1286
 2789SOL    HW119826   2.248   2.372   8.714  2.5398 -0.0541 -1.0809
 2789SOL    HW219827   2.153   2.478   8.678  0.5508 -0.6892  2.3697
 2790SOL     OW19828   0.577   2.843   1.717  0.3832  0.2555  0.0581
 2790SOL    HW119829   0.649   2.894   1.753 -1.3548  1.6414  1.5587
 2790SOL    HW219830   0.503   2.904   1.711  0.5477  0.0691 -4.1000
 2791SOL     OW19831   0.273   4.423   2.840  0.4149  0.2765 -0.5825
 2791SOL    HW119832   0.250   4.347   2.786 -1.9981  0.1362  0.6061
 2791SOL    HW219833   0.367   4.411   2.849  0.1293 -2.8524 -1.7068
 2792SOL     OW19834   1.339   0.510   5.652 -0.1873 -0.0077  0.1271
 2792SOL    HW119835   1.346   0.547   5.564 -0.9679 -1.3631 -0.5054
 2792SOL    HW219836   1.314   0.423   5.621 -1.3241  0.0309  0.9239
 2793SOL     OW19837   4.353   4.419  12.100  0.1467  0.5534 -0.0951
 2793SOL    HW119838   4.363   4.357  12.028 -1.0706  0.5821 -0.2752
 2793SOL    HW219839   4.418   4.488  12.086  1.3150 -0.1693  1.6928
 2794SOL     OW19840   4.648   0.628  14.717 -0.2582  0.5229  0.4219
 2794SOL    HW119841   4.657   0.621  14.812  0.2585 -0.5059  0.2959
 2794SOL    HW219842   0.006   0.576  14.694 -0.0157  0.2295  1.8701
 2795SOL     OW19843   4.034   0.704   4.760  0.1134 -0.3109  0.1303
 2795SOL    HW119844   4.006   0.643   4.691  1.5587  0.3108 -0.9857
 2795SOL    HW219845   3.985   0.682   4.840 -0.2395  1.7200  0.4607
 2796SOL     OW19846   1.813   0.508   4.213  0.3986  0.5840  0.1696
 2796SOL    HW119847   1.718   0.501   4.202  0.6932  1.6837 -2.8879
 2796SOL    HW219848   1.853   0.432   4.254 -0.1704  0.0577 -0.2571
 2797SOL     OW19849   3.193   0.103   5.917  0.4067 -0.0831  0.0981
 2797SOL    HW119850   3.254   0.153   5.862 -0.6841 -0.8551 -1.7820
 2797SOL    HW219851   3.242   0.022   5.905  0.6025  0.5408 -3.1909
 2798SOL     OW19852   4.431   4.194   6.561  0.0759  0.0795  0.8624
 2798SOL    HW119853   4.489   4.123   6.590  2.0077  0.9788 -0.7915
 2798SOL    HW219854   4.349   4.145   6.561  0.1908 -0.1174  1.4238
 2799SOL     OW19855   2.843   0.868   7.367  0.0009  0.1625  0.6142
 2799SOL    HW119856   2.882   0.811   7.433  4.7865  1.1086 -1.3979
 2799SOL    HW219857   2.781   0.924   7.413 -1.5216 -0.4433 -0.6921
 2800SOL     OW19858   4.529   4.313   2.913  0.6050  0.1681 -0.6722
 2800SOL    HW119859   4.612   4.285   2.875  0.3071 -0.8496 -0.5838
 2800SOL    HW219860   4.527   4.404   2.884 -0.0490  0.7170  1.1173
 2801SOL     OW19861   2.455   2.431   7.593  0.0616 -0.4090  0.5111
 2801SOL    HW119862   2.414   2.435   7.679  0.2316 -0.7593  0.6073
 2801SOL    HW219863   2.537   2.477   7.614 -0.2764  0.8616 -0.8775
 2802SOL     OW19864   2.541   0.227   9.032 -0.3705 -0.0484 -0.3679
 2802SOL    HW119865   2.496   0.311   9.026  0.5927  0.3052 -2.7923
 2802SOL    HW219866   2.531   0.213   9.126  0.5010  1.0417 -0.1132
 2803SOL     OW19867   1.574   2.525   4.083 -0.1557  0.0384 -0.3388
 2803SOL    HW119868   1.639   2.587   4.116 -1.4074 -0.7035  3.5740
 2803SOL    HW219869   1.540   2.590   4.022  0.0646  1.3931  0.9647
 2804SOL     OW19870   0.999   2.872  12.734  0.5080  0.4558 -0.2573
 2804SOL    HW119871   0.914   2.904  12.705  1.2002  2.0804 -0.5109
 2804SOL    HW219872   1.050   2.868  12.653 -0.4251 -1.0745 -0.7574
 2805SOL     OW19873   0.458   3.921  10.506  0.2038  0.2121 -0.2142
 2805SOL    HW119874   0.435   4.011  10.485  0.3413  0.3491  0.2279
 2805SOL    HW219875   0.540   3.908  10.457 -0.0442  1.0655 -0.8541
 2806SOL     OW19876   1.748   0.657   3.831  0.5907  0.5454  0.1803
 2806SOL    HW119877   1.831   0.614   3.853  0.4801 -0.6349 -1.7494
 2806SOL    HW219878   1.735   0.628   3.741  1.1914  1.4768 -0.2070
 2807SOL     OW19879   3.023   3.808   1.806  0.2942 -0.6233 -0.9065
 2807SOL    HW119880   2.979   3.892   1.819  1.2780 -0.3723  0.7813
 2807SOL    HW219881   3.044   3.825   1.714  0.3450  1.7492 -0.4622
 2808SOL     OW19882   0.985   2.010   7.129 -0.2639  0.3959 -0.4924
 2808SOL    HW119883   0.955   1.964   7.207 -0.2824 -1.4471 -1.5818
 2808SOL    HW219884   0.964   1.961   7.049 -1.0968  2.1974 -1.3811
 2809SOL     OW19885   2.098   1.867   8.483 -0.0373  0.3000  0.2056
 2809SOL    HW119886   2.133   1.864   8.572  0.7841 -1.2732 -0.1641
 2809SOL    HW219887   2.008   1.897   8.496 -0.2315 -0.2283  0.0719
 2810SOL     OW19888   2.749   2.194  15.400  0.3933 -0.1435  0.4701
 2810SOL    HW119889   2.843   2.202  15.416  0.7255  1.1363 -2.0891
 2810SOL    HW219890   2.716   2.280  15.426 -0.3762  0.3310 -2.0948
 2811SOL     OW19891   2.798   0.456  12.874  0.9004 -0.2029 -0.2465
 2811SOL    HW119892   2.779   0.388  12.809 -0.6544  0.6299 -0.6559
 2811SOL    HW219893   2.873   0.421  12.922  1.1202 -0.4066 -0.7284
 2812SOL     OW19894   2.093   3.792   8.592 -0.0881 -0.1339 -0.6197
 2812SOL    HW119895   2.024   3.795   8.659  0.7904 -1.5990  0.3361
 2812SOL    HW219896   2.162   3.750   8.642 -2.0106 -0.4061  1.8077
 2813SOL     OW19897   1.615   4.710   6.266 -0.1763  0.1615 -0.0423
 2813SOL    HW119898   1.587   4.658   6.341  1.7984  1.1281  1.3621
 2813SOL    HW219899   1.708   4.690   6.267 -0.2653 -0.1891  1.2789
 2814SOL     OW19900   3.819   3.377   9.224  0.3486 -0.5790 -0.3794
 2814SOL    HW119901   3.897   3.431   9.237  1.0660 -2.1709  1.8506
 2814SOL    HW219902   3.856   3.295   9.190  0.6504 -0.8425  0.5947
 2815SOL     OW19903   1.679   0.405   8.274 -0.7256 -0.0627  0.2593
 2815SOL    HW119904   1.620   0.339   8.309 -1.5784  0.2249 -0.6542
 2815SOL    HW219905   1.671   0.393   8.179 -1.5859  1.4958  0.1285
 2816SOL     OW19906   4.674   1.988  14.588 -0.0553  0.0569 -0.0199
 2816SOL    HW119907   0.025   1.935  14.549  0.0554  0.6514 -0.6365
 2816SOL    HW219908   0.008   2.009  14.665  0.7067  2.2099 -1.1249
 2817SOL     OW19909   3.242   1.379   6.517  0.2070 -0.0957 -0.2533
 2817SOL    HW119910   3.173   1.363   6.452 -0.1553  1.3967 -0.2358
 2817SOL    HW219911   3.210   1.329   6.592 -1.0072 -1.4200 -1.6319
 2818SOL     OW19912   0.144   2.345   1.732  0.5288 -0.1841  0.0405
 2818SOL    HW119913   0.181   2.347   1.643 -0.8260  0.4866 -0.5091
 2818SOL    HW219914   0.226   2.352   1.781 -0.9968  0.9967  2.4071
 2819SOL     OW19915   3.403   0.151   4.148 -0.0066  0.2114 -0.0687
 2819SOL    HW119916   3.375   0.060   4.148  1.1393 -0.1448 -0.7136
 2819SOL    HW219917   3.346   0.190   4.081  1.1151 -1.8051 -2.1988
 2820SOL     OW19918   0.022   2.299   3.755  0.1949  0.2853  0.0529
 2820SOL    HW119919   4.699   2.269   3.675  1.1955  0.6685 -0.6146
 2820SOL    HW219920   0.088   2.361   3.725 -1.2775  0.7317 -2.2391
 2821SOL     OW19921   3.994   0.882   6.412  0.1400 -0.5608  0.5548
 2821SOL    HW119922   3.956   0.903   6.498 -2.5439  1.2963 -1.0792
 2821SOL    HW219923   3.923   0.832   6.372  0.6125  0.8903 -2.0352
 2822SOL     OW19924   4.563   2.517   6.267 -0.6706 -0.0605 -0.1602
 2822SOL    HW119925   4.601   2.432   6.288  0.6388  1.5409  4.0946
 2822SOL    HW219926   4.647   2.552   6.238 -0.1847 -2.1259 -1.2149
 2823SOL     OW19927   2.214   1.586   1.601 -0.1038 -0.0225 -0.2692
 2823SOL    HW119928   2.185   1.590   1.693  2.1794  0.4087  0.4311
 2823SOL    HW219929   2.199   1.493   1.586  0.9535 -0.4588  1.3364
 2824SOL     OW19930   0.053   1.664   3.155  0.1380  0.0646 -0.1068
 2824SOL    HW119931   0.066   1.572   3.176 -0.6776  0.2790  1.4024
 2824SOL    HW219932   4.704   1.666   3.088  0.8907  0.2996 -0.8484
 2825SOL     OW19933   3.927   3.502  10.273  0.1517  0.4990 -0.0353
 2825SOL    HW119934   3.903   3.412  10.294 -1.0210  1.4414  2.7295
 2825SOL    HW219935   3.846   3.550  10.286  1.2485  2.0846  1.0169
 2826SOL     OW19936   2.781   1.644  13.909 -0.4590  0.4734 -0.3142
 2826SOL    HW119937   2.818   1.562  13.941  0.1140  1.2546  1.0392
 2826SOL    HW219938   2.731   1.616  13.833  0.7734 -0.3134 -0.8354
 2827SOL     OW19939   2.265   1.423   1.930 -0.2695 -0.0070 -0.3199
 2827SOL    HW119940   2.232   1.362   1.996 -1.6028  1.3841  0.2875
 2827SOL    HW219941   2.183   1.439   1.883 -0.7050 -0.3099  0.3357
 2828SOL     OW19942   1.273   2.976   2.128 -1.0014  0.0244 -0.0107
 2828SOL    HW119943   1.268   2.998   2.035 -1.0497 -1.7365 -0.4156
 2828SOL    HW219944   1.298   2.885   2.114  1.3950  0.6827 -0.0603
 2829SOL     OW19945   1.090   0.112   1.563  0.3073 -0.2317 -0.1978
 2829SOL    HW119946   1.157   0.174   1.591 -0.4224  0.7912 -0.7038
 2829SOL    HW219947   1.143   0.037   1.535 -0.0353 -0.4238 -0.3335
 2830SOL     OW19948   2.812   1.823   4.732 -0.2735 -0.1356 -0.5878
 2830SOL    HW119949   2.881   1.787   4.675 -0.8001  1.1152 -2.0074
 2830SOL    HW219950   2.855   1.904   4.760  1.2964 -0.9483 -0.6424
 2831SOL     OW19951   2.061   3.492   2.635  0.1537  0.1736  0.3022
 2831SOL    HW119952   2.039   3.464   2.723 -0.2347  1.9121  0.7556
 2831SOL    HW219953   2.026   3.420   2.583  1.0705 -0.0788  0.0278
 2832SOL     OW19954   1.450   0.618   9.232 -0.0891 -0.1341 -0.0875
 2832SOL    HW119955   1.510   0.666   9.175 -0.0556  0.1630  0.1930
 2832SOL    HW219956   1.386   0.582   9.171  0.0687  1.5218 -1.2254
 2833SOL     OW19957   4.386   2.631   3.908  0.0604 -0.0975  0.1165
 2833SOL    HW119958   4.295   2.624   3.882 -0.4953 -2.2778  2.6225
 2833SOL    HW219959   4.381   2.694   3.980 -2.2501 -0.0669 -0.0987
 2834SOL     OW19960   0.464   2.277   4.073  0.4785 -0.0791  0.6971
 2834SOL    HW119961   0.372   2.284   4.047  0.7433  0.6377 -0.0434
 2834SOL    HW219962   0.478   2.183   4.060 -2.4382 -0.5823  1.0949
 2835SOL     OW19963   1.445   3.635  14.766 -0.2466 -0.3672  0.1391
 2835SOL    HW119964   1.383   3.681  14.710 -1.1804 -1.2619  0.4288
 2835SOL    HW219965   1.403   3.549  14.768  1.3340 -1.1545 -0.4288
 2836SOL     OW19966   3.526   2.775   7.717 -0.5276  0.0381 -0.2049
 2836SOL    HW119967   3.619   2.756   7.717 -0.0337  2.5082 -2.6785
 2836SOL    HW219968   3.510   2.731   7.801  1.9237  1.4588  0.9810
 2837SOL     OW19969   3.158   1.792   1.210 -0.1405 -0.4722 -0.4792
 2837SOL    HW119970   3.172   1.703   1.178 -0.3049 -0.1374 -1.5012
 2837SOL    HW219971   3.095   1.783   1.282  0.5241  1.2022  0.3139
 2838SOL     OW19972   4.701   2.164   6.495  0.2745  0.0639  0.2065
 2838SOL    HW119973   4.715   2.073   6.521  0.3328 -0.0091 -0.0716
 2838SOL    HW219974   4.606   2.166   6.507  0.4012  1.6694  0.9801
 2839SOL     OW19975   3.734   0.513   3.643 -0.1744  0.0515 -0.0829
 2839SOL    HW119976   3.750   0.485   3.553 -3.8511  2.1219 -1.3709
 2839SOL    HW219977   3.679   0.445   3.682 -2.9568  1.6754 -1.2094
 2840SOL     OW19978   4.459   1.573   2.488 -0.4058  0.6311  0.4052
 2840SOL    HW119979   4.409   1.567   2.570  1.9846 -2.4355  1.6232
 2840SOL    HW219980   4.428   1.492   2.448 -0.5692  1.2759 -0.7694
 2841SOL     OW19981   3.404   3.316  14.599  0.3149  0.5409  0.1705
 2841SOL    HW119982   3.329   3.266  14.567  1.6172 -1.3732  0.0867
 2841SOL    HW219983   3.471   3.291  14.535 -0.2740 -0.4462 -0.0681
 2842SOL     OW19984   1.205   1.715   5.664  0.0081 -0.6690  0.8856
 2842SOL    HW119985   1.208   1.623   5.691 -0.2096 -0.7373  0.6730
 2842SOL    HW219986   1.197   1.773   5.739 -3.8363  0.0721 -0.0743
 2843SOL     OW19987   1.409   2.376   0.356  0.3546 -0.3245  0.2726
 2843SOL    HW119988   1.492   2.408   0.393  0.7501  1.3366 -2.0407
 2843SOL    HW219989   1.424   2.282   0.366  0.0789 -0.6459 -2.2500
 2844SOL     OW19990   0.967   4.160   2.749  0.3782 -0.3955  0.0233
 2844SOL    HW119991   1.001   4.248   2.733  0.4656 -0.5853 -0.8748
 2844SOL    HW219992   1.022   4.120   2.682  0.6138  0.9364 -0.5782
 2845SOL     OW19993   3.341   4.187  13.555 -0.3185 -0.5831  0.3464
 2845SOL    HW119994   3.257   4.185  13.602  0.5772  0.2595  1.9725
 2845SOL    HW219995   3.406   4.153  13.617  0.6956  1.5867  0.4589
 2846SOL     OW19996   2.041   0.477   7.485 -0.1939 -0.1191  0.0069
 2846SOL    HW119997   2.010   0.463   7.396 -1.1926  0.4426  0.2656
 2846SOL    HW219998   2.078   0.564   7.470 -0.3830  0.0720  0.6505
 2847SOL     OW19999   3.908   1.938   4.215  0.2563  0.2790  0.1742
 2847SOL    HW120000   3.853   1.910   4.289 -3.0937  0.7894 -2.1139
 2847SOL    HW220001   3.989   1.893   4.238  1.0475  2.8274  2.3888
 2848SOL     OW20002   2.660   1.604   7.142 -0.2630  0.7780  0.0036
 2848SOL    HW120003   2.723   1.567   7.080 -0.3777 -0.4957  0.6522
 2848SOL    HW220004   2.721   1.630   7.211 -0.7878  1.7591  0.0949
 2849SOL     OW20005   2.442   2.192   7.418 -0.2700  0.1733  0.3325
 2849SOL    HW120006   2.456   2.275   7.463  0.1263 -0.0308  0.5871
 2849SOL    HW220007   2.347   2.190   7.406 -0.5795  2.1644  2.3159
 2850SOL     OW20008   2.789   3.188   7.941  0.1421  0.1605  0.5629
 2850SOL    HW120009   2.758   3.274   7.913  2.7531  0.4011 -1.5906
 2850SOL    HW220010   2.705   3.146   7.953 -0.6361  1.2414 -1.1681
 2851SOL     OW20011   0.482   0.776   9.151 -0.2397  0.8829 -0.1641
 2851SOL    HW120012   0.453   0.865   9.131 -0.3300  0.5277 -1.5913
 2851SOL    HW220013   0.531   0.759   9.070 -0.9675  1.2909 -0.6851
 2852SOL     OW20014   3.181   2.725   3.287  0.3142 -0.1463  0.7320
 2852SOL    HW120015   3.212   2.814   3.270  0.5928 -0.3315  0.2695
 2852SOL    HW220016   3.262   2.693   3.326  0.6837 -1.4091 -1.0807
 2853SOL     OW20017   2.528   3.856   4.528 -0.5287  0.6831  0.2814
 2853SOL    HW120018   2.471   3.837   4.603 -1.2995  2.8302  0.2327
 2853SOL    HW220019   2.463   3.879   4.462 -1.9622  0.1378  1.5022
 2854SOL     OW20020   3.126   1.830   7.328 -0.0812 -0.0293  0.1883
 2854SOL    HW120021   3.205   1.862   7.372  0.4811 -1.7908  0.4628
 2854SOL    HW220022   3.124   1.879   7.246 -2.6089  1.4047  1.0917
 2855SOL     OW20023   2.696   1.770   6.282  0.1665  0.3045  0.1730
 2855SOL    HW120024   2.734   1.684   6.301  1.1595  0.3704 -1.4935
 2855SOL    HW220025   2.695   1.762   6.187  1.3923  0.8298  0.1065
 2856SOL     OW20026   3.234   2.414   0.990 -0.5855 -1.6233  0.3188
 2856SOL    HW120027   3.291   2.386   1.062  0.2663  1.1900  0.7314
 2856SOL    HW220028   3.204   2.497   1.027  0.7363 -0.3950 -1.3491
 2857SOL     OW20029   0.938   4.706   0.273  0.1292 -0.1207 -0.9970
 2857SOL    HW120030   0.854   4.667   0.252 -0.7081  1.7179 -1.0358
 2857SOL    HW220031   0.975   0.009   0.188  1.1123  0.2029 -0.4864
 2858SOL     OW20032   3.928   1.170   8.122  0.2419 -0.3935  0.2142
 2858SOL    HW120033   3.963   1.253   8.089  3.1212 -1.3706  0.7919
 2858SOL    HW220034   3.883   1.126   8.049  0.2227 -0.2804  0.1583
 2859SOL     OW20035   2.687   4.395  12.671 -0.1952  0.1532  0.0927
 2859SOL    HW120036   2.702   4.490  12.675 -2.6284  0.5611 -0.5430
 2859SOL    HW220037   2.614   4.391  12.732  0.8413  1.6658  1.4326
 2860SOL     OW20038   1.978   4.054   9.360 -0.2572 -0.3988  0.2244
 2860SOL    HW120039   2.011   4.047   9.450  1.3612  0.7820 -0.2876
 2860SOL    HW220040   2.050   4.089   9.310 -0.8414 -0.6945 -0.8207
 2861SOL     OW20041   1.970   4.430   4.246 -0.2492 -0.3926  0.5388
 2861SOL    HW120042   2.023   4.510   4.244  1.5236 -1.6669 -2.5042
 2861SOL    HW220043   1.903   4.457   4.310 -1.4300 -0.3642 -0.7120
 2862SOL     OW20044   2.771   3.158   4.626  0.0492 -0.2211 -0.8477
 2862SOL    HW120045   2.707   3.220   4.590 -0.2552 -1.5697 -2.6274
 2862SOL    HW220046   2.858   3.181   4.592  0.1979  1.7323  0.8366
 2863SOL     OW20047   4.606   2.049  17.635  0.3686  0.4161 -0.0886
 2863SOL    HW120048   4.552   2.019  17.562 -1.1380  2.3060  0.2389
 2863SOL    HW220049   4.683   2.025  17.584  0.6822 -2.8683  1.9644
 2864SOL     OW20050   0.204   4.155   8.659 -0.0377 -0.0472  0.5146
 2864SOL    HW120051   0.163   4.134   8.575 -0.6065  1.0258  0.5170
 2864SOL    HW220052   0.233   4.243   8.637  1.8630 -0.6566  0.6081
 2865SOL     OW20053   4.175   3.283   1.767 -0.0365  0.3046 -0.3039
 2865SOL    HW120054   4.182   3.372   1.801 -1.6413 -0.4118  1.9096
 2865SOL    HW220055   4.264   3.248   1.760  0.5654  1.6203  0.7392
 2866SOL     OW20056   1.450   3.429  12.415 -0.1977  0.3941  0.3915
 2866SOL    HW120057   1.477   3.481  12.490  0.2301  1.4885 -0.5301
 2866SOL    HW220058   1.463   3.487  12.341 -1.7969  2.0855  1.4397
 2867SOL     OW20059   0.673   0.493   4.363 -0.1410 -0.3481  0.6422
 2867SOL    HW120060   0.767   0.509   4.379 -0.5029  2.4207 -0.1427
 2867SOL    HW220061   0.682   0.415   4.308  0.2462  0.0361  0.1594
 2868SOL     OW20062   3.732   4.294   8.285  0.0824 -0.5583 -0.0497
 2868SOL    HW120063   3.692   4.209   8.300  2.8303 -1.6534  0.9350
 2868SOL    HW220064   3.739   4.326   8.375 -0.6380 -0.5191 -0.0092
 2869SOL     OW20065   4.386   1.865   6.540 -0.3873 -0.2466  0.1825
 2869SOL    HW120066   4.441   1.839   6.614 -0.7697 -0.3172  0.4430
 2869SOL    HW220067   4.346   1.787   6.502 -1.2902  2.5516 -4.5418
 2870SOL     OW20068   0.845   1.826   6.004  0.2434  0.1252  0.3026
 2870SOL    HW120069   0.910   1.896   6.003  1.6261 -1.1440  2.3047
 2870SOL    HW220070   0.780   1.854   5.939 -0.8006 -2.8672  0.0170
 2871SOL     OW20071   0.294   4.358  15.155  0.0908 -0.3864  0.0598
 2871SOL    HW120072   0.386   4.336  15.171  0.5229 -0.6033 -2.7324
 2871SOL    HW220073   0.284   4.414  15.232  1.1570  0.3614 -0.3515
 2872SOL     OW20074   3.160   2.627   8.350 -0.3789  0.1645 -0.0698
 2872SOL    HW120075   3.157   2.710   8.303 -0.5891 -1.0731 -2.2441
 2872SOL    HW220076   3.087   2.580   8.308 -0.9258 -0.6250  1.7575
 2873SOL     OW20077   3.509   3.739   1.355 -0.2362 -0.1655  0.3295
 2873SOL    HW120078   3.518   3.677   1.283 -1.7703  1.1932 -1.0364
 2873SOL    HW220079   3.600   3.768   1.350  0.3137 -2.1652 -0.9223
 2874SOL     OW20080   2.425   1.634   7.025  0.2390 -0.1568  0.0856
 2874SOL    HW120081   2.443   1.689   6.948 -1.0316 -0.3356 -0.3332
 2874SOL    HW220082   2.507   1.641   7.075  1.7976  1.3491 -2.6589
 2875SOL     OW20083   2.397   4.405   7.855 -0.8767 -0.0746  0.3769
 2875SOL    HW120084   2.383   4.311   7.862 -0.8829 -0.0747  0.3613
 2875SOL    HW220085   2.436   4.407   7.768 -1.9022  0.5048 -0.0694
 2876SOL     OW20086   4.229   3.390   2.670  0.0073 -0.0625 -0.0803
 2876SOL    HW120087   4.297   3.323   2.676  0.9398  0.6039 -2.9773
 2876SOL    HW220088   4.220   3.439   2.752 -1.3241  0.7915 -0.7395
 2877SOL     OW20089   0.295   2.069   2.369 -0.0567 -0.6394 -0.3699
 2877SOL    HW120090   0.346   2.094   2.293  0.4981 -1.3910 -0.2493
 2877SOL    HW220091   0.251   1.987   2.344  0.5511 -1.0230 -0.1897
 2878SOL     OW20092   2.544   1.303   8.952  0.6357  0.4594  0.5326
 2878SOL    HW120093   2.600   1.358   9.007  0.1847  0.5472  0.9035
 2878SOL    HW220094   2.479   1.267   9.013 -0.5572  0.7408 -0.5682
 2879SOL     OW20095   3.667   2.807  17.181  0.5846  0.0908 -0.7182
 2879SOL    HW120096   3.715   2.740  17.229  0.2149  0.7598  0.5602
 2879SOL    HW220097   3.632   2.863  17.250  0.3430 -0.1532 -0.6409
 2880SOL     OW20098   0.342   0.642   4.529 -0.1245  0.3333 -0.1955
 2880SOL    HW120099   0.371   0.650   4.439  3.1098  0.3020  0.8359
 2880SOL    HW220100   0.335   0.736   4.543 -1.2244  0.2611 -0.2980
 2881SOL     OW20101   1.169   3.687   4.794  0.2809  0.0500 -0.0917
 2881SOL    HW120102   1.260   3.663   4.781  1.2348  3.8385 -0.3589
 2881SOL    HW220103   1.158   3.777   4.825 -0.7834  0.4261 -1.5157
 2882SOL     OW20104   3.923   0.447  13.515  0.0862  0.2181  0.2322
 2882SOL    HW120105   3.834   0.430  13.546 -0.2377 -2.7806 -2.3290
 2882SOL    HW220106   3.978   0.382  13.560  1.1321  0.1999 -1.0502
 2883SOL     OW20107   2.368   0.483   1.982  0.0588 -0.2297  0.6359
 2883SOL    HW120108   2.349   0.574   1.956 -1.9009 -0.7548  0.2235
 2883SOL    HW220109   2.400   0.497   2.071 -0.1586  0.1002  0.6659
 2884SOL     OW20110   3.796   0.091  14.039 -0.0426 -0.0461 -0.0108
 2884SOL    HW120111   3.889   0.081  14.019  0.1878  1.2105  0.4005
 2884SOL    HW220112   3.764   0.170  13.995  0.7898  0.5635  0.4664
 2885SOL     OW20113   3.644   0.895   3.242  0.0754  0.3657  0.1993
 2885SOL    HW120114   3.568   0.874   3.187  0.3686  4.2982 -1.7226
 2885SOL    HW220115   3.717   0.886   3.180 -0.0864  0.4061  0.0002
 2886SOL     OW20116   4.372   2.528   7.798 -0.0841 -0.6134  0.4035
 2886SOL    HW120117   4.300   2.511   7.737 -0.8190  2.6895  0.2916
 2886SOL    HW220118   4.425   2.449   7.791 -0.4775 -0.9588  1.3184
 2887SOL     OW20119   4.371   3.692   5.267  0.0276 -0.6272  0.0172
 2887SOL    HW120120   4.378   3.611   5.318 -0.8467 -1.0673 -0.5512
 2887SOL    HW220121   4.465   3.709   5.266 -0.0214 -0.3867 -1.0229
 2888SOL     OW20122   2.345   1.170   2.736 -0.3572 -0.3968  0.4401
 2888SOL    HW120123   2.326   1.146   2.645  1.4316  0.9744 -0.2911
 2888SOL    HW220124   2.260   1.205   2.764 -0.1344 -0.4645  1.2024
 2889SOL     OW20125   3.665   0.943  11.499 -0.3889  0.4924 -0.4304
 2889SOL    HW120126   3.584   0.979  11.463 -0.3282 -0.3097 -1.3828
 2889SOL    HW220127   3.733   0.981  11.443  0.5962 -1.6707 -0.7161
 2890SOL     OW20128   2.193   3.148   1.030  0.7484 -0.5928 -0.2468
 2890SOL    HW120129   2.203   3.243   1.019 -0.5322 -0.6209 -1.7064
 2890SOL    HW220130   2.145   3.131   1.111 -0.0411 -0.9967 -0.8000
 2891SOL     OW20131   1.127   0.734  14.618 -0.0762 -0.1932  0.1260
 2891SOL    HW120132   1.115   0.730  14.523 -2.4219  1.9314  0.3427
 2891SOL    HW220133   1.039   0.734  14.656  1.1730  0.2467  3.0305
 2892SOL     OW20134   4.707   2.679   0.676 -0.3506 -0.4119  0.4219
 2892SOL    HW120135   0.063   2.620   0.685  0.7308  0.9090  0.0476
 2892SOL    HW220136   4.647   2.641   0.740  0.2507 -0.0467  1.2017
 2893SOL     OW20137   2.332   2.059   5.181  0.4783 -0.3945 -0.1539
 2893SOL    HW120138   2.298   2.015   5.259 -1.5499  0.4815 -0.5423
 2893SOL    HW220139   2.373   1.989   5.130  0.1211 -0.6673 -0.0637
 2894SOL     OW20140   2.114   3.926   4.192  0.0770 -0.4564 -0.3453
 2894SOL    HW120141   2.078   3.872   4.121 -0.1095 -1.5851  0.5983
 2894SOL    HW220142   2.067   4.009   4.184 -1.8477 -1.1377  3.8085
 2895SOL     OW20143   0.265   0.839  13.790 -0.1162  0.2145 -0.2442
 2895SOL    HW120144   0.321   0.763  13.771  0.4012  0.6688 -0.5496
 2895SOL    HW220145   0.332   0.904  13.810  0.2089 -1.4221  4.0556
 2896SOL     OW20146   3.489   1.107   4.448 -0.9451 -0.1622  0.0080
 2896SOL    HW120147   3.584   1.096   4.453 -0.9411  0.6580  1.9420
 2896SOL    HW220148   3.460   1.136   4.534 -1.5096 -2.2304  0.5054
 2897SOL     OW20149   1.767   3.877   8.247 -0.0434 -0.3826  0.1127
 2897SOL    HW120150   1.812   3.898   8.328  0.7496 -0.7575 -0.2325
 2897SOL    HW220151   1.675   3.884   8.275 -0.0861  0.8939 -0.3446
 2898SOL     OW20152   3.091   4.057   8.832 -0.2315  0.7241  0.1458
 2898SOL    HW120153   3.177   4.068   8.792 -0.3512  0.2001 -0.2448
 2898SOL    HW220154   3.087   3.962   8.844  3.2179  0.6738  0.8928
 2899SOL     OW20155   2.108   3.956   7.541  0.0864 -0.1120 -0.4996
 2899SOL    HW120156   2.104   3.911   7.625 -0.8108  2.3970  0.7980
 2899SOL    HW220157   2.141   3.886   7.485 -0.4173  0.6927 -1.8121
 2900SOL     OW20158   4.696   1.918  10.490 -0.3232  0.2851  0.0313
 2900SOL    HW120159   4.615   1.964  10.470 -0.0485 -0.2034 -2.2301
 2900SOL    HW220160   0.000   1.865  10.414  1.8345 -0.0684  0.9202
 2901SOL     OW20161   1.541   2.217   7.186 -0.1777 -0.0170 -0.2676
 2901SOL    HW120162   1.589   2.300   7.186 -0.2416  0.0247 -1.3080
 2901SOL    HW220163   1.477   2.235   7.254 -1.4467 -0.3289 -1.3904
 2902SOL     OW20164   3.971   1.893   7.181 -0.0004 -0.1975 -0.3727
 2902SOL    HW120165   3.938   1.976   7.147 -1.6761 -0.9733 -0.6476
 2902SOL    HW220166   3.912   1.867   7.252 -0.2784  1.1952 -0.0953
 2903SOL     OW20167   2.050   1.040  11.128 -0.1118 -0.3048  0.8292
 2903SOL    HW120168   2.072   1.024  11.220 -0.1740 -3.5429  0.2816
 2903SOL    HW220169   2.122   1.091  11.092 -2.0004  0.5818 -1.6889
 2904SOL     OW20170   0.901   4.007  17.463 -0.0457  0.1123 -0.8321
 2904SOL    HW120171   0.827   3.988  17.520  0.7956  1.4767  0.7166
 2904SOL    HW220172   0.960   3.946  17.508  0.5368  2.1408  1.2045
 2905SOL     OW20173   0.047   2.789   8.431 -0.1635 -0.0365  0.3997
 2905SOL    HW120174   0.124   2.795   8.489  0.5493 -1.6333 -0.3792
 2905SOL    HW220175   0.047   2.698   8.403 -0.4653  0.1724 -0.2693
 2906SOL     OW20176   3.615   2.466   3.329  0.2358 -0.0550 -0.5046
 2906SOL    HW120177   3.549   2.535   3.327 -1.5786 -1.8113 -0.8565
 2906SOL    HW220178   3.693   2.520   3.342 -2.6268  3.9754  0.0937
 2907SOL     OW20179   3.468   4.487   6.444 -0.0074 -0.2536  0.1275
 2907SOL    HW120180   3.466   4.439   6.361  2.0396 -1.3655  0.7395
 2907SOL    HW220181   3.378   4.520   6.442  0.0906  0.1050  1.7043
 2908SOL     OW20182   4.409   1.389   5.415  0.6024 -0.4250  0.4319
 2908SOL    HW120183   4.435   1.297   5.410  0.4111 -0.6642  3.3388
 2908SOL    HW220184   4.364   1.383   5.499  0.2055  0.4461  0.2786
 2909SOL     OW20185   0.433   0.790   2.031 -0.4004  0.0921 -0.0356
 2909SOL    HW120186   0.390   0.764   1.949 -1.5036 -3.9570  1.8468
 2909SOL    HW220187   0.469   0.875   2.006  0.0364 -0.8067 -2.5582
 2910SOL     OW20188   4.211   1.923   5.362  0.3777  0.1161 -0.2089
 2910SOL    HW120189   4.188   1.830   5.361 -0.2990  0.2787  0.2714
 2910SOL    HW220190   4.264   1.917   5.282  0.7406  1.4117 -0.0622
 2911SOL     OW20191   3.083   0.082   9.042  0.1509  0.5727  0.0964
 2911SOL    HW120192   3.079   0.138   8.965 -0.2625 -1.9807 -1.7431
 2911SOL    HW220193   3.000   0.101   9.086  0.8369  0.2480  1.5170
 2912SOL     OW20194   0.522   2.572   4.212  0.1532  0.0924 -0.1761
 2912SOL    HW120195   0.553   2.560   4.122 -1.9458 -1.1762 -0.7305
 2912SOL    HW220196   0.586   2.514   4.253 -0.5396 -0.2578  0.4088
 2913SOL     OW20197   1.571   1.953  13.633  0.4479 -0.2816  0.4077
 2913SOL    HW120198   1.505   2.023  13.639  0.6014 -0.0675 -0.3746
 2913SOL    HW220199   1.514   1.892  13.588 -1.3677  0.2912  1.9129
 2914SOL     OW20200   0.510   3.283  10.603  0.4612 -0.0941  0.2511
 2914SOL    HW120201   0.550   3.196  10.599  0.4175 -0.0809 -0.4986
 2914SOL    HW220202   0.464   3.284  10.519  0.7513 -0.4199  0.0889
 2915SOL     OW20203   0.447   2.687   9.192 -0.1438  0.0486 -0.3851
 2915SOL    HW120204   0.521   2.639   9.155 -0.6679 -0.1177 -1.2082
 2915SOL    HW220205   0.496   2.761   9.227 -0.5714  0.3344 -0.3883
 2916SOL     OW20206   0.471   0.653   6.041 -0.3246 -0.1573  0.2251
 2916SOL    HW120207   0.376   0.643   6.051 -0.3003  2.1816  2.7397
 2916SOL    HW220208   0.475   0.687   5.951  0.4087 -2.0224 -0.4552
 2917SOL     OW20209   1.790   2.478   4.823  0.6085 -0.0450  0.1909
 2917SOL    HW120210   1.721   2.445   4.881  1.5274 -0.1136  1.2372
 2917SOL    HW220211   1.810   2.399   4.774  0.1423 -0.7782  1.1663
 2918SOL     OW20212   0.490   2.542   8.371  0.1713  0.3088  0.4314
 2918SOL    HW120213   0.430   2.580   8.307 -0.1111  1.3172  1.3073
 2918SOL    HW220214   0.555   2.612   8.366  1.5728 -0.9246  1.3967
 2919SOL     OW20215   3.440   0.704   1.877 -0.6578 -0.5447  0.3034
 2919SOL    HW120216   3.432   0.611   1.896  3.5118 -1.0703 -0.5981
 2919SOL    HW220217   3.496   0.697   1.800  0.3796  4.0278  0.6094
 2920SOL     OW20218   4.387   1.414  14.916 -0.5374  0.6718  0.0128
 2920SOL    HW120219   4.306   1.435  14.870 -2.0703 -1.7183  1.6002
 2920SOL    HW220220   4.442   1.380  14.846 -0.1974  2.8480 -0.7622
 2921SOL     OW20221   1.199   4.348  16.093  0.7056  0.5858 -0.3212
 2921SOL    HW120222   1.225   4.415  16.157 -2.4381  3.0043 -1.5377
 2921SOL    HW220223   1.226   4.391  16.012 -0.5087  3.3266  0.6946
 2922SOL     OW20224   1.832   3.119  17.599  0.1476  0.3096 -0.2536
 2922SOL    HW120225   1.746   3.101  17.560  1.1878 -0.6604 -2.0951
 2922SOL    HW220226   1.875   3.037  17.578  1.5265  1.5118 -2.1521
 2923SOL     OW20227   4.711   4.143   2.780 -0.0677 -0.6195 -0.6146
 2923SOL    HW120228   0.040   4.070   2.740  0.8814 -1.1098  1.3886
 2923SOL    HW220229   4.623   4.106   2.772 -0.5597  0.2004  1.0442
 2924SOL     OW20230   0.819   2.135   6.526 -0.1741  0.0886  0.2271
 2924SOL    HW120231   0.899   2.083   6.517  0.8238  1.7073 -0.4746
 2924SOL    HW220232   0.842   2.173   6.611 -3.5521  0.3031  1.0381
 2925SOL     OW20233   3.817   2.388   6.874  0.0385 -0.3452  0.1514
 2925SOL    HW120234   3.888   2.429   6.923 -1.1283  0.7030  0.9459
 2925SOL    HW220235   3.827   2.436   6.792  3.3350 -0.6670  0.3840
 2926SOL     OW20236   3.449   0.643   5.120 -0.5245 -0.4635  0.5698
 2926SOL    HW120237   3.493   0.569   5.161 -0.4548  0.0717  1.4657
 2926SOL    HW220238   3.471   0.622   5.029 -0.8053  2.1100 -0.1063
 2927SOL     OW20239   4.309   1.690   8.930  0.0584  0.4183  0.1319
 2927SOL    HW120240   4.297   1.722   8.841 -2.2429 -0.3566  0.1581
 2927SOL    HW220241   4.215   1.696   8.949  0.1781 -0.0240  0.8454
 2928SOL     OW20242   1.379   0.917  11.649 -0.4665  0.0434  0.4342
 2928SOL    HW120243   1.356   1.005  11.619 -1.1682 -0.4745 -0.5339
 2928SOL    HW220244   1.466   0.923  11.689 -0.5760  1.0363  0.5271
 2929SOL     OW20245   3.824   1.245   5.870  0.8378  0.3292 -0.6493
 2929SOL    HW120246   3.730   1.230   5.878  0.8207  0.6629 -0.2615
 2929SOL    HW220247   3.835   1.340   5.875  0.4740  0.4218 -1.5380
 2930SOL     OW20248   3.078   2.842  15.837  0.4847 -0.2312 -0.5809
 2930SOL    HW120249   3.074   2.900  15.760 -1.1685 -0.5929 -0.7750
 2930SOL    HW220250   3.009   2.780  15.813  0.5372 -0.7993  0.7689
 2931SOL     OW20251   2.106   0.315   7.984 -0.0165 -0.2453 -0.1352
 2931SOL    HW120252   2.085   0.298   7.892 -0.2280  0.9851 -0.3076
 2931SOL    HW220253   2.029   0.351   8.028 -0.1282 -0.1540 -0.4044
 2932SOL     OW20254   1.429   0.324  16.120 -0.0211 -0.1422 -0.2373
 2932SOL    HW120255   1.432   0.353  16.029 -0.9170  1.0202  0.0949
 2932SOL    HW220256   1.434   0.416  16.148 -1.9747  0.4328 -1.7158
 2933SOL     OW20257   3.726   3.378   9.488 -1.0139  0.0633 -0.3148
 2933SOL    HW120258   3.710   3.299   9.539  1.3940  0.4661  1.0799
 2933SOL    HW220259   3.760   3.351   9.403  0.5880  0.0368  0.3436
 2934SOL     OW20260   4.308   4.184   4.166  0.3084 -0.4740 -0.0431
 2934SOL    HW120261   4.230   4.170   4.220  1.6851 -0.3576  1.9784
 2934SOL    HW220262   4.369   4.110   4.169  0.3473 -0.3948  1.1545
 2935SOL     OW20263   0.553   3.478   6.191 -0.3624  0.1177 -0.4560
 2935SOL    HW120264   0.542   3.559   6.141 -0.8600 -1.3584 -2.7324
 2935SOL    HW220265   0.540   3.509   6.280 -2.1343 -1.5509 -0.1386
 2936SOL     OW20266   1.525   1.509   5.178 -0.2209  0.1976  0.1290
 2936SOL    HW120267   1.475   1.440   5.222  0.5300  0.8649  2.0212
 2936SOL    HW220268   1.538   1.580   5.241  1.8917  1.6904 -1.9705
 2937SOL     OW20269   4.588   1.229   1.241  0.2254  0.2727  0.2054
 2937SOL    HW120270   4.633   1.313   1.229  0.2910  0.3117  0.7443
 2937SOL    HW220271   4.498   1.254   1.224  0.2747 -1.0386 -1.9354
 2938SOL     OW20272   3.432   0.794  14.372 -0.4404 -0.0851  0.0580
 2938SOL    HW120273   3.438   0.831  14.284  1.1490  1.7168  0.9411
 2938SOL    HW220274   3.416   0.877  14.418  1.2527  0.3600 -0.1656
 2939SOL     OW20275   2.167   0.623   9.521  0.3993  0.0832  0.6217
 2939SOL    HW120276   2.236   0.604   9.585  0.9557 -1.3346 -0.4033
 2939SOL    HW220277   2.202   0.709   9.499 -0.4532 -0.2481 -2.0086
 2940SOL     OW20278   0.419   3.091   5.410 -0.3310 -0.0836 -0.6201
 2940SOL    HW120279   0.348   3.146   5.376 -1.6167  0.2801  2.7127
 2940SOL    HW220280   0.364   3.025   5.452 -0.1291 -1.3352 -2.3268
 2941SOL     OW20281   3.839   1.912   3.482  0.0639 -0.4029  0.3121
 2941SOL    HW120282   3.811   1.977   3.418  2.2576  0.0114 -0.2433
 2941SOL    HW220283   3.905   1.862   3.433  0.0643 -0.4925  0.4038
 2942SOL     OW20284   1.151   0.632   3.190 -0.0758 -0.2706  0.0217
 2942SOL    HW120285   1.156   0.566   3.259  1.0376  1.4818  1.6162
 2942SOL    HW220286   1.091   0.589   3.129 -1.8986 -0.2458  1.8041
 2943SOL     OW20287   1.751   4.612  16.326  0.6101  0.3266  0.0594
 2943SOL    HW120288   1.833   4.564  16.313  0.7664  0.3075  1.0671
 2943SOL    HW220289   1.742   4.640  16.235  1.6575  1.3535  0.2645
 2944SOL     OW20290   1.348   3.931   6.584 -0.1366 -0.4021 -0.4866
 2944SOL    HW120291   1.381   4.011   6.544  0.2672 -0.6326 -0.6239
 2944SOL    HW220292   1.322   3.957   6.673  2.1157  1.4582 -0.3832
 2945SOL     OW20293   2.486   0.967   3.507  0.0853 -0.0896  0.2312
 2945SOL    HW120294   2.437   1.029   3.560 -0.1453 -0.4527  0.4492
 2945SOL    HW220295   2.505   0.897   3.569 -2.5595 -1.6865 -0.7461
 2946SOL     OW20296   3.900   2.178  12.138 -0.3700  0.3559  0.0471
 2946SOL    HW120297   3.912   2.242  12.209 -1.7878  0.6268  0.0495
 2946SOL    HW220298   3.806   2.162  12.139 -0.5068  1.1836  0.7395
 2947SOL     OW20299   4.320   1.330   3.727  0.0824  0.4644  0.0623
 2947SOL    HW120300   4.337   1.411   3.678 -3.7824  0.5838 -1.0697
 2947SOL    HW220301   4.334   1.361   3.816  2.0479 -1.5032  0.4438
 2948SOL     OW20302   2.218   0.111   8.665 -0.2295 -0.4762 -0.4061
 2948SOL    HW120303   2.234   0.085   8.756 -1.6346  2.7007  0.7258
 2948SOL    HW220304   2.122   0.112   8.666 -0.1793  0.9156  2.4284
 2949SOL     OW20305   4.547   1.377   1.536 -0.0867  0.4340  0.5589
 2949SOL    HW120306   4.642   1.370   1.544 -0.0607  0.7584  0.5275
 2949SOL    HW220307   4.532   1.406   1.626 -3.1161 -1.9264  0.8330
 2950SOL     OW20308   3.252   0.843   7.833  0.5132 -0.1390  0.4469
 2950SOL    HW120309   3.156   0.838   7.835  0.5387 -1.2598 -1.4181
 2950SOL    HW220310   3.277   0.751   7.826  2.4998  0.6095 -2.1365
 2951SOL     OW20311   3.951   2.491   1.899  0.0077  0.3705  0.1268
 2951SOL    HW120312   3.867   2.460   1.931 -0.8401  1.9930 -0.5428
 2951SOL    HW220313   4.015   2.434   1.943  1.2204  2.6198  1.2706
 2952SOL     OW20314   4.027   0.016   4.821  0.4256  0.2069  0.7074
 2952SOL    HW120315   4.063   4.665   4.766 -0.6701  0.4388 -0.2990
 2952SOL    HW220316   4.004   4.684   4.899  1.4657 -0.2425  0.7270
 2953SOL     OW20317   3.709   3.143  14.156 -0.0108  0.1046  0.3455
 2953SOL    HW120318   3.776   3.125  14.090 -0.9876 -0.2375 -0.5460
 2953SOL    HW220319   3.623   3.139  14.115 -1.3232  1.3716  2.9573
 2954SOL     OW20320   2.783   2.783   1.744  0.0086 -0.2060 -0.3458
 2954SOL    HW120321   2.841   2.822   1.679  1.3633 -0.7112  0.5511
 2954SOL    HW220322   2.699   2.806   1.705 -1.0910  1.1977  2.8213
 2955SOL     OW20323   4.689   2.139   8.374  0.0845  0.3776 -0.6070
 2955SOL    HW120324   0.030   2.179   8.437  0.9031 -1.0560 -0.4614
 2955SOL    HW220325   0.003   2.179   8.293 -0.1186  1.2234 -0.2715
 2956SOL     OW20326   2.099   2.615   8.789  0.1261 -0.1329  0.4078
 2956SOL    HW120327   2.116   2.585   8.878 -0.3384 -2.4490 -0.2889
 2956SOL    HW220328   2.100   2.710   8.804 -3.2013  0.0935 -0.8445
 2957SOL     OW20329   3.370   1.736   3.202 -0.2809  0.2752  0.8848
 2957SOL    HW120330   3.341   1.713   3.290 -0.3896 -0.9172  0.5346
 2957SOL    HW220331   3.291   1.781   3.170  0.9157  2.1972  0.6469
 2958SOL     OW20332   1.962   1.125   8.657 -0.1635  0.2277 -0.0710
 2958SOL    HW120333   1.913   1.102   8.736  0.3390  0.1509  0.2174
 2958SOL    HW220334   1.951   1.218   8.640  0.1312  0.3027  0.1524
 2959SOL     OW20335   4.237   2.202  12.944  0.4168  0.9343 -0.5169
 2959SOL    HW120336   4.246   2.217  13.038  0.1869  1.0978 -0.5201
 2959SOL    HW220337   4.310   2.141  12.939  0.0935  0.2885  2.7496
 2960SOL     OW20338   0.248   0.885   6.240 -0.4165  0.0894 -0.7356
 2960SOL    HW120339   0.218   0.973   6.218 -0.1848  0.4709  0.4514
 2960SOL    HW220340   0.181   0.833   6.196  0.6762 -2.9017  1.1349
 2961SOL     OW20341   2.504   1.607   8.912  0.2167 -0.4792 -0.5870
 2961SOL    HW120342   2.424   1.617   8.965 -0.5722  0.7451 -2.0129
 2961SOL    HW220343   2.480   1.558   8.833 -0.2627  0.7812 -1.2191
 2962SOL     OW20344   0.629   2.928   1.328  0.4556  0.3012  0.1749
 2962SOL    HW120345   0.705   2.876   1.303  0.0845 -0.4784  0.6711
 2962SOL    HW220346   0.676   3.011   1.320  1.5146 -0.3819 -0.6847
 2963SOL     OW20347   4.219   3.366   6.901 -0.0509  0.1385  0.2171
 2963SOL    HW120348   4.294   3.307   6.899 -1.0415 -1.1014 -0.5470
 2963SOL    HW220349   4.195   3.372   6.808 -1.4134 -1.1589  0.4753
 2964SOL     OW20350   2.226   2.054   1.280 -0.6658 -0.3482 -0.6611
 2964SOL    HW120351   2.245   2.084   1.191 -1.1836  0.2306 -0.5750
 2964SOL    HW220352   2.134   2.038   1.262 -0.2519 -0.7812 -2.4652
 2965SOL     OW20353   2.083   1.204  14.004  0.0300  0.8257  0.3593
 2965SOL    HW120354   2.148   1.231  14.069 -0.7382  3.6244 -0.0396
 2965SOL    HW220355   2.133   1.133  13.964  2.5362  3.3488 -0.9409
 2966SOL     OW20356   1.671   1.370   2.302 -0.3393 -0.1206 -0.0934
 2966SOL    HW120357   1.585   1.410   2.313 -0.3121 -0.0959  0.0269
 2966SOL    HW220358   1.684   1.364   2.397 -0.8693 -1.0635 -0.0730
 2967SOL     OW20359   1.686   2.199   6.331  0.1604 -0.5981 -1.4684
 2967SOL    HW120360   1.645   2.285   6.342  1.2454 -0.2936  0.1242
 2967SOL    HW220361   1.624   2.135   6.366  0.7245 -0.5917 -0.4667
 2968SOL     OW20362   3.168   4.344   2.111  0.5789 -0.0070  0.1957
 2968SOL    HW120363   3.094   4.378   2.162  0.7400  0.9663 -0.2299
 2968SOL    HW220364   3.121   4.278   2.059  0.9144 -0.8898  1.0089
 2969SOL     OW20365   0.184   4.397  10.045 -0.6992 -0.2521  0.6395
 2969SOL    HW120366   0.144   4.433  10.124  1.0611 -0.8100  1.7619
 2969SOL    HW220367   0.186   4.303  10.062  0.5457 -0.7705 -2.3983
 2970SOL     OW20368   2.658   0.187   9.747  0.5306 -0.4540 -0.2470
 2970SOL    HW120369   2.630   0.096   9.736  1.1835 -0.6020 -0.6850
 2970SOL    HW220370   2.599   0.237   9.691  0.6537 -2.2342 -1.9466
 2971SOL     OW20371   1.493   1.063   2.754 -0.2733  0.0402  0.0035
 2971SOL    HW120372   1.400   1.049   2.773 -0.7078  3.4302  0.3339
 2971SOL    HW220373   1.506   1.157   2.739 -0.3308 -0.2920 -2.1287
 2972SOL     OW20374   1.801   0.095   4.690  0.2471 -0.2756  0.0320
 2972SOL    HW120375   1.846   0.177   4.711  0.6830 -0.0029 -1.9966
 2972SOL    HW220376   1.744   0.073   4.764  0.5338  0.8233  0.5804
 2973SOL     OW20377   0.433   1.681  15.044  0.0385  0.3383  0.2505
 2973SOL    HW120378   0.475   1.748  15.098  1.2619  0.7690 -1.2078
 2973SOL    HW220379   0.442   1.599  15.092 -2.2851 -0.7736 -1.2542
 2974SOL     OW20380   2.617   3.726   7.328  0.2335  0.3055  0.3665
 2974SOL    HW120381   2.709   3.735   7.356  1.1366 -1.1843 -2.1684
 2974SOL    HW220382   2.616   3.632   7.311 -0.2901  0.7425 -1.9390
 2975SOL     OW20383   2.184   1.335   5.265  0.1894 -1.0385  0.4361
 2975SOL    HW120384   2.233   1.330   5.348  0.5452  1.0866  0.3540
 2975SOL    HW220385   2.168   1.429   5.261 -1.5080 -1.4058 -1.1049
 2976SOL     OW20386   0.781   1.349   2.075  0.0754 -0.1461  0.3740
 2976SOL    HW120387   0.696   1.394   2.076  1.9081  3.2581  1.1272
 2976SOL    HW220388   0.777   1.301   1.992  1.1986  1.1750 -0.4431
 2977SOL     OW20389   3.410   3.107  11.175 -0.6622 -0.1480  0.4704
 2977SOL    HW120390   3.342   3.102  11.108  1.1558 -0.6746 -1.3154
 2977SOL    HW220391   3.445   3.190  11.143 -1.7028 -0.5894 -1.7986
 2978SOL     OW20392   2.841   3.432   5.101  0.2969 -0.4578  0.6832
 2978SOL    HW120393   2.776   3.433   5.030  2.0486  0.4414 -0.9005
 2978SOL    HW220394   2.880   3.519   5.098 -0.2384 -0.2335  0.2048
 2979SOL     OW20395   4.230   1.709   5.670 -0.6565 -0.8415 -0.6260
 2979SOL    HW120396   4.211   1.634   5.725 -2.1800  0.6725  0.9118
 2979SOL    HW220397   4.197   1.668   5.590  0.9143  2.0829 -2.7666
 2980SOL     OW20398   4.209   3.952   1.246 -0.4623  0.0549 -0.1616
 2980SOL    HW120399   4.180   3.873   1.291  0.9524  1.1862  2.7691
 2980SOL    HW220400   4.302   3.935   1.234 -0.4974 -1.8642  2.3312
 2981SOL     OW20401   1.307   3.370   6.444 -0.4568  0.0853 -0.1747
 2981SOL    HW120402   1.258   3.451   6.432  0.0937  0.5356  0.6057
 2981SOL    HW220403   1.269   3.344   6.528  0.3229 -1.9929 -0.4597
 2982SOL     OW20404   0.627   3.842   0.973 -0.2927  0.0903  0.5244
 2982SOL    HW120405   0.638   3.761   1.023  1.6730 -0.5018 -0.8801
 2982SOL    HW220406   0.682   3.828   0.896  3.1377 -0.2674  3.0155
 2983SOL     OW20407   0.998   3.943   6.791  0.0335  0.2240  0.3046
 2983SOL    HW120408   0.956   4.011   6.739  0.6511  0.0234 -0.4589
 2983SOL    HW220409   0.997   3.979   6.880 -1.4410  1.0925 -0.0659
 2984SOL     OW20410   2.714   3.443  16.959 -0.5017 -0.2406 -0.4037
 2984SOL    HW120411   2.665   3.525  16.956  0.5787  0.3993 -0.4760
 2984SOL    HW220412   2.785   3.467  17.019  1.4408 -0.2548 -2.6936
 2985SOL     OW20413   0.249   0.695   2.230  0.6687 -0.2483  0.5217
 2985SOL    HW120414   0.261   0.601   2.245 -2.1913 -0.5895  0.6275
 2985SOL    HW220415   0.317   0.708   2.163  0.0975 -0.6610 -0.1436
 2986SOL     OW20416   1.547   4.643   7.531 -0.3056 -0.0757 -0.0096
 2986SOL    HW120417   1.538   0.017   7.509 -2.3010 -0.0989  0.7012
 2986SOL    HW220418   1.640   4.633   7.509 -0.6992 -0.3922 -1.5390
 2987SOL     OW20419   4.285   2.890   9.274 -0.6443  0.0446  0.8376
 2987SOL    HW120420   4.271   2.875   9.181  0.6318 -1.7830  0.9446
 2987SOL    HW220421   4.380   2.879   9.278 -0.6034 -0.1177 -0.4849
 2988SOL     OW20422   1.910   0.839  13.767 -0.1624 -0.9956 -0.2681
 2988SOL    HW120423   1.900   0.924  13.724  1.5550  0.0945  1.4735
 2988SOL    HW220424   1.856   0.840  13.846  0.7046 -2.8238  0.3445
 2989SOL     OW20425   3.957   2.884   3.037  0.4197  0.5650 -0.5987
 2989SOL    HW120426   4.049   2.871   3.057 -0.1468 -2.3147  0.1033
 2989SOL    HW220427   3.944   2.856   2.946  1.1709  1.2570 -0.9112
 2990SOL     OW20428   0.494   0.883   5.370  0.6927 -0.3672  0.0802
 2990SOL    HW120429   0.535   0.960   5.408 -1.1149  1.5384 -1.8596
 2990SOL    HW220430   0.561   0.846   5.313  1.4526 -0.7176  1.2116
 2991SOL     OW20431   2.948   2.668   6.020  0.0675  0.2126 -0.0443
 2991SOL    HW120432   2.893   2.601   5.980  1.1562  1.2559 -3.2408
 2991SOL    HW220433   2.881   2.728   6.053 -3.1064 -3.2129 -0.2472
 2992SOL     OW20434   2.753   2.086   3.351  0.2430  0.1710  0.2246
 2992SOL    HW120435   2.792   2.113   3.268 -0.5359  2.2063  0.5300
 2992SOL    HW220436   2.779   1.994   3.343  2.0828  0.5814  1.3662
 2993SOL     OW20437   1.557   4.115  13.359  0.9224  0.5668  0.2222
 2993SOL    HW120438   1.637   4.066  13.376  0.4930 -0.7612 -1.4932
 2993SOL    HW220439   1.555   4.158  13.444  0.0735 -0.8712  0.9285
 2994SOL     OW20440   0.947   0.982   7.557  0.4135  0.3925  0.1437
 2994SOL    HW120441   0.890   0.905   7.549 -0.6837  0.8837  3.1940
 2994SOL    HW220442   0.980   0.993   7.467  0.7804 -2.3494 -0.0597
 2995SOL     OW20443   0.380   0.523   2.975  0.0218  0.2430  0.4957
 2995SOL    HW120444   0.454   0.489   2.925  0.1252  2.0942 -0.6034
 2995SOL    HW220445   0.337   0.573   2.906 -1.0321  0.2309  1.1394
 2996SOL     OW20446   1.781   1.211  11.916 -0.2486  0.1021 -0.6284
 2996SOL    HW120447   1.691   1.184  11.934  0.4212 -0.6632  1.5509
 2996SOL    HW220448   1.778   1.302  11.944  0.9465  0.0674 -0.4058
 2997SOL     OW20449   2.263   2.426  15.358 -0.1022 -0.4994  0.0333
 2997SOL    HW120450   2.207   2.503  15.349  1.7846  1.1498  2.4407
 2997SOL    HW220451   2.198   2.368  15.397 -0.6986 -0.6943 -1.2352
 2998SOL     OW20452   4.510   0.437   8.380 -0.4807 -0.4478  0.1971
 2998SOL    HW120453   4.505   0.523   8.339 -2.4981  0.1425  1.6690
 2998SOL    HW220454   4.444   0.445   8.450  0.8715 -0.9504  1.5214
 2999SOL     OW20455   1.550   1.475  10.585  0.0617  0.7819  0.0017
 2999SOL    HW120456   1.518   1.437  10.503 -0.8722 -1.0209  1.1966
 2999SOL    HW220457   1.606   1.540  10.545  2.6790 -0.9740  0.7859
 3000SOL     OW20458   0.062   2.686  15.366  0.0346  0.3103  0.9779
 3000SOL    HW120459   0.017   2.698  15.450  1.1046  0.9487  1.4627
 3000SOL    HW220460   0.016   2.613  15.325  1.6151  0.5126 -1.1731
 3001SOL     OW20461   4.039   2.191  12.425  0.5979 -0.1858 -0.3114
 3001SOL    HW120462   4.087   2.230  12.499  0.3609  0.8212 -0.6867
 3001SOL    HW220463   3.953   2.233  12.435  1.5875  1.9046 -0.5533
 3002SOL     OW20464   2.024   4.054   6.788  0.0970  0.0087  0.2797
 3002SOL    HW120465   2.015   3.961   6.807  1.9268 -0.6545 -2.0197
 3002SOL    HW220466   1.947   4.071   6.732  0.3653 -0.0777 -0.1177
 3003SOL     OW20467   0.368   1.568   3.124 -0.0318  0.7665  0.2489
 3003SOL    HW120468   0.278   1.538   3.139  0.8109 -1.2425  1.3051
 3003SOL    HW220469   0.390   1.511   3.050 -3.7657  0.4067 -0.5939
 3004SOL     OW20470   3.513   0.902   8.749  0.2396  0.2557  0.1556
 3004SOL    HW120471   3.421   0.898   8.721  0.3843  0.3155 -0.3237
 3004SOL    HW220472   3.546   0.975   8.697  1.3397 -0.2314  0.1632
 3005SOL     OW20473   1.381   0.992   2.397 -0.5540 -0.1113  0.3429
 3005SOL    HW120474   1.330   0.940   2.459 -0.3368  1.5842  1.9366
 3005SOL    HW220475   1.337   0.972   2.314 -2.0818  2.1025  0.6375
 3006SOL     OW20476   0.735   2.246  16.588  0.4597  0.0004 -0.2524
 3006SOL    HW120477   0.686   2.215  16.663 -0.8239  0.1125 -1.0410
 3006SOL    HW220478   0.741   2.341  16.603 -1.2043  0.2124 -0.9053
 3007SOL     OW20479   1.491   0.129   6.697 -0.3848 -0.0132 -1.3824
 3007SOL    HW120480   1.433   0.182   6.643 -0.3066  0.9731 -0.5236
 3007SOL    HW220481   1.573   0.135   6.647  0.5581  3.7679  0.5786
 3008SOL     OW20482   0.497   2.182   4.603 -0.2336  0.3252 -0.0932
 3008SOL    HW120483   0.458   2.257   4.558 -0.4293  0.8419  0.9331
 3008SOL    HW220484   0.421   2.128   4.625 -0.5580  1.4035  1.4354
 3009SOL     OW20485   4.392   2.997  13.892 -0.0472 -0.0199  0.1859
 3009SOL    HW120486   4.437   3.045  13.822  0.5567 -0.4765  0.2612
 3009SOL    HW220487   4.393   3.056  13.967 -0.0327  2.3172 -1.6581
 3010SOL     OW20488   0.858   0.220   1.468  0.5156 -0.1059  0.2777
 3010SOL    HW120489   0.779   0.174   1.496 -0.6900  1.4801 -0.5487
 3010SOL    HW220490   0.930   0.182   1.520  0.4923 -1.5857 -0.7858
 3011SOL     OW20491   1.237   2.698   2.914  0.0647 -0.1061  0.5270
 3011SOL    HW120492   1.290   2.748   2.975 -2.3235  1.4798  1.3186
 3011SOL    HW220493   1.156   2.678   2.962 -0.6717  0.6955 -0.3782
 3012SOL     OW20494   1.667   3.692  11.744 -0.2468  0.2081 -0.1909
 3012SOL    HW120495   1.706   3.727  11.664  0.5971 -0.6067 -0.1355
 3012SOL    HW220496   1.751   3.681  11.788  0.5269  1.3391 -1.3871
 3013SOL     OW20497   3.594   1.285  13.049 -0.0650 -0.2188  0.3223
 3013SOL    HW120498   3.590   1.280  12.954  1.1253  0.4791  0.2367
 3013SOL    HW220499   3.555   1.371  13.065 -3.1331 -1.3316 -1.0652
 3014SOL     OW20500   1.185   0.456  14.917 -0.0799 -0.2361  0.0705
 3014SOL    HW120501   1.105   0.412  14.887  1.1501 -0.9433 -2.2221
 3014SOL    HW220502   1.214   0.473  14.827  1.2276 -1.3238  0.2982
 3015SOL     OW20503   1.737   0.843   4.539 -0.3354 -0.0895 -0.2812
 3015SOL    HW120504   1.695   0.888   4.466 -1.4303 -1.4849 -0.5206
 3015SOL    HW220505   1.721   0.751   4.520 -2.8378  0.2781  0.1041
 3016SOL     OW20506   4.683   3.772   5.024 -0.3865  0.1542 -0.1227
 3016SOL    HW120507   0.007   3.771   4.939 -2.3961  1.9081 -1.1895
 3016SOL    HW220508   4.623   3.699   5.008 -2.8521  2.3554 -1.0164
 3017SOL     OW20509   1.744   1.037   8.489  0.1955 -0.4253  0.0821
 3017SOL    HW120510   1.821   1.085   8.459  0.2286  0.0099  0.8552
 3017SOL    HW220511   1.706   1.008   8.406 -1.4314  1.0846  0.3314
 3018SOL     OW20512   3.593   2.321  12.785  0.2412  0.4085  0.8404
 3018SOL    HW120513   3.669   2.264  12.775 -0.6857 -1.1017  2.4372
 3018SOL    HW220514   3.543   2.284  12.712 -0.0870 -1.7746  2.1758
 3019SOL     OW20515   4.590   1.621   9.021 -0.4889 -0.5638 -0.8443
 3019SOL    HW120516   4.506   1.613   8.975 -0.1917  0.8098 -1.6290
 3019SOL    HW220517   4.562   1.676   9.094  1.3544 -0.6446 -0.0806
 3020SOL     OW20518   0.432   3.527   4.047 -0.2547 -0.0554  0.3412
 3020SOL    HW120519   0.502   3.555   4.106  0.3260  0.4223 -0.5683
 3020SOL    HW220520   0.397   3.613   4.022 -0.4768 -0.5470 -1.0728
 3021SOL     OW20521   1.729   0.493  12.630 -0.1124 -0.4050 -0.1806
 3021SOL    HW120522   1.669   0.431  12.671 -0.8738  1.9104  2.1825
 3021SOL    HW220523   1.713   0.578  12.672 -1.0097 -0.4995 -0.3120
 3022SOL     OW20524   1.794   1.978  14.452  0.9411  0.3103  0.0084
 3022SOL    HW120525   1.752   1.917  14.391  1.0470  0.0811  0.1652
 3022SOL    HW220526   1.776   2.065  14.416 -1.5357 -0.5678 -0.8763
 3023SOL     OW20527   4.187   3.382   1.387 -0.7680 -0.5013  0.3533
 3023SOL    HW120528   4.201   3.449   1.320 -0.5185 -0.3650  0.5416
 3023SOL    HW220529   4.274   3.383   1.427 -0.4060  3.0857 -0.5710
 3024SOL     OW20530   0.790   0.781   7.547  0.1561 -0.0160  0.3935
 3024SOL    HW120531   0.772   0.712   7.611 -0.5499  0.5331  0.7938
 3024SOL    HW220532   0.805   0.723   7.473  0.0062  2.7256 -1.8027
 3025SOL     OW20533   3.875   0.362   4.823  0.4968  0.1592 -0.0958
 3025SOL    HW120534   3.799   0.413   4.796  0.1269 -0.9747 -1.2189
 3025SOL    HW220535   3.931   0.426   4.868 -2.8438  0.8455  3.0595
 3026SOL     OW20536   4.650   0.923   3.236 -0.2442 -0.3462 -0.1158
 3026SOL    HW120537   4.656   1.014   3.205  0.5328 -0.5010 -0.4010
 3026SOL    HW220538   4.641   0.933   3.331  1.0871  0.9331 -0.1303
 3027SOL     OW20539   1.563   3.369  16.623 -0.4829 -0.0890  0.1635
 3027SOL    HW120540   1.569   3.464  16.622  2.4887 -0.2214  2.0866
 3027SOL    HW220541   1.645   3.363  16.573 -1.1503  0.4771 -0.9850
 3028SOL     OW20542   4.154   0.173   8.403 -0.3656 -0.3758  0.4387
 3028SOL    HW120543   4.174   0.085   8.371 -1.7007 -1.4725  2.6438
 3028SOL    HW220544   4.060   0.161   8.417 -0.6303  0.1125 -0.9361
 3029SOL     OW20545   0.922   3.619   8.582 -0.6050 -0.3269 -0.7133
 3029SOL    HW120546   0.941   3.685   8.515  0.2172  1.0513  0.8934
 3029SOL    HW220547   0.883   3.672   8.651  1.0928  0.4224 -0.3334
 3030SOL     OW20548   0.431   0.753   8.423  0.7272  0.3659 -0.6931
 3030SOL    HW120549   0.373   0.680   8.404 -0.1732  0.5716  1.2833
 3030SOL    HW220550   0.380   0.833   8.411 -0.7549 -0.5141 -0.2487
 3031SOL     OW20551   4.573   3.522   6.896  0.4553 -0.1109  0.4918
 3031SOL    HW120552   4.567   3.493   6.805 -0.2880  2.5195 -0.2951
 3031SOL    HW220553   4.653   3.572   6.910 -1.6627  3.1450  0.9940
 3032SOL     OW20554   3.832   2.077   3.216 -0.2619 -0.3980 -0.0392
 3032SOL    HW120555   3.744   2.113   3.204  0.2021  0.1397 -1.7697
 3032SOL    HW220556   3.873   2.089   3.131 -1.1451 -0.0642 -0.4144
 3033SOL     OW20557   0.800   1.963   0.346  0.1595 -0.4175 -0.2450
 3033SOL    HW120558   0.763   2.049   0.324  1.9044  0.3424 -0.2500
 3033SOL    HW220559   0.873   1.994   0.400  0.5496 -0.9999 -0.4322
 3034SOL     OW20560   2.081   1.163   9.014  0.1431 -0.1183 -0.1584
 3034SOL    HW120561   2.118   1.088   8.968 -0.5603  0.0419 -1.0021
 3034SOL    HW220562   2.069   1.132   9.104  1.6756  1.2354  0.5261
 3035SOL     OW20563   1.992   1.800   9.253  0.4170 -0.2920  0.1059
 3035SOL    HW120564   1.995   1.884   9.298  0.4851 -0.3544  0.2177
 3035SOL    HW220565   1.962   1.742   9.323 -0.3380 -1.2461 -1.0088
 3036SOL     OW20566   2.545   3.666  13.942 -0.2254  0.2525 -0.4700
 3036SOL    HW120567   2.547   3.743  13.885 -2.3636 -0.8564 -2.0623
 3036SOL    HW220568   2.638   3.666  13.963 -0.4447 -0.9630  0.5041
 3037SOL     OW20569   3.058   2.528  13.279  0.6148 -0.1508  0.5131
 3037SOL    HW120570   3.138   2.581  13.275  0.4833  0.0298  0.3048
 3037SOL    HW220571   3.083   2.454  13.223 -1.7684 -0.5953  0.0492
 3038SOL     OW20572   2.939   2.068  12.798 -0.0731  0.1911  0.5302
 3038SOL    HW120573   2.953   2.032  12.886 -1.7031  0.8031  1.0436
 3038SOL    HW220574   2.925   2.160  12.821  3.7319  0.8939  0.0047
 3039SOL     OW20575   1.924   4.605   3.875  0.0325 -1.0816  0.2854
 3039SOL    HW120576   1.876   4.649   3.945  1.1506 -1.7252  1.4532
 3039SOL    HW220577   1.942   4.682   3.821  0.3019 -0.4701  1.2419
 3040SOL     OW20578   4.458   0.772   8.924  0.5687  0.0238  0.2122
 3040SOL    HW120579   4.455   0.724   9.007 -0.3541 -1.5748 -0.7627
 3040SOL    HW220580   4.542   0.816   8.940 -0.0635  1.5220 -0.5972
 3041SOL     OW20581   0.457   2.861  16.601  0.4087  0.6562 -0.1711
 3041SOL    HW120582   0.437   2.787  16.657 -0.0418 -0.1096 -1.3300
 3041SOL    HW220583   0.548   2.881  16.619  0.5176  2.0510 -2.2034
 3042SOL     OW20584   4.137   1.011   8.344  0.0783  0.1769 -0.3742
 3042SOL    HW120585   4.052   1.039   8.311  0.6731  1.1876 -1.0529
 3042SOL    HW220586   4.153   1.068   8.418  0.7780 -0.4705 -0.0267
 3043SOL     OW20587   3.803   2.088   3.993 -0.2364  0.1720  0.9093
 3043SOL    HW120588   3.868   2.032   4.034  0.2149 -0.9971 -1.4206
 3043SOL    HW220589   3.759   2.019   3.944 -1.8627  1.3438  0.7060
 3044SOL     OW20590   2.270   2.669   4.792  0.0106 -0.6337  0.7111
 3044SOL    HW120591   2.219   2.602   4.838  2.4325 -1.6741  1.8803
 3044SOL    HW220592   2.361   2.639   4.802  0.8693  1.9666  0.5447
 3045SOL     OW20593   2.127   0.057   9.167  0.1098 -0.1611 -0.2563
 3045SOL    HW120594   2.114   0.021   9.079 -2.5794 -2.5695  1.1225
 3045SOL    HW220595   2.163   0.143   9.146 -2.3852  1.4134  1.9079
 3046SOL     OW20596   1.401   4.563   4.650  0.1030 -0.2125  0.0127
 3046SOL    HW120597   1.321   4.613   4.635 -0.0249 -0.5264 -0.3532
 3046SOL    HW220598   1.373   4.487   4.599  3.1755 -1.1071 -0.3482
 3047SOL     OW20599   3.220   0.303   8.557  0.1724  0.6179  0.3087
 3047SOL    HW120600   3.203   0.377   8.499  0.6233  1.1983  0.9184
 3047SOL    HW220601   3.280   0.339   8.623 -0.7361  0.5142  1.1901
 3048SOL     OW20602   3.079   0.827  12.165 -0.0236  0.0895 -0.9076
 3048SOL    HW120603   3.029   0.756  12.125  0.2680  0.3074 -1.6476
 3048SOL    HW220604   3.070   0.900  12.103  0.5609 -0.3584 -1.5195
 3049SOL     OW20605   3.710   0.301   2.997 -0.4375  0.7595 -0.3655
 3049SOL    HW120606   3.695   0.289   3.090  0.1521 -0.5474 -0.4401
 3049SOL    HW220607   3.801   0.270   2.996 -0.9922 -0.8750  1.2526
 3050SOL     OW20608   2.039   1.279  11.831  0.1795  0.0890  0.0824
 3050SOL    HW120609   1.944   1.276  11.841  0.2934  0.0500  1.0886
 3050SOL    HW220610   2.071   1.281  11.921 -0.8525  2.4397  0.3858
 3051SOL     OW20611   2.502   1.642   4.988 -0.0380  0.3673  0.4631
 3051SOL    HW120612   2.419   1.603   4.960 -0.2323  1.8378 -0.9489
 3051SOL    HW220613   2.523   1.586   5.063  0.4371 -2.2016 -1.5710
 3052SOL     OW20614   1.415   0.500   3.730 -0.2263  0.2428 -0.1254
 3052SOL    HW120615   1.438   0.573   3.672  0.6707  0.3841  0.4140
 3052SOL    HW220616   1.422   0.428   3.667  0.0283 -0.2666  0.4907
 3053SOL     OW20617   4.181   4.083   7.630  0.4014 -0.3524  0.2491
 3053SOL    HW120618   4.099   4.036   7.645  0.5525  0.2695  3.0577
 3053SOL    HW220619   4.208   4.081   7.722 -0.4425 -0.9022  0.4806
 3054SOL     OW20620   3.882   1.856  12.889  0.2687 -0.5956 -0.3832
 3054SOL    HW120621   3.854   1.785  12.831 -0.9963 -1.0201  0.7436
 3054SOL    HW220622   3.936   1.914  12.835 -1.1287  2.6504  1.6971
 3055SOL     OW20623   2.441   2.496   5.103  0.0531 -0.2506 -0.3161
 3055SOL    HW120624   2.437   2.591   5.107 -1.2082 -0.4402  2.9462
 3055SOL    HW220625   2.348   2.474   5.108  0.0898 -0.7047 -1.4819
 3056SOL     OW20626   2.732   2.431   5.221 -0.5079 -0.3021 -0.0705
 3056SOL    HW120627   2.747   2.519   5.187 -1.2223  0.0326  0.4642
 3056SOL    HW220628   2.647   2.407   5.183 -0.1900 -2.0959  0.3694
 3057SOL     OW20629   1.528   4.399   5.753 -0.5024  0.3431 -0.0274
 3057SOL    HW120630   1.457   4.390   5.817 -1.2587 -0.9137 -1.0306
 3057SOL    HW220631   1.578   4.323   5.783 -1.0130 -1.4251 -3.6284
 3058SOL     OW20632   1.988   0.106   6.486  0.0670  0.3556 -0.0972
 3058SOL    HW120633   2.043   0.120   6.563  0.7809 -0.8442 -0.3877
 3058SOL    HW220634   1.928   0.180   6.493  0.3510  0.6484 -0.8162
 3059SOL     OW20635   1.735   3.293   5.077 -0.1093 -0.2483 -0.2231
 3059SOL    HW120636   1.736   3.387   5.059 -1.7119 -0.5614 -2.0804
 3059SOL    HW220637   1.827   3.269   5.072 -0.7926 -2.8483 -0.6333
 3060SOL     OW20638   3.949   1.039   7.407  0.2001  0.1303 -0.0305
 3060SOL    HW120639   3.926   1.076   7.492  0.3582  0.8081 -0.2768
 3060SOL    HW220640   4.041   1.066   7.405 -0.2539  1.6518 -0.8579
 3061SOL     OW20641   2.289   0.843  14.426 -0.4801 -0.6451  0.9705
 3061SOL    HW120642   2.301   0.789  14.347 -1.0720 -0.5948  0.8442
 3061SOL    HW220643   2.239   0.912  14.383 -2.0294 -1.7159  1.0261
 3062SOL     OW20644   1.398   3.257   4.247 -0.1950 -0.1798  0.0471
 3062SOL    HW120645   1.380   3.349   4.227 -1.7665 -0.2392  1.1936
 3062SOL    HW220646   1.326   3.218   4.197  0.2627  0.7056 -1.3168
 3063SOL     OW20647   2.305   2.511   7.831 -0.4916  0.3153  1.0783
 3063SOL    HW120648   2.333   2.470   7.913  0.5832  1.6215  1.3786
 3063SOL    HW220649   2.233   2.454   7.804 -0.7188  0.5549  1.1818
 3064SOL     OW20650   1.225   1.189   1.603  0.3473  0.6444 -0.4485
 3064SOL    HW120651   1.260   1.214   1.517  1.3784 -0.9750 -0.5153
 3064SOL    HW220652   1.219   1.095   1.584  1.1077  0.6169 -0.5389
 3065SOL     OW20653   1.130   0.593  15.700 -0.0163  0.6353 -0.3167
 3065SOL    HW120654   1.161   0.681  15.722  3.1790 -0.8142  1.0721
 3065SOL    HW220655   1.067   0.608  15.630  0.5617  2.1198 -0.5125
 3066SOL     OW20656   4.219   3.824   0.473  0.5849  0.4018 -0.2158
 3066SOL    HW120657   4.213   3.765   0.398 -0.6829 -1.2959  1.2113
 3066SOL    HW220658   4.310   3.838   0.499 -0.1110  2.5508  1.0534
 3067SOL     OW20659   1.508   3.689  13.022 -1.0240 -0.6623 -0.3697
 3067SOL    HW120660   1.413   3.679  13.022 -1.3137  2.2792  1.9713
 3067SOL    HW220661   1.517   3.775  13.062  0.7693 -0.9672 -0.1109
 3068SOL     OW20662   1.138   0.294   5.303 -0.3392  0.3020  0.9288
 3068SOL    HW120663   1.135   0.325   5.213  0.4331 -1.0067  0.4504
 3068SOL    HW220664   1.216   0.239   5.305  0.0755  0.8371 -0.6216
 3069SOL     OW20665   4.610   2.676   5.872  0.1869 -0.2390  0.4411
 3069SOL    HW120666   4.617   2.743   5.804  2.2607 -1.3490 -0.4229
 3069SOL    HW220667   4.515   2.679   5.883  0.1090  0.4283 -0.3978
 3070SOL     OW20668   0.708   1.377   7.660 -0.1142  0.2082 -0.1080
 3070SOL    HW120669   0.671   1.319   7.594 -1.8745  1.7589 -0.4775
 3070SOL    HW220670   0.668   1.458   7.627 -1.3745  1.0319  3.3867
 3071SOL     OW20671   0.355   1.158   5.626 -0.1785  0.1145  0.3499
 3071SOL    HW120672   0.321   1.071   5.648  1.3450 -1.0460 -1.8827
 3071SOL    HW220673   0.448   1.137   5.636 -0.4002 -1.2990 -0.5970
 3072SOL     OW20674   2.872   1.482   8.090  0.0628  0.2043  0.0590
 3072SOL    HW120675   2.860   1.552   8.154  0.8074 -0.8123  1.2974
 3072SOL    HW220676   2.844   1.403   8.136  0.0019 -0.4234 -1.0395
 3073SOL     OW20677   1.866   4.381   6.504 -0.5677 -0.0400 -0.0257
 3073SOL    HW120678   1.855   4.439   6.429  0.7733 -0.3341 -0.4464
 3073SOL    HW220679   1.843   4.446   6.571  1.9318 -0.5969  1.3747
 3074SOL     OW20680   2.742   4.062  17.182 -0.8989 -0.2231 -0.2318
 3074SOL    HW120681   2.728   4.087  17.091 -0.0566 -1.7933 -0.7848
 3074SOL    HW220682   2.830   4.098  17.196 -0.8439  0.4405 -2.3977
 3075SOL     OW20683   0.900   1.769  14.232  0.2751  0.0106  0.3250
 3075SOL    HW120684   0.859   1.821  14.301  0.9498  0.1089  0.6584
 3075SOL    HW220685   0.977   1.731  14.275  0.3757 -0.1143  0.0337
 3076SOL     OW20686   3.303   4.030   4.021  0.5364  0.6017 -0.5072
 3076SOL    HW120687   3.236   3.961   4.025  1.8620 -0.5457  1.9014
 3076SOL    HW220688   3.371   3.994   3.965 -0.0365 -0.2839 -0.6468
 3077SOL     OW20689   1.281   3.055   5.128 -0.0400 -0.4354  0.0657
 3077SOL    HW120690   1.347   3.113   5.090 -1.1817  0.2056 -0.9240
 3077SOL    HW220691   1.338   2.979   5.143  1.4262  1.1309  2.3367
 3078SOL     OW20692   1.638   3.130   7.522  0.1685  0.2298 -0.5032
 3078SOL    HW120693   1.731   3.151   7.514  0.0315  0.3309 -1.8835
 3078SOL    HW220694   1.600   3.214   7.549  0.3555  0.5451 -1.2206
 3079SOL     OW20695   0.518   3.517   2.428  0.1234 -0.0841  0.6034
 3079SOL    HW120696   0.542   3.565   2.507  0.6250  0.6693 -0.0041
 3079SOL    HW220697   0.482   3.590   2.377  1.9006  0.6538  0.4165
 3080SOL     OW20698   2.233   0.228   2.888 -0.8116  0.0655  0.5720
 3080SOL    HW120699   2.190   0.313   2.894 -2.0757 -0.7494  3.0548
 3080SOL    HW220700   2.285   0.222   2.968 -2.2512  0.9539  1.5707
 3081SOL     OW20701   1.003   1.910  13.669  0.2482 -0.0185  0.9239
 3081SOL    HW120702   0.997   1.935  13.761  1.4235  1.4779  0.5973
 3081SOL    HW220703   0.951   1.830  13.669 -0.8547  0.6982  1.0082
 3082SOL     OW20704   2.104   2.486   4.905 -0.0169 -0.0339 -0.3941
 3082SOL    HW120705   2.018   2.452   4.929 -0.2789  1.4717  0.7460
 3082SOL    HW220706   2.128   2.519   4.991  1.4369  0.5359 -1.0225
 3083SOL     OW20707   4.121   2.702   1.198  0.0994 -0.2031 -0.0792
 3083SOL    HW120708   4.128   2.773   1.134  0.9447 -1.1906 -1.0810
 3083SOL    HW220709   4.179   2.723   1.271 -0.4655 -1.2370  0.6562
 3084SOL     OW20710   2.301   2.909   5.941 -0.4546  0.4440 -0.4173
 3084SOL    HW120711   2.286   2.933   5.849 -2.1172 -1.2072 -0.5847
 3084SOL    HW220712   2.362   2.978   5.966 -0.1901  0.8692 -2.2167
 3085SOL     OW20713   4.232   4.305   4.693  0.1341 -0.3774  0.5258
 3085SOL    HW120714   4.185   4.321   4.611 -0.2799  0.8749  1.0037
 3085SOL    HW220715   4.157   4.301   4.752 -0.4162  0.2456 -0.1255
 3086SOL     OW20716   2.822   4.169   9.784  0.2980 -0.0224  0.3566
 3086SOL    HW120717   2.881   4.179   9.859  0.6469  1.1075 -0.0666
 3086SOL    HW220718   2.768   4.248   9.785  2.5527  1.4943  2.7268
 3087SOL     OW20719   3.300   1.803   7.812  0.7190  0.0187 -0.2080
 3087SOL    HW120720   3.290   1.854   7.732  0.0249 -1.0597 -0.8050
 3087SOL    HW220721   3.228   1.832   7.869 -0.7940 -0.8717 -1.6617
 3088SOL     OW20722   1.264   0.080   0.379 -0.2207 -0.0708  0.8138
 3088SOL    HW120723   1.219   0.032   0.448  0.3849 -1.0964  0.5010
 3088SOL    HW220724   1.255   0.015   0.309 -0.4374  1.0415 -0.1915
 3089SOL     OW20725   1.028   2.555  13.018  0.0781  0.5951 -0.7943
 3089SOL    HW120726   1.039   2.500  13.096  0.9765 -0.4059 -1.6303
 3089SOL    HW220727   0.990   2.496  12.953  1.3755 -0.3483 -0.6957
 3090SOL     OW20728   3.324   3.741   4.885  0.3319 -0.5656 -0.2550
 3090SOL    HW120729   3.282   3.816   4.926  0.9281 -0.0371 -0.6217
 3090SOL    HW220730   3.250   3.681   4.871 -0.6984  0.8713 -0.8678
 3091SOL     OW20731   2.345   1.948   9.435 -0.2999  0.1652 -0.2785
 3091SOL    HW120732   2.336   1.907   9.349  0.6384  0.1093 -0.3429
 3091SOL    HW220733   2.266   2.002   9.429  0.7195  1.6339 -0.2607
 3092SOL     OW20734   1.268   0.911   7.121  0.1968  0.8287 -0.6286
 3092SOL    HW120735   1.274   0.822   7.086 -0.6638  0.4624  0.1724
 3092SOL    HW220736   1.180   0.937   7.094  0.2061  1.7805  0.2566
 3093SOL     OW20737   0.368   1.275   3.615 -0.5332 -0.0416 -0.6060
 3093SOL    HW120738   0.454   1.266   3.655 -1.7220 -0.4285  1.8741
 3093SOL    HW220739   0.362   1.371   3.617  0.9859 -0.0365  2.7279
 3094SOL     OW20740   4.288   1.923   5.086  0.3414  0.1850 -0.4053
 3094SOL    HW120741   4.313   1.899   4.997 -1.3524  0.3270 -0.9291
 3094SOL    HW220742   4.202   1.881   5.099  1.0164 -1.0237  0.2318
 3095SOL     OW20743   3.377   3.326   9.130 -0.5674 -0.2035  0.1207
 3095SOL    HW120744   3.446   3.260   9.125 -2.2693 -2.1011  1.8233
 3095SOL    HW220745   3.392   3.348   9.222  1.6676 -0.7964 -0.1035
 3096SOL     OW20746   4.207   2.884  11.018 -0.1369 -0.3084 -0.0176
 3096SOL    HW120747   4.250   2.904  10.935 -0.9760  1.5551 -0.0072
 3096SOL    HW220748   4.225   2.956  11.079 -2.5840  0.4055 -0.1266
 3097SOL     OW20749   2.940   2.883   3.264 -0.3520 -0.9434 -0.2524
 3097SOL    HW120750   3.015   2.823   3.265 -0.1266 -0.6618 -0.4224
 3097SOL    HW220751   2.957   2.939   3.188 -0.8641 -1.6176 -0.8692
 3098SOL     OW20752   4.239   3.896   4.598  0.2819  0.5540 -0.4350
 3098SOL    HW120753   4.240   3.805   4.626  1.2832  0.3917 -1.0143
 3098SOL    HW220754   4.152   3.899   4.558 -0.2497  0.2701  0.6886
 3099SOL     OW20755   2.245   0.286   9.112 -0.1995  0.2980  0.3483
 3099SOL    HW120756   2.242   0.376   9.080 -0.9880 -0.1913 -0.9914
 3099SOL    HW220757   2.231   0.309   9.204  0.8147 -0.0767  0.5898
 3100SOL     OW20758   2.695   3.452   1.787 -0.6266 -0.3116  0.4780
 3100SOL    HW120759   2.769   3.502   1.750 -0.7678  0.2730  0.9853
 3100SOL    HW220760   2.736   3.389   1.845 -1.1311  0.1633  1.3409
 3101SOL     OW20761   3.094   3.248  10.121  0.6913  0.5381  0.2921
 3101SOL    HW120762   3.114   3.332  10.080 -1.1684  1.4370  1.2175
 3101SOL    HW220763   3.069   3.273  10.210  0.0640  1.1013 -0.0367
 3102SOL     OW20764   1.388   2.207   7.433  0.2951 -0.7464  0.4393
 3102SOL    HW120765   1.394   2.114   7.456 -1.8234 -0.4138  2.2983
 3102SOL    HW220766   1.448   2.238   7.501 -0.0483  0.0044  0.3961
 3103SOL     OW20767   2.640   2.838  15.469 -0.4710  0.2731  0.5067
 3103SOL    HW120768   2.689   2.769  15.424  0.5402  1.2487  0.1145
 3103SOL    HW220769   2.716   2.896  15.485  0.2801 -0.9572  1.4095
 3104SOL     OW20770   4.452   2.292  13.489  0.4771  0.6554 -0.2193
 3104SOL    HW120771   4.367   2.257  13.516  0.0718  0.7421 -1.3519
 3104SOL    HW220772   4.478   2.223  13.428  1.6900  1.2257 -0.3451
 3105SOL     OW20773   0.549   2.729   0.930 -0.1564 -0.4995 -0.5596
 3105SOL    HW120774   0.593   2.814   0.934  2.4792 -1.9368  0.3634
 3105SOL    HW220775   0.621   2.678   0.894 -1.4741  0.3605 -4.4800
 3106SOL     OW20776   4.285   1.105   8.578 -0.0899  0.2087  0.2280
 3106SOL    HW120777   4.309   1.196   8.592  2.2738 -0.5860  1.3798
 3106SOL    HW220778   4.249   1.082   8.664  1.0569 -1.9687  0.1405
 3107SOL     OW20779   0.463   4.542  11.205 -0.5521 -0.3644  0.1203
 3107SOL    HW120780   0.483   4.450  11.222 -1.1289 -1.3175 -4.2925
 3107SOL    HW220781   0.429   4.544  11.294 -3.6606 -0.7988 -1.0639
 3108SOL     OW20782   4.166   2.096   8.148 -0.2722 -0.7188 -0.0692
 3108SOL    HW120783   4.194   2.142   8.227 -0.6249 -0.5256 -0.0540
 3108SOL    HW220784   4.106   2.163   8.115 -0.7105 -0.6722  0.8115
 3109SOL     OW20785   3.384   3.804   3.132  0.2688  0.3004 -0.0645
 3109SOL    HW120786   3.478   3.817   3.124  0.5587 -0.3926  2.2440
 3109SOL    HW220787   3.351   3.784   3.044  1.1213  2.3588 -0.8668
 3110SOL     OW20788   0.684   4.257   4.151 -0.3639 -0.1529 -0.2311
 3110SOL    HW120789   0.611   4.262   4.212 -1.8675 -4.6025 -1.6775
 3110SOL    HW220790   0.644   4.200   4.084  0.6225 -0.6555 -0.3983
 3111SOL     OW20791   0.454   4.465   4.889  1.1836  0.4558  0.1990
 3111SOL    HW120792   0.550   4.471   4.892  1.2471  0.6733 -2.4496
 3111SOL    HW220793   0.446   4.384   4.838 -0.5950  0.5354  0.3585
 3112SOL     OW20794   2.567   3.837  14.706 -0.5827  0.3599  0.3334
 3112SOL    HW120795   2.636   3.900  14.683  0.3174 -0.0711  1.8193
 3112SOL    HW220796   2.501   3.898  14.739 -2.1537 -0.1638 -1.8512
 3113SOL     OW20797   1.890   2.112   3.924 -0.6681  0.3829  0.0196
 3113SOL    HW120798   1.977   2.125   3.885 -0.3936 -0.6299  0.2959
 3113SOL    HW220799   1.917   2.126   4.015 -0.2174 -1.1792  0.1211
 3114SOL     OW20800   2.017   1.010   6.841  0.3004  0.1147  0.2105
 3114SOL    HW120801   2.060   1.038   6.922 -2.6627 -1.5375  2.3245
 3114SOL    HW220802   2.053   0.922   6.834  0.7155  0.2508  0.6579
 3115SOL     OW20803   2.315   0.831   9.327  0.3074 -0.0055  0.0187
 3115SOL    HW120804   2.391   0.772   9.329 -1.0090 -1.7593 -1.7848
 3115SOL    HW220805   2.282   0.813   9.239 -0.5215  0.8853  0.1543
 3116SOL     OW20806   0.136   2.506   8.685 -0.3099  0.2665  0.1727
 3116SOL    HW120807   0.213   2.558   8.661 -1.4956  1.6332 -0.6380
 3116SOL    HW220808   0.069   2.573   8.682 -0.6666 -0.1963 -2.3594
 3117SOL     OW20809   0.254   1.919   2.880 -0.3652  0.0555 -0.0822
 3117SOL    HW120810   0.164   1.896   2.857 -0.9103  0.8777  1.2510
 3117SOL    HW220811   0.297   1.906   2.795 -0.4596 -1.1972  0.0521
 3118SOL     OW20812   2.633   2.670   7.969 -0.1128 -0.3323 -0.2762
 3118SOL    HW120813   2.612   2.731   8.039  1.8542  3.7836 -3.2945
 3118SOL    HW220814   2.548   2.652   7.929 -1.1502 -0.9714  2.2325
 3119SOL     OW20815   3.274   0.942   8.421 -0.3424 -0.2002 -0.3926
 3119SOL    HW120816   3.248   1.032   8.439  0.0968  0.0562 -1.0426
 3119SOL    HW220817   3.250   0.896   8.502 -3.5315 -1.1385 -1.8560
 3120SOL     OW20818   1.754   0.874  14.587  0.0298  0.2762 -0.0218
 3120SOL    HW120819   1.713   0.852  14.503  0.4333  0.0841 -0.1655
 3120SOL    HW220820   1.809   0.949  14.564 -2.2584  2.0339  0.2850
 3121SOL     OW20821   3.355   4.407  13.033  0.1958  0.0432 -0.0190
 3121SOL    HW120822   3.361   4.468  12.960  0.8968 -0.5390 -0.4447
 3121SOL    HW220823   3.449   4.401  13.054 -0.1480 -1.5180  1.0649
 3122SOL     OW20824   3.654   1.474   3.063 -0.5352 -0.2464  0.2166
 3122SOL    HW120825   3.626   1.560   3.031  0.0715  1.5251  4.4974
 3122SOL    HW220826   3.569   1.438   3.086 -1.6840  2.5594  0.3724
 3123SOL     OW20827   4.486   0.950   8.489  0.3857 -0.2820  0.5859
 3123SOL    HW120828   4.522   1.021   8.436  0.6814 -0.5908  0.3777
 3123SOL    HW220829   4.426   0.996   8.548  0.4482  0.9131 -0.2771
 3124SOL     OW20830   0.367   0.912  14.537 -0.3040  0.3650  0.1244
 3124SOL    HW120831   0.332   0.824  14.551 -0.4344  0.4389  0.2575
 3124SOL    HW220832   0.375   0.940  14.628  1.8239 -0.1151  0.0898
 3125SOL     OW20833   1.008   3.206   6.296 -0.1837  0.4578  0.0084
 3125SOL    HW120834   0.922   3.247   6.291  0.2921  1.6573  1.8727
 3125SOL    HW220835   1.059   3.284   6.276  0.8939 -0.2714 -0.1133
 3126SOL     OW20836   3.741   0.509   7.729  0.0130  0.2618 -0.0787
 3126SOL    HW120837   3.661   0.519   7.780 -0.7744 -2.1837 -0.8017
 3126SOL    HW220838   3.791   0.459   7.793 -0.3552  1.7861  1.3908
 3127SOL     OW20839   1.220   0.353   1.407  0.7978  0.3735 -0.6121
 3127SOL    HW120840   1.194   0.324   1.319 -0.1910 -0.7594  0.0678
 3127SOL    HW220841   1.316   0.360   1.409  0.8639 -0.8767  0.2323
 3128SOL     OW20842   0.810   2.130   2.177 -0.1096  0.0429  0.2261
 3128SOL    HW120843   0.841   2.075   2.105  0.7379  0.9884 -0.1244
 3128SOL    HW220844   0.879   2.196   2.166 -1.3296  1.3503  0.4703
 3129SOL     OW20845   0.720   0.656   7.798 -0.0704  1.0194  0.2568
 3129SOL    HW120846   0.805   0.614   7.807 -0.0784  0.4573 -2.1205
 3129SOL    HW220847   0.747   0.745   7.822 -1.0600  0.6029  2.9042
 3130SOL     OW20848   3.056   2.818   7.703  0.4162  0.3189  0.6917
 3130SOL    HW120849   3.114   2.742   7.706 -0.8350 -0.6822 -0.1249
 3130SOL    HW220850   3.070   2.863   7.786 -1.3055  1.3964  0.3971
 3131SOL     OW20851   2.807   4.286   6.698 -0.2003 -0.1357  0.2757
 3131SOL    HW120852   2.754   4.234   6.759 -2.2350  1.7264  0.1005
 3131SOL    HW220853   2.886   4.233   6.693  1.5514  2.6784 -1.6444
 3132SOL     OW20854   4.179   3.997   5.017  0.2973  0.2023 -0.3720
 3132SOL    HW120855   4.198   4.087   5.045  0.8496 -0.0538  0.0928
 3132SOL    HW220856   4.095   4.011   4.975  0.3359 -0.0395 -0.5312
 3133SOL     OW20857   1.705   0.011  13.783  0.5071 -0.2069  0.5827
 3133SOL    HW120858   1.719   0.058  13.865  0.0205  0.0630  0.5068
 3133SOL    HW220859   1.760   4.653  13.797 -0.2993 -0.2155  3.6172
 3134SOL     OW20860   2.025   3.563  16.824 -0.2224 -0.6166 -0.5355
 3134SOL    HW120861   2.034   3.468  16.834  0.6510  0.0045  4.6915
 3134SOL    HW220862   2.079   3.573  16.746 -2.0776 -2.6066 -2.0855
 3135SOL     OW20863   4.628   3.418   5.461 -0.0056  0.3106 -0.7348
 3135SOL    HW120864   4.670   3.375   5.535 -1.9071 -0.4735 -0.1114
 3135SOL    HW220865   4.649   3.510   5.477 -0.3991  0.2661  0.0503
 3136SOL     OW20866   0.744   2.695   3.491  0.4631 -0.2633 -0.6115
 3136SOL    HW120867   0.712   2.783   3.511 -0.5113 -1.1442  1.7823
 3136SOL    HW220868   0.671   2.640   3.520 -0.2474  1.2466  0.4771
 3137SOL     OW20869   3.222   4.313  13.258  0.1365 -0.3821 -0.4449
 3137SOL    HW120870   3.155   4.250  13.231  0.6707 -0.3770 -1.7574
 3137SOL    HW220871   3.255   4.349  13.176  3.0038 -1.1800  0.3254
 3138SOL     OW20872   2.196   0.765   0.666  0.1681  0.1937  0.0166
 3138SOL    HW120873   2.259   0.824   0.625 -0.0358  1.7756  1.9944
 3138SOL    HW220874   2.113   0.810   0.654  2.1605  3.3422 -2.0356
 3139SOL     OW20875   3.208   2.529   2.869  0.1008 -0.6070 -0.5127
 3139SOL    HW120876   3.160   2.525   2.951 -1.3118  0.4890 -1.2927
 3139SOL    HW220877   3.289   2.483   2.892  0.0822 -0.9814 -1.1726
 3140SOL     OW20878   2.083   1.407  15.741  0.0873 -0.6532  0.0735
 3140SOL    HW120879   2.174   1.415  15.770  0.3778  0.9415 -1.2872
 3140SOL    HW220880   2.070   1.464  15.666 -2.0274 -0.7007  0.4056
 3141SOL     OW20881   0.224   0.611  17.461  0.1611  0.0649  0.1236
 3141SOL    HW120882   0.159   0.541  17.467  2.3384 -2.1134 -1.9650
 3141SOL    HW220883   0.305   0.560  17.456 -1.5742 -2.6978  0.1251
 3142SOL     OW20884   4.411   3.384   1.535 -0.0731 -0.2565  0.2305
 3142SOL    HW120885   4.458   3.467   1.533 -2.5181  1.1495  1.6526
 3142SOL    HW220886   4.419   3.343   1.621  2.4219 -0.0683  0.0867
 3143SOL     OW20887   3.105   4.285   1.242 -0.3929  0.6279  0.7331
 3143SOL    HW120888   3.126   4.336   1.163 -1.3117  1.3999  0.9937
 3143SOL    HW220889   3.109   4.193   1.216  1.6084  0.6504  0.9640
 3144SOL     OW20890   2.684   1.440   2.274  0.7474 -0.5479  0.4738
 3144SOL    HW120891   2.717   1.385   2.203  0.4145 -0.3804  0.1953
 3144SOL    HW220892   2.613   1.377   2.283 -0.9308  1.1909 -0.7167
 3145SOL     OW20893   2.647   3.960   5.518 -0.0573  0.1334  0.5076
 3145SOL    HW120894   2.615   4.010   5.443  1.2370  0.0470 -0.1060
 3145SOL    HW220895   2.639   4.022   5.590 -0.7589  1.6899 -0.8947
 3146SOL     OW20896   2.386   2.779   5.157 -0.5129  0.0210  0.1114
 3146SOL    HW120897   2.346   2.737   5.233  0.1182  0.0455  0.4553
 3146SOL    HW220898   2.311   2.826   5.122  1.8493  2.2865 -1.9654
 3147SOL     OW20899   2.619   3.313   4.467 -0.2357  0.9742 -0.4448
 3147SOL    HW120900   2.623   3.275   4.379 -1.0558  0.3295 -0.1990
 3147SOL    HW220901   2.578   3.397   4.450  0.2625  1.6253  1.4998
 3148SOL     OW20902   2.493   4.265   2.030  0.4405  0.5727 -0.3543
 3148SOL    HW120903   2.429   4.336   2.023  2.0763  2.1086  0.1663
 3148SOL    HW220904   2.474   4.219   1.948 -0.1107 -1.8269  1.1021
 3149SOL     OW20905   0.287   0.127   8.697 -0.1973  0.7340 -0.2753
 3149SOL    HW120906   0.356   0.191   8.679  1.4014 -1.3999 -1.6892
 3149SOL    HW220907   0.203   0.172   8.701  0.2847  1.7976 -2.0432
 3150SOL     OW20908   0.751   3.839   3.612  0.0680  0.2954 -0.6528
 3150SOL    HW120909   0.749   3.880   3.699  1.2103  0.9608 -0.9446
 3150SOL    HW220910   0.839   3.852   3.578  0.8540  1.3998  1.7492
 3151SOL     OW20911   3.662   1.375   9.442 -0.4797  0.6112 -0.0391
 3151SOL    HW120912   3.623   1.453   9.483 -1.6438  0.7566 -1.4215
 3151SOL    HW220913   3.697   1.327   9.516 -1.6214 -0.5805 -0.2687
 3152SOL     OW20914   4.097   4.638   3.039 -0.2080 -0.4645  0.4565
 3152SOL    HW120915   4.107   4.543   3.045  4.1223  0.0360  0.8736
 3152SOL    HW220916   4.105   4.654   2.945  0.7947 -0.6253  0.5168
 3153SOL     OW20917   2.759   3.353   6.913 -0.4385 -0.5854 -0.0037
 3153SOL    HW120918   2.803   3.421   6.963 -0.1711 -0.3935 -0.4993
 3153SOL    HW220919   2.825   3.293   6.879  1.2042  1.7739 -0.9283
 3154SOL     OW20920   2.204   4.703   5.710 -0.3347  0.2122 -0.3330
 3154SOL    HW120921   2.274   4.638   5.701  0.2045  0.9748 -1.5541
 3154SOL    HW220922   2.262   0.059   5.708  0.3257 -0.2657  0.7792
 3155SOL     OW20923   2.376   3.373   8.229 -0.1301 -0.2320  0.3973
 3155SOL    HW120924   2.289   3.334   8.232 -0.3869  0.2824 -0.2918
 3155SOL    HW220925   2.396   3.360   8.136 -3.2639  1.4220 -0.4937
 3156SOL     OW20926   3.061   1.019  12.007  0.0589 -0.8616  0.4943
 3156SOL    HW120927   3.143   1.060  11.981 -0.7610  0.5310  0.0825
 3156SOL    HW220928   2.993   1.086  12.014  0.8328 -0.1971  1.6569
 3157SOL     OW20929   0.170   3.771   8.472  0.1451 -0.7268  0.0284
 3157SOL    HW120930   0.109   3.701   8.446  0.3818 -0.9484  0.0636
 3157SOL    HW220931   0.108   3.832   8.512  0.7119  0.1905 -0.4879
 3158SOL     OW20932   1.508   3.708   8.741  0.1621  0.1506  0.0359
 3158SOL    HW120933   1.437   3.662   8.695  1.8194  1.2323 -3.6132
 3158SOL    HW220934   1.523   3.648   8.813  1.2342 -0.3506 -0.6094
 3159SOL     OW20935   3.478   1.132   2.605 -0.2997  0.3836  0.1627
 3159SOL    HW120936   3.483   1.164   2.695 -1.1035 -0.3945  0.4793
 3159SOL    HW220937   3.438   1.046   2.611  0.1978  0.1735  0.4776
 3160SOL     OW20938   3.094   4.293   2.716  0.2826 -0.3104 -0.3558
 3160SOL    HW120939   3.065   4.326   2.631  0.6725  1.1573  0.0757
 3160SOL    HW220940   3.021   4.328   2.767  0.5881  1.8520 -1.3696
 3161SOL     OW20941   4.116   3.240   0.167 -0.3729  0.4504  0.1878
 3161SOL    HW120942   4.109   3.145   0.159  2.3922  0.5395 -3.0901
 3161SOL    HW220943   4.152   3.243   0.256  0.3318 -1.0889 -0.0391
 3162SOL     OW20944   1.310   4.691  11.276  0.2540  0.0744  0.1036
 3162SOL    HW120945   1.278   0.047  11.327 -0.5536  0.2028 -0.5860
 3162SOL    HW220946   1.278   4.612  11.318  0.1330  0.5754  0.9544
 3163SOL     OW20947   4.000   2.009   4.656 -0.1817 -0.3090  1.1361
 3163SOL    HW120948   4.050   2.091   4.659  0.8653 -0.8880 -0.5068
 3163SOL    HW220949   4.025   1.964   4.575  0.6088  1.6294  0.2973
 3164SOL     OW20950   3.164   4.325   6.148  0.2858  0.1807  0.7172
 3164SOL    HW120951   3.168   4.239   6.106  0.9332  0.1885  0.7744
 3164SOL    HW220952   3.138   4.296   6.236  0.5604 -2.2114  0.0157
 3165SOL     OW20953   2.261   3.341   1.985 -0.0480  0.0947 -0.0894
 3165SOL    HW120954   2.188   3.400   2.004  1.0289  0.6498  2.3846
 3165SOL    HW220955   2.302   3.371   1.904  2.8024 -0.2493  1.2220
 3166SOL     OW20956   3.330   0.094   2.690  0.1743 -0.0193 -0.0432
 3166SOL    HW120957   3.390   0.115   2.762 -2.7190 -0.5465  2.5021
 3166SOL    HW220958   3.332   0.167   2.628  1.8744 -0.1055 -0.1167
 3167SOL     OW20959   2.371   2.440  11.662  0.0608  0.5410 -0.0211
 3167SOL    HW120960   2.403   2.456  11.574  2.1179  2.1021  1.0108
 3167SOL    HW220961   2.340   2.350  11.665  0.3757  0.3967 -1.2013
 3168SOL     OW20962   1.746   3.613  14.729 -0.1126 -0.2799 -0.0794
 3168SOL    HW120963   1.842   3.615  14.735 -0.0017 -1.6721 -1.3693
 3168SOL    HW220964   1.738   3.540  14.790 -0.0651 -1.1382 -1.1022
 3169SOL     OW20965   1.388   2.017   9.050  0.4017 -0.0601  0.6683
 3169SOL    HW120966   1.325   1.950   9.077  1.2967 -0.5885  1.4493
 3169SOL    HW220967   1.322   2.083   9.031 -1.1328 -1.2178  1.9980
 3170SOL     OW20968   1.681   2.739   2.401  0.0971 -0.2560 -0.1662
 3170SOL    HW120969   1.698   2.827   2.368  1.0552 -0.0718  0.8236
 3170SOL    HW220970   1.740   2.689   2.345 -0.3465  1.2970 -2.0006
 3171SOL     OW20971   1.272   4.651   5.817  0.5804  0.3324  0.3240
 3171SOL    HW120972   1.193   4.705   5.818 -0.7217 -1.5406 -2.2610
 3171SOL    HW220973   1.286   4.638   5.724 -1.3515  2.0374 -0.2067
 3172SOL     OW20974   2.963   3.572  12.433 -0.1075 -0.4059 -0.4460
 3172SOL    HW120975   2.999   3.486  12.454  1.7150  0.5186  0.2190
 3172SOL    HW220976   3.004   3.580  12.347  0.9801 -3.7781 -0.2236
 3173SOL     OW20977   2.960   4.203   0.789 -0.1857  0.5590  0.4562
 3173SOL    HW120978   2.987   4.126   0.738  0.1437  2.4786 -2.2365
 3173SOL    HW220979   2.886   4.165   0.837 -0.7006  0.1350 -0.6769
 3174SOL     OW20980   2.702   1.638   2.815 -0.1057 -0.1006 -0.5370
 3174SOL    HW120981   2.730   1.699   2.746  1.3368  0.9558  0.9904
 3174SOL    HW220982   2.705   1.561   2.758  0.1001 -0.6947  0.2837
 3175SOL     OW20983   0.749   2.937  12.652  0.2403 -0.1010 -0.2955
 3175SOL    HW120984   0.684   2.904  12.715  0.9705  1.0356  1.0704
 3175SOL    HW220985   0.726   2.891  12.571 -2.7860 -1.9379  1.5623
 3176SOL     OW20986   1.883   0.013   1.495 -0.5033 -0.5756 -0.7436
 3176SOL    HW120987   1.832   4.666   1.542 -2.8693  0.7374 -1.4631
 3176SOL    HW220988   1.944   4.683   1.440  0.8215  0.0671  0.1429
 3177SOL     OW20989   1.500   2.523  16.044  0.0791  0.2748  0.3787
 3177SOL    HW120990   1.414   2.495  16.011 -0.2719  2.0448 -0.2017
 3177SOL    HW220991   1.554   2.530  15.966 -0.8246 -2.0110 -0.4643
 3178SOL     OW20992   0.931   4.342   7.976 -0.8550  0.1086  0.0159
 3178SOL    HW120993   0.887   4.398   7.913  1.0907 -0.2882 -1.7249
 3178SOL    HW220994   0.965   4.397   8.046 -0.8353 -2.7938  2.2692
 3179SOL     OW20995   1.725   3.547   8.114 -0.3544 -0.7538  0.3747
 3179SOL    HW120996   1.691   3.461   8.088  0.5585 -0.6831 -1.0750
 3179SOL    HW220997   1.820   3.535   8.124 -0.3633 -2.1656 -1.2873
 3180SOL     OW20998   3.282   2.437   5.009 -0.5112 -0.3124 -0.0065
 3180SOL    HW120999   3.210   2.379   4.984  0.3231 -0.9859 -0.8306
 3180SOL    HW221000   3.354   2.377   4.990 -0.6681 -0.7382  0.7478
 3181SOL     OW21001   4.048   1.883   3.299 -0.0426  0.6754 -0.6652
 3181SOL    HW121002   4.081   1.879   3.209  2.4083  3.4990  0.1069
 3181SOL    HW221003   4.059   1.974   3.325 -2.5121  0.6268  0.5497
 3182SOL     OW21004   3.008   2.642   6.590  0.0196  0.0420 -0.2545
 3182SOL    HW121005   3.070   2.699   6.545  0.8095  0.4255  1.3147
 3182SOL    HW221006   2.998   2.576   6.521  0.2785  0.0176 -0.2699
 3183SOL     OW21007   4.196   1.118   2.333 -0.4812  0.0942  0.4171
 3183SOL    HW121008   4.160   1.090   2.248 -1.7955  0.7633  0.7617
 3183SOL    HW221009   4.119   1.134   2.388 -0.3439 -0.5542  0.8057
 3184SOL     OW21010   1.718   0.242   8.619  0.5134 -0.1803  0.3969
 3184SOL    HW121011   1.658   0.217   8.549 -0.5916  3.1452  0.1884
 3184SOL    HW221012   1.714   0.337   8.630  0.6741 -0.1720  0.3761
 3185SOL     OW21013   0.671   0.173   2.819 -0.0752  0.2413  1.1223
 3185SOL    HW121014   0.759   0.147   2.790 -0.0176  1.7789 -0.0686
 3185SOL    HW221015   0.658   0.116   2.895 -0.9600 -2.4194 -0.9821
 3186SOL     OW21016   1.823   3.439   4.576 -0.0438 -0.3704  0.5754
 3186SOL    HW121017   1.876   3.407   4.502 -0.1168 -1.0641  0.8275
 3186SOL    HW221018   1.757   3.370   4.579 -2.3101  1.7895  0.1608
 3187SOL     OW21019   1.932   0.950  10.606 -0.2700 -0.2000 -0.0923
 3187SOL    HW121020   1.932   0.945  10.702 -0.6394  1.3544 -0.0079
 3187SOL    HW221021   1.871   0.881  10.582 -0.2206 -0.5511  0.7879
 3188SOL     OW21022   0.285   2.614   8.189  0.1902  0.3914 -0.0208
 3188SOL    HW121023   0.279   2.527   8.148  1.8490  0.0109  0.5372
 3188SOL    HW221024   0.208   2.601   8.244  0.9370  0.3223  1.0012
 3189SOL     OW21025   0.615   3.884   6.062  0.2760 -0.0616  0.4494
 3189SOL    HW121026   0.618   3.955   6.126 -1.6764  2.5591 -2.3190
 3189SOL    HW221027   0.692   3.836   6.093  1.7300  2.1250  0.2173
 3190SOL     OW21028   3.310   2.753   2.763  0.4755 -0.5664 -0.3475
 3190SOL    HW121029   3.240   2.814   2.786  0.9157 -0.4055  0.5322
 3190SOL    HW221030   3.289   2.677   2.816 -0.6664  1.1132  1.6169
 3191SOL     OW21031   3.985   2.648   9.465  0.4765  0.4730  0.2898
 3191SOL    HW121032   3.908   2.592   9.479  0.8023  0.1915  0.9582
 3191SOL    HW221033   4.021   2.614   9.383  0.8393  0.6924  0.3582
 3192SOL     OW21034   3.703   3.320   2.508 -0.1669 -1.0065 -0.0143
 3192SOL    HW121035   3.648   3.324   2.587 -1.6416  1.9671 -1.2333
 3192SOL    HW221036   3.707   3.410   2.477 -0.6211 -1.1429 -0.4696
 3193SOL     OW21037   3.965   3.435  17.492 -0.0516  0.3920  0.1586
 3193SOL    HW121038   3.872   3.415  17.506 -0.0802 -0.7420 -1.7080
 3193SOL    HW221039   3.966   3.452  17.398  0.9748  0.0503  0.1027
 3194SOL     OW21040   0.556   4.713   7.839  0.2691  0.0031  0.0726
 3194SOL    HW121041   0.473   0.021   7.800 -0.1733  0.2714  1.1982
 3194SOL    HW221042   0.532   4.661   7.916  2.8302 -2.0229 -0.4816
 3195SOL     OW21043   3.719   4.015   0.696  0.2534 -0.6457  0.6091
 3195SOL    HW121044   3.699   4.049   0.783 -1.3508  1.1746 -0.4767
 3195SOL    HW221045   3.811   3.990   0.708  0.8363 -0.2451 -2.8082
 3196SOL     OW21046   0.530   3.444   0.227 -0.4041 -0.1047 -0.4176
 3196SOL    HW121047   0.610   3.497   0.233 -0.0387 -0.7489  0.4419
 3196SOL    HW221048   0.566   3.356   0.236 -1.3239 -0.7020 -2.6363
 3197SOL     OW21049   0.948   1.693   0.113 -0.1640  0.1848 -0.4303
 3197SOL    HW121050   0.890   1.769   0.114  0.2013  0.4214  1.9282
 3197SOL    HW221051   0.887   1.619   0.121  0.6864 -0.4478  0.1692
 3198SOL     OW21052   1.843   3.788  13.103  0.0106 -0.1887  0.1770
 3198SOL    HW121053   1.937   3.780  13.085 -0.1012  0.2699 -0.5943
 3198SOL    HW221054   1.843   3.800  13.198  1.9025  0.2799  0.1141
 3199SOL     OW21055   2.569   3.249   2.563  0.5924 -0.1313 -0.8159
 3199SOL    HW121056   2.578   3.326   2.507  1.8200  0.4677  0.1930
 3199SOL    HW221057   2.526   3.191   2.500 -0.9181 -1.3632  1.3593
 3200SOL     OW21058   2.950   3.878   9.676 -0.0052  0.2102 -0.3577
 3200SOL    HW121059   2.949   3.973   9.686  2.3596  0.2230 -0.2597
 3200SOL    HW221060   3.028   3.856   9.727  0.0864  0.1357 -0.5300
 3201SOL     OW21061   0.774   3.256  10.158 -0.1115 -0.4742  0.1892
 3201SOL    HW121062   0.768   3.162  10.173  0.3821 -0.3500  1.1617
 3201SOL    HW221063   0.842   3.283  10.220  0.0662  1.6970 -0.9628
 3202SOL     OW21064   1.564   2.503   9.699 -0.0298  0.2785 -0.3803
 3202SOL    HW121065   1.537   2.455   9.777 -0.1028  2.5163  0.9543
 3202SOL    HW221066   1.500   2.573   9.705  0.7284  1.1016 -1.7787
 3203SOL     OW21067   4.206   3.336   5.054 -0.0234  0.6352  0.4848
 3203SOL    HW121068   4.269   3.317   5.124 -0.0531 -0.6331  0.1607
 3203SOL    HW221069   4.267   3.311   4.984  0.0520  1.0917  0.3870
 3204SOL     OW21070   2.452   2.134   9.604 -0.2102  0.0516  0.5202
 3204SOL    HW121071   2.525   2.183   9.565  0.3463  1.0080  2.7772
 3204SOL    HW221072   2.450   2.065   9.538 -0.7349  0.0015  0.5903
 3205SOL     OW21073   1.283   1.251   2.352  0.0255  0.1501 -0.3550
 3205SOL    HW121074   1.312   1.160   2.356 -0.6707 -0.0900 -1.0069
 3205SOL    HW221075   1.304   1.267   2.260  1.0393 -2.1961 -0.5304
 3206SOL     OW21076   2.390   3.485   4.563 -0.2738  0.5239 -0.2320
 3206SOL    HW121077   2.446   3.517   4.492  0.7221 -1.0680 -0.1491
 3206SOL    HW221078   2.300   3.504   4.538 -0.8465 -0.5907  0.9975
 3207SOL     OW21079   4.312   4.714   6.543 -0.1648 -0.0059  0.0917
 3207SOL    HW121080   4.297   0.059   6.473 -0.4393 -0.3380 -0.1536
 3207SOL    HW221081   4.396   4.674   6.519  0.1098  1.0883 -0.7811
 3208SOL     OW21082   2.995   2.646   5.319  0.5140  0.0824  0.8368
 3208SOL    HW121083   3.040   2.565   5.292 -1.7021 -1.0851  0.6298
 3208SOL    HW221084   2.932   2.650   5.247 -0.8037 -0.5612  1.9568
 3209SOL     OW21085   1.531   0.839   3.801 -0.2454 -0.3569 -0.0825
 3209SOL    HW121086   1.609   0.784   3.802  0.8752  1.2399  0.2996
 3209SOL    HW221087   1.579   0.920   3.818 -1.6398  0.4943 -0.1633
 3210SOL     OW21088   1.532   2.505   7.204  0.0153  0.1144 -0.3320
 3210SOL    HW121089   1.617   2.549   7.205  0.8696 -1.4918 -1.5811
 3210SOL    HW221090   1.487   2.553   7.273  1.9441  1.5437 -0.0491
 3211SOL     OW21091   0.354   2.279   2.826  0.3397 -0.6352 -0.1020
 3211SOL    HW121092   0.355   2.277   2.730 -0.8712  2.1178 -0.1853
 3211SOL    HW221093   0.414   2.207   2.845  0.8105 -0.2210  0.0037
 3212SOL     OW21094   1.512   0.418  17.526 -0.0257  1.1897  0.2212
 3212SOL    HW121095   1.600   0.400  17.495 -0.1935 -1.1997  1.1310
 3212SOL    HW221096   1.510   0.510  17.498 -0.4958  0.6049 -1.6982
 3213SOL     OW21097   3.502   3.850   8.814  0.3886 -0.3520 -0.0244
 3213SOL    HW121098   3.447   3.778   8.783  0.0967  1.2802 -3.3209
 3213SOL    HW221099   3.451   3.927   8.787  0.8918 -0.7341 -2.1122
 3214SOL     OW21100   2.869   4.595   4.160  0.1024 -0.1865 -0.3400
 3214SOL    HW121101   2.930   4.541   4.211 -0.4152 -0.2462  0.2261
 3214SOL    HW221102   2.841   4.532   4.094 -1.6442  0.8191 -0.5455
 3215SOL     OW21103   0.471   3.196   8.711 -0.1946 -0.1186 -0.2818
 3215SOL    HW121104   0.429   3.129   8.765 -1.0549  0.2450 -0.5071
 3215SOL    HW221105   0.525   3.237   8.779 -0.4203  0.7971 -0.6467
 3216SOL     OW21106   2.959   2.248   5.504 -0.3227 -0.1039  0.0236
 3216SOL    HW121107   2.865   2.261   5.516 -0.1638  1.8032 -0.7325
 3216SOL    HW221108   2.973   2.283   5.416  0.9884  1.9298  1.0353
 3217SOL     OW21109   1.813   4.358   3.916  0.6254 -0.0682 -0.1360
 3217SOL    HW121110   1.852   4.313   3.841  1.5739  0.7690 -0.1489
 3217SOL    HW221111   1.858   4.442   3.906 -1.3231  0.9742 -0.1803
 3218SOL     OW21112   1.421   0.295   2.916  0.2674  0.8171  0.4627
 3218SOL    HW121113   1.456   0.381   2.893  1.9863  0.1412  0.5812
 3218SOL    HW221114   1.366   0.314   2.991 -2.3177  1.0770 -1.5047
 3219SOL     OW21115   2.936   3.834   6.585  0.3604  0.0847 -0.0051
 3219SOL    HW121116   2.975   3.751   6.560  1.9100  0.9845 -0.6159
 3219SOL    HW221117   2.850   3.810   6.618 -0.3283  0.5692 -1.4089
 3220SOL     OW21118   1.422   4.431   2.205  0.2429  0.3031  0.2118
 3220SOL    HW121119   1.400   4.495   2.272 -0.3648 -0.9793  1.2296
 3220SOL    HW221120   1.343   4.377   2.198  0.7237 -0.0554 -2.5451
 3221SOL     OW21121   0.801   1.852  13.469  0.2170 -0.2916  0.2456
 3221SOL    HW121122   0.878   1.895  13.506 -0.8370  1.5405  0.3463
 3221SOL    HW221123   0.751   1.932  13.449 -1.4073 -1.2335  0.5070
 3222SOL     OW21124   4.064   2.738   5.744 -0.2454  0.0674 -0.6888
 3222SOL    HW121125   4.033   2.712   5.831  0.6067  0.6827 -0.2107
 3222SOL    HW221126   3.983   2.759   5.697 -0.8337 -1.5800 -0.4272
 3223SOL     OW21127   3.990   0.247   3.738 -0.2395 -0.1519 -0.3791
 3223SOL    HW121128   3.948   0.316   3.788 -1.7741 -2.0740  0.9795
 3223SOL    HW221129   3.967   0.167   3.786 -1.7731  0.7211  0.3313
 3224SOL     OW21130   2.157   1.717   8.277  0.3198 -0.0370 -0.4378
 3224SOL    HW121131   2.141   1.770   8.355  1.0234 -0.0857 -0.2617
 3224SOL    HW221132   2.153   1.631   8.317 -2.4739 -0.4150 -1.5517
 3225SOL     OW21133   0.296   0.424   4.698  0.3502  0.4278  0.2376
 3225SOL    HW121134   0.265   0.379   4.619 -1.1127  0.1775  0.9476
 3225SOL    HW221135   0.267   0.512   4.674 -0.0606  0.5201  1.0771
 3226SOL     OW21136   2.929   1.116   4.675 -0.2924  0.8252  0.4432
 3226SOL    HW121137   2.934   1.128   4.770 -1.5901  0.2910  0.5786
 3226SOL    HW221138   3.020   1.100   4.651 -0.9893 -1.6332 -0.5397
 3227SOL     OW21139   3.056   2.964   1.290  0.5806  0.5703  0.0336
 3227SOL    HW121140   3.147   2.948   1.265  0.2863  1.5056 -1.6840
 3227SOL    HW221141   3.030   3.007   1.209 -1.7135 -1.5981 -0.3928
 3228SOL     OW21142   2.794   2.480  11.285 -0.0696 -0.4042 -0.2248
 3228SOL    HW121143   2.816   2.390  11.260 -1.7491 -0.9654  0.3067
 3228SOL    HW221144   2.881   2.513  11.307 -0.5334  0.9147 -0.3617
 3229SOL     OW21145   0.193   2.459   9.923 -0.0343  0.5090  0.1001
 3229SOL    HW121146   0.098   2.467   9.919 -0.0413 -0.0615 -0.8260
 3229SOL    HW221147   0.200   2.546   9.962 -0.8643  0.1306  1.1231
 3230SOL     OW21148   1.593   4.090  10.518  0.0787  0.0303 -0.4726
 3230SOL    HW121149   1.663   4.138  10.561  0.5051 -2.2804  1.4420
 3230SOL    HW221150   1.628   4.099  10.430 -3.1336 -0.2449 -1.8002
 3231SOL     OW21151   0.089   3.453  15.091  0.4290 -0.4578  0.3649
 3231SOL    HW121152   0.105   3.362  15.066 -0.5020 -0.5980  0.2783
 3231SOL    HW221153   0.157   3.468  15.157  2.2488  0.3170 -1.6805
 3232SOL     OW21154   1.190   2.755   5.436  0.2924  0.0992  0.6359
 3232SOL    HW121155   1.183   2.753   5.532  0.6531  1.8242  0.6904
 3232SOL    HW221156   1.096   2.748   5.417  1.0018 -0.5711 -2.5891
 3233SOL     OW21157   0.861   1.078  11.990  0.5304 -0.0385  0.2680
 3233SOL    HW121158   0.860   0.983  11.978  0.8699  0.0148 -0.1935
 3233SOL    HW221159   0.814   1.091  12.073  0.4948  1.1681  0.0547
 3234SOL     OW21160   3.366   2.533   8.953 -0.4664  0.0972  0.5723
 3234SOL    HW121161   3.436   2.584   8.913  1.3930 -2.0604  1.0634
 3234SOL    HW221162   3.316   2.492   8.883  1.1666  0.3221 -0.7392
 3235SOL     OW21163   1.638   2.554   5.356 -0.1457 -0.0454 -0.4664
 3235SOL    HW121164   1.599   2.605   5.285  1.1969  0.3470 -0.9266
 3235SOL    HW221165   1.580   2.478   5.359 -1.6844  1.1186 -0.3456
 3236SOL     OW21166   2.181   2.273   5.200  0.6684  0.2118  0.2070
 3236SOL    HW121167   2.154   2.258   5.291  1.8247 -0.3744  0.4502
 3236SOL    HW221168   2.220   2.189   5.176 -1.4442 -0.9713  0.8918
 3237SOL     OW21169   2.933   3.619   3.907  0.0528 -0.4821 -0.0815
 3237SOL    HW121170   2.936   3.528   3.876  0.2267 -0.5884  0.2583
 3237SOL    HW221171   2.838   3.632   3.898 -0.1886 -1.1885  1.3919
 3238SOL     OW21172   3.691   2.871  13.666  0.3189 -0.0949 -0.0562
 3238SOL    HW121173   3.634   2.885  13.591  0.2898  0.8245  0.1414
 3238SOL    HW221174   3.737   2.792  13.637 -0.7681 -0.8915  0.4345
 3239SOL     OW21175   0.471   0.049   0.032 -0.3079 -0.4665 -0.1081
 3239SOL    HW121176   0.435   0.108  17.645 -0.1708 -1.7113 -1.2900
 3239SOL    HW221177   0.515   4.708  17.651 -1.9019  0.6043 -2.3371
 3240SOL     OW21178   4.506   3.272   2.094 -0.6163 -0.2386  0.2433
 3240SOL    HW121179   4.583   3.297   2.043 -1.0148 -0.8918 -0.6803
 3240SOL    HW221180   4.466   3.356   2.115  1.5759  0.7500  0.4050
 3241SOL     OW21181   4.018   0.273   2.712 -0.4738  0.5097 -0.4143
 3241SOL    HW121182   3.952   0.286   2.643 -1.0644 -0.3625 -0.0097
 3241SOL    HW221183   4.040   0.180   2.705 -1.5335  0.1979  0.5329
 3242SOL     OW21184   2.458   4.437   4.574  0.0780  0.1475 -0.1999
 3242SOL    HW121185   2.498   4.394   4.498 -0.4626  2.7857 -1.9695
 3242SOL    HW221186   2.499   4.523   4.576 -0.0961  0.2050  0.6890
 3243SOL     OW21187   1.388   2.777  15.188  0.1185  0.0504 -0.2218
 3243SOL    HW121188   1.450   2.708  15.210 -2.7480 -2.5677 -0.2479
 3243SOL    HW221189   1.432   2.816  15.113  0.8773 -0.6931 -0.1701
 3244SOL     OW21190   3.508   0.393   0.286 -0.1586  0.1412 -0.0497
 3244SOL    HW121191   3.463   0.426   0.363 -1.4606 -1.8712  0.0588
 3244SOL    HW221192   3.476   0.303   0.294  0.5538 -0.2532 -1.5892
 3245SOL     OW21193   2.301   1.270   1.698 -0.3126 -0.2419  0.2052
 3245SOL    HW121194   2.237   1.294   1.631 -0.7897  1.3823  1.2304
 3245SOL    HW221195   2.300   1.334   1.770 -4.5873 -1.3520  1.1203
 3246SOL     OW21196   4.442   3.865   0.916 -0.0302  0.1467  0.4780
 3246SOL    HW121197   4.441   3.958   0.938  2.6641  0.5101 -0.9986
 3246SOL    HW221198   4.436   3.877   0.822  1.4494 -1.3355  0.1954
 3247SOL     OW21199   0.080   0.865   2.099  0.1587 -0.0978 -0.4379
 3247SOL    HW121200   0.006   0.816   2.137 -0.7157  1.8100  0.3134
 3247SOL    HW221201   0.152   0.807   2.124 -1.1253 -1.3189  0.4625
 3248SOL     OW21202   1.434   2.928   6.152  0.2987 -0.0460 -0.0179
 3248SOL    HW121203   1.449   3.009   6.104  0.5775  0.4699  0.9458
 3248SOL    HW221204   1.412   2.969   6.236  2.6643 -2.9590  1.9838
 3249SOL     OW21205   3.892   0.643   3.134 -0.6505 -0.0753  0.2684
 3249SOL    HW121206   3.893   0.620   3.041 -1.4758  2.0442 -0.2506
 3249SOL    HW221207   3.877   0.737   3.124  2.3164  0.4874  1.0682
 3250SOL     OW21208   0.199   4.669   6.383  0.0276 -0.0243 -0.2127
 3250SOL    HW121209   0.251   4.655   6.462 -1.4003 -1.4705  0.4813
 3250SOL    HW221210   0.138   4.596   6.391  0.9130 -0.9722 -2.0582
 3251SOL     OW21211   4.275   0.694   5.249 -0.3899 -0.2953 -0.5440
 3251SOL    HW121212   4.350   0.641   5.222 -0.2823  1.0364 -2.8371
 3251SOL    HW221213   4.244   0.724   5.164 -0.1552  0.0492 -0.5096
 3252SOL     OW21214   2.748   0.238   3.733  0.2507  0.1882 -0.0284
 3252SOL    HW121215   2.672   0.294   3.749 -0.6218 -0.7338 -0.9234
 3252SOL    HW221216   2.701   0.157   3.752 -1.7827  1.6807  1.2977
 3253SOL     OW21217   2.380   3.531   5.962 -0.2966 -0.0082 -0.5191
 3253SOL    HW121218   2.390   3.551   6.055 -0.8738  1.8906 -0.8817
 3253SOL    HW221219   2.469   3.527   5.926  0.1295 -1.0353  0.6494
 3254SOL     OW21220   0.847   4.115   4.450  0.1498 -0.2883  0.1023
 3254SOL    HW121221   0.794   4.084   4.377  1.1044 -0.0669 -0.6849
 3254SOL    HW221222   0.780   4.147   4.511 -0.9308 -0.7397 -0.8516
 3255SOL     OW21223   2.856   3.341   5.929  0.1663  0.3779  0.5493
 3255SOL    HW121224   2.913   3.414   5.950  1.8183 -1.0599  1.0597
 3255SOL    HW221225   2.854   3.292   6.012 -0.6264 -2.7779 -1.3088
 3256SOL     OW21226   3.705   1.139   4.697  0.1406  0.2016  0.3422
 3256SOL    HW121227   3.766   1.066   4.683  0.6104  0.1751  2.4778
 3256SOL    HW221228   3.762   1.216   4.703  1.1505 -0.4549 -0.7826
 3257SOL     OW21229   3.496   4.660  13.570  0.4627  0.1928 -0.6437
 3257SOL    HW121230   3.488   4.569  13.541 -0.1908 -0.1890  0.7087
 3257SOL    HW221231   3.576   4.696  13.533  0.7201  1.4090  1.1120
 3258SOL     OW21232   0.496   1.702  11.153 -0.8710 -0.0438  0.1847
 3258SOL    HW121233   0.490   1.742  11.066  4.1826  1.0733  0.3579
 3258SOL    HW221234   0.527   1.779  11.201  0.3645 -0.1485 -0.4242
 3259SOL     OW21235   1.426   4.436   7.165 -0.1887 -0.0328  0.6770
 3259SOL    HW121236   1.346   4.462   7.211  0.1961 -1.8179  2.3328
 3259SOL    HW221237   1.494   4.433   7.232  0.5114  2.2660  0.0570
 3260SOL     OW21238   3.312   2.972   8.478  0.4824 -0.1955  0.4916
 3260SOL    HW121239   3.402   2.971   8.448  0.5104 -0.6872  0.6007
 3260SOL    HW221240   3.272   2.924   8.405  1.7114  0.9774 -0.9417
 3261SOL     OW21241   2.447   4.035   5.289  0.1083 -0.0027  0.1637
 3261SOL    HW121242   2.427   4.046   5.196  0.4061 -1.1662 -0.0378
 3261SOL    HW221243   2.395   4.105   5.329  0.9591 -0.2103  1.6098
 3262SOL     OW21244   1.955   0.297   3.978  0.6786 -0.5836 -0.7098
 3262SOL    HW121245   1.957   0.378   3.926 -1.4413  0.3388  0.6564
 3262SOL    HW221246   2.025   0.310   4.042  0.1908 -0.3111 -0.2317
 3263SOL     OW21247   3.893   2.965   5.986 -0.1351 -0.2947  0.2371
 3263SOL    HW121248   3.924   2.933   5.901 -0.4979  0.6073 -0.2273
 3263SOL    HW221249   3.803   2.933   5.992  0.2716 -1.1508  1.7552
 3264SOL     OW21250   3.163   2.247   6.488  0.3726 -0.5144  0.0231
 3264SOL    HW121251   3.193   2.307   6.556  1.2015  0.6822 -1.3964
 3264SOL    HW221252   3.239   2.191   6.474 -1.0983 -1.7941 -2.8529
 3265SOL     OW21253   0.033   1.477   6.257 -0.4235 -0.1887  0.5057
 3265SOL    HW121254   0.067   1.405   6.311 -0.6631  0.3944  1.4452
 3265SOL    HW221255   0.119   1.495   6.219  0.3512  0.5441  2.6191
 3266SOL     OW21256   2.563   0.429  16.087 -0.1106 -0.5288  0.0641
 3266SOL    HW121257   2.491   0.395  16.139 -0.3877 -1.7195 -1.0937
 3266SOL    HW221258   2.526   0.437  15.999 -2.0484  0.9031  1.0178
 3267SOL     OW21259   1.047   3.372  15.721  0.7503  0.3092 -0.5964
 3267SOL    HW121260   0.964   3.382  15.675  0.0330 -0.1844  0.5655
 3267SOL    HW221261   1.090   3.319  15.654  1.1630 -0.3323  0.1711
 3268SOL     OW21262   1.715   2.328  11.328  0.5364 -0.0059 -0.9443
 3268SOL    HW121263   1.623   2.315  11.348  0.7199  1.4886  0.8736
 3268SOL    HW221264   1.729   2.270  11.253 -0.4607  0.3981 -1.4411
 3269SOL     OW21265   2.828   2.023   6.004 -0.3087 -0.0529  0.0348
 3269SOL    HW121266   2.911   1.981   6.023 -0.6701 -0.1986  1.2747
 3269SOL    HW221267   2.854   2.080   5.932 -1.1586 -1.0387 -1.0622
 3270SOL     OW21268   3.390   3.348  16.564 -0.5191  0.0695  0.6116
 3270SOL    HW121269   3.454   3.331  16.494 -0.4517 -0.5497  0.8246
 3270SOL    HW221270   3.398   3.442  16.576  0.5829 -0.2084  1.9948
 3271SOL     OW21271   1.051   3.371   8.592 -0.3807  0.5346 -0.0679
 3271SOL    HW121272   1.025   3.463   8.596  0.3299  0.7367 -0.1128
 3271SOL    HW221273   1.007   3.331   8.517 -1.5910  0.9723  0.4159
 3272SOL     OW21274   1.107   4.535   0.500  0.3668  0.0474 -0.1139
 3272SOL    HW121275   1.111   4.462   0.562  0.9362 -1.1771 -1.5968
 3272SOL    HW221276   1.031   4.584   0.532 -0.0877 -0.4289 -0.4473
 3273SOL     OW21277   3.483   2.588   7.925 -0.3372  0.4897  0.1177
 3273SOL    HW121278   3.482   2.621   8.015 -0.8488  0.4256  0.1311
 3273SOL    HW221279   3.565   2.539   7.921 -0.9265 -0.6813  2.2674
 3274SOL     OW21280   1.977   1.996  11.741  0.5038  0.2032  0.0197
 3274SOL    HW121281   2.004   1.972  11.830 -0.3374 -0.8665 -0.0148
 3274SOL    HW221282   2.027   1.929  11.694 -0.6906 -1.9123  1.7924
 3275SOL     OW21283   3.017   3.037   1.828  0.4492 -0.3550  0.1155
 3275SOL    HW121284   3.025   3.008   1.738  1.6586 -1.1122  0.4733
 3275SOL    HW221285   2.992   3.130   1.822  1.9401  0.0882  0.8403
 3276SOL     OW21286   1.941   2.068   6.997 -0.2421  0.6689  0.1356
 3276SOL    HW121287   1.983   1.983   7.008 -1.1103  0.1465 -0.6336
 3276SOL    HW221288   1.848   2.050   6.988 -0.3267 -0.4724  3.2181
 3277SOL     OW21289   3.215   2.146   9.217 -0.0782 -0.0578 -0.4864
 3277SOL    HW121290   3.206   2.152   9.122  1.4898  2.1367 -0.5005
 3277SOL    HW221291   3.235   2.052   9.220 -1.6938 -0.4032 -0.6500
 3278SOL     OW21292   1.710   3.246  12.349  0.2593 -0.8051  0.1624
 3278SOL    HW121293   1.622   3.224  12.380  0.4250  1.6587  2.3872
 3278SOL    HW221294   1.704   3.337  12.321 -0.7472 -0.8738  0.1607
 3279SOL     OW21295   2.189   2.110   0.990  0.1970 -0.2667 -0.2345
 3279SOL    HW121296   2.108   2.075   0.954  0.4389 -0.9758 -0.0913
 3279SOL    HW221297   2.232   2.025   0.992 -1.5976 -1.1843 -1.6771
 3280SOL     OW21298   4.146   3.124   1.336 -0.2982 -0.1182 -0.1798
 3280SOL    HW121299   4.219   3.097   1.281 -1.2529 -0.3003 -1.3650
 3280SOL    HW221300   4.166   3.216   1.350 -0.9215 -0.5028  3.2650
 3281SOL     OW21301   4.148   4.094   9.947 -0.5551 -0.3847 -0.5376
 3281SOL    HW121302   4.054   4.076   9.949 -0.4359 -0.8844  0.5575
 3281SOL    HW221303   4.151   4.183   9.982  3.0111 -0.6335 -0.1869
 3282SOL     OW21304   4.218   2.471   5.587 -0.2998 -0.4112 -0.4627
 3282SOL    HW121305   4.189   2.482   5.677  0.1938 -4.1329  0.1759
 3282SOL    HW221306   4.164   2.397   5.557 -2.9281  1.5654 -0.6108
 3283SOL     OW21307   3.266   2.959   6.025 -0.5306  0.5393  0.5033
 3283SOL    HW121308   3.323   3.011   6.082  0.3999 -1.1554  1.1316
 3283SOL    HW221309   3.184   2.950   6.074  0.2555  1.2712  1.9624
 3284SOL     OW21310   3.194   2.088   6.924  0.3368  0.3431  0.6352
 3284SOL    HW121311   3.260   2.158   6.928 -0.1023  0.8643 -1.1086
 3284SOL    HW221312   3.229   2.045   6.846 -2.6746 -1.9368  0.5356
 3285SOL     OW21313   2.621   2.667   2.398  0.2673 -0.5225  0.2001
 3285SOL    HW121314   2.649   2.599   2.337  1.1171  0.5288 -0.5799
 3285SOL    HW221315   2.645   2.747   2.351 -1.4297  0.6065  1.2676
 3286SOL     OW21316   0.173   0.308   4.105 -0.2322  0.1738  0.1315
 3286SOL    HW121317   0.141   0.398   4.113  1.0487  0.7331 -1.0691
 3286SOL    HW221318   0.171   0.290   4.011 -0.6710  1.9503 -0.1967
 3287SOL     OW21319   2.541   3.795   1.346 -0.8111 -0.3669 -0.1633
 3287SOL    HW121320   2.571   3.885   1.340 -2.3745  0.1216 -0.7609
 3287SOL    HW221321   2.582   3.782   1.431 -2.2668 -0.9254  0.4520
 3288SOL     OW21322   2.522   0.354   7.988  0.7267 -0.5951 -0.1716
 3288SOL    HW121323   2.458   0.359   7.917  0.6376  0.5886 -0.0163
 3288SOL    HW221324   2.502   0.419   8.055  1.2096  0.3230 -0.9212
 3289SOL     OW21325   1.654   0.212   3.237  0.0818  0.1671  0.0462
 3289SOL    HW121326   1.625   0.232   3.148  0.2176 -2.1777 -0.5283
 3289SOL    HW221327   1.731   0.157   3.220  1.3023  1.8702  0.1096
 3290SOL     OW21328   2.807   3.972   3.858 -0.2448  0.0872 -0.3774
 3290SOL    HW121329   2.785   4.056   3.898 -0.1687 -0.2170  0.3144
 3290SOL    HW221330   2.814   3.917   3.936 -0.4753  1.9540  0.9568
 3291SOL     OW21331   2.544   4.325   3.786 -0.0577 -0.0257 -0.4572
 3291SOL    HW121332   2.525   4.243   3.830  0.4198  0.1036 -0.0112
 3291SOL    HW221333   2.537   4.392   3.854 -0.3373  1.0183 -1.5060
 3292SOL     OW21334   0.965   0.587  10.552  0.2646  0.1003 -0.0469
 3292SOL    HW121335   0.944   0.677  10.579 -0.5871  0.2020 -1.0521
 3292SOL    HW221336   0.932   0.589  10.463 -1.0537  0.7661  0.4523
 3293SOL     OW21337   1.411   1.129   8.431  0.9455  0.8114  0.5158
 3293SOL    HW121338   1.434   1.173   8.513 -1.0027  0.0963  1.4302
 3293SOL    HW221339   1.395   1.208   8.379  2.1869  0.7651  0.0582
 3294SOL     OW21340   3.585   0.773   2.504  0.1894 -0.2175 -0.3903
 3294SOL    HW121341   3.637   0.822   2.441  0.8708  1.3221  1.3667
 3294SOL    HW221342   3.497   0.796   2.472  0.4709  1.5621  0.1364
 3295SOL     OW21343   2.887   3.915   1.230  0.4762  0.3605 -0.3439
 3295SOL    HW121344   2.806   3.958   1.256  0.1709 -1.3961  1.5166
 3295SOL    HW221345   2.860   3.891   1.141  1.5776 -0.7727 -0.3745
 3296SOL     OW21346   0.431   3.303  10.871  0.3912 -0.0285  0.4381
 3296SOL    HW121347   0.459   3.325  10.782 -1.1270 -2.4786 -0.6562
 3296SOL    HW221348   0.437   3.208  10.873 -1.4858 -0.1602 -0.2415
 3297SOL     OW21349   1.550   0.652   9.625 -0.1125  0.5792  0.4679
 3297SOL    HW121350   1.535   0.728   9.568 -0.7131  0.3969  0.3868
 3297SOL    HW221351   1.598   0.690   9.699  0.9082 -2.4198  1.3642
 3298SOL     OW21352   0.208   0.501   6.681  0.3174 -0.0995 -0.1960
 3298SOL    HW121353   0.160   0.460   6.609 -1.0760 -0.8726  1.1780
 3298SOL    HW221354   0.275   0.434   6.695 -1.1652 -1.6865 -0.7911
 3299SOL     OW21355   3.811   0.199   5.123  0.0466  0.1342  0.3459
 3299SOL    HW121356   3.769   0.161   5.046 -0.5957  0.6573  0.4334
 3299SOL    HW221357   3.867   0.127   5.151  1.6028  1.5154  0.7688
 3300SOL     OW21358   1.152   3.440   3.912  0.2761  0.3316 -0.1630
 3300SOL    HW121359   1.144   3.414   4.003 -0.0881  1.3181  0.0820
 3300SOL    HW221360   1.064   3.477   3.904 -0.3406 -0.9373  0.6852
 3301SOL     OW21361   4.417   3.925  14.289 -0.3783  0.3651  0.0275
 3301SOL    HW121362   4.497   3.973  14.311  0.3825 -1.3579  0.9739
 3301SOL    HW221363   4.376   3.924  14.376 -2.4451  3.3706 -0.9095
 3302SOL     OW21364   1.758   2.290   8.362  0.2795 -0.0475  0.1985
 3302SOL    HW121365   1.705   2.366   8.383  0.4917  0.6036 -1.6096
 3302SOL    HW221366   1.831   2.295   8.424  1.1555  0.1525 -0.8319
 3303SOL     OW21367   0.543   2.851   4.690 -0.5384  0.2152  0.0255
 3303SOL    HW121368   0.593   2.782   4.647  1.6594  2.0576 -0.3483
 3303SOL    HW221369   0.520   2.798   4.767 -0.2786  0.2199  0.1074
 3304SOL     OW21370   0.744   2.745  14.394  0.1018 -0.0567  0.1367
 3304SOL    HW121371   0.754   2.765  14.301 -0.9266 -1.9923 -0.3969
 3304SOL    HW221372   0.789   2.819  14.435 -2.7537  0.5120  2.2108
 3305SOL     OW21373   1.182   4.091  11.606 -0.0561 -0.3113  0.3118
 3305SOL    HW121374   1.154   4.052  11.689  1.2075  0.4976  1.1122
 3305SOL    HW221375   1.151   4.024  11.545 -0.2060  0.5997 -0.6099
 3306SOL     OW21376   4.288   1.676  16.561  0.5659 -0.1852 -0.2817
 3306SOL    HW121377   4.215   1.614  16.553  1.5779 -1.6267  1.7300
 3306SOL    HW221378   4.256   1.748  16.507  1.3547 -1.1048 -2.0180
 3307SOL     OW21379   2.685   0.908   2.717  0.0976 -0.6160  0.3342
 3307SOL    HW121380   2.648   0.962   2.647 -0.5886 -0.2967  0.9402
 3307SOL    HW221381   2.639   0.952   2.789 -0.5946  0.9126 -1.0421
 3308SOL     OW21382   2.481   3.530   0.992 -0.5069 -0.1068  0.1109
 3308SOL    HW121383   2.538   3.554   0.919 -2.3897  2.7443 -0.4337
 3308SOL    HW221384   2.518   3.592   1.055  0.7835 -0.5983 -0.1628
 3309SOL     OW21385   2.131   0.064   4.287  0.3022 -0.2512  0.4133
 3309SOL    HW121386   2.043   0.042   4.316  0.8625 -0.7878  1.6782
 3309SOL    HW221387   2.176   0.073   4.371 -1.5186  0.3477  1.3222
 3310SOL     OW21388   3.260   3.773   9.111 -0.2845  0.3523  0.2621
 3310SOL    HW121389   3.332   3.712   9.092 -0.2433  0.7918 -1.0433
 3310SOL    HW221390   3.308   3.856   9.102  0.7149 -0.1850  0.7350
 3311SOL     OW21391   4.141   4.160  14.586 -0.5624 -0.9555 -0.2079
 3311SOL    HW121392   4.109   4.190  14.501  3.8574  1.2211 -1.1057
 3311SOL    HW221393   4.215   4.112  14.547  1.5820  1.0149  1.4590
 3312SOL     OW21394   0.274   0.985  16.826 -0.3777  0.8592  0.6046
 3312SOL    HW121395   0.337   1.051  16.856 -1.0906  1.0165  1.7537
 3312SOL    HW221396   0.283   0.914  16.888 -0.2234  1.6355  1.4706
 3313SOL     OW21397   2.813   1.220  14.045 -0.2132 -0.4647 -0.2575
 3313SOL    HW121398   2.738   1.270  14.014 -0.5826 -0.0056  1.3979
 3313SOL    HW221399   2.875   1.260  13.984 -1.0815  1.7028  0.3095
 3314SOL     OW21400   1.961   4.183   4.105 -0.1131  0.0080  0.5823
 3314SOL    HW121401   1.893   4.229   4.056 -2.1634 -1.0115  2.4269
 3314SOL    HW221402   2.026   4.251   4.118  0.7469 -0.1422 -2.9830
 3315SOL     OW21403   3.950   1.904  12.071  0.4843 -0.8214  0.3855
 3315SOL    HW121404   3.949   1.987  12.118 -0.6963  0.8050 -2.5217
 3315SOL    HW221405   3.924   1.928  11.982 -1.9111 -1.2225  0.9781
 3316SOL     OW21406   0.537   4.341   8.565  0.3512 -0.7908  0.0534
 3316SOL    HW121407   0.512   4.255   8.529 -5.3713  0.7600  0.3912
 3316SOL    HW221408   0.501   4.329   8.653 -2.0172  0.5098 -0.7410
 3317SOL     OW21409   2.842   0.233   8.404  0.1782  0.6246  0.0620
 3317SOL    HW121410   2.751   0.231   8.433  0.8586 -1.4440  1.9707
 3317SOL    HW221411   2.884   0.164   8.455  1.0032  1.8995  1.1080
 3318SOL     OW21412   0.939   0.728  11.123 -0.3991 -0.3573 -0.4072
 3318SOL    HW121413   0.926   0.740  11.029  0.1831 -1.9698 -0.7096
 3318SOL    HW221414   0.879   0.659  11.153 -2.4894  0.0234 -3.7189
 3319SOL     OW21415   3.667   0.158  15.497 -0.4832  0.5460 -0.3775
 3319SOL    HW121416   3.610   0.085  15.520 -2.0630  1.3923 -1.6061
 3319SOL    HW221417   3.695   0.172  15.587  2.5679  0.5405 -1.3033
 3320SOL     OW21418   1.364   2.574   6.041 -0.5420  0.0505 -0.4528
 3320SOL    HW121419   1.348   2.528   5.958 -0.8126 -1.0827  0.2209
 3320SOL    HW221420   1.316   2.507   6.091 -2.1318  1.2129 -0.4454
 3321SOL     OW21421   1.361   4.387   4.452  0.4252  0.4996  0.5058
 3321SOL    HW121422   1.387   4.305   4.493 -0.1785 -1.1105 -2.3373
 3321SOL    HW221423   1.291   4.359   4.394 -0.0002 -0.2340  1.3864
 3322SOL     OW21424   2.138   4.153   7.337  0.4646  0.5061  0.7684
 3322SOL    HW121425   2.128   4.082   7.400 -0.4814  0.1184  0.1959
 3322SOL    HW221426   2.131   4.229   7.394  1.1290 -0.5396  2.2282
 3323SOL     OW21427   3.864   1.633   4.730  0.7191  0.5626 -0.1244
 3323SOL    HW121428   3.859   1.596   4.818 -0.1672  0.8565 -0.0602
 3323SOL    HW221429   3.941   1.688   4.745 -0.4342  1.4925  2.3190
 3324SOL     OW21430   3.664   0.880   5.594 -0.0765  0.5569 -0.1626
 3324SOL    HW121431   3.704   0.856   5.677 -0.2132  1.8341  0.2772
 3324SOL    HW221432   3.575   0.852   5.612 -0.1915  2.0061  1.5636
 3325SOL     OW21433   1.886   2.790   3.361 -0.2789 -0.3088 -0.3373
 3325SOL    HW121434   1.862   2.818   3.449 -3.2949 -0.5757 -1.0700
 3325SOL    HW221435   1.874   2.695   3.370  0.2613 -0.5426 -2.0994
 3326SOL     OW21436   2.093   1.366   6.454 -0.0442 -0.2998 -0.1929
 3326SOL    HW121437   2.179   1.387   6.488 -0.2489 -0.0713  0.1814
 3326SOL    HW221438   2.060   1.316   6.528 -0.4064 -1.2406 -0.9848
 3327SOL     OW21439   1.731   4.070   1.888 -0.5612 -0.2037 -0.3506
 3327SOL    HW121440   1.808   4.032   1.931 -0.3911  2.0568  1.2970
 3327SOL    HW221441   1.741   4.162   1.912 -2.1969 -0.3797  0.9720
 3328SOL     OW21442   0.036   1.459  11.447 -0.5035 -0.1179  0.1638
 3328SOL    HW121443   0.025   1.378  11.398  1.5668 -0.6580  0.6004
 3328SOL    HW221444   4.671   1.504  11.442 -0.8072 -0.5985  0.9275
 3329SOL     OW21445   2.331   2.633   2.753 -0.1757 -0.1404  0.0619
 3329SOL    HW121446   2.358   2.704   2.811  0.0760 -0.3253  0.1744
 3329SOL    HW221447   2.269   2.670   2.691 -0.1156 -0.0899  0.0316
 3330SOL     OW21448   3.278   2.397   8.450 -0.2414  0.3948  0.7298
 3330SOL    HW121449   3.338   2.392   8.376 -0.3942  0.1216  0.6268
 3330SOL    HW221450   3.217   2.454   8.404 -0.0460 -2.9051 -3.6226
 3331SOL     OW21451   3.072   2.527  11.658  0.2537  0.2563 -0.2517
 3331SOL    HW121452   3.026   2.562  11.582  0.1010  1.5223  0.4232
 3331SOL    HW221453   3.159   2.507  11.623 -0.4381 -0.6418 -1.4513
 3332SOL     OW21454   1.627   0.027   4.246  0.2743  0.3356  0.0981
 3332SOL    HW121455   1.553   0.050   4.303 -0.8757 -2.1298 -0.4151
 3332SOL    HW221456   1.605   4.653   4.244  1.7202 -0.0149  0.8653
 3333SOL     OW21457   0.476   1.551   1.143  0.4140  0.1418  0.5196
 3333SOL    HW121458   0.505   1.563   1.233  0.8065 -0.8731  0.5272
 3333SOL    HW221459   0.443   1.638   1.119 -1.5453 -0.6944  0.1139
 3334SOL     OW21460   4.517   2.637   8.648 -0.3105 -0.1816 -0.0650
 3334SOL    HW121461   4.507   2.617   8.555 -1.9338  0.4245 -0.0172
 3334SOL    HW221462   4.505   2.732   8.653  0.4525 -0.1135  0.5433
 3335SOL     OW21463   4.377   1.811   0.547  1.0494  0.9726  0.2514
 3335SOL    HW121464   4.348   1.902   0.542 -1.1104  0.2745  0.0744
 3335SOL    HW221465   4.447   1.816   0.612  2.5949  0.6607 -1.3780
 3336SOL     OW21466   2.748   2.385   4.781 -0.7795  0.6497  0.0129
 3336SOL    HW121467   2.711   2.331   4.851  2.5363 -0.2428  1.0491
 3336SOL    HW221468   2.693   2.361   4.707  0.5007 -1.4294 -0.2606
 3337SOL     OW21469   0.731   0.020   5.080 -0.1573 -0.7881 -0.2576
 3337SOL    HW121470   0.723   4.646   5.058 -2.0193 -0.7485  0.2079
 3337SOL    HW221471   0.825   0.037   5.087 -0.0726 -1.2473 -0.2343
 3338SOL     OW21472   3.672   3.880  12.164 -0.5484  0.2345  0.2667
 3338SOL    HW121473   3.604   3.850  12.103 -0.5230 -1.6129  1.1452
 3338SOL    HW221474   3.757   3.878  12.119  1.4013 -1.1178  4.0234
 3339SOL     OW21475   3.631   3.344   5.039 -0.0810 -0.1151 -0.2763
 3339SOL    HW121476   3.584   3.321   4.959 -1.6298 -1.9484  1.1623
 3339SOL    HW221477   3.632   3.258   5.082  1.4616  0.3623  0.6565
 3340SOL     OW21478   1.882   4.346   0.322  0.3460 -0.0785  0.2451
 3340SOL    HW121479   1.838   4.314   0.401  0.8266 -1.9916 -0.2510
 3340SOL    HW221480   1.816   4.407   0.290  1.7906  0.5336 -1.5658
 3341SOL     OW21481   2.114   4.080  14.748 -0.3850  0.1028  0.4734
 3341SOL    HW121482   2.020   4.084  14.728  0.0551  1.5091 -1.2621
 3341SOL    HW221483   2.163   4.119  14.676 -1.2868 -1.7200 -1.0961
 3342SOL     OW21484   2.518   0.403   0.505  0.3054  0.1839 -0.4460
 3342SOL    HW121485   2.538   0.341   0.435 -2.1367 -0.5158 -0.5201
 3342SOL    HW221486   2.589   0.368   0.559 -0.4212 -1.6300 -0.6846
 3343SOL     OW21487   4.575   1.248  14.792 -0.6707 -0.2544 -0.2178
 3343SOL    HW121488   4.545   1.165  14.756  1.9493 -0.7159 -1.3428
 3343SOL    HW221489   4.670   1.237  14.782 -0.2337  1.3372  2.1219
 3344SOL     OW21490   1.560   4.692   1.785  0.0189 -0.3173  0.0521
 3344SOL    HW121491   1.596   0.018   1.862  2.1181 -0.3446 -0.8982
 3344SOL    HW221492   1.512   0.050   1.753  1.7069  0.3787 -0.8192
 3345SOL     OW21493   0.502   2.111   8.266  0.4203  0.3073  0.0136
 3345SOL    HW121494   0.518   2.155   8.350 -0.3288 -1.9640  1.3403
 3345SOL    HW221495   0.477   2.186   8.212 -2.0514 -3.4165 -4.0113
 3346SOL     OW21496   2.286   2.092   6.829  0.7208 -0.2281  0.0632
 3346SOL    HW121497   2.342   2.168   6.838  0.8048 -0.1013 -1.5671
 3346SOL    HW221498   2.313   2.058   6.744  2.0772  0.3220  0.2853
 3347SOL     OW21499   2.615   2.922   7.746  0.1256 -0.8056  0.0492
 3347SOL    HW121500   2.598   2.828   7.753  0.7895 -1.0585 -1.8646
 3347SOL    HW221501   2.584   2.959   7.829  0.1184  0.7058 -0.6222
 3348SOL     OW21502   1.529   1.018   5.897 -0.5882  0.3094  0.2540
 3348SOL    HW121503   1.536   0.962   5.974 -2.2276 -1.8737 -1.1841
 3348SOL    HW221504   1.498   0.956   5.831 -0.9010  1.9491 -1.1413
 3349SOL     OW21505   3.617   2.385   4.750 -0.0591  0.2805  1.0303
 3349SOL    HW121506   3.584   2.328   4.820 -1.0300  0.3638  0.6371
 3349SOL    HW221507   3.671   2.324   4.699 -1.0607  0.9617 -0.8566
 3350SOL     OW21508   4.058   2.943  11.303 -0.4097 -0.6670  0.0340
 3350SOL    HW121509   4.002   2.893  11.243 -1.2371 -1.0330  1.1043
 3350SOL    HW221510   4.121   2.872  11.317  0.2816  0.3376  1.9954
 3351SOL     OW21511   2.613   0.092   7.366 -0.9363  0.1218 -0.1701
 3351SOL    HW121512   2.539   0.065   7.420  0.3102 -1.2590  0.8865
 3351SOL    HW221513   2.689   0.073   7.421 -0.5089  2.3144 -0.0338
 3352SOL     OW21514   3.044   2.312   2.780 -0.0429 -0.3237  0.0571
 3352SOL    HW121515   3.130   2.283   2.751 -0.2474  0.3840 -1.2704
 3352SOL    HW221516   3.071   2.401   2.802  2.6037 -1.0632 -0.2220
 3353SOL     OW21517   0.726   0.458   9.907  0.5658  0.0013  0.2084
 3353SOL    HW121518   0.705   0.369   9.881  0.6649 -0.6462  2.3099
 3353SOL    HW221519   0.767   0.499   9.831  1.6900 -1.4279  0.0466
 3354SOL     OW21520   0.351   1.538   0.850 -0.0723  0.2082  0.3612
 3354SOL    HW121521   0.441   1.505   0.855  1.4466  4.6324  2.0027
 3354SOL    HW221522   0.331   1.524   0.943 -0.6589 -1.9201 -0.1052
 3355SOL     OW21523   3.899   4.678   8.098 -0.0586 -0.3172 -0.5153
 3355SOL    HW121524   3.815   4.708   8.133 -0.5740  0.2879 -2.2853
 3355SOL    HW221525   3.959   0.033   8.091  0.4590 -0.8529 -1.6962
 3356SOL     OW21526   0.569   3.977  14.466 -0.5590  0.0673 -0.2574
 3356SOL    HW121527   0.625   3.912  14.509 -0.4181  2.1497  2.6980
 3356SOL    HW221528   0.591   3.956  14.375 -1.4974 -1.2182 -0.1743
 3357SOL     OW21529   2.623   1.391   7.926 -0.4394  0.0676  0.3847
 3357SOL    HW121530   2.672   1.451   7.871 -1.0278 -0.0705 -0.2827
 3357SOL    HW221531   2.693   1.359   7.984 -1.7448 -1.9121  0.8780
 3358SOL     OW21532   3.802   4.147   5.284 -0.3122 -0.0699 -0.0656
 3358SOL    HW121533   3.896   4.140   5.273 -0.0572  2.2115  0.6860
 3358SOL    HW221534   3.763   4.082   5.226 -0.8060 -1.8624  2.2305
 3359SOL     OW21535   2.049   1.685   6.212  0.0973  0.5835 -0.3016
 3359SOL    HW121536   2.127   1.637   6.185 -0.9907  0.7482 -3.6849
 3359SOL    HW221537   1.983   1.636   6.163 -1.2988  1.2540  0.8897
 3360SOL     OW21538   1.428   4.672   5.107  0.6057  0.1206 -0.2106
 3360SOL    HW121539   1.373   4.672   5.029  1.0601 -1.1620 -0.5319
 3360SOL    HW221540   1.406   4.586   5.142  0.6350  0.8135  1.5128
 3361SOL     OW21541   3.538   3.636   1.619 -0.0702  0.4574 -0.6681
 3361SOL    HW121542   3.632   3.638   1.635 -0.1242 -2.5451 -0.0174
 3361SOL    HW221543   3.514   3.663   1.530 -0.9571  1.7631 -0.0438
 3362SOL     OW21544   3.080   3.743   7.228  0.1773  1.2218  0.0814
 3362SOL    HW121545   3.125   3.823   7.257  0.4534  1.2066 -0.3036
 3362SOL    HW221546   3.089   3.748   7.132  0.2220 -1.6583 -0.0492
 3363SOL     OW21547   4.002   1.038  15.885  0.3199  0.2297 -0.0603
 3363SOL    HW121548   3.993   0.947  15.913 -0.1509 -0.2039 -1.6336
 3363SOL    HW221549   3.941   1.078  15.947 -1.2795 -2.5789  0.1464
 3364SOL     OW21550   1.564   1.725   8.183 -0.0547 -0.5627 -0.3820
 3364SOL    HW121551   1.567   1.798   8.244 -1.7318  0.8155 -1.9501
 3364SOL    HW221552   1.470   1.707   8.181 -0.4837  1.6393  0.7254
 3365SOL     OW21553   2.164   3.425   7.969  0.3627  0.3793  0.6933
 3365SOL    HW121554   2.127   3.472   8.044  1.6677  4.6132 -1.3173
 3365SOL    HW221555   2.172   3.497   7.905 -1.2598 -0.0082  0.0569
 3366SOL     OW21556   4.403   2.461   5.377 -0.0753  0.4540 -0.1300
 3366SOL    HW121557   4.378   2.383   5.326  0.8623 -0.0007  0.1213
 3366SOL    HW221558   4.339   2.468   5.447  1.0103  1.5823  0.7390
 3367SOL     OW21559   2.273   0.420   5.029 -0.4620  0.5726  0.5424
 3367SOL    HW121560   2.350   0.453   5.077  0.4915  0.4639 -0.9259
 3367SOL    HW221561   2.304   0.330   5.018  0.1301  0.9576 -0.9395
 3368SOL     OW21562   0.539   3.292   3.902  0.0154  0.0024 -0.4521
 3368SOL    HW121563   0.515   3.365   3.959 -2.2216 -0.1100 -1.2756
 3368SOL    HW221564   0.477   3.304   3.831  0.9915  1.5495 -1.0383
 3369SOL     OW21565   2.963   3.976   0.645 -0.0141 -0.0799  0.2846
 3369SOL    HW121566   2.928   3.972   0.556 -3.0861  1.0409  1.4516
 3369SOL    HW221567   3.040   3.922   0.628 -0.4195  0.2895 -2.7495
 3370SOL     OW21568   4.224   2.621   8.836 -0.2008 -0.1453  0.0798
 3370SOL    HW121569   4.182   2.535   8.826 -0.3384  0.0531 -1.0188
 3370SOL    HW221570   4.274   2.622   8.755 -0.0228  0.3211  0.1967
 3371SOL     OW21571   0.690   2.378   3.026 -0.5998  0.0813 -0.0467
 3371SOL    HW121572   0.596   2.374   3.007 -0.2961  0.8265 -1.7638
 3371SOL    HW221573   0.704   2.290   3.061  0.4652 -0.0085 -0.6990
 3372SOL     OW21574   4.153   0.954  11.408  0.0550  0.3045  0.0471
 3372SOL    HW121575   4.171   0.860  11.407  1.0919  0.5202 -1.5163
 3372SOL    HW221576   4.205   0.981  11.332 -0.0865  0.8517  0.1443
 3373SOL     OW21577   0.097   4.433   8.816 -0.0899 -0.3939  0.7240
 3373SOL    HW121578   0.121   4.516   8.775  0.4131 -1.5957 -1.4101
 3373SOL    HW221579   0.003   4.438   8.831 -0.0136  1.7916  0.4552
 3374SOL     OW21580   4.156   3.504   4.499 -0.1847  0.4419  0.4634
 3374SOL    HW121581   4.226   3.569   4.491 -0.4418  0.7549  0.8142
 3374SOL    HW221582   4.085   3.563   4.522 -0.7075 -0.4219  1.0533
 3375SOL     OW21583   1.439   3.947  14.829 -0.1469 -0.6684  0.2710
 3375SOL    HW121584   1.396   3.898  14.759 -0.4032 -1.0992  0.7223
 3375SOL    HW221585   1.371   3.999  14.872 -0.5226 -0.5453 -0.4851
 3376SOL     OW21586   3.364   4.479   1.398  0.2720 -0.1068  0.6562
 3376SOL    HW121587   3.300   4.433   1.453  1.3972  0.0931  2.1237
 3376SOL    HW221588   3.386   4.561   1.442 -1.8748  0.0609  1.4242
 3377SOL     OW21589   2.630   2.471  15.418 -0.0679 -0.3562 -0.1388
 3377SOL    HW121590   2.696   2.519  15.467 -0.9789  1.3742 -0.6122
 3377SOL    HW221591   2.549   2.498  15.462 -0.3365  0.7635 -1.3350
 3378SOL     OW21592   3.205   3.476   4.577 -0.5266 -0.2817  0.0505
 3378SOL    HW121593   3.117   3.440   4.563 -0.8923  0.2116  1.0802
 3378SOL    HW221594   3.202   3.497   4.670 -3.7893 -0.4777 -0.0109
 3379SOL     OW21595   1.861   1.923   3.715 -0.0415 -0.0444  0.3169
 3379SOL    HW121596   1.871   1.975   3.636  1.8691 -0.6518  0.1550
 3379SOL    HW221597   1.835   1.989   3.779  2.6544  2.1763 -0.8668
 3380SOL     OW21598   0.144   0.266   5.718 -0.3332  0.1639 -0.3698
 3380SOL    HW121599   0.194   0.189   5.691  0.1149  0.3347 -0.0280
 3380SOL    HW221600   0.197   0.286   5.795 -1.8467 -0.3191  0.7988
 3381SOL     OW21601   3.237   1.114   1.511 -0.2519  0.0119  0.8638
 3381SOL    HW121602   3.290   1.037   1.532  0.4396 -0.4544 -2.4500
 3381SOL    HW221603   3.154   1.083   1.546 -0.6600  0.7509  0.5480
 3382SOL     OW21604   0.420   2.860   6.981 -0.1675 -0.0223 -0.1600
 3382SOL    HW121605   0.358   2.822   6.918 -2.7826  0.2488  2.2538
 3382SOL    HW221606   0.426   2.952   6.956  0.3869 -0.6311 -2.2592
 3383SOL     OW21607   2.813   0.608  11.783 -0.5798  0.5793 -0.2192
 3383SOL    HW121608   2.767   0.571  11.707  2.0138 -0.9113 -1.0585
 3383SOL    HW221609   2.826   0.696  11.747 -0.2634  1.5502  2.2711
 3384SOL     OW21610   1.599   0.077   2.902 -0.7960  0.0385  0.4053
 3384SOL    HW121611   1.561   0.043   2.983 -0.5961  0.9317  0.8605
 3384SOL    HW221612   1.552   0.158   2.884  0.9575  0.9787  0.1613
 3385SOL     OW21613   3.428   1.818   7.373  0.2359  0.1164 -0.0433
 3385SOL    HW121614   3.455   1.896   7.324  0.1845  0.3271  0.2632
 3385SOL    HW221615   3.419   1.850   7.463 -2.1398 -1.1075  0.1647
 3386SOL     OW21616   1.772   4.476   8.164 -0.0426 -0.3968  0.6772
 3386SOL    HW121617   1.810   4.514   8.243 -0.2683  0.6545  0.2732
 3386SOL    HW221618   1.810   4.388   8.177  1.0141 -0.0801 -0.1674
 3387SOL     OW21619   1.654   1.010   4.758  0.2224 -0.6845  0.2825
 3387SOL    HW121620   1.664   0.942   4.691  0.0543 -0.9607  0.5344
 3387SOL    HW221621   1.575   1.055   4.730  1.0187  0.1145 -0.6635
 3388SOL     OW21622   1.280   0.582   5.173  0.7008  0.0869  0.4522
 3388SOL    HW121623   1.348   0.522   5.202  0.9556  0.0584 -0.2005
 3388SOL    HW221624   1.256   0.612   5.261  1.3488  1.1730  0.2595
 3389SOL     OW21625   3.030   1.576   8.864  0.2780  0.1010  0.1615
 3389SOL    HW121626   3.013   1.582   8.770  0.0822 -2.0197  0.0688
 3389SOL    HW221627   2.939   1.572   8.894  0.3996  0.5859  0.6002
 3390SOL     OW21628   0.852   3.353  17.197  0.0632 -0.4674  0.2625
 3390SOL    HW121629   0.938   3.318  17.221  0.8960  1.1577 -0.3465
 3390SOL    HW221630   0.834   3.388  17.285 -2.7023  1.0859 -0.9027
 3391SOL     OW21631   0.326   2.048  11.062 -0.5056 -0.2308  0.1780
 3391SOL    HW121632   0.251   2.107  11.062  1.0330  1.7582  1.1863
 3391SOL    HW221633   0.354   2.055  10.970  0.1067 -0.1670  0.3696
 3392SOL     OW21634   4.056   2.485   3.153 -0.0119 -0.0408 -0.2748
 3392SOL    HW121635   4.132   2.506   3.098 -0.0468  0.8709  0.0164
 3392SOL    HW221636   4.096   2.440   3.228  2.2464  2.0233 -0.2232
 3393SOL     OW21637   2.688   2.550  14.346 -0.1639  0.0024 -0.0366
 3393SOL    HW121638   2.742   2.615  14.301  0.1757  0.0909  0.5033
 3393SOL    HW221639   2.606   2.546  14.296  0.7179  2.1603 -1.6669
 3394SOL     OW21640   1.743   0.470   7.769  0.4736  0.2535 -0.3601
 3394SOL    HW121641   1.822   0.417   7.774  0.5525  0.1327 -2.7861
 3394SOL    HW221642   1.742   0.490   7.675 -0.6369  1.5165 -0.0803
 3395SOL     OW21643   0.422   0.931   7.909 -0.5794 -0.5371  0.2244
 3395SOL    HW121644   0.443   0.988   7.983 -0.9494  1.2937 -1.0790
 3395SOL    HW221645   0.506   0.929   7.865 -1.4251 -0.6698 -1.3755
 3396SOL     OW21646   3.817   2.190   7.730 -0.3992  0.4233 -0.0118
 3396SOL    HW121647   3.800   2.107   7.773  1.7755 -0.4601 -0.8870
 3396SOL    HW221648   3.734   2.237   7.736 -1.1747 -0.8626 -0.6418
 3397SOL     OW21649   4.596   1.241   3.626  0.1429  0.5971 -0.9303
 3397SOL    HW121650   4.539   1.293   3.681  0.9514  0.6553 -0.1507
 3397SOL    HW221651   4.676   1.269   3.671 -0.4746 -0.2551  0.6728
 3398SOL     OW21652   0.804   3.498   8.032  0.2172  0.0246 -1.0518
 3398SOL    HW121653   0.872   3.431   8.023  0.3368  0.0225 -0.1417
 3398SOL    HW221654   0.749   3.461   8.101 -0.1964 -2.1407 -2.5296
 3399SOL     OW21655   1.110   1.556  16.201  0.0016  0.0183  0.2705
 3399SOL    HW121656   1.093   1.573  16.293  1.5595 -1.0921  0.7772
 3399SOL    HW221657   1.054   1.483  16.176  1.5626 -0.6502 -1.2952
 3400SOL     OW21658   0.647   4.513   4.471 -0.4296 -0.4440  0.9109
 3400SOL    HW121659   0.679   4.423   4.475  1.2620  0.1044 -0.0432
 3400SOL    HW221660   0.703   4.538   4.397 -0.8334 -0.7672  0.4972
 3401SOL     OW21661   2.369   3.631  15.989 -0.0635  0.0475  0.5749
 3401SOL    HW121662   2.313   3.601  15.917  1.5726  0.3684 -0.8201
 3401SOL    HW221663   2.321   3.707  16.022  0.8543  0.6693  0.4758
 3402SOL     OW21664   0.142   2.308   7.011  0.0062 -0.1564  0.1980
 3402SOL    HW121665   0.095   2.231   7.042  0.3104 -0.7866 -0.9079
 3402SOL    HW221666   0.233   2.290   7.037  0.1347 -0.1124 -0.2153
 3403SOL     OW21667   1.980   2.430  11.199 -0.0488  0.5837  0.1683
 3403SOL    HW121668   2.047   2.363  11.214 -1.0920 -0.6497 -0.7519
 3403SOL    HW221669   1.971   2.430  11.104 -0.8778  1.0630  0.2458
 3404SOL     OW21670   3.602   0.662   0.878 -0.1918  0.4341  0.2563
 3404SOL    HW121671   3.644   0.697   0.957  1.0910  0.2689 -0.3599
 3404SOL    HW221672   3.660   0.590   0.855  2.9322  2.2749  2.3855
 3405SOL     OW21673   4.240   1.807   3.584 -0.3837  0.2445  0.4624
 3405SOL    HW121674   4.206   1.896   3.591  0.1104  0.3314  1.6530
 3405SOL    HW221675   4.247   1.808   3.488 -3.4638  1.0363  0.2302
 3406SOL     OW21676   1.494   4.200   2.463 -0.4535 -0.3826 -0.3223
 3406SOL    HW121677   1.404   4.188   2.433  0.3618 -1.1050 -2.4860
 3406SOL    HW221678   1.493   4.291   2.493 -1.0599 -1.0144  1.5693
 3407SOL     OW21679   3.391   1.311  12.672 -0.0025  0.5364  0.2679
 3407SOL    HW121680   3.479   1.298  12.707 -0.6811 -1.4747  1.2479
 3407SOL    HW221681   3.411   1.334  12.582 -1.0141  0.0187 -0.0886
 3408SOL     OW21682   3.178   0.843  11.760  0.5793 -0.0304 -0.1546
 3408SOL    HW121683   3.194   0.755  11.795 -3.0896 -1.1362 -1.2494
 3408SOL    HW221684   3.084   0.849  11.745  0.9205  1.3372 -1.7061
 3409SOL     OW21685   0.715   1.543   6.283 -0.1381 -0.3665 -0.0738
 3409SOL    HW121686   0.652   1.490   6.331  1.5165 -2.0825  0.2346
 3409SOL    HW221687   0.702   1.512   6.194 -1.6237  0.1155 -0.0191
 3410SOL     OW21688   3.760   0.955   8.228 -0.4669 -0.4224  0.1460
 3410SOL    HW121689   3.671   0.990   8.216 -0.0236  0.4500 -0.6055
 3410SOL    HW221690   3.806   1.034   8.199  2.2765 -1.7036  1.0891
 3411SOL     OW21691   3.108   2.010  13.597 -0.5017 -0.0063  0.2068
 3411SOL    HW121692   3.025   2.033  13.639 -0.0814  0.8405  0.5873
 3411SOL    HW221693   3.140   1.955  13.668  0.5728 -2.3515 -2.0895
 3412SOL     OW21694   2.972   1.938   0.370 -0.3795  0.0022 -0.0261
 3412SOL    HW121695   3.028   1.917   0.295  1.6656  0.9014  1.2391
 3412SOL    HW221696   2.976   1.863   0.429 -0.1751  0.1407  0.1399
 3413SOL     OW21697   1.731   1.342  13.731 -0.0213  0.1334 -0.2610
 3413SOL    HW121698   1.803   1.387  13.686 -1.2272  1.8461 -0.4570
 3413SOL    HW221699   1.728   1.374  13.820  0.2963  0.9445 -0.5441
 3414SOL     OW21700   1.707   2.403   3.189 -0.3753  0.1905 -0.7496
 3414SOL    HW121701   1.684   2.313   3.165 -0.8679  0.1829 -0.2415
 3414SOL    HW221702   1.724   2.444   3.104  0.5793 -0.6235 -0.9505
 3415SOL     OW21703   4.603   3.431   7.163  0.0180 -0.0020  0.1847
 3415SOL    HW121704   4.636   3.439   7.073 -0.7107  2.0236  0.1027
 3415SOL    HW221705   4.577   3.521   7.181 -0.0402  0.1484 -0.6511
 3416SOL     OW21706   2.557   4.680   4.537  0.0506  0.4003 -0.2788
 3416SOL    HW121707   2.637   0.011   4.550  0.6594 -0.4190 -0.9142
 3416SOL    HW221708   2.512   4.709   4.616  0.5702  1.0786 -0.2344
 3417SOL     OW21709   0.465   1.505  15.504 -0.2770  0.2134 -0.3098
 3417SOL    HW121710   0.437   1.527  15.414 -0.3633  0.5758 -0.1973
 3417SOL    HW221711   0.556   1.533  15.501 -0.1844  0.0044  0.8088
 3418SOL     OW21712   1.499   4.447  11.468  0.9538 -0.7319 -0.0369
 3418SOL    HW121713   1.545   4.526  11.497 -1.3822  0.7689 -0.3716
 3418SOL    HW221714   1.560   4.427  11.396 -0.4265 -1.3328 -1.0281
 3419SOL     OW21715   3.781   3.682   8.853 -0.0768 -0.1637 -0.8604
 3419SOL    HW121716   3.762   3.734   8.932  0.1418 -2.6085  0.7934
 3419SOL    HW221717   3.790   3.593   8.886 -3.7658 -0.3443 -0.4303
 3420SOL     OW21718   2.877   1.322   8.979 -0.2611 -0.1235  0.5030
 3420SOL    HW121719   2.844   1.382   9.046 -2.0768  0.1286 -0.6001
 3420SOL    HW221720   2.927   1.388   8.933 -0.9982 -0.2992 -0.5433
 3421SOL     OW21721   4.228   2.195   5.446  0.4058  0.4427 -0.3350
 3421SOL    HW121722   4.172   2.120   5.425  0.0528  0.4161  0.7125
 3421SOL    HW221723   4.286   2.194   5.369 -0.8490 -1.0854 -1.2518
 3422SOL     OW21724   3.710   0.203   2.271  0.0576  0.1186 -0.1494
 3422SOL    HW121725   3.745   0.234   2.355  1.2372 -0.6386 -0.3571
 3422SOL    HW221726   3.685   0.116   2.299 -1.0180  1.1910  2.2037
 3423SOL     OW21727   1.896   0.367  11.564  0.4260 -0.3943 -0.3247
 3423SOL    HW121728   1.831   0.307  11.528  0.5549 -2.7591  3.3519
 3423SOL    HW221729   1.859   0.446  11.525  2.0390 -0.7618 -2.6069
 3424SOL     OW21730   1.965   1.994  15.978 -0.0029  0.2174  0.0685
 3424SOL    HW121731   1.951   1.900  15.967 -0.6632  0.3348 -0.1477
 3424SOL    HW221732   1.888   2.025  15.930 -0.1510 -1.3611 -0.7120
 3425SOL     OW21733   3.255   4.049   8.462  0.6931 -0.0244 -0.2485
 3425SOL    HW121734   3.249   3.977   8.525  3.3069  2.4278  2.8586
 3425SOL    HW221735   3.211   4.009   8.387  3.0273 -2.6499 -0.2179
 3426SOL     OW21736   4.285   3.424   2.396  0.0628  0.7752 -0.0207
 3426SOL    HW121737   4.366   3.379   2.423  0.1952  0.4325 -0.9759
 3426SOL    HW221738   4.237   3.432   2.478 -0.4143 -0.7120 -0.1564
 3427SOL     OW21739   0.871   4.149   5.542  0.0830  0.0433  0.4911
 3427SOL    HW121740   0.952   4.100   5.526  0.4422  0.5364  0.7943
 3427SOL    HW221741   0.805   4.081   5.528  1.2939 -1.5038  2.3834
 3428SOL     OW21742   3.706   2.801   9.601  0.4679 -0.1184  0.5414
 3428SOL    HW121743   3.744   2.841   9.522  2.0119 -1.0619  0.7979
 3428SOL    HW221744   3.618   2.787   9.566  0.4439  0.0731  0.5255
 3429SOL     OW21745   4.384   4.537   3.137 -0.1678 -1.1370  0.0925
 3429SOL    HW121746   4.414   4.627   3.122  2.0848 -1.3598  3.1814
 3429SOL    HW221747   4.378   4.503   3.048 -1.2953  0.5257 -0.4663
 3430SOL     OW21748   4.464   2.410   5.095 -0.1976  0.0783 -0.1398
 3430SOL    HW121749   4.521   2.397   5.019  0.1634  3.2318 -0.3834
 3430SOL    HW221750   4.503   2.488   5.135 -1.3527  1.5997 -1.9737
 3431SOL     OW21751   1.487   0.618   8.111  0.7660 -1.1525 -0.6882
 3431SOL    HW121752   1.529   0.664   8.184  0.6094  1.5024 -2.2601
 3431SOL    HW221753   1.564   0.589   8.061  2.7722 -0.1687  1.8179
 3432SOL     OW21754   4.576   1.821  11.239 -0.4939  0.9600 -0.6776
 3432SOL    HW121755   4.541   1.733  11.246 -1.3951  1.4661  1.3636
 3432SOL    HW221756   4.662   1.803  11.278 -0.4078  1.1470 -0.7794
 3433SOL     OW21757   4.546   3.391   1.283 -0.6107 -0.5555 -0.0111
 3433SOL    HW121758   4.525   3.371   1.374 -2.4254  1.8690  0.1208
 3433SOL    HW221759   4.485   3.462   1.261  2.2267  1.8797 -0.0558
 3434SOL     OW21760   1.732   0.908   5.187  0.0525  0.2674 -0.0121
 3434SOL    HW121761   1.721   0.951   5.272  0.6802  2.0677 -0.8451
 3434SOL    HW221762   1.685   0.969   5.131  1.5021 -1.5551 -3.2191
 3435SOL     OW21763   1.481   4.438   3.422 -0.2840  0.2294  0.1523
 3435SOL    HW121764   1.390   4.466   3.428  0.4313  2.5483  0.2895
 3435SOL    HW221765   1.530   4.520   3.428  0.7529 -0.3947  0.1333
 3436SOL     OW21766   2.891   2.501   6.972 -0.8678  0.7382  0.0283
 3436SOL    HW121767   2.870   2.431   6.910  0.1507 -0.2822  0.8339
 3436SOL    HW221768   2.828   2.571   6.952 -1.4331  0.0583 -0.5601
 3437SOL     OW21769   4.064   3.448   7.996  0.3471 -0.1214 -0.1730
 3437SOL    HW121770   4.118   3.401   8.060  0.8730  0.6227 -0.0809
 3437SOL    HW221771   3.987   3.469   8.049  0.9458  1.3586  0.1000
 3438SOL     OW21772   3.343   2.861   3.856  0.2201 -0.3255  0.0613
 3438SOL    HW121773   3.380   2.937   3.810  1.3244 -0.2667  1.0595
 3438SOL    HW221774   3.420   2.807   3.870  0.7649 -0.4221 -3.2219
 3439SOL     OW21775   3.325   1.296  17.333 -0.1599  0.4482  0.3555
 3439SOL    HW121776   3.263   1.227  17.357  0.2816 -0.1671 -0.2464
 3439SOL    HW221777   3.268   1.345  17.273 -0.1265 -0.2942 -0.2895
 3440SOL     OW21778   3.182   0.652   4.680  0.2091  0.1618 -0.0986
 3440SOL    HW121779   3.117   0.700   4.731 -0.0917 -1.8039  1.3107
 3440SOL    HW221780   3.119   0.590   4.643  0.4643 -1.1945  1.8096
 3441SOL     OW21781   2.130   0.687   7.853  0.7604 -0.4649  0.4910
 3441SOL    HW121782   2.094   0.598   7.853  2.6620 -1.2424  6.1689
 3441SOL    HW221783   2.102   0.724   7.769 -0.7017  0.2618  1.2921
 3442SOL     OW21784   3.279   1.968   7.596 -0.3827 -0.6901 -0.8941
 3442SOL    HW121785   3.286   2.057   7.562 -1.3331 -1.5883 -3.3984
 3442SOL    HW221786   3.185   1.961   7.613 -0.2772 -1.2868 -0.5611
 3443SOL     OW21787   1.391   0.889  14.433  0.1563  0.3137 -0.8436
 3443SOL    HW121788   1.426   0.841  14.508 -0.4425  1.2189  0.0063
 3443SOL    HW221789   1.470   0.930  14.398  0.1406  0.7698 -0.3425
 3444SOL     OW21790   0.717   4.297   3.079 -0.1165  0.0761  0.4781
 3444SOL    HW121791   0.725   4.334   3.167  1.2756 -0.0415  0.3947
 3444SOL    HW221792   0.684   4.210   3.102  0.0252  0.2882  1.4601
 3445SOL     OW21793   2.074   1.903   9.599 -0.0014 -0.0788 -0.4064
 3445SOL    HW121794   1.979   1.915   9.595  0.3218  2.6450  0.4409
 3445SOL    HW221795   2.089   1.934   9.509  0.2858  1.2521  0.1011
 3446SOL     OW21796   2.969   3.534   6.479 -0.2919  0.4128  0.7091
 3446SOL    HW121797   2.874   3.529   6.470 -0.0559 -1.4857 -0.7478
 3446SOL    HW221798   2.981   3.462   6.541  0.0604 -0.9567 -0.9577
 3447SOL     OW21799   2.851   4.007   1.840 -0.1598  0.1626  0.0224
 3447SOL    HW121800   2.775   3.983   1.892 -2.1730  0.1591 -2.9102
 3447SOL    HW221801   2.801   4.052   1.772 -0.7694  1.4732  1.3513
 3448SOL     OW21802   3.146   3.656   9.361 -0.4497 -0.7309 -0.0207
 3448SOL    HW121803   3.198   3.674   9.282  1.5258  0.5249  1.5897
 3448SOL    HW221804   3.177   3.729   9.414 -1.0933 -1.2226  1.0355
 3449SOL     OW21805   1.508   1.040  14.097 -0.6610  0.3672 -0.1133
 3449SOL    HW121806   1.521   1.117  14.043  2.1698 -1.8598 -2.6157
 3449SOL    HW221807   1.595   1.001  14.107 -1.6410 -2.2295 -1.5412
 3450SOL     OW21808   2.455   1.793   7.881 -0.1232 -0.8219 -0.2770
 3450SOL    HW121809   2.385   1.805   7.945  0.1165 -0.1367 -0.1363
 3450SOL    HW221810   2.535   1.776   7.931  0.6352 -2.2602 -1.9550
 3451SOL     OW21811   3.697   4.370   9.019  0.5527 -0.1111  0.0869
 3451SOL    HW121812   3.773   4.342   9.070  1.6428 -1.8775 -2.4645
 3451SOL    HW221813   3.683   4.294   8.963  0.2529  0.1510 -0.1941
 3452SOL     OW21814   0.071   2.810   7.636 -0.4301 -0.4183  0.1190
 3452SOL    HW121815   0.001   2.875   7.638  1.3054  1.4358 -0.0186
 3452SOL    HW221816   0.032   2.761   7.563 -1.7203 -2.5582  2.2361
 3453SOL     OW21817   4.357   4.497  10.546  0.7008  0.2240  0.3928
 3453SOL    HW121818   4.415   4.570  10.567  1.4079 -0.2014 -0.1072
 3453SOL    HW221819   4.309   4.476  10.627 -0.6440 -2.3410 -1.0931
 3454SOL     OW21820   1.574   4.258   4.021 -0.3002 -0.1717 -0.4757
 3454SOL    HW121821   1.656   4.283   3.978  0.3978 -0.4959  0.6569
 3454SOL    HW221822   1.564   4.328   4.084 -0.3850 -0.6759  0.0728
 3455SOL     OW21823   1.402   3.792   2.726 -0.2408 -0.4401  0.3424
 3455SOL    HW121824   1.448   3.709   2.742  1.1669  0.2655 -0.0603
 3455SOL    HW221825   1.470   3.831   2.671 -1.7230  1.0570 -0.4215
 3456SOL     OW21826   0.513   2.723   2.466 -0.4725 -0.0736 -0.0253
 3456SOL    HW121827   0.453   2.794   2.443  1.3335  1.0328 -1.3423
 3456SOL    HW221828   0.566   2.724   2.386  0.5632 -2.1546  0.6247
 3457SOL     OW21829   1.154   1.395   6.321  0.0306 -0.0199 -0.2368
 3457SOL    HW121830   1.102   1.436   6.251 -0.2294 -0.1725 -0.1340
 3457SOL    HW221831   1.096   1.420   6.392  3.2990  0.5805  2.1985
 3458SOL     OW21832   0.004   3.022   6.482 -0.0802 -0.2478  0.4239
 3458SOL    HW121833   4.680   2.943   6.450 -0.2749 -0.2897  0.7904
 3458SOL    HW221834   0.059   2.984   6.551 -0.6445 -1.3938  0.2456
 3459SOL     OW21835   0.679   2.654  11.544  0.0430  0.3095 -0.1482
 3459SOL    HW121836   0.753   2.612  11.500  0.9330 -0.4408  2.0434
 3459SOL    HW221837   0.710   2.655  11.634  0.7551 -0.5578 -0.3775
 3460SOL     OW21838   4.681   1.368  10.401  0.5086  0.4964  0.1797
 3460SOL    HW121839   0.022   1.346  10.330  0.8767 -0.4719  0.7990
 3460SOL    HW221840   4.592   1.357  10.368  0.6956  0.7488 -0.4212
 3461SOL     OW21841   2.712   4.589   9.529  0.0943 -0.0454 -0.6677
 3461SOL    HW121842   2.629   4.636   9.535  0.2508  0.4578 -2.5045
 3461SOL    HW221843   2.773   4.661   9.515  0.2089  0.0044  0.0727
 3462SOL     OW21844   1.893   1.404   6.801  0.0137  0.0666 -0.2054
 3462SOL    HW121845   1.912   1.492   6.831 -0.2355  1.2066 -3.3778
 3462SOL    HW221846   1.809   1.384   6.843 -0.6499 -0.0982 -1.6004
 3463SOL     OW21847   4.658   0.070   4.686 -0.4524 -0.6685  0.0438
 3463SOL    HW121848   4.575   0.068   4.733 -1.0773  1.5586 -0.9883
 3463SOL    HW221849   0.002   0.047   4.754 -2.1212  1.6814  2.3601
 3464SOL     OW21850   3.383   4.430  13.453  0.6017 -0.3405  0.0892
 3464SOL    HW121851   3.375   4.347  13.499 -0.9381 -0.5176 -0.5021
 3464SOL    HW221852   3.385   4.403  13.361 -0.4726 -1.6021  0.4421
 3465SOL     OW21853   1.716   2.971   2.246 -0.4087 -0.1356 -0.4898
 3465SOL    HW121854   1.696   3.064   2.255  1.8377  0.2881  0.1244
 3465SOL    HW221855   1.658   2.938   2.177  0.6778 -0.4974 -1.2325
 3466SOL     OW21856   2.003   2.641   2.453  0.2441 -0.2206  0.7591
 3466SOL    HW121857   2.002   2.729   2.491  1.1957  0.0521  0.1513
 3466SOL    HW221858   1.972   2.661   2.365 -0.3254 -0.6148  0.8692
 3467SOL     OW21859   3.372   3.164   6.223 -0.1670 -0.1991 -0.4129
 3467SOL    HW121860   3.420   3.239   6.189 -1.3497  0.7791  0.0571
 3467SOL    HW221861   3.320   3.197   6.297  2.1638  3.5691 -0.4946
 3468SOL     OW21862   4.373   2.151  12.433 -0.4260 -0.3688 -0.0793
 3468SOL    HW121863   4.451   2.187  12.391  0.1691 -1.3221  0.2158
 3468SOL    HW221864   4.304   2.169  12.368 -0.7661  0.7368  0.5833
 3469SOL     OW21865   0.918   0.362  16.630  0.1741  0.3699  0.1635
 3469SOL    HW121866   0.924   0.300  16.558 -3.6938 -0.3215  0.4137
 3469SOL    HW221867   0.987   0.330  16.688 -0.5080  0.0697  0.8280
 3470SOL     OW21868   2.017   1.106   2.264 -0.2545  0.2924  0.0043
 3470SOL    HW121869   2.000   1.111   2.170  0.0801 -0.6175 -0.1070
 3470SOL    HW221870   2.070   1.028   2.279  1.2573  1.2818 -0.0941
 3471SOL     OW21871   2.095   0.737   6.767  0.0903 -0.2032 -0.3832
 3471SOL    HW121872   2.088   0.731   6.862  1.6113  0.9390 -0.2086
 3471SOL    HW221873   2.180   0.697   6.749 -1.8564 -3.1037 -3.0755
 3472SOL     OW21874   3.906   2.547   6.655 -0.3277 -0.5806 -0.4550
 3472SOL    HW121875   3.976   2.553   6.720 -0.3954 -0.6858 -0.3726
 3472SOL    HW221876   3.929   2.612   6.589  2.6578 -3.0546 -1.8494
 3473SOL     OW21877   1.958   0.858   4.246  0.1025  0.3359 -0.3632
 3473SOL    HW121878   1.898   0.900   4.184 -0.3070  1.7081  0.9431
 3473SOL    HW221879   2.034   0.916   4.255  1.0172 -0.9317 -0.0005
 3474SOL     OW21880   3.654   3.230  12.993  0.0158  0.0742 -0.0447
 3474SOL    HW121881   3.727   3.266  13.043 -0.5696 -0.3887  1.1296
 3474SOL    HW221882   3.693   3.161  12.939 -1.7441 -1.2035  0.3128
 3475SOL     OW21883   2.186   1.834   6.881 -0.7770 -0.2078  0.4347
 3475SOL    HW121884   2.199   1.925   6.853 -0.7232  0.1274  1.5440
 3475SOL    HW221885   2.271   1.796   6.860 -0.7001  0.4203 -0.4043
 3476SOL     OW21886   1.113   3.743   7.561 -0.7525  0.2129  0.0625
 3476SOL    HW121887   1.202   3.754   7.597 -0.7568  0.8160 -0.0996
 3476SOL    HW221888   1.136   3.691   7.485  0.6398  0.3629  0.3731
 3477SOL     OW21889   1.416   0.013  17.639 -0.5257 -0.0129  0.2096
 3477SOL    HW121890   1.437   0.098  17.677  1.1537  0.3278 -1.5278
 3477SOL    HW221891   1.476   0.011  17.565 -1.5136  0.2869 -0.6052
 3478SOL     OW21892   1.148   2.208   3.208  0.0438  1.0506 -0.2523
 3478SOL    HW121893   1.227   2.241   3.164  1.2275 -0.9116  0.4048
 3478SOL    HW221894   1.171   2.212   3.300 -2.0475  1.6254  0.2408
 3479SOL     OW21895   3.273   0.206  10.450 -0.0119  0.1056  0.3149
 3479SOL    HW121896   3.185   0.214  10.414  0.2855  3.0584  0.2968
 3479SOL    HW221897   3.257   0.161  10.533 -0.4733  0.7878  0.5969
 3480SOL     OW21898   4.347   4.134   8.705  0.1764  0.6601 -0.4729
 3480SOL    HW121899   4.310   4.091   8.782  1.2910  0.7386  0.1146
 3480SOL    HW221900   4.369   4.220   8.739 -1.2623  0.3024  1.3263
 3481SOL     OW21901   1.658   1.980   3.420  0.2021  0.6169 -0.1977
 3481SOL    HW121902   1.737   2.034   3.427  0.1903  0.2983  2.1709
 3481SOL    HW221903   1.679   1.901   3.369  1.0275 -0.6939  2.1473
 3482SOL     OW21904   2.814   3.250  11.806  0.2452 -0.4391  0.0022
 3482SOL    HW121905   2.729   3.250  11.764  0.6370 -0.8289 -0.7855
 3482SOL    HW221906   2.826   3.156  11.821  1.4118 -0.2861  0.0391
 3483SOL     OW21907   3.531   2.062  17.548  0.0661 -0.6653 -0.5423
 3483SOL    HW121908   3.487   2.027  17.625 -2.6659  1.1106 -1.3042
 3483SOL    HW221909   3.603   2.109  17.589  0.5175 -2.5910  0.8716
 3484SOL     OW21910   4.324   3.638   1.334 -0.1476  0.4486  0.0370
 3484SOL    HW121911   4.374   3.715   1.305  3.3425 -2.3254 -1.2199
 3484SOL    HW221912   4.322   3.581   1.258  1.3215  0.7190 -0.2092
 3485SOL     OW21913   1.678   3.827   6.355  0.4072  0.5158  0.2303
 3485SOL    HW121914   1.760   3.782   6.333 -0.4908 -0.5547 -0.9450
 3485SOL    HW221915   1.707   3.918   6.358  0.0328  0.5786  2.1149
 3486SOL     OW21916   0.667   3.813   9.391  0.5688  0.6333 -0.0975
 3486SOL    HW121917   0.575   3.785   9.394  0.9066 -0.5572 -1.0640
 3486SOL    HW221918   0.702   3.736   9.348 -0.6223  0.2573 -0.3916
 3487SOL     OW21919   0.105   0.291  12.040 -0.5259  0.1028 -0.1715
 3487SOL    HW121920   0.017   0.321  12.016 -0.2565  0.8801 -0.1816
 3487SOL    HW221921   0.090   0.271  12.132 -1.9723  0.2756 -0.3637
 3488SOL     OW21922   3.090   1.662  14.587 -0.0612  0.4559 -0.1271
 3488SOL    HW121923   3.014   1.706  14.550  0.7561  1.3675 -0.7025
 3488SOL    HW221924   3.147   1.733  14.617 -0.6384  0.9325 -0.1461
 3489SOL     OW21925   0.208   3.252   4.898 -0.1085 -0.9908  0.4548
 3489SOL    HW121926   0.186   3.290   4.812 -1.8765  1.2159  1.8741
 3489SOL    HW221927   0.125   3.257   4.945 -0.4565 -0.0748 -0.2405
 3490SOL     OW21928   2.880   0.098  11.083 -0.3295 -0.2753  0.3990
 3490SOL    HW121929   2.949   0.055  11.033  0.5214 -0.2140  1.5126
 3490SOL    HW221930   2.823   0.136  11.016  0.5227  2.4453  1.2148
 3491SOL     OW21931   1.209   2.441   3.788  0.0368  0.7408  0.1165
 3491SOL    HW121932   1.148   2.372   3.812  1.7623 -1.0076 -0.4989
 3491SOL    HW221933   1.196   2.501   3.862  1.1792  1.7997 -0.5365
 3492SOL     OW21934   2.137   3.706   7.409 -0.2065  0.2030  0.0032
 3492SOL    HW121935   2.192   3.666   7.342 -2.6274 -1.0832 -1.2046
 3492SOL    HW221936   2.077   3.751   7.350 -0.6718 -0.8458 -0.3191
 3493SOL     OW21937   0.296   3.705   3.229  0.0078 -0.1307  0.1681
 3493SOL    HW121938   0.307   3.622   3.181  0.6701 -0.3263  0.6507
 3493SOL    HW221939   0.385   3.720   3.261 -0.5841  0.5921  1.4568
 3494SOL     OW21940   2.779   1.188   2.880 -0.0735 -0.6235 -0.1223
 3494SOL    HW121941   2.699   1.145   2.910 -0.5554  0.0736 -0.4316
 3494SOL    HW221942   2.824   1.196   2.964  2.0803 -2.3002 -1.0875
 3495SOL     OW21943   4.362   2.623   2.345  0.3120  0.2132 -0.2713
 3495SOL    HW121944   4.438   2.592   2.395  0.5911  0.4202 -0.5579
 3495SOL    HW221945   4.305   2.618   2.422 -1.8332  1.7771 -1.7595
 3496SOL     OW21946   4.170   4.420  17.355 -0.4834  0.6446 -0.2705
 3496SOL    HW121947   4.216   4.488  17.406  1.0865  0.1494 -1.0282
 3496SOL    HW221948   4.145   4.360  17.425  0.0457 -0.3843 -0.9641
 3497SOL     OW21949   1.979   3.129   3.577 -0.0287 -0.5759 -0.2134
 3497SOL    HW121950   1.960   3.159   3.665  2.1303 -1.1262  0.4286
 3497SOL    HW221951   1.890   3.141   3.544  0.2095  2.5773  0.3111
 3498SOL     OW21952   4.695   4.578  13.390 -0.3987  0.3937 -0.1257
 3498SOL    HW121953   4.634   4.626  13.333  0.3732  0.3653 -0.9728
 3498SOL    HW221954   4.713   4.504  13.332  1.6769  0.2587  0.7110
 3499SOL     OW21955   0.790   1.918   3.899  0.4461 -0.2671  0.3040
 3499SOL    HW121956   0.761   1.842   3.849 -0.9969  0.9081 -0.6468
 3499SOL    HW221957   0.819   1.872   3.978  2.8911  1.1955  0.2540
 3500SOL     OW21958   1.315   0.840   5.126 -0.0596  0.2307 -0.3751
 3500SOL    HW121959   1.311   0.851   5.031  0.1432  0.2331 -0.3839
 3500SOL    HW221960   1.288   0.749   5.134 -0.6443  0.6807  2.5655
 3501SOL     OW21961   1.490   4.432   1.891 -0.6429  0.5419 -0.3160
 3501SOL    HW121962   1.503   4.523   1.865  0.5617  1.0306  2.0030
 3501SOL    HW221963   1.444   4.441   1.974  1.4303  0.3587  0.8709
 3502SOL     OW21964   3.477   0.180   2.893  0.5180  0.4051 -0.4264
 3502SOL    HW121965   3.546   0.233   2.933 -1.1561  1.7366  0.7071
 3502SOL    HW221966   3.456   0.113   2.958 -0.8859  0.2391 -1.0661
 3503SOL     OW21967   4.024   4.288   7.009  0.4963  0.2187  0.6548
 3503SOL    HW121968   4.078   4.211   7.026  0.5075  0.2782  0.8948
 3503SOL    HW221969   3.935   4.253   7.014  0.2692  0.8146  0.8578
 3504SOL     OW21970   1.430   2.659   2.245  0.2419 -0.4324  0.0017
 3504SOL    HW121971   1.451   2.679   2.336  0.2983  1.5336 -0.4472
 3504SOL    HW221972   1.489   2.717   2.198 -1.0514  0.0195 -1.0422
 3505SOL     OW21973   3.668   0.247  10.375 -0.3378  0.6261  0.4579
 3505SOL    HW121974   3.645   0.213  10.461 -3.0397  1.6555  0.1378
 3505SOL    HW221975   3.589   0.292  10.346  0.4479 -0.2026 -2.9399
 3506SOL     OW21976   2.434   4.524   5.962 -0.2794  0.8528  0.4456
 3506SOL    HW121977   2.385   4.495   5.885  0.3945  1.1010 -0.0828
 3506SOL    HW221978   2.513   4.547   5.913 -1.4178  1.4332 -1.1245
 3507SOL     OW21979   0.613   3.511   5.462  0.0661 -0.2031 -0.1866
 3507SOL    HW121980   0.558   3.434   5.450  1.6126 -1.1517 -1.1041
 3507SOL    HW221981   0.571   3.561   5.392  0.2171  1.3095  0.8010
 3508SOL     OW21982   4.052   0.274  13.664  0.0595  0.1086 -0.2955
 3508SOL    HW121983   3.965   0.254  13.699 -0.8729  1.0262 -2.0979
 3508SOL    HW221984   4.054   0.224  13.583  0.1627 -0.7436  0.2273
 3509SOL     OW21985   1.489   2.700   3.897  0.7139 -0.4723  0.1128
 3509SOL    HW121986   1.431   2.669   3.828 -0.7494 -0.1210  1.1744
 3509SOL    HW221987   1.458   2.789   3.912  1.0974  0.2430 -3.3913
 3510SOL     OW21988   3.635   1.934  10.357  0.0831 -0.2798  0.2049
 3510SOL    HW121989   3.671   1.962  10.273  2.7072  0.8659  1.7307
 3510SOL    HW221990   3.706   1.878  10.389 -0.6789 -0.2350  1.9754
 3511SOL     OW21991   3.584   0.640   1.640 -0.1605 -0.3070  0.1110
 3511SOL    HW121992   3.533   0.562   1.663 -2.2455  1.6015  1.8635
 3511SOL    HW221993   3.675   0.619   1.618 -0.0303 -0.5038  0.8454
 3512SOL     OW21994   4.557   1.477   9.331  0.0427  0.1717 -0.3486
 3512SOL    HW121995   4.569   1.383   9.319  1.6662 -0.0178  2.8875
 3512SOL    HW221996   4.475   1.495   9.284  0.4783  0.5728 -0.9616
 3513SOL     OW21997   3.626   0.358   5.944 -0.3381 -0.0695  0.2390
 3513SOL    HW121998   3.704   0.414   5.951  0.1658 -0.9390  1.5357
 3513SOL    HW221999   3.578   0.394   6.018  1.7897 -0.7920  1.9641
 3514SOL     OW22000   2.686   3.426   7.837  0.1518  0.1466 -0.1616
 3514SOL    HW122001   2.637   3.402   7.759  1.1141 -2.0674 -0.0801
 3514SOL    HW222002   2.619   3.488   7.866 -0.4179  0.3865 -1.9905
 3515SOL     OW22003   0.398   1.424  17.575  0.3664  0.2116  0.1530
 3515SOL    HW122004   0.484   1.399  17.611  0.0931 -2.9172 -1.3384
 3515SOL    HW222005   0.399   1.370  17.496 -0.4086  1.5071 -0.7252
 3516SOL     OW22006   2.257   4.088   4.597 -0.1517 -0.2615 -0.1189
 3516SOL    HW122007   2.220   4.160   4.545 -0.3859  0.4586  1.0541
 3516SOL    HW222008   2.289   4.142   4.669 -1.7397  1.7252 -0.8829
 3517SOL     OW22009   0.765   2.145   6.166  0.4589 -0.5084  0.2667
 3517SOL    HW122010   0.782   2.175   6.256  1.5786  2.0354 -0.7822
 3517SOL    HW222011   0.711   2.068   6.182  1.2152 -0.8811  1.0618
 3518SOL     OW22012   3.487   4.167   8.436  0.3049 -0.1103 -0.1544
 3518SOL    HW122013   3.394   4.146   8.448  0.4301 -0.7610 -0.3177
 3518SOL    HW222014   3.500   4.261   8.453  2.4821 -0.5791  0.7232
 3519SOL     OW22015   2.725   4.145  10.811  0.0991 -0.1903 -0.2063
 3519SOL    HW122016   2.729   4.172  10.719  3.8695 -0.4644 -0.1337
 3519SOL    HW222017   2.722   4.229  10.855 -1.5045 -0.5960  0.4517
 3520SOL     OW22018   0.163   0.174   7.121  0.0798 -0.7344  0.6822
 3520SOL    HW122019   0.165   0.081   7.099  1.4546 -0.8601  1.3074
 3520SOL    HW222020   0.073   0.184   7.091 -0.3600 -1.8396  1.6101
 3521SOL     OW22021   3.473   1.195  14.740  0.1912 -0.1928 -0.3454
 3521SOL    HW122022   3.456   1.288  14.727 -0.1073 -0.2845 -0.6150
 3521SOL    HW222023   3.455   1.177  14.832 -0.8870  1.3695 -0.2589
 3522SOL     OW22024   0.477   0.905  14.872  0.0843 -0.0488  0.4571
 3522SOL    HW122025   0.480   0.824  14.922  1.6042  0.3286  0.9894
 3522SOL    HW222026   0.568   0.928  14.892 -0.3162  0.1395  2.0911
 3523SOL     OW22027   2.518   3.243   6.555 -0.0097 -0.1365  0.4028
 3523SOL    HW122028   2.483   3.293   6.629 -1.5939  0.3812 -0.7105
 3523SOL    HW222029   2.444   3.235   6.496 -0.4750  0.2928  0.9193
 3524SOL     OW22030   2.444   0.145   5.614  0.2166  0.2014  0.4467
 3524SOL    HW122031   2.390   0.207   5.663  0.2459 -0.5323  1.4147
 3524SOL    HW222032   2.421   0.169   5.525 -2.7859  1.8048  1.6474
 3525SOL     OW22033   3.095   1.240   5.047  0.2866  0.3191 -0.1330
 3525SOL    HW122034   3.164   1.209   5.107 -0.6623  1.3443  1.4917
 3525SOL    HW222035   3.139   1.307   4.995 -1.7979  0.4991 -1.6530
 3526SOL     OW22036   3.753   1.294   6.794 -0.0313  0.2466  0.0474
 3526SOL    HW122037   3.744   1.389   6.808  0.5713  0.2785  0.2101
 3526SOL    HW222038   3.754   1.289   6.698 -0.2796  2.0691 -0.0629
 3527SOL     OW22039   0.537   4.578   3.470  0.0663  0.0911 -0.3119
 3527SOL    HW122040   0.583   4.521   3.409 -0.9440 -0.1871 -0.8042
 3527SOL    HW222041   0.601   4.605   3.536 -0.6064  0.7456  0.0738
 3528SOL     OW22042   4.262   2.380   4.089  0.3431  0.1012  0.3144
 3528SOL    HW122043   4.250   2.399   4.183  2.9071  2.1637  0.2215
 3528SOL    HW222044   4.194   2.438   4.056  0.4617 -2.4269 -4.2827
 3529SOL     OW22045   4.182   0.615   8.191  0.0316 -0.0762 -0.3656
 3529SOL    HW122046   4.138   0.665   8.123 -1.3845 -0.0105  0.6072
 3529SOL    HW222047   4.251   0.672   8.227  0.0304 -0.5670  0.4303
 3530SOL     OW22048   4.692   1.243  13.547 -0.8543  0.1274 -0.3966
 3530SOL    HW122049   4.696   1.174  13.614  0.1188 -0.3325 -0.9255
 3530SOL    HW222050   0.044   1.295  13.584  0.1660  0.3322 -2.6497
 3531SOL     OW22051   4.420   3.749   7.459 -0.7385 -0.3923  0.0536
 3531SOL    HW122052   4.389   3.717   7.543 -3.4783 -0.7842 -1.0915
 3531SOL    HW222053   4.353   3.704   7.408 -1.7835  1.2163 -0.0177
 3532SOL     OW22054   2.460   2.140   3.408 -0.2194  0.2852 -0.5937
 3532SOL    HW122055   2.547   2.101   3.400 -0.2152  0.4479 -1.2907
 3532SOL    HW222056   2.465   2.203   3.337  1.1616  0.0412 -0.7178
 3533SOL     OW22057   2.466   0.688  13.679 -0.4740  0.3388  0.4410
 3533SOL    HW122058   2.439   0.660  13.592  1.5879 -1.0440  0.2215
 3533SOL    HW222059   2.555   0.713  13.654 -0.4442  0.0635  0.2648
 3534SOL     OW22060   3.230   1.546  11.042 -0.0236 -0.0771 -0.5241
 3534SOL    HW122061   3.194   1.621  11.089  0.8407  0.0689 -0.0874
 3534SOL    HW222062   3.150   1.509  11.005 -0.0766 -1.8242  1.3836
 3535SOL     OW22063   1.542   2.781   2.993  0.2889 -0.1561  0.1069
 3535SOL    HW122064   1.610   2.808   3.055 -0.0269 -0.2353  0.4837
 3535SOL    HW222065   1.469   2.787   3.055  0.3931  2.3892 -0.0074
 3536SOL     OW22066   1.729   0.613   2.681  0.4861 -0.5585 -0.1348
 3536SOL    HW122067   1.663   0.671   2.643  1.3069  1.3773  1.3558
 3536SOL    HW222068   1.782   0.675   2.732 -0.1658  0.5751 -0.8322
 3537SOL     OW22069   2.378   2.546   3.053  0.0194  0.2905 -0.3207
 3537SOL    HW122070   2.297   2.578   3.094  0.4354 -1.4201  1.8164
 3537SOL    HW222071   2.379   2.595   2.970 -1.5879  0.6967 -0.1175
 3538SOL     OW22072   0.260   3.274  14.894 -0.5721  0.4850 -0.4125
 3538SOL    HW122073   0.209   3.216  14.951 -0.0873  0.8958  0.4478
 3538SOL    HW222074   0.342   3.276  14.943 -0.4006  0.4709 -0.7003
 3539SOL     OW22075   4.229   2.640  16.702 -0.3585  0.4627  0.0337
 3539SOL    HW122076   4.221   2.733  16.685 -0.4289  0.6026  0.8219
 3539SOL    HW222077   4.145   2.615  16.664  0.7649  0.7487 -2.5991
 3540SOL     OW22078   2.212   0.901   6.459 -0.3491 -0.1215  0.1972
 3540SOL    HW122079   2.131   0.860   6.428 -0.0081  0.7692 -1.8852
 3540SOL    HW222080   2.269   0.826   6.479 -0.0202 -0.4301 -1.8272
 3541SOL     OW22081   0.947   2.177   0.594  0.1888 -0.0332  0.0885
 3541SOL    HW122082   0.978   2.090   0.619  1.0866  0.4343  0.6054
 3541SOL    HW222083   0.855   2.159   0.612  0.0768  0.0242 -0.4526
 3542SOL     OW22084   0.825   1.100   3.144 -0.3981 -0.1784 -0.4707
 3542SOL    HW122085   0.731   1.119   3.154 -0.4953 -0.0061 -1.7229
 3542SOL    HW222086   0.850   1.180   3.098 -1.1709 -0.1442 -0.8321
 3543SOL     OW22087   0.076   1.131   6.057  0.2870  0.0399 -0.0367
 3543SOL    HW122088   4.717   1.167   6.100  2.5595  0.9213  3.3345
 3543SOL    HW222089   0.032   1.120   5.973 -0.4642 -0.2385  0.3925
 3544SOL     OW22090   2.122   2.321   3.267  0.1993 -0.0631  0.0919
 3544SOL    HW122091   2.045   2.271   3.243  0.1827 -0.0825  0.1860
 3544SOL    HW222092   2.179   2.311   3.190  1.1808  0.7144  0.7022
 3545SOL     OW22093   2.553   3.451   2.386 -0.0252 -0.2136  0.0757
 3545SOL    HW122094   2.479   3.511   2.397 -0.6634 -0.9531 -0.1810
 3545SOL    HW222095   2.518   3.377   2.336 -1.2925 -0.4050  1.2672
 3546SOL     OW22096   1.310   2.377   1.504  0.0092  0.7603 -0.1201
 3546SOL    HW122097   1.298   2.282   1.505 -2.9836  1.1635  1.8816
 3546SOL    HW222098   1.284   2.409   1.590 -1.3246  0.2631 -0.3398
 3547SOL     OW22099   1.823   2.558   2.029  0.1590 -0.1064  0.0059
 3547SOL    HW122100   1.851   2.468   2.043 -0.5969  0.1013  2.8065
 3547SOL    HW222101   1.833   2.595   2.116  0.4076 -1.7114  0.6588
 3548SOL     OW22102   1.781   3.302  16.252  0.4461  0.1433  0.3683
 3548SOL    HW122103   1.853   3.246  16.223  0.9479  0.6418  0.6309
 3548SOL    HW222104   1.746   3.333  16.169 -1.2705 -0.0544  1.0213
 3549SOL     OW22105   2.982   2.345   5.255 -0.0813  0.0806 -0.1672
 3549SOL    HW122106   2.889   2.366   5.250 -0.2518 -0.6437  0.0152
 3549SOL    HW222107   2.995   2.286   5.181  1.6889  0.7348 -0.3939
 3550SOL     OW22108   1.053   3.256   3.172 -0.4200  0.4994 -0.2959
 3550SOL    HW122109   0.982   3.196   3.196  0.7333 -1.2143 -1.1388
 3550SOL    HW222110   1.120   3.188   3.165  0.0549  0.8197  1.1699
 3551SOL     OW22111   3.155   3.413  13.105  0.0687 -0.0964  0.5264
 3551SOL    HW122112   3.191   3.502  13.108  1.4589 -0.6009 -0.7959
 3551SOL    HW222113   3.232   3.355  13.105  0.6920  0.7224 -1.2491
 3552SOL     OW22114   2.921   1.526   0.204 -0.3705  0.3739 -0.1946
 3552SOL    HW122115   2.968   1.500   0.284  0.2267 -0.3704 -0.7910
 3552SOL    HW222116   2.841   1.570   0.232  0.1911  0.6010  1.1015
 3553SOL     OW22117   0.831   2.333  11.808  0.0939 -0.0495  0.4040
 3553SOL    HW122118   0.850   2.305  11.718  1.1619  1.1460  0.2565
 3553SOL    HW222119   0.776   2.409  11.793  1.8364  1.5970  2.4226
 3554SOL     OW22120   4.636   2.855  11.530 -0.3129 -0.4175 -0.1236
 3554SOL    HW122121   4.657   2.947  11.519 -0.7524 -0.2647  0.3000
 3554SOL    HW222122   4.579   2.843  11.454  0.6463 -0.3121 -0.8514
 3555SOL     OW22123   1.936   0.885  10.906 -0.3034  0.1799 -0.4784
 3555SOL    HW122124   1.892   0.805  10.935  0.1438  0.5186  1.1584
 3555SOL    HW222125   1.962   0.930  10.987 -2.1093 -1.0214  0.7747
 3556SOL     OW22126   2.981   2.524  12.624  0.2415  0.7799  0.3502
 3556SOL    HW122127   2.999   2.611  12.659 -1.9325  0.6895  1.6839
 3556SOL    HW222128   2.950   2.547  12.536  1.2141  0.4522 -0.0874
 3557SOL     OW22129   0.233   4.393   2.225 -0.2453  0.1541 -0.0170
 3557SOL    HW122130   0.172   4.320   2.238  0.2294 -0.1708  0.3921
 3557SOL    HW222131   0.265   4.365   2.139  0.1915 -0.3958  0.3233
 3558SOL     OW22132   3.920   2.479   4.845  0.0539  0.1031 -0.4596
 3558SOL    HW122133   3.927   2.493   4.751  0.8162 -1.4816 -0.6289
 3558SOL    HW222134   3.839   2.528   4.862  1.1745  1.6273  0.5632
 3559SOL     OW22135   0.241   0.160   2.456 -0.1476  0.5812  0.0017
 3559SOL    HW122136   0.154   0.187   2.487 -0.1868 -1.0244  1.2554
 3559SOL    HW222137   0.231   0.163   2.361  0.4751 -0.4979 -0.1016
 3560SOL     OW22138   2.380   3.748   8.378 -0.2036  0.8403 -0.1789
 3560SOL    HW122139   2.443   3.677   8.390  0.7136  1.1791 -2.8515
 3560SOL    HW222140   2.412   3.792   8.457 -0.4736 -0.4542  0.6486
 3561SOL     OW22141   4.388   0.017   4.061  0.5933  0.2428  0.1168
 3561SOL    HW122142   4.464   0.060   4.022  0.9182  0.4530  1.0013
 3561SOL    HW222143   4.333   0.020   3.982 -0.5520  0.2831  0.9224
 3562SOL     OW22144   1.641   1.713   4.703 -0.6274  0.4797  0.0672
 3562SOL    HW122145   1.622   1.698   4.795  0.0910 -0.5888  0.0475
 3562SOL    HW222146   1.696   1.637   4.683 -0.7634 -0.0696  1.8162
 3563SOL     OW22147   3.268   0.147   6.218 -0.1270 -0.4206  0.8251
 3563SOL    HW122148   3.288   0.111   6.131  1.5269  1.2729  0.5109
 3563SOL    HW222149   3.346   0.199   6.236 -1.1807  2.0193 -1.6358
 3564SOL     OW22150   0.784   2.832   9.892 -0.0514  0.7783 -0.0782
 3564SOL    HW122151   0.816   2.865   9.808 -0.3729  2.7978  0.5955
 3564SOL    HW222152   0.855   2.770   9.907 -1.3182 -0.5625  0.3593
 3565SOL     OW22153   3.407   0.340   8.011  0.6119  0.0609  0.2367
 3565SOL    HW122154   3.351   0.305   7.941  0.6811  1.4971 -0.5440
 3565SOL    HW222155   3.371   0.295   8.088  0.4381  0.0959  0.1769
 3566SOL     OW22156   0.440   0.668  15.795  0.3320  0.2987  0.5254
 3566SOL    HW122157   0.383   0.694  15.867  1.8840 -1.5271  2.4247
 3566SOL    HW222158   0.513   0.622  15.837 -0.3348  0.1377  1.5274
 3567SOL     OW22159   2.950   1.016   4.954  0.1101 -0.0238 -0.6210
 3567SOL    HW122160   3.014   1.075   4.992  0.8077 -2.3996  1.8724
 3567SOL    HW222161   2.888   1.002   5.026  0.6197  2.3783  0.2829
 3568SOL     OW22162   2.886   3.645   4.603 -0.4747 -0.2433  0.1242
 3568SOL    HW122163   2.869   3.567   4.657  1.2766 -1.7168 -1.4516
 3568SOL    HW222164   2.801   3.688   4.606 -0.4531 -0.1296 -0.9726
 3569SOL     OW22165   2.500   2.949   4.615  0.0334 -0.5033  0.2499
 3569SOL    HW122166   2.529   2.983   4.700 -1.9745  1.4834  0.1331
 3569SOL    HW222167   2.570   2.896   4.578 -2.3304 -3.2004 -0.3376
 3570SOL     OW22168   0.272   4.248   7.163 -0.0055  0.5736  0.5602
 3570SOL    HW122169   0.362   4.216   7.164  0.3551  1.5665 -0.7798
 3570SOL    HW222170   0.232   4.204   7.238 -0.2945  0.8081  0.5458
 3571SOL     OW22171   4.596   4.524   9.013 -0.0161 -0.1458  0.1279
 3571SOL    HW122172   4.668   4.583   8.989 -1.2677  1.1141 -0.5833
 3571SOL    HW222173   4.617   4.505   9.104  4.6664  0.6625 -0.7923
 3572SOL     OW22174   0.241   2.033  15.790  0.4217 -0.8045  0.0616
 3572SOL    HW122175   0.224   2.033  15.695  1.1197  0.6642 -0.0643
 3572SOL    HW222176   0.250   1.938  15.793  1.5063 -0.7779 -1.8157
 3573SOL     OW22177   3.237   2.617   9.184  0.0143 -0.1501 -0.0702
 3573SOL    HW122178   3.267   2.593   9.096  0.4818  3.2427 -0.8431
 3573SOL    HW222179   3.228   2.530   9.222  1.1000  0.8797  2.5422
 3574SOL     OW22180   1.240   0.249   4.998 -0.0168  0.6866  0.2663
 3574SOL    HW122181   1.198   0.335   4.992  1.2158  1.3586  1.2777
 3574SOL    HW222182   1.306   0.236   4.930  0.4107 -1.8072  1.1617
 3575SOL     OW22183   1.635   0.915  15.013 -0.4584  0.6116 -0.6970
 3575SOL    HW122184   1.709   0.916  15.074  0.2901 -0.2171 -1.5692
 3575SOL    HW222185   1.667   0.837  14.967 -0.4686  0.0500  0.2511
 3576SOL     OW22186   0.211   1.809  13.812  0.6827 -0.8053 -0.2016
 3576SOL    HW122187   0.173   1.897  13.813 -0.1954 -1.2209  1.8365
 3576SOL    HW222188   0.261   1.811  13.731  0.9403  1.8298  0.0420
 3577SOL     OW22189   0.738   1.398   2.507  0.3627 -0.4567  0.2523
 3577SOL    HW122190   0.681   1.378   2.432  1.8406  0.8365 -1.1994
 3577SOL    HW222191   0.731   1.319   2.561  0.2965 -0.0773  0.7967
 3578SOL     OW22192   2.348   1.823   1.606  0.1257  0.1417  0.2241
 3578SOL    HW122193   2.292   1.745   1.615 -0.3233  0.4459  0.0357
 3578SOL    HW222194   2.369   1.829   1.512 -2.9416  1.8675 -0.3085
 3579SOL     OW22195   4.603   0.040   5.939  0.4786 -0.4616  0.2686
 3579SOL    HW122196   4.679   0.090   5.970  0.4178 -0.2163  0.0236
 3579SOL    HW222197   4.558   0.014   6.020  0.1344  0.3529  0.3295
 3580SOL     OW22198   2.438   2.968   6.465 -0.4639 -0.0075 -0.2202
 3580SOL    HW122199   2.420   3.057   6.436  1.9753  0.6474  0.2438
 3580SOL    HW222200   2.377   2.954   6.538  1.8826  0.4519  1.8124
 3581SOL     OW22201   2.460   3.416   3.578  0.2200  0.0259  0.4640
 3581SOL    HW122202   2.407   3.466   3.517 -1.4077  0.1786  2.0055
 3581SOL    HW222203   2.544   3.426   3.533 -0.3690  1.6357 -0.2756
 3582SOL     OW22204   3.021   4.711   6.206 -0.2657 -0.2125  0.2928
 3582SOL    HW122205   2.967   0.063   6.240  2.6864  2.4367 -0.6197
 3582SOL    HW222206   3.110   0.027   6.210  0.3586 -1.7539  0.0564
 3583SOL     OW22207   3.872   0.257   8.411  0.2196 -0.0706  0.0750
 3583SOL    HW122208   3.849   0.214   8.329 -0.3892 -0.5016  0.4723
 3583SOL    HW222209   3.840   0.345   8.395  0.9557  0.5390  2.0355
 3584SOL     OW22210   2.806   3.435   4.781  1.0538 -0.1789 -0.4610
 3584SOL    HW122211   2.727   3.387   4.807  0.6074 -1.0123 -3.3502
 3584SOL    HW222212   2.861   3.372   4.735  1.1065 -0.8460  0.5349
 3585SOL     OW22213   3.258   3.638   1.106 -0.1281  0.2552  0.9371
 3585SOL    HW122214   3.266   3.642   1.201  0.8105  0.4422  0.8452
 3585SOL    HW222215   3.164   3.621   1.092 -0.4934  1.5295  1.9065
 3586SOL     OW22216   2.389   0.280  16.671 -0.0588 -0.0840  0.4907
 3586SOL    HW122217   2.331   0.332  16.615  1.3061  0.0823 -0.7522
 3586SOL    HW222218   2.367   0.192  16.639 -0.7392  0.1520  0.3005
 3587SOL     OW22219   0.867   2.565   2.867 -0.4725 -0.3475 -0.0197
 3587SOL    HW122220   0.822   2.507   2.929 -3.3973 -0.4521 -2.2588
 3587SOL    HW222221   0.901   2.631   2.928  1.0255 -2.1409  1.0786
 3588SOL     OW22222   0.071   1.058   1.374 -0.1456 -0.5342  0.4197
 3588SOL    HW122223   0.014   0.989   1.341 -0.4179  0.2563 -0.7847
 3588SOL    HW222224   0.030   1.135   1.335 -1.2166 -1.5804 -0.5231
 3589SOL     OW22225   4.179   0.654   6.596 -0.6354  0.6332  0.3106
 3589SOL    HW122226   4.107   0.693   6.546  1.3703  1.5589 -1.8378
 3589SOL    HW222227   4.245   0.651   6.527 -0.1941 -0.9125  0.8073
 3590SOL     OW22228   4.619   0.202   7.017  0.1604  0.4434  0.2326
 3590SOL    HW122229   4.580   0.124   6.976  0.4758  0.2699  0.2637
 3590SOL    HW222230   4.563   0.272   6.983 -0.1216 -0.8563 -2.0241
 3591SOL     OW22231   3.242   4.113   7.507  0.2254  0.0967 -0.0886
 3591SOL    HW122232   3.237   4.203   7.538  0.3802  1.3965 -3.8075
 3591SOL    HW222233   3.239   4.124   7.412 -1.4306  2.5043  0.2322
 3592SOL     OW22234   0.657   4.179  10.367 -0.2351  0.1521  1.1871
 3592SOL    HW122235   0.565   4.200  10.383  0.2103  2.6568  0.3591
 3592SOL    HW222236   0.689   4.151  10.452 -0.1638 -0.5068  0.9475
 3593SOL     OW22237   3.165   2.319  11.061  0.1421 -0.1441  0.2651
 3593SOL    HW122238   3.143   2.309  11.153 -0.5872  0.4099  0.1470
 3593SOL    HW222239   3.236   2.256  11.047 -0.2128 -0.7369  1.1332
 3594SOL     OW22240   2.323   0.988   1.732 -0.0017  0.1915 -0.6037
 3594SOL    HW122241   2.302   1.075   1.698  1.9450  0.3900 -1.3136
 3594SOL    HW222242   2.236   0.951   1.746 -0.2207  1.4630  1.3953
 3595SOL     OW22243   2.567   4.079   9.309 -0.2457  0.0313  0.0381
 3595SOL    HW122244   2.600   4.164   9.278 -1.4907  0.5608  0.1473
 3595SOL    HW222245   2.649   4.043   9.341 -0.7157 -1.6905 -0.7026
 3596SOL     OW22246   3.449   2.104   5.167  0.2072 -0.1008 -0.1972
 3596SOL    HW122247   3.486   2.031   5.117 -1.7074 -1.3497  0.2345
 3596SOL    HW222248   3.359   2.074   5.159  0.9780 -2.5572  0.2779
 3597SOL     OW22249   1.884   1.376  17.424 -0.0921  0.2924 -0.8632
 3597SOL    HW122250   1.919   1.440  17.486  1.7699  0.7245 -2.3755
 3597SOL    HW222251   1.855   1.301  17.476  2.1962 -1.2816 -1.8284
 3598SOL     OW22252   0.874   3.123   2.134 -0.2055 -0.4613 -0.5864
 3598SOL    HW122253   0.782   3.098   2.126 -0.2237 -0.7640  0.6193
 3598SOL    HW222254   0.909   3.039   2.106 -3.6756 -1.4394 -2.0804
 3599SOL     OW22255   3.767   1.542   7.608  0.0016  0.5866 -0.5566
 3599SOL    HW122256   3.724   1.470   7.562 -1.7528  0.7104  0.8569
 3599SOL    HW222257   3.696   1.581   7.660  0.4235  1.0614 -0.3469
 3600SOL     OW22258   0.374   2.020   4.246  0.4134  0.9728 -0.2122
 3600SOL    HW122259   0.467   2.025   4.225  0.0961  0.6446 -1.7602
 3600SOL    HW222260   0.355   2.101   4.291  0.6949  0.6611  0.4651
 3601SOL     OW22261   3.868   2.122   7.114  0.2884 -0.3666  0.3823
 3601SOL    HW122262   3.813   2.189   7.154  1.3967  0.1585  1.0177
 3601SOL    HW222263   3.937   2.169   7.067 -0.8296 -0.2784 -1.1601
 3602SOL     OW22264   1.137   0.587  17.579 -0.2785 -0.2293 -0.8358
 3602SOL    HW122265   1.131   0.525  17.507  0.9986 -0.2576 -0.9062
 3602SOL    HW222266   1.079   0.535  17.635 -0.3332  2.1102  1.2890
 3603SOL     OW22267   4.371   3.597  14.963 -0.1282  0.0879  0.0924
 3603SOL    HW122268   4.423   3.656  15.017  1.0462 -0.1063 -0.8161
 3603SOL    HW222269   4.286   3.632  14.988 -0.1345  0.0381  0.1385
 3604SOL     OW22270   0.096   4.027   8.039 -0.0427  1.0339 -0.3288
 3604SOL    HW122271   0.038   4.091   7.997 -3.4748 -1.6690  0.2959
 3604SOL    HW222272   0.160   4.003   7.972 -0.0629 -0.2476  0.1071
 3605SOL     OW22273   0.176   1.544   4.943 -0.5676  0.1400  0.5313
 3605SOL    HW122274   0.253   1.578   4.899 -0.5182  0.9051  1.2024
 3605SOL    HW222275   0.205   1.543   5.034 -2.6532 -0.2912  1.2116
 3606SOL     OW22276   4.472   3.209   8.578 -0.1962  0.0325 -0.5059
 3606SOL    HW122277   4.547   3.167   8.536  0.7348  2.1175 -0.9507
 3606SOL    HW222278   4.461   3.154   8.656 -2.5368 -3.3003 -3.2234
 3607SOL     OW22279   3.523   2.433   6.599  0.1398  0.1318  0.4770
 3607SOL    HW122280   3.487   2.346   6.583  1.2838 -0.1484 -0.5736
 3607SOL    HW222281   3.615   2.430   6.574 -0.4725 -2.4149 -1.4742
 3608SOL     OW22282   4.686   3.070   8.482  0.2947 -0.2214  0.6923
 3608SOL    HW122283   4.692   2.975   8.468 -0.3597 -0.1425 -0.1088
 3608SOL    HW222284   0.011   3.110   8.406  0.0255 -2.0518 -0.4357
 3609SOL     OW22285   0.821   2.872   6.352 -0.2095  0.2843  0.1169
 3609SOL    HW122286   0.797   2.810   6.283 -0.9888 -0.7761  1.3431
 3609SOL    HW222287   0.876   2.928   6.297  1.3974 -1.9686 -0.5939
 3610SOL     OW22288   1.986   1.624   4.669 -0.2424 -0.3466 -0.0027
 3610SOL    HW122289   2.040   1.547   4.683 -1.2252 -1.1239 -0.5358
 3610SOL    HW222290   1.903   1.579   4.680 -0.6931  0.2482 -0.9906
 3611SOL     OW22291   3.696   3.003   3.988  0.4729 -0.2346 -0.0474
 3611SOL    HW122292   3.703   2.925   4.044  0.3975 -0.6521 -0.6185
 3611SOL    HW222293   3.636   3.058   4.038  0.0791 -0.5081 -0.2195
 3612SOL     OW22294   3.735   0.831   7.765  0.2469 -0.1179  0.3915
 3612SOL    HW122295   3.676   0.756   7.756  0.4157 -0.1887 -0.1278
 3612SOL    HW222296   3.807   0.789   7.718  0.1044 -1.1671  1.1227
 3613SOL     OW22297   1.869   2.714   2.827 -0.1868  0.5974 -0.1883
 3613SOL    HW122298   1.830   2.691   2.743  1.1242 -0.0735 -0.6217
 3613SOL    HW222299   1.806   2.681   2.891 -1.2338 -0.9311 -2.0038
 3614SOL     OW22300   3.517   4.056   5.796  0.6011 -0.1483  0.1722
 3614SOL    HW122301   3.602   4.041   5.836 -0.3587  0.1321  2.2886
 3614SOL    HW222302   3.515   4.152   5.794 -0.4933 -0.1584  0.8135
 3615SOL     OW22303   3.344   1.628   4.268  0.5144  0.3666 -0.2428
 3615SOL    HW122304   3.345   1.581   4.184 -3.0701 -1.1461  0.5164
 3615SOL    HW222305   3.386   1.566   4.328  0.9202  1.0696  0.1930
 3616SOL     OW22306   2.344   0.746   8.129 -0.0948  0.0838  0.4290
 3616SOL    HW122307   2.264   0.696   8.109 -0.9351  1.5595  0.0574
 3616SOL    HW222308   2.312   0.834   8.106  1.9419  0.5179 -0.7537
 3617SOL     OW22309   3.794   0.218   6.393  0.2044  1.0684  0.8775
 3617SOL    HW122310   3.883   0.215   6.356 -0.1013  3.7068 -0.0668
 3617SOL    HW222311   3.787   0.141   6.449 -0.1424  0.7936  0.4486
 3618SOL     OW22312   3.552   0.942  11.005  0.0702  0.3258 -0.0400
 3618SOL    HW122313   3.580   1.000  10.934 -0.5782 -0.0040 -0.5696
 3618SOL    HW222314   3.555   1.008  11.074  0.4356 -1.2611  1.4744
 3619SOL     OW22315   1.911   3.256  15.966 -0.0200 -0.5190 -0.4632
 3619SOL    HW122316   1.924   3.271  15.872  1.2943  0.7599 -0.0935
 3619SOL    HW222317   1.818   3.276  15.977  0.0588  0.2092 -1.0954
 3620SOL     OW22318   4.059   2.310   2.300  0.2011  0.7020  0.0645
 3620SOL    HW122319   4.067   2.217   2.278  1.7567  0.8554 -0.0137
 3620SOL    HW222320   4.141   2.341   2.262  0.6070  1.0182  1.2234
 3621SOL     OW22321   3.004   2.948   8.642 -0.1024 -0.3263  0.1037
 3621SOL    HW122322   3.012   2.876   8.580 -1.5034 -1.2103  0.9187
 3621SOL    HW222323   3.096   2.950   8.667 -0.2023  0.9842  0.3449
 3622SOL     OW22324   2.465   2.761  14.512 -0.3897 -0.7294 -0.0504
 3622SOL    HW122325   2.560   2.772  14.516 -0.6032  1.8170 -1.7812
 3622SOL    HW222326   2.456   2.701  14.437 -1.8089  0.6897 -1.0302
 3623SOL     OW22327   2.450   2.843   4.158 -0.3202  0.2982 -0.1668
 3623SOL    HW122328   2.465   2.921   4.105 -2.2753 -1.3392 -3.1016
 3623SOL    HW222329   2.359   2.869   4.171  0.3530  1.4100  2.4402
 3624SOL     OW22330   1.598   3.300   6.962 -0.3115  0.6894 -0.6774
 3624SOL    HW122331   1.612   3.279   6.870 -0.5574 -2.7967  0.0732
 3624SOL    HW222332   1.512   3.341   6.967 -0.4333  0.1566  1.5895
 3625SOL     OW22333   3.813   1.732   8.230  0.3953  0.0332  0.2738
 3625SOL    HW122334   3.758   1.810   8.229 -1.4654 -1.2793 -0.4064
 3625SOL    HW222335   3.813   1.717   8.135 -1.1378  0.0291  0.2803
 3626SOL     OW22336   1.489   2.676  13.887  0.1460  0.3945  0.3754
 3626SOL    HW122337   1.453   2.588  13.880  0.1168  0.4510 -0.1608
 3626SOL    HW222338   1.441   2.711  13.962 -1.0097 -1.2746  0.4147
 3627SOL     OW22339   1.855   1.071   3.007  0.4257  0.2057 -0.0856
 3627SOL    HW122340   1.787   1.049   3.071  0.3209 -1.4046 -0.7750
 3627SOL    HW222341   1.873   1.164   3.021  3.1470 -0.3882  0.3468
 3628SOL     OW22342   0.272   1.616   8.281  0.2704 -0.2032  0.2751
 3628SOL    HW122343   0.265   1.643   8.190 -0.6145  0.1490  0.4387
 3628SOL    HW222344   0.207   1.682   8.308  1.0685  1.2474 -1.3355
 3629SOL     OW22345   0.542   3.508  14.778 -0.4812 -0.4467 -0.4617
 3629SOL    HW122346   0.526   3.477  14.689  0.0480 -4.8621  0.9901
 3629SOL    HW222347   0.506   3.433  14.825  0.7041 -1.8555 -1.7960
 3630SOL     OW22348   2.656   3.051  15.856 -0.2625  0.3883  0.4860
 3630SOL    HW122349   2.691   3.127  15.903  1.6931  1.1416 -2.2231
 3630SOL    HW222350   2.562   3.066  15.840  0.7245  3.6306 -2.2622
 3631SOL     OW22351   0.293   1.781  13.300 -0.2669 -0.0123 -0.0928
 3631SOL    HW122352   0.338   1.724  13.363 -0.2191  0.2717  0.1297
 3631SOL    HW222353   0.253   1.838  13.365  0.0308  1.2133 -0.9958
 3632SOL     OW22354   3.469   3.062  14.056  0.0255  0.4831  0.3900
 3632SOL    HW122355   3.457   3.009  14.134 -0.7237  0.3727  0.1975
 3632SOL    HW222356   3.381   3.099  14.048  0.3469  1.0607 -0.5234
 3633SOL     OW22357   2.178   4.103  12.909  0.0863 -0.7580  0.0212
 3633SOL    HW122358   2.217   4.021  12.940 -0.6401 -1.8210 -1.9002
 3633SOL    HW222359   2.086   4.089  12.930 -0.6742  1.1740 -2.0160
 3634SOL     OW22360   1.208   2.683  11.780 -0.5900  0.4493 -0.0810
 3634SOL    HW122361   1.274   2.739  11.820  0.9794 -1.3502 -0.1511
 3634SOL    HW222362   1.132   2.715  11.829  0.2149  0.9781  0.8266
 3635SOL     OW22363   0.044   1.739   4.816  0.0918 -0.7559  0.0474
 3635SOL    HW122364   0.104   1.747   4.742  0.6010  0.5206  0.5954
 3635SOL    HW222365   0.073   1.662   4.864  1.5099 -0.2789 -0.0639
 3636SOL     OW22366   0.979   1.033  10.240  0.3865  0.1973 -0.3863
 3636SOL    HW122367   0.921   1.109  10.241  1.5505  1.0809 -0.3449
 3636SOL    HW222368   0.948   0.991  10.159  0.3780 -0.2006 -0.1787
 3637SOL     OW22369   4.262   3.081   2.909  0.6965  0.4701  0.3293
 3637SOL    HW122370   4.171   3.097   2.885  0.3251 -1.4999  0.4121
 3637SOL    HW222371   4.315   3.123   2.841  0.4313  0.5895  0.1956
 3638SOL     OW22372   0.602   1.948   6.253  0.1526  0.4844  0.0245
 3638SOL    HW122373   0.585   1.896   6.174  1.1404  1.8872 -1.1330
 3638SOL    HW222374   0.639   1.883   6.312 -0.6105  2.6232  2.8920
 3639SOL     OW22375   2.981   2.493   4.872 -0.4732 -0.2744  0.4112
 3639SOL    HW122376   3.017   2.448   4.797  0.7079 -1.4954  1.7278
 3639SOL    HW222377   2.891   2.460   4.867 -0.8443  0.6852  0.5863
 3640SOL     OW22378   2.323   3.446   3.044  0.2119 -0.1515  0.0253
 3640SOL    HW122379   2.289   3.364   3.079  1.2120  0.9795  3.6287
 3640SOL    HW222380   2.335   3.424   2.952 -0.6010 -0.3272 -0.0318
 3641SOL     OW22381   4.148   3.780   1.476  0.5483  0.1859  0.7931
 3641SOL    HW122382   4.188   3.698   1.448 -0.7778 -0.2719  0.2406
 3641SOL    HW222383   4.210   3.810   1.543 -0.8530 -0.4535  2.3774
 3642SOL     OW22384   2.574   1.529   3.817  0.0034 -0.5668  0.2846
 3642SOL    HW122385   2.483   1.511   3.844 -0.0052  0.9703  1.2508
 3642SOL    HW222386   2.594   1.456   3.758  0.7290  0.6565 -0.9622
 3643SOL     OW22387   4.081   0.289   2.345 -0.6249 -0.0085 -0.2832
 3643SOL    HW122388   4.055   0.197   2.339 -1.7367  0.1568  2.0796
 3643SOL    HW222389   4.118   0.284   2.432  0.5943  0.1686 -0.7926
 3644SOL     OW22390   2.787   1.560  16.353 -0.4880  0.3679 -0.0688
 3644SOL    HW122391   2.840   1.547  16.431 -1.6565 -0.8448  0.5193
 3644SOL    HW222392   2.852   1.600  16.295 -1.0195  1.6722  0.2463
 3645SOL     OW22393   4.059   3.554  14.435 -0.0235  0.0135 -0.0135
 3645SOL    HW122394   4.114   3.601  14.373 -0.7093  0.6440 -0.1570
 3645SOL    HW222395   4.112   3.476  14.450 -0.4389 -0.0623  1.0995
 3646SOL     OW22396   3.040   4.575   1.093 -0.1103 -0.4834 -0.3509
 3646SOL    HW122397   2.988   4.509   1.047  1.0056 -0.2646 -1.9610
 3646SOL    HW222398   2.973   4.622   1.141  0.5258 -0.6747  0.7276
 3647SOL     OW22399   1.914   4.065  12.956 -0.0532  0.1576 -0.2011
 3647SOL    HW122400   1.924   4.048  13.050  0.3036  0.2930 -0.2137
 3647SOL    HW222401   1.832   4.115  12.952 -0.5040 -0.4589  1.2851
 3648SOL     OW22402   3.867   3.141  11.098 -0.0352  0.4477  0.2707
 3648SOL    HW122403   3.862   3.181  11.185  1.6559 -2.3030  1.6346
 3648SOL    HW222404   3.959   3.159  11.080 -0.3269  1.0199 -0.6473
 3649SOL     OW22405   2.981   3.561  15.138 -0.1997  0.2368  0.1564
 3649SOL    HW122406   3.062   3.548  15.087  1.4881  1.2250  2.5554
 3649SOL    HW222407   3.020   3.552  15.225 -0.0155  1.9843  0.2605
 3650SOL     OW22408   1.766   3.802   6.657 -0.1722  0.0803 -0.6019
 3650SOL    HW122409   1.745   3.893   6.634 -0.6861  0.3291  0.8749
 3650SOL    HW222410   1.848   3.774   6.614  0.8071 -0.9563  1.9423
 3651SOL     OW22411   2.845   0.647   8.229 -0.0465  0.6198  0.2118
 3651SOL    HW122412   2.881   0.558   8.233 -1.1307  0.0499 -2.8211
 3651SOL    HW222413   2.917   0.690   8.182 -0.1495 -1.3162 -1.7139
 3652SOL     OW22414   3.523   3.845   8.353  0.1505  0.0577  0.1665
 3652SOL    HW122415   3.479   3.928   8.374 -2.0698 -0.9105 -0.6778
 3652SOL    HW222416   3.455   3.790   8.315  1.3545 -0.9937 -0.4690
 3653SOL     OW22417   1.116   0.071   8.397 -0.2153 -0.6959  0.1343
 3653SOL    HW122418   1.023   0.048   8.400 -0.7453  1.4640  0.2778
 3653SOL    HW222419   1.112   0.161   8.365  0.7483 -1.1907 -1.3902
 3654SOL     OW22420   1.962   2.566   6.364  0.4353 -0.3006  0.1126
 3654SOL    HW122421   2.014   2.553   6.444 -0.0589 -0.1999  0.4510
 3654SOL    HW222422   1.870   2.552   6.387  0.2852 -3.0325 -2.2460
 3655SOL     OW22423   0.833   3.169  12.533 -0.2728  0.3990  0.0425
 3655SOL    HW122424   0.817   3.111  12.608 -0.8637  0.9264  0.3287
 3655SOL    HW222425   0.854   3.098  12.473  1.4417 -0.8088  2.1019
 3656SOL     OW22426   0.041   3.653   5.563  0.0076 -0.1207  0.0895
 3656SOL    HW122427   0.023   3.713   5.491 -3.8122 -1.2006  0.1502
 3656SOL    HW222428   0.128   3.673   5.597  0.2379 -1.6411  0.3829
 3657SOL     OW22429   2.374   2.251  15.610 -0.2405 -0.0297 -0.1273
 3657SOL    HW122430   2.305   2.272  15.674 -0.9528  0.5514 -1.0723
 3657SOL    HW222431   2.390   2.339  15.575 -0.3440 -0.2072 -0.6179
 3658SOL     OW22432   4.610   4.460  14.248 -0.2407  0.1283 -0.3558
 3658SOL    HW122433   4.533   4.407  14.267  0.0650 -0.1061  0.2327
 3658SOL    HW222434   4.669   4.389  14.224 -0.0377  0.8681 -1.9984
 3659SOL     OW22435   0.413   1.308  11.981 -0.0266 -0.1079 -0.5494
 3659SOL    HW122436   0.326   1.335  11.954 -0.0493  0.0987 -0.2693
 3659SOL    HW222437   0.419   1.370  12.054  0.4679 -0.9285  0.1147
 3660SOL     OW22438   4.191   0.710  12.819 -0.2117 -0.0992  0.0894
 3660SOL    HW122439   4.273   0.757  12.834 -0.8539  0.4452  1.9503
 3660SOL    HW222440   4.138   0.732  12.896  1.7037 -1.1549  1.7171
 3661SOL     OW22441   1.002   1.939   3.251  0.3425  0.1624 -0.7168
 3661SOL    HW122442   1.022   2.012   3.310 -0.4574 -0.9618  0.9346
 3661SOL    HW222443   1.089   1.898   3.248  0.5917  0.5036  1.7739
 3662SOL     OW22444   3.698   1.395   3.826  0.4652 -0.2798  0.7390
 3662SOL    HW122445   3.749   1.314   3.829  1.2995  0.1659 -1.5618
 3662SOL    HW222446   3.753   1.457   3.779 -0.7346  2.0338  2.3448
 3663SOL     OW22447   1.367   2.079   4.824  0.3408  0.7029 -0.2795
 3663SOL    HW122448   1.360   1.984   4.830 -0.6211  0.8401  0.7768
 3663SOL    HW222449   1.342   2.089   4.916 -2.2749 -0.4892 -0.8730
 3664SOL     OW22450   4.038   2.731   8.413  0.1149  0.0877  0.1374
 3664SOL    HW122451   4.062   2.823   8.405 -1.7770  0.5321 -0.1903
 3664SOL    HW222452   3.995   2.714   8.329 -0.1418  0.2188  0.2430
 3665SOL     OW22453   2.581   1.234   6.457 -0.2174  0.4110  0.3949
 3665SOL    HW122454   2.630   1.234   6.375 -2.1070  0.6887 -0.7311
 3665SOL    HW222455   2.512   1.174   6.429 -0.0036  0.1362  0.4664
 3666SOL     OW22456   0.831   2.503  11.255  1.1554  0.0910 -0.0652
 3666SOL    HW122457   0.865   2.591  11.240  0.0885  1.0385  3.1613
 3666SOL    HW222458   0.866   2.491  11.343  0.6900 -1.6013 -0.1031
 3667SOL     OW22459   0.284   4.557   4.273 -0.6937  0.7602  0.1682
 3667SOL    HW122460   0.249   4.569   4.361 -0.9734  2.8826 -0.2300
 3667SOL    HW222461   0.301   4.464   4.286  1.8936  1.3294  0.7164
 3668SOL     OW22462   4.391   1.506  15.609  0.2637 -0.0074 -0.3999
 3668SOL    HW122463   4.422   1.568  15.675 -0.2809  0.4532 -0.5752
 3668SOL    HW222464   4.336   1.560  15.552 -0.2365  0.1618  0.2338
 3669SOL     OW22465   1.242   3.821   4.436  0.2076 -0.4565  0.4511
 3669SOL    HW122466   1.320   3.797   4.485 -1.1245 -0.5819  2.5339
 3669SOL    HW222467   1.178   3.829   4.508 -0.2499  1.4653 -0.1677
 3670SOL     OW22468   1.359   4.670  12.189  0.0292 -0.6105 -0.1440
 3670SOL    HW122469   1.432   4.608  12.184 -1.1268 -1.8414 -1.5029
 3670SOL    HW222470   1.371   4.692  12.282 -2.0035  2.5243 -0.6048
 3671SOL     OW22471   1.208   2.398   8.333 -0.0137 -0.3292  0.4071
 3671SOL    HW122472   1.122   2.357   8.324 -0.0928  0.2904 -1.5635
 3671SOL    HW222473   1.266   2.334   8.291 -0.2650 -0.6253  0.5086
 3672SOL     OW22474   4.473   3.048   5.852 -0.4905 -0.9188  0.1145
 3672SOL    HW122475   4.468   3.128   5.904 -0.3280  1.1053 -3.0178
 3672SOL    HW222476   4.392   3.000   5.869 -0.4149 -1.7593 -1.8540
 3673SOL     OW22477   1.284   3.867  12.816 -0.0276 -0.6159  0.1213
 3673SOL    HW122478   1.354   3.885  12.753 -0.3779  0.5678  0.0707
 3673SOL    HW222479   1.312   3.788  12.862  1.3481 -0.0112  0.3213
 3674SOL     OW22480   2.822   0.762  13.051  0.2412  0.1400 -0.1170
 3674SOL    HW122481   2.897   0.725  13.005  0.0073 -1.2225  0.5918
 3674SOL    HW222482   2.772   0.803  12.981 -0.6595  0.5697  0.7743
 3675SOL     OW22483   3.381   0.010   9.012 -0.0017  0.3544 -0.7046
 3675SOL    HW122484   3.365   0.041   9.102  1.0183  1.2149 -0.8301
 3675SOL    HW222485   3.302   4.684   8.981 -0.9216  0.2994  1.6846
 3676SOL     OW22486   0.161   0.243   6.431 -0.0163  0.1510 -0.1960
 3676SOL    HW122487   0.250   0.236   6.465 -0.2221 -0.9194  0.1288
 3676SOL    HW222488   0.154   0.167   6.373 -0.0468 -0.2107  0.2854
 3677SOL     OW22489   3.882   4.271   9.274  0.7081 -0.0844  0.0937
 3677SOL    HW122490   3.910   4.220   9.350 -3.3320 -1.2353  0.8016
 3677SOL    HW222491   3.965   4.302   9.237 -0.6203  1.0593 -1.8904
 3678SOL     OW22492   1.183   0.806  11.086 -0.3702  0.5658  0.2905
 3678SOL    HW122493   1.093   0.791  11.114  0.0681 -0.0675  1.3522
 3678SOL    HW222494   1.230   0.751  11.149  0.7105  0.3186 -0.7353
 3679SOL     OW22495   2.535   4.226   5.722 -0.0400  0.0882 -0.3052
 3679SOL    HW122496   2.566   4.297   5.664 -0.6599 -0.3879 -1.2137
 3679SOL    HW222497   2.461   4.279   5.753  1.3724  2.1753 -0.4429
 3680SOL     OW22498   3.996   3.879   1.850  0.5350 -0.5707 -0.3352
 3680SOL    HW122499   4.012   3.826   1.771 -0.5515  0.7290 -1.4348
 3680SOL    HW222500   4.060   3.950   1.849  0.9704 -0.9437  0.7125
 3681SOL     OW22501   1.757   3.784   7.989 -0.6421 -0.3521  0.3905
 3681SOL    HW122502   1.752   3.690   8.008  0.1513 -0.0779  1.9338
 3681SOL    HW222503   1.774   3.812   8.079  0.1216  0.8009 -0.1102
 3682SOL     OW22504   0.639   3.247   4.161 -0.2515  0.8683 -0.1563
 3682SOL    HW122505   0.589   3.248   4.080  1.1369 -3.3749 -1.0953
 3682SOL    HW222506   0.630   3.337   4.191  0.4399  0.1171  2.3616
 3683SOL     OW22507   1.006   1.519   6.125 -0.5232 -0.3065 -0.2411
 3683SOL    HW122508   0.960   1.450   6.173 -3.4400 -0.1899 -2.8417
 3683SOL    HW222509   0.999   1.495   6.033 -0.3406  2.9615 -1.1037
 3684SOL     OW22510   4.406   4.255  14.231 -0.4278  0.0771 -0.3074
 3684SOL    HW122511   4.454   4.173  14.241 -0.6919 -0.0422 -0.0233
 3684SOL    HW222512   4.327   4.234  14.181 -1.3828 -1.5793  1.9534
 3685SOL     OW22513   1.331   1.645  11.718  0.2576  0.0604 -0.8652
 3685SOL    HW122514   1.380   1.724  11.697  0.1065  1.0158  2.3270
 3685SOL    HW222515   1.400   1.603  11.769  0.0547  0.5285 -0.2034
 3686SOL     OW22516   3.996   0.957  15.518  0.0307 -0.6357 -0.5747
 3686SOL    HW122517   3.994   0.971  15.613 -2.4345 -0.5001 -0.6498
 3686SOL    HW222518   3.926   1.013  15.486 -0.9401 -1.7606 -0.4236
 3687SOL     OW22519   3.965   3.028   0.603  0.4580  0.0825  0.2259
 3687SOL    HW122520   3.959   2.932   0.599 -3.3215  0.3625 -0.7120
 3687SOL    HW222521   3.894   3.058   0.660 -0.8673 -1.3132 -0.7036
 3688SOL     OW22522   4.454   4.193  11.572 -0.0213 -0.3866 -0.0153
 3688SOL    HW122523   4.361   4.195  11.548 -0.4701  1.0095  1.8259
 3688SOL    HW222524   4.464   4.102  11.601  0.6281 -0.1607  0.4648
 3689SOL     OW22525   0.942   0.248   8.189  0.7838  0.3679  0.7779
 3689SOL    HW122526   0.904   0.312   8.129  1.3398  0.5585  0.6344
 3689SOL    HW222527   0.989   0.309   8.245  3.4763  2.2624 -3.5651
 3690SOL     OW22528   0.293   3.698   5.660 -0.3688 -0.2753 -0.9010
 3690SOL    HW122529   0.280   3.740   5.745 -0.0544  1.9869 -1.9767
 3690SOL    HW222530   0.384   3.676   5.680 -0.8014 -1.2372  0.0049
 3691SOL     OW22531   1.760   2.817   9.364  0.0700 -0.0842  0.7015
 3691SOL    HW122532   1.708   2.893   9.392 -0.6169  0.1632 -1.2173
 3691SOL    HW222533   1.847   2.852   9.346  1.4068 -2.8704  1.8411
 3692SOL     OW22534   3.361   2.553  12.476 -0.1305 -0.5175  0.1311
 3692SOL    HW122535   3.407   2.558  12.560 -0.8154 -1.2586  0.5479
 3692SOL    HW222536   3.313   2.634  12.486  0.0226 -0.5444  1.0391
 3693SOL     OW22537   0.656   4.653   6.469 -0.0692  0.3762  0.4849
 3693SOL    HW122538   0.720   4.642   6.399 -2.6601  2.3209 -2.2169
 3693SOL    HW222539   0.696   0.006   6.517 -1.3771  0.9760  0.6772
 3694SOL     OW22540   2.135   4.393   6.488 -0.1597 -0.3873 -0.4414
 3694SOL    HW122541   2.177   4.371   6.571 -1.1957 -0.4565  0.0623
 3694SOL    HW222542   2.042   4.373   6.501 -0.2916 -0.5467 -1.6445
 3695SOL     OW22543   2.527   1.746   4.173  0.8579 -0.2562  0.2245
 3695SOL    HW122544   2.443   1.747   4.220  0.0437  0.2471 -1.2687
 3695SOL    HW222545   2.532   1.653   4.150  3.0295 -0.3550  1.1095
 3696SOL     OW22546   0.033   2.517   3.475 -0.3879  0.0883 -0.3131
 3696SOL    HW122547   0.094   2.498   3.404  0.4726 -0.9061  0.7011
 3696SOL    HW222548   4.696   2.441   3.458  3.2704 -2.4242 -1.0312
 3697SOL     OW22549   3.743   3.030   6.524  0.2760 -0.0309 -0.3016
 3697SOL    HW122550   3.817   2.981   6.560 -1.0530 -1.7960  0.0379
 3697SOL    HW222551   3.674   3.034   6.590  0.5940 -0.2895  0.0516
 3698SOL     OW22552   3.696   4.012   8.197 -0.0544 -0.2102 -0.2395
 3698SOL    HW122553   3.650   3.951   8.254  2.6561 -1.6432  0.4059
 3698SOL    HW222554   3.622   4.031   8.139  1.2572 -1.4902 -2.3177
 3699SOL     OW22555   2.769   0.714   3.585  0.0066 -0.1016  0.1103
 3699SOL    HW122556   2.801   0.743   3.500 -0.5187  0.5953  0.1450
 3699SOL    HW222557   2.849   0.682   3.625  0.2342 -1.4019 -1.3906
 3700SOL     OW22558   3.135   2.644  10.175  0.3317  0.1785  0.0391
 3700SOL    HW122559   3.045   2.614  10.164 -0.0091  1.8250 -1.6023
 3700SOL    HW222560   3.183   2.616  10.098 -0.3778 -0.4273 -0.1785
 3701SOL     OW22561   3.640   2.643   4.754 -0.0540  0.3093  0.4556
 3701SOL    HW122562   3.621   2.551   4.772 -0.1712  0.1157 -0.6702
 3701SOL    HW222563   3.548   2.668   4.748 -0.3352 -0.2559  2.3114
 3702SOL     OW22564   2.350   2.128   2.459 -0.1413 -0.1433 -0.1701
 3702SOL    HW122565   2.402   2.200   2.496  0.6456  0.0403 -1.6176
 3702SOL    HW222566   2.368   2.050   2.512  0.7733  0.1063 -0.0999
 3703SOL     OW22567   2.405   1.795  15.148 -0.0037 -0.9449  0.0927
 3703SOL    HW122568   2.482   1.769  15.098 -1.8862  1.1963 -3.9364
 3703SOL    HW222569   2.450   1.849  15.213 -0.4426 -0.4607 -0.0020
 3704SOL     OW22570   2.409   3.927   3.241  0.0789 -0.0140 -0.1522
 3704SOL    HW122571   2.499   3.945   3.214  0.3539  0.3537  0.9980
 3704SOL    HW222572   2.393   3.841   3.202  0.9612  0.2760 -1.1536
 3705SOL     OW22573   4.567   3.061   6.167 -0.8931  0.4598 -0.5333
 3705SOL    HW122574   4.504   2.989   6.164  0.8957 -1.1205 -0.3294
 3705SOL    HW222575   4.656   3.023   6.167 -0.3152  1.7960 -2.2974
 3706SOL     OW22576   1.984   4.477  16.242 -0.3089  0.2307 -0.0642
 3706SOL    HW122577   2.034   4.418  16.299 -0.9567  1.7017  2.0041
 3706SOL    HW222578   2.054   4.497  16.180 -0.1347 -2.1994 -0.6556
 3707SOL     OW22579   1.103   4.107   8.434  0.5283  0.3465  0.0984
 3707SOL    HW122580   1.050   4.086   8.510  0.4502 -0.4186 -0.1721
 3707SOL    HW222581   1.142   4.190   8.461  0.6477  1.1046 -2.3553
 3708SOL     OW22582   2.700   3.400   6.399  0.1472  0.1294 -0.3305
 3708SOL    HW122583   2.646   3.479   6.389 -1.6687 -1.4369 -2.6292
 3708SOL    HW222584   2.635   3.350   6.447  0.6694  0.1300  0.3864
 3709SOL     OW22585   1.202   1.106  17.526  0.0753 -0.0824 -0.0231
 3709SOL    HW122586   1.140   1.160  17.576 -0.1404 -1.0868  0.7764
 3709SOL    HW222587   1.275   1.092  17.586  0.4447  0.6301 -0.3097
 3710SOL     OW22588   4.559   3.946   8.077  0.0232  0.7899  0.3186
 3710SOL    HW122589   4.654   3.941   8.067 -0.1935 -1.9348 -0.5323
 3710SOL    HW222590   4.548   3.946   8.172 -0.0619  1.7187  0.3064
 3711SOL     OW22591   0.199   1.761   7.120  0.2779  0.3078  0.0106
 3711SOL    HW122592   0.103   1.762   7.128  0.1888 -0.1393 -1.0096
 3711SOL    HW222593   0.212   1.667   7.106 -1.2093 -0.2446  2.2707
 3712SOL     OW22594   1.594   1.478   6.105  0.1058 -0.7113 -0.1931
 3712SOL    HW122595   1.616   1.496   6.197 -1.5294 -0.3363  0.1233
 3712SOL    HW222596   1.522   1.415   6.115 -0.8850  0.6690  1.4860
 3713SOL     OW22597   0.642   2.694  15.984 -0.3566 -0.6331 -0.2924
 3713SOL    HW122598   0.600   2.612  15.956 -1.9166  0.9245 -2.5010
 3713SOL    HW222599   0.691   2.726  15.908 -3.7463 -0.0375 -2.2327
 3714SOL     OW22600   0.506   3.865   4.265  0.5285  0.2595  0.7240
 3714SOL    HW122601   0.591   3.824   4.280 -0.0531 -1.6662 -1.3791
 3714SOL    HW222602   0.502   3.900   4.354  1.0961 -0.7641  1.1463
 3715SOL     OW22603   1.902   2.551  16.671 -0.6215  0.1277 -0.6549
 3715SOL    HW122604   1.947   2.612  16.614  0.9201 -0.4056 -0.0026
 3715SOL    HW222605   1.927   2.582  16.758 -0.0322  1.3272 -1.2502
 3716SOL     OW22606   3.816   1.295  16.538  0.0640  0.7290  0.3232
 3716SOL    HW122607   3.809   1.390  16.532 -0.2390  0.7395  0.8593
 3716SOL    HW222608   3.836   1.282  16.631 -0.1473  0.3365  0.3137
 3717SOL     OW22609   3.502   2.577   8.416 -0.5951 -0.1656  0.2554
 3717SOL    HW122610   3.541   2.514   8.477  2.6593  0.0798 -1.5689
 3717SOL    HW222611   3.428   2.606   8.469 -0.0027  2.8044 -0.5042
 3718SOL     OW22612   2.417   4.489   1.710  0.3303  0.1522  0.0095
 3718SOL    HW122613   2.502   4.528   1.734 -0.5283  0.5449  2.5031
 3718SOL    HW222614   2.437   4.400   1.682  1.3290  1.4062 -3.2026
 3719SOL     OW22615   3.745   3.402   8.944 -0.5854 -0.1942 -0.6301
 3719SOL    HW122616   3.746   3.401   9.040  0.0223  3.0446 -0.6229
 3719SOL    HW222617   3.785   3.316   8.930  1.5692  0.4987  1.2451
 3720SOL     OW22618   1.913   4.092   3.498  0.8070  0.4927 -0.7840
 3720SOL    HW122619   1.853   4.158   3.464  0.0392  0.2914  0.1479
 3720SOL    HW222620   1.859   4.012   3.502  0.0827  1.0022 -0.3933
 3721SOL     OW22621   2.383   0.070   3.490 -0.3775  0.3425  0.1755
 3721SOL    HW122622   2.369   0.157   3.452 -1.4973 -0.8869 -2.2059
 3721SOL    HW222623   2.382   0.091   3.584 -0.5932 -0.2942  0.3140
 3722SOL     OW22624   0.883   0.243   6.343 -0.2312  0.0927  0.0784
 3722SOL    HW122625   0.975   0.248   6.370  0.2046 -1.2019 -1.1910
 3722SOL    HW222626   0.886   0.152   6.316  0.1198 -0.5357  2.2214
 3723SOL     OW22627   1.119   1.021   7.345  0.1417  0.4567 -0.5518
 3723SOL    HW122628   1.071   1.078   7.284 -1.1186  0.4351  0.4033
 3723SOL    HW222629   1.205   1.024   7.305 -0.3536  0.7387 -1.5905
 3724SOL     OW22630   4.376   0.746   9.218 -0.8257  0.6321  0.6189
 3724SOL    HW122631   4.314   0.782   9.282 -1.1086  0.1742  0.5977
 3724SOL    HW222632   4.415   0.677   9.271 -1.0983 -0.3091 -0.4110
 3725SOL     OW22633   2.100   4.056   2.708 -0.0749  0.2938 -0.0594
 3725SOL    HW122634   2.127   3.965   2.698  1.0311  0.6969 -0.7880
 3725SOL    HW222635   2.128   4.082   2.620 -2.0651  1.0155 -0.4846
 3726SOL     OW22636   1.660   3.154   3.538  0.0368 -0.2185 -0.0743
 3726SOL    HW122637   1.623   3.084   3.485  0.0860  1.6741 -2.6034
 3726SOL    HW222638   1.632   3.128   3.626 -1.1895  0.5851 -0.2320
 3727SOL     OW22639   2.126   0.614   3.288 -0.2238  0.0120  0.1076
 3727SOL    HW122640   2.221   0.620   3.296 -0.1767 -0.9391  0.1902
 3727SOL    HW222641   2.097   0.679   3.223  0.8409 -1.6830 -2.0624
 3728SOL     OW22642   3.418   1.032   7.713 -0.0068  0.2065  0.1076
 3728SOL    HW122643   3.372   0.962   7.760 -2.9536  0.8548 -1.7918
 3728SOL    HW222644   3.392   1.113   7.756  0.8259  0.1644  0.6805
 3729SOL     OW22645   1.217   1.806  15.798 -0.1700 -0.0782 -0.3888
 3729SOL    HW122646   1.223   1.715  15.828 -1.4876  0.0302  0.1901
 3729SOL    HW222647   1.169   1.790  15.717 -0.9442  0.6535 -0.0834
 3730SOL     OW22648   3.832   3.432   4.789 -0.2875 -0.4015  0.4036
 3730SOL    HW122649   3.852   3.517   4.829  0.5397 -0.0386 -0.7819
 3730SOL    HW222650   3.873   3.381   4.859  0.8584 -0.4168 -0.2887
 3731SOL     OW22651   2.229   0.150   8.191  0.1447  0.7331  0.1825
 3731SOL    HW122652   2.221   0.219   8.256  1.2212  1.2625 -0.2392
 3731SOL    HW222653   2.200   0.202   8.116 -2.0648  0.7261  1.0409
 3732SOL     OW22654   1.922   1.321   3.082 -0.1341  0.1410 -0.3153
 3732SOL    HW122655   2.005   1.359   3.054  0.5196  0.6061  2.2348
 3732SOL    HW222656   1.860   1.380   3.040 -1.0656 -0.5835  0.0372
 3733SOL     OW22657   2.517   0.911   6.229 -0.0089  0.4552 -0.1434
 3733SOL    HW122658   2.509   0.816   6.222 -0.1009  0.2862  2.4124
 3733SOL    HW222659   2.602   0.926   6.270 -0.9171 -0.0405  1.8913
 3734SOL     OW22660   3.763   3.726   6.259  0.5886  0.4300 -0.5302
 3734SOL    HW122661   3.720   3.641   6.266  1.4755  0.0244 -0.0976
 3734SOL    HW222662   3.731   3.769   6.338  1.2396  0.9350 -0.5379
 3735SOL     OW22663   3.377   3.156   3.930  0.0701 -0.0689  0.3119
 3735SOL    HW122664   3.308   3.183   3.870 -0.3449 -1.3717  0.2021
 3735SOL    HW222665   3.436   3.125   3.862  0.3845  2.0354 -0.3928
 3736SOL     OW22666   0.622   3.609   5.139 -0.2385  0.4588  0.3199
 3736SOL    HW122667   0.575   3.568   5.067 -0.1869  1.2745 -0.1646
 3736SOL    HW222668   0.713   3.596   5.112  0.1061 -0.4703  1.8940
 3737SOL     OW22669   0.281   1.219   2.714 -0.4073  0.3715  0.3303
 3737SOL    HW122670   0.331   1.146   2.753 -0.7623 -0.4137 -0.6848
 3737SOL    HW222671   0.190   1.193   2.730 -0.2020  0.4855  1.6430
 3738SOL     OW22672   1.713   2.772   7.230 -0.1486  0.1900 -0.0219
 3738SOL    HW122673   1.756   2.809   7.306  1.3912  0.2151 -0.8999
 3738SOL    HW222674   1.712   2.853   7.178 -2.0546  0.6148  0.6802
 3739SOL     OW22675   3.378   0.375   1.458 -0.4854  0.3503 -0.0779
 3739SOL    HW122676   3.368   0.469   1.473  0.9507  0.4282  0.4490
 3739SOL    HW222677   3.292   0.336   1.474  0.0619 -0.0170  2.0339
 3740SOL     OW22678   1.495   0.795   1.608  0.1730  0.3198 -1.1548
 3740SOL    HW122679   1.531   0.711   1.635 -0.9914  0.1010 -0.2749
 3740SOL    HW222680   1.561   0.851   1.649 -1.1766  2.1328 -1.4477
 3741SOL     OW22681   3.773   3.778   1.389 -0.3645  0.0631  0.4528
 3741SOL    HW122682   3.798   3.866   1.417  0.5943  0.3516 -1.2890
 3741SOL    HW222683   3.813   3.720   1.453  0.6947 -1.6424 -1.7524
 3742SOL     OW22684   3.542   3.484   5.690 -0.3683  0.6839 -0.2283
 3742SOL    HW122685   3.561   3.444   5.606  1.1592  0.7084  0.1069
 3742SOL    HW222686   3.469   3.424   5.709 -0.0755  0.2598 -0.4434
 3743SOL     OW22687   0.941   4.412   7.314  0.0334  0.0606 -0.1630
 3743SOL    HW122688   0.863   4.434   7.364 -1.2491 -0.5063 -1.9139
 3743SOL    HW222689   0.954   4.317   7.315 -0.6089 -0.0298 -0.5094
 3744SOL     OW22690   0.193   3.105  16.893 -0.7105 -0.1993 -0.2904
 3744SOL    HW122691   0.191   3.072  16.983  1.3858  0.3356 -0.0417
 3744SOL    HW222692   0.258   3.175  16.902 -1.5423  0.4331  0.7414
 3745SOL     OW22693   2.495   2.840   3.592 -0.1066  0.1564  0.6378
 3745SOL    HW122694   2.562   2.796   3.539  1.0003  2.4430  0.1404
 3745SOL    HW222695   2.548   2.909   3.634  0.0885  0.2091  0.3019
 3746SOL     OW22696   1.150   3.383   5.338  1.5525 -0.5151  0.2508
 3746SOL    HW122697   1.091   3.459   5.344 -1.0615 -2.4752 -0.6447
 3746SOL    HW222698   1.119   3.350   5.253  0.8637  0.5356  0.0816
 3747SOL     OW22699   2.989   3.344   3.583 -0.2860 -0.1513 -0.0368
 3747SOL    HW122700   2.964   3.309   3.498  0.5015  0.6028 -0.5798
 3747SOL    HW222701   2.980   3.438   3.569 -1.0892  0.0695  1.9094
 3748SOL     OW22702   0.234   3.924   6.507  0.3557 -0.5343 -0.1077
 3748SOL    HW122703   0.252   3.914   6.414  2.7363 -0.6763  0.3756
 3748SOL    HW222704   0.314   3.911   6.556  0.3279  0.5860  0.2515
 3749SOL     OW22705   2.621   3.564   6.769  0.3268 -0.0912 -0.2342
 3749SOL    HW122706   2.672   3.492   6.806  2.7544  2.1407  0.7511
 3749SOL    HW222707   2.553   3.566   6.836  0.5927  0.2294  0.0236
 3750SOL     OW22708   3.564   2.850   2.212  0.9618 -0.4776  0.1453
 3750SOL    HW122709   3.541   2.942   2.197 -0.3419 -1.2298 -2.4054
 3750SOL    HW222710   3.614   2.868   2.292 -1.1526  0.7795  1.1892
 3751SOL     OW22711   0.612   1.384   9.940 -0.4549  0.3552 -0.1749
 3751SOL    HW122712   0.619   1.395  10.035  1.6234 -1.6390 -0.1045
 3751SOL    HW222713   0.553   1.455   9.915 -0.2358  0.2542 -0.9852
 3752SOL     OW22714   0.171   4.579   6.054  0.1618  0.1813  0.7022
 3752SOL    HW122715   0.158   4.499   6.104  1.6529 -0.8770 -0.6243
 3752SOL    HW222716   0.108   4.555   5.986 -1.0275  2.7967  0.8589
 3753SOL     OW22717   4.584   3.208  16.397  0.6868 -0.1152 -0.0367
 3753SOL    HW122718   4.567   3.172  16.484 -2.6654 -0.6520 -0.9104
 3753SOL    HW222719   4.611   3.136  16.342  0.9663 -0.5898  0.7177
 3754SOL     OW22720   1.287   1.947   8.527 -0.2734 -0.3497 -0.3188
 3754SOL    HW122721   1.302   2.019   8.589 -0.1639 -0.1694 -0.5552
 3754SOL    HW222722   1.311   1.880   8.591  0.1923  0.5482  0.4384
 3755SOL     OW22723   0.828   1.549   5.118 -0.0591 -0.0445  0.1273
 3755SOL    HW122724   0.890   1.616   5.091 -1.2746  1.4182  0.9547
 3755SOL    HW222725   0.836   1.483   5.049 -0.3699 -0.8097  0.8074
 3756SOL     OW22726   1.713   1.636  17.163 -0.1313  0.3893  0.5139
 3756SOL    HW122727   1.653   1.563  17.175  2.5447 -1.8622  0.2725
 3756SOL    HW222728   1.645   1.703  17.169 -2.0016 -1.3682 -1.3062
 3757SOL     OW22729   3.606   0.823   0.239 -0.5286 -0.7820  0.1033
 3757SOL    HW122730   3.674   0.868   0.189  0.6806 -1.4125  1.1915
 3757SOL    HW222731   3.602   0.735   0.202  1.4632 -0.9549  0.3399
 3758SOL     OW22732   0.471   2.583  15.151  0.0461 -0.1366 -0.1549
 3758SOL    HW122733   0.549   2.640  15.149  1.8314 -2.4890  1.7457
 3758SOL    HW222734   0.483   2.533  15.071 -1.2955 -0.4844 -0.1244
 3759SOL     OW22735   4.685   1.485   2.222 -0.2590  0.5366  0.0881
 3759SOL    HW122736   4.646   1.527   2.146  0.7807 -0.2537 -0.8829
 3759SOL    HW222737   4.623   1.415   2.240 -0.9641  0.8782 -1.0867
 3760SOL     OW22738   2.150   2.719   4.335  0.0169 -0.0517  0.0624
 3760SOL    HW122739   2.173   2.765   4.416  2.0641  1.8516 -1.5954
 3760SOL    HW222740   2.214   2.648   4.342  0.3943  0.2542 -0.2740
 3761SOL     OW22741   1.281   2.034  10.118 -0.2864  0.0486  0.4174
 3761SOL    HW122742   1.317   2.003  10.201  2.5373  1.2885 -0.3620
 3761SOL    HW222743   1.323   2.118  10.099  1.4084 -1.0304 -0.5483
 3762SOL     OW22744   0.174   0.497  10.973 -0.1260  0.2986 -0.1798
 3762SOL    HW122745   0.093   0.449  10.993 -0.2707  0.0862 -1.2643
 3762SOL    HW222746   0.190   0.557  11.045 -1.9608  0.1821  0.3253
 3763SOL     OW22747   0.483   2.054   9.536  0.1868 -0.1950  0.0008
 3763SOL    HW122748   0.561   2.087   9.492  0.1636  0.7686  0.6921
 3763SOL    HW222749   0.523   1.976   9.574 -3.0695 -1.8421  0.0704
 3764SOL     OW22750   1.097   3.957   3.015 -0.6185  0.0123  0.2452
 3764SOL    HW122751   1.187   3.928   3.001 -1.7139 -2.8816 -0.9918
 3764SOL    HW222752   1.105   4.050   2.997  1.5879  0.1768  2.1075
 3765SOL     OW22753   2.016   4.675   9.820 -0.2625  0.2883  0.0905
 3765SOL    HW122754   2.014   0.024   9.753  0.1504  0.8689  0.6607
 3765SOL    HW222755   2.109   4.658   9.832 -0.5771 -0.2869  1.6765
 3766SOL     OW22756   1.632   3.131   6.085 -0.5944 -0.7534  0.2579
 3766SOL    HW122757   1.682   3.202   6.123 -0.5768  0.0585 -1.2500
 3766SOL    HW222758   1.701   3.065   6.084  1.5145  1.4487  0.9121
 3767SOL     OW22759   1.945   1.542   7.745  0.3014 -0.3768  0.4930
 3767SOL    HW122760   2.020   1.558   7.687  0.2396  2.1439  1.1091
 3767SOL    HW222761   1.905   1.628   7.755 -0.9543 -1.3186  3.5812
 3768SOL     OW22762   0.866   2.759   3.857  0.0307 -0.1553  0.0148
 3768SOL    HW122763   0.782   2.798   3.881  0.7004  2.0462 -1.2118
 3768SOL    HW222764   0.877   2.710   3.939 -2.6286 -0.5079  0.1777
 3769SOL     OW22765   0.264   1.215   4.989  0.7427  0.2657  0.5479
 3769SOL    HW122766   0.341   1.258   5.025  1.9843 -1.0346 -0.5863
 3769SOL    HW222767   0.267   1.251   4.900 -1.5989 -3.2362 -0.9531
 3770SOL     OW22768   2.492   2.107   4.345 -0.1173 -0.1826 -0.1668
 3770SOL    HW122769   2.510   2.035   4.405 -1.0419  0.3607  0.7491
 3770SOL    HW222770   2.576   2.122   4.302  0.0845 -0.2830  0.1902
 3771SOL     OW22771   2.400   0.971   5.392  0.1486 -0.2382 -0.2152
 3771SOL    HW122772   2.334   1.003   5.454 -1.5756 -0.9560 -1.6753
 3771SOL    HW222773   2.472   1.025   5.425 -1.0161  0.9046  0.4839
 3772SOL     OW22774   3.894   4.621   2.067 -0.2300  0.1686  0.3305
 3772SOL    HW122775   3.826   4.640   2.002  0.3655 -0.4068 -0.4617
 3772SOL    HW222776   3.972   4.629   2.012 -0.3983 -0.8629 -0.0666
 3773SOL     OW22777   3.905   4.271  10.911  0.1045  0.4417  0.1336
 3773SOL    HW122778   3.815   4.273  10.945  0.7724 -0.5615  1.9446
 3773SOL    HW222779   3.961   4.309  10.979 -0.2621 -2.4422  2.0167
 3774SOL     OW22780   1.129   1.700   7.307  0.6700  0.0511  0.0037
 3774SOL    HW122781   1.167   1.763   7.246 -0.2470  0.0411 -0.5874
 3774SOL    HW222782   1.066   1.646   7.258  1.7538  1.2812 -2.7404
 3775SOL     OW22783   1.069   2.044  15.936  0.3192 -0.3303 -0.6613
 3775SOL    HW122784   1.076   2.109  16.006 -1.9288  0.0070 -0.7555
 3775SOL    HW222785   1.159   2.014  15.925  0.7090  0.7758 -0.4674
 3776SOL     OW22786   3.529   3.113   9.100 -0.4244  0.4066 -0.0723
 3776SOL    HW122787   3.479   3.042   9.141 -0.8956  0.0666 -1.2319
 3776SOL    HW222788   3.612   3.075   9.129  0.3701  0.0201 -2.8900
 3777SOL     OW22789   0.051   1.914   8.093 -0.0245  0.0816  0.3189
 3777SOL    HW122790   0.074   1.843   8.032 -0.5883  0.7466 -0.6718
 3777SOL    HW222791   0.129   1.934   8.144  1.3718  0.3474 -1.9312
 3778SOL     OW22792   0.892   2.562   7.595 -0.0499 -0.1583  0.0051
 3778SOL    HW122793   0.828   2.605   7.651  0.7311  0.0178  0.7653
 3778SOL    HW222794   0.907   2.478   7.639  1.7547 -0.2518 -0.7713
 3779SOL     OW22795   2.211   3.211   2.529  0.6337  0.7137  0.2726
 3779SOL    HW122796   2.225   3.298   2.567  0.7937  1.0233 -0.5066
 3779SOL    HW222797   2.154   3.244   2.459  0.6034 -2.3243 -1.1430
 3780SOL     OW22798   1.263   2.969  15.011  0.1895 -0.8259  0.1202
 3780SOL    HW122799   1.283   3.063  15.019 -0.0187 -0.8083  0.4324
 3780SOL    HW222800   1.335   2.937  14.956 -0.1860  0.0056 -0.8705
 3781SOL     OW22801   1.535   3.423   3.369  0.4053  0.1584 -0.3929
 3781SOL    HW122802   1.527   3.357   3.438 -1.7314 -1.8422 -2.5344
 3781SOL    HW222803   1.627   3.410   3.344 -0.0636 -2.8796 -0.5673
 3782SOL     OW22804   4.262   3.455   8.344  0.1989  0.0589  0.1594
 3782SOL    HW122805   4.202   3.529   8.334  1.9683  1.5226  0.3683
 3782SOL    HW222806   4.204   3.402   8.399  0.6692 -0.1908  0.4156
 3783SOL     OW22807   2.064   0.487  14.191 -0.0939  0.4590  0.1428
 3783SOL    HW122808   2.102   0.419  14.247  0.2696 -0.3169 -1.0387
 3783SOL    HW222809   2.142   0.542  14.185 -0.9003  1.6712  0.8474
 3784SOL     OW22810   4.252   0.313   9.476  0.1641 -0.0714 -0.5685
 3784SOL    HW122811   4.332   0.360   9.501  0.7417 -1.1576 -0.3875
 3784SOL    HW222812   4.238   0.260   9.555  1.0457 -1.1823 -1.1586
 3785SOL     OW22813   3.295   0.971   7.482  0.6055 -0.3945 -0.1650
 3785SOL    HW122814   3.213   0.954   7.529 -1.2183  0.6713 -2.9588
 3785SOL    HW222815   3.354   1.005   7.548  0.8885  1.1074 -1.1796
 3786SOL     OW22816   0.761   2.860  14.767 -0.0019 -0.1557  0.3174
 3786SOL    HW122817   0.773   2.902  14.852 -1.2172  0.3520  0.2385
 3786SOL    HW222818   0.777   2.937  14.713  0.7315 -1.4567 -1.3118
 3787SOL     OW22819   2.114   1.814   7.235 -0.0848  0.4080 -0.1550
 3787SOL    HW122820   2.102   1.738   7.292 -2.4207  0.6570 -0.3493
 3787SOL    HW222821   2.027   1.828   7.198 -0.0540 -1.1843 -0.8061
 3788SOL     OW22822   2.216   1.584   1.271  0.2799 -0.2572 -0.1521
 3788SOL    HW122823   2.268   1.643   1.325 -1.1574  0.8817  0.0014
 3788SOL    HW222824   2.182   1.522   1.335  0.3820 -1.2798 -1.0729
 3789SOL     OW22825   3.274   1.212   8.204 -0.3197  0.4993  0.2358
 3789SOL    HW122826   3.209   1.266   8.159 -0.0435 -0.8621 -1.8172
 3789SOL    HW222827   3.294   1.266   8.280 -0.4560 -0.4128  0.9130
 3790SOL     OW22828   1.224   3.633  12.991 -0.0713  0.0127  0.7561
 3790SOL    HW122829   1.226   3.542  13.018 -1.2108 -0.3479 -0.3875
 3790SOL    HW222830   1.146   3.670  13.033  0.9714  0.7276  2.0529
 3791SOL     OW22831   1.008   1.311   2.988  0.0576 -0.2540 -0.1482
 3791SOL    HW122832   0.967   1.394   3.011  0.4180 -0.5620  1.6748
 3791SOL    HW222833   1.001   1.325   2.894 -1.9329 -1.3633 -0.1707
 3792SOL     OW22834   3.896   3.719   0.375  0.1131  0.1288  0.2982
 3792SOL    HW122835   3.844   3.639   0.389  1.3862 -1.1820 -2.4519
 3792SOL    HW222836   3.951   3.723   0.453 -3.3669 -0.4109  2.8244
 3793SOL     OW22837   3.371   2.331   6.965  0.1183 -0.2266  0.2443
 3793SOL    HW122838   3.294   2.386   6.950 -0.3098 -0.5814  1.1225
 3793SOL    HW222839   3.439   2.374   6.913  1.7342 -1.9042  0.9979
 3794SOL     OW22840   4.583   0.708   6.933 -0.1447  0.1027 -0.1317
 3794SOL    HW122841   4.597   0.671   6.846 -0.0430 -1.0731  0.3824
 3794SOL    HW222842   4.669   0.677   6.963 -0.0096  1.6185  1.0713
 3795SOL     OW22843   4.144   4.665   9.384 -0.4903  0.7338  0.1865
 3795SOL    HW122844   4.127   0.015   9.319 -0.7864 -0.6352 -1.1910
 3795SOL    HW222845   4.222   4.615   9.361  0.1104  1.5860  0.3720
 3796SOL     OW22846   1.522   1.320   9.268 -0.3037 -0.1573  0.1233
 3796SOL    HW122847   1.469   1.240   9.277 -1.1230  0.1281 -2.0429
 3796SOL    HW222848   1.476   1.360   9.194 -3.2363 -0.2046  1.8916
 3797SOL     OW22849   2.862   4.041   7.067  0.1955 -0.0719 -0.4930
 3797SOL    HW122850   2.781   3.993   7.052  0.8735 -1.0890 -0.9842
 3797SOL    HW222851   2.850   4.077   7.155  0.1613 -0.2675 -0.4174
 3798SOL     OW22852   3.185   4.539   0.820 -0.4829  0.3498 -0.7747
 3798SOL    HW122853   3.256   4.530   0.756  1.0673 -1.9649  1.2597
 3798SOL    HW222854   3.193   4.626   0.860  1.9564  0.4765 -1.4833
 3799SOL     OW22855   2.959   1.102   8.412 -0.1884  0.0726 -0.2967
 3799SOL    HW122856   2.921   1.120   8.325 -0.8206 -1.2729 -0.2973
 3799SOL    HW222857   2.931   1.012   8.429  1.0644 -0.8034 -2.8794
 3800SOL     OW22858   2.113   4.116   4.989  0.3133  0.5230  0.3732
 3800SOL    HW122859   2.091   4.141   4.900 -1.2084 -3.0716 -0.2719
 3800SOL    HW222860   2.102   4.021   4.990 -0.9661  0.6795  1.4183
 3801SOL     OW22861   3.274   3.046   8.049 -0.0784  0.4993 -0.2691
 3801SOL    HW122862   3.315   3.121   8.007 -0.7120  1.2541  0.4409
 3801SOL    HW222863   3.188   3.057   8.007 -0.6337  1.4452  1.0992
 3802SOL     OW22864   1.256   4.118   9.476 -0.4966  0.1374  0.3926
 3802SOL    HW122865   1.182   4.169   9.510  0.5042  0.9735  1.3062
 3802SOL    HW222866   1.291   4.178   9.409 -3.7216  1.3047 -0.2562
 3803SOL     OW22867   3.782   2.140   2.078  0.4389 -0.5985 -0.4858
 3803SOL    HW122868   3.712   2.106   2.133  2.3519 -0.8446  1.7768
 3803SOL    HW222869   3.761   2.231   2.057  0.1362 -0.4192  0.6380
 3804SOL     OW22870   3.259   3.727   3.358  0.4122 -0.3023  0.4691
 3804SOL    HW122871   3.275   3.636   3.333  0.2726 -1.0389  3.0698
 3804SOL    HW222872   3.299   3.770   3.283  0.4950  1.4971  1.5331
 3805SOL     OW22873   0.604   0.406   6.150 -0.1513  0.0587 -0.3961
 3805SOL    HW122874   0.564   0.472   6.093 -2.7754 -0.6546  0.5943
 3805SOL    HW222875   0.665   0.464   6.196 -0.7104 -2.2257  3.2951
 3806SOL     OW22876   1.730   4.596   3.523  0.1033  0.3144 -0.1909
 3806SOL    HW122877   1.772   4.552   3.598 -2.2849  0.0019  0.9685
 3806SOL    HW222878   1.800   4.612   3.460 -1.6524 -4.0183 -3.2595
 3807SOL     OW22879   0.040   2.299   8.963 -0.1787 -0.5762 -0.0892
 3807SOL    HW122880   0.059   2.297   8.869 -0.3665  0.7823 -0.1509
 3807SOL    HW222881   4.671   2.337   8.960  0.3044  0.5478 -0.1062
 3808SOL     OW22882   1.184   0.455  17.338 -0.3956 -0.1522 -0.1302
 3808SOL    HW122883   1.250   0.524  17.343  1.3554 -1.9119  1.2035
 3808SOL    HW222884   1.229   0.373  17.360 -0.7826 -0.3642 -0.1377
 3809SOL     OW22885   4.292   1.630   1.999  0.2295 -0.5324 -0.0778
 3809SOL    HW122886   4.306   1.565   2.068  1.0322 -0.9975 -0.6675
 3809SOL    HW222887   4.227   1.688   2.038  1.5745 -0.6536  2.3327
 3810SOL     OW22888   4.011   2.783  16.035 -0.2385  0.0721 -0.4115
 3810SOL    HW122889   3.949   2.796  15.963  0.3655  2.0293 -0.5734
 3810SOL    HW222890   3.987   2.693  16.057  1.8521 -0.4060 -0.1244
 3811SOL     OW22891   1.593   0.590   6.346 -0.0727  0.3319 -0.3324
 3811SOL    HW122892   1.542   0.661   6.384 -2.0012 -1.8258  1.1041
 3811SOL    HW222893   1.667   0.587   6.407 -0.2113 -0.1823 -0.1851
 3812SOL     OW22894   0.685   4.476   2.662 -0.9730  0.0608  0.4292
 3812SOL    HW122895   0.627   4.552   2.668 -0.0587  0.8369 -0.6988
 3812SOL    HW222896   0.646   4.428   2.736 -1.2341  0.1007  0.3195
 3813SOL     OW22897   0.879   4.352   0.130 -0.2978 -0.4174 -0.3444
 3813SOL    HW122898   0.837   4.344   0.044  2.5019 -2.2431 -1.5523
 3813SOL    HW222899   0.818   4.409   0.176  0.8935 -0.1367  0.8976
 3814SOL     OW22900   0.293   1.875   5.366 -0.0452  0.2389 -0.1467
 3814SOL    HW122901   0.237   1.881   5.289 -1.5044 -0.1063  0.8812
 3814SOL    HW222902   0.279   1.786   5.398  0.1008  0.0723 -0.5523
 3815SOL     OW22903   3.065   3.454   2.839 -0.3530 -0.0605 -0.2882
 3815SOL    HW122904   3.024   3.403   2.909 -0.9978 -2.1910 -2.2093
 3815SOL    HW222905   3.022   3.539   2.843  0.4835  0.3814 -0.5642
 3816SOL     OW22906   1.123   1.972   8.843  0.1221 -0.8451 -0.6546
 3816SOL    HW122907   1.060   1.917   8.891 -1.9709  0.8943 -1.4219
 3816SOL    HW222908   1.201   1.916   8.838  1.1371  0.7495 -2.4786
 3817SOL     OW22909   3.177   1.564   1.068 -0.3002 -0.3054 -0.1660
 3817SOL    HW122910   3.114   1.593   1.003 -1.0232 -2.3493 -0.3802
 3817SOL    HW222911   3.147   1.476   1.092 -0.7683 -0.1765 -0.2833
 3818SOL     OW22912   3.534   0.130   1.930  0.0116  0.2272 -0.2189
 3818SOL    HW122913   3.502   0.095   2.013 -0.4484  0.3827 -0.3249
 3818SOL    HW222914   3.463   0.191   1.907  0.2339  1.0760  1.3693
 3819SOL     OW22915   3.163   0.257   4.509  0.2985  0.2343  0.2920
 3819SOL    HW122916   3.135   0.345   4.536  1.4779  0.6531  0.1328
 3819SOL    HW222917   3.209   0.279   4.428 -0.7394 -1.5334 -0.7750
 3820SOL     OW22918   3.175   4.038   2.688 -0.2907 -0.3718 -0.2108
 3820SOL    HW122919   3.125   4.018   2.609 -0.0046  2.2125 -1.0374
 3820SOL    HW222920   3.140   4.122   2.717 -0.8075 -0.4391 -0.6471
 3821SOL     OW22921   2.921   2.034   3.709 -0.9766  0.2210  0.2417
 3821SOL    HW122922   2.841   1.981   3.716 -1.5820  1.1531  0.3737
 3821SOL    HW222923   2.983   1.974   3.667 -0.8103 -1.1508  2.4543
 3822SOL     OW22924   4.617   2.787   2.668  0.0676 -0.2675  0.2666
 3822SOL    HW122925   4.626   2.862   2.609  2.2247 -0.6940  0.0465
 3822SOL    HW222926   4.669   2.833   2.734  0.0849 -0.4873  0.4056
 3823SOL     OW22927   1.163   4.310  11.448  0.2508  0.1802  0.0954
 3823SOL    HW122928   1.187   4.225  11.485 -3.9761 -0.5126  1.1848
 3823SOL    HW222929   1.142   4.290  11.357  1.8437  1.9322 -0.6723
 3824SOL     OW22930   1.718   0.692  14.886  0.1746  0.1152 -0.4897
 3824SOL    HW122931   1.720   0.652  14.799  2.9516  3.3101 -1.8912
 3824SOL    HW222932   1.737   0.617  14.943  0.6770  2.5688  2.5699
 3825SOL     OW22933   3.719   2.287  11.792  0.0163 -0.0500 -0.0484
 3825SOL    HW122934   3.721   2.345  11.715  1.3585 -0.7330 -0.5268
 3825SOL    HW222935   3.624   2.293  11.799 -0.1103 -0.1462 -1.4970
 3826SOL     OW22936   2.958   3.880   3.639 -0.4614 -0.7286 -0.1309
 3826SOL    HW122937   2.931   3.918   3.723 -0.0124  0.6692 -0.6269
 3826SOL    HW222938   2.902   3.936   3.586  1.0853  1.2492  0.2992
 3827SOL     OW22939   0.259   1.815   0.421 -0.0950  0.2235  0.4027
 3827SOL    HW122940   0.258   1.863   0.504  2.0700  2.2030 -0.6952
 3827SOL    HW222941   0.285   1.726   0.442  1.9302  0.1699 -2.3653
 3828SOL     OW22942   3.018   4.429   0.649  0.4015  0.6683  0.0500
 3828SOL    HW122943   3.005   4.347   0.697 -3.1036  0.7373 -0.8339
 3828SOL    HW222944   3.082   4.473   0.705  2.3217 -1.2422 -0.6339
 3829SOL     OW22945   2.958   2.936   6.397  0.1573  0.0143 -0.4837
 3829SOL    HW122946   2.897   2.941   6.471 -2.3679 -0.9177 -2.4874
 3829SOL    HW222947   3.019   2.865   6.415 -0.1411 -0.1982 -0.3017
 3830SOL     OW22948   2.815   4.624  14.561  0.4699  0.4726 -0.4062
 3830SOL    HW122949   2.756   4.621  14.636  2.4453 -1.3890  1.0802
 3830SOL    HW222950   2.758   4.651  14.488 -0.7908 -0.3741  0.2557
 3831SOL     OW22951   2.503   0.876   4.240 -0.0645  0.3199  0.4402
 3831SOL    HW122952   2.539   0.961   4.214  1.4476 -0.3240  0.4972
 3831SOL    HW222953   2.580   0.821   4.246 -0.4234 -0.0637  1.5537
 3832SOL     OW22954   1.733   1.387   2.700 -0.0714 -0.3559 -0.0807
 3832SOL    HW122955   1.789   1.339   2.639 -0.3298 -1.3677  0.4798
 3832SOL    HW222956   1.646   1.358   2.674 -0.3509 -1.3114  1.8738
 3833SOL     OW22957   1.246   1.851   1.474 -0.0003  0.7977 -0.1805
 3833SOL    HW122958   1.258   1.946   1.480  1.9967  0.6181 -1.6933
 3833SOL    HW222959   1.152   1.846   1.457 -0.0340 -0.6393  0.4301
 3834SOL     OW22960   2.061   3.030   4.010  0.3513 -0.1314 -0.4934
 3834SOL    HW122961   2.069   2.936   4.022 -0.2851 -0.0619  0.4403
 3834SOL    HW222962   2.114   3.041   4.089 -1.9468 -0.4891  1.0851
 3835SOL     OW22963   2.645   2.268   9.435 -0.5623  0.6302 -0.2873
 3835SOL    HW122964   2.611   2.357   9.427  2.4524  1.5821 -2.0114
 3835SOL    HW222965   2.632   2.232   9.348 -1.9308  0.6004 -0.0837
 3836SOL     OW22966   3.051   0.630   5.094 -1.0633  0.5702 -0.0138
 3836SOL    HW122967   3.121   0.566   5.108  1.9571  3.9020  0.0605
 3836SOL    HW222968   2.978   0.570   5.078  0.5641 -1.5505  0.5496
 3837SOL     OW22969   0.299   1.891   7.452  0.2997 -0.6299 -0.0220
 3837SOL    HW122970   0.288   1.963   7.389 -1.7501 -1.3568 -0.4921
 3837SOL    HW222971   0.211   1.897   7.488  0.4162  0.2687  0.1270
 3838SOL     OW22972   1.158   2.188   5.877 -0.0801  0.0137  0.2199
 3838SOL    HW122973   1.075   2.143   5.893 -1.4071  2.1653 -0.6536
 3838SOL    HW222974   1.185   2.199   5.968  0.5688  0.9935 -0.0976
 3839SOL     OW22975   1.831   1.481   5.100 -0.1488  0.2978 -0.3109
 3839SOL    HW122976   1.742   1.454   5.079  0.4815 -2.9316  1.0180
 3839SOL    HW222977   1.888   1.408   5.074  0.7208  0.4432  1.1825
 3840SOL     OW22978   2.814   2.290   0.481 -0.1689 -0.1116 -0.0975
 3840SOL    HW122979   2.770   2.336   0.552  0.5383 -1.2104  1.0587
 3840SOL    HW222980   2.812   2.352   0.408 -1.5514  0.7939  0.7287
 3841SOL     OW22981   4.563   4.172   9.111 -0.5779 -0.0399  0.5624
 3841SOL    HW122982   4.503   4.188   9.184 -1.0575 -1.0805  0.3881
 3841SOL    HW222983   4.645   4.187   9.160 -1.4124 -0.9223  2.2242
 3842SOL     OW22984   4.117   3.268   2.069  0.1844 -0.2874 -0.1223
 3842SOL    HW122985   4.177   3.242   1.999 -0.4961 -2.2976  0.0515
 3842SOL    HW222986   4.048   3.202   2.064  0.2672 -0.4259  0.6562
 3843SOL     OW22987   3.284   1.215   5.812 -0.1031 -0.0428  0.4873
 3843SOL    HW122988   3.248   1.134   5.776 -1.8247  0.5843  0.7942
 3843SOL    HW222989   3.378   1.216   5.793  0.0686  3.6298  1.5821
 3844SOL     OW22990   0.717   2.128   7.223 -0.0419 -0.4383 -0.0122
 3844SOL    HW122991   0.737   2.130   7.130 -0.5223  0.2313 -0.0985
 3844SOL    HW222992   0.733   2.037   7.250  1.2686  0.1000  1.0298
 3845SOL     OW22993   0.558   1.665   9.754  0.6904 -0.4139  0.3421
 3845SOL    HW122994   0.585   1.730   9.820 -1.7472  0.2436  0.6768
 3845SOL    HW222995   0.501   1.610   9.807 -1.5380  0.2546 -1.3749
 3846SOL     OW22996   2.665   4.037   1.351 -0.7515 -0.4287 -0.6703
 3846SOL    HW122997   2.660   4.049   1.446  2.0345 -1.3902 -0.4198
 3846SOL    HW222998   2.719   4.113   1.329 -0.8037 -0.2390 -0.1514
 3847SOL     OW22999   3.449   0.024  10.291  0.1095 -0.0843 -0.7307
 3847SOL    HW123000   3.376   4.701  10.246 -0.1054 -1.2399  0.6994
 3847SOL    HW223001   3.415   0.095  10.345 -2.8721 -1.0992 -1.2715
 3848SOL     OW23002   2.151   2.365   2.574  0.2030 -0.2115  0.6140
 3848SOL    HW123003   2.115   2.444   2.534  3.0335  0.1499 -1.2174
 3848SOL    HW223004   2.203   2.339   2.498 -1.8616 -1.9552 -0.1852
 3849SOL     OW23005   1.070   0.322   7.587 -0.0686  0.5047 -0.2676
 3849SOL    HW123006   1.099   0.275   7.665  0.3621  1.5995  0.2214
 3849SOL    HW223007   1.154   0.357   7.558  0.0187  0.4808 -0.0412
 3850SOL     OW23008   0.247   1.627  11.466 -0.8764 -0.5705 -0.3150
 3850SOL    HW123009   0.190   1.694  11.429  0.9979 -0.3953 -2.8459
 3850SOL    HW223010   0.180   1.559  11.464 -2.1615  0.6025  2.5745
 3851SOL     OW23011   3.734   2.494   7.519  0.1740 -0.0429  0.7549
 3851SOL    HW123012   3.829   2.507   7.528  0.2728 -0.3750  0.1234
 3851SOL    HW223013   3.702   2.444   7.594  2.0905  0.3740  1.8567
 3852SOL     OW23014   2.604   2.775   6.415  0.4156  0.3351  0.3684
 3852SOL    HW123015   2.638   2.778   6.504 -1.3134 -0.5051  1.0518
 3852SOL    HW223016   2.547   2.851   6.425 -0.3190 -0.3751  1.5095
 3853SOL     OW23017   3.118   1.576   2.548  0.8794  0.2961 -0.1890
 3853SOL    HW123018   3.070   1.517   2.605 -0.7950  1.5395 -0.2949
 3853SOL    HW223019   3.180   1.606   2.614 -0.2624 -1.6507  1.7371
 3854SOL     OW23020   3.841   4.669  10.048  0.2938 -0.4008  0.0383
 3854SOL    HW123021   3.762   4.617  10.061 -0.6545  0.8181 -0.7909
 3854SOL    HW223022   3.843   4.711  10.134 -0.5329  1.7734 -0.9865
 3855SOL     OW23023   2.599   2.973   8.406  0.0750  0.2890 -0.0100
 3855SOL    HW123024   2.600   3.063   8.373  2.7882 -0.9559 -3.4133
 3855SOL    HW223025   2.595   2.981   8.501  2.6700  1.2339  0.0347
 3856SOL     OW23026   0.612   1.020   0.107 -0.0863  0.0955  0.4460
 3856SOL    HW123027   0.666   0.999   0.183  0.0039 -0.6916  0.1583
 3856SOL    HW223028   0.679   1.022   0.039 -0.2064  0.1334  0.3306
 3857SOL     OW23029   4.703   2.699   5.036  0.0087  0.1251  0.3222
 3857SOL    HW123030   0.062   2.651   5.063 -1.5191 -1.6809  1.5885
 3857SOL    HW223031   4.670   2.714   5.125  2.0648  0.7563  0.9827
 3858SOL     OW23032   1.994   4.497   1.873 -0.3612  0.1138 -0.6092
 3858SOL    HW123033   1.942   4.440   1.817  0.8421 -1.0500 -0.5501
 3858SOL    HW223034   1.977   4.588   1.852  0.8149  0.6403  0.6967
 3859SOL     OW23035   2.366   3.248   7.974 -0.4482 -0.2696  0.1667
 3859SOL    HW123036   2.380   3.271   7.882 -0.3453  2.2303  0.7944
 3859SOL    HW223037   2.280   3.287   7.987 -1.5793 -2.9501  0.7248
 3860SOL     OW23038   4.647   3.640   0.862  0.5362  0.2579  0.7166
 3860SOL    HW123039   0.008   3.633   0.914  0.5098 -1.0447  0.5874
 3860SOL    HW223040   4.603   3.717   0.898  2.1175  0.4783  2.2033
 3861SOL     OW23041   2.904   4.425   5.566  0.0461  0.2846  0.3046
 3861SOL    HW123042   2.959   4.460   5.495 -0.2096  0.2619  0.0928
 3861SOL    HW223043   2.952   4.347   5.592 -1.8872 -1.2005 -0.4880
 3862SOL     OW23044   0.709   1.552  12.353  0.0549  0.8084  0.3674
 3862SOL    HW123045   0.706   1.567  12.258 -1.8481  2.0786  0.6196
 3862SOL    HW223046   0.800   1.570  12.377 -1.0508  2.7147  3.1698
 3863SOL     OW23047   0.870   2.039   8.688 -0.0763  0.6059 -0.6174
 3863SOL    HW123048   0.910   2.118   8.725  1.7169 -0.8517  0.5413
 3863SOL    HW223049   0.874   1.973   8.757 -0.7480  1.4038  0.1897
 3864SOL     OW23050   2.869   2.911   5.541  0.3417  0.0507  0.3900
 3864SOL    HW123051   2.795   2.944   5.592 -1.9721 -0.4080 -2.6846
 3864SOL    HW223052   2.838   2.925   5.451  0.7923 -0.6129  0.1339
 3865SOL     OW23053   0.100   0.712   4.358  0.1714  0.2766  0.1079
 3865SOL    HW123054   0.112   0.646   4.427 -2.6754  0.1615  0.4648
 3865SOL    HW223055   0.163   0.774   4.394  2.0726 -1.4384 -0.2251
 3866SOL     OW23056   1.077   0.080   3.554  0.1599  0.0476 -0.3260
 3866SOL    HW123057   1.141   0.048   3.617  0.0891 -0.6064 -0.5881
 3866SOL    HW223058   1.135   0.098   3.480 -0.3432 -0.0141 -0.7340
 3867SOL     OW23059   0.860   4.242   7.609 -0.2288  0.5065  0.1416
 3867SOL    HW123060   0.922   4.203   7.548 -0.3585  1.9546 -0.9118
 3867SOL    HW223061   0.916   4.301   7.661  1.5586 -0.9213 -0.1733
 3868SOL     OW23062   3.007   1.030   4.241  0.3730  0.9343  0.1319
 3868SOL    HW123063   3.022   1.040   4.147  2.5018 -0.5676  0.3019
 3868SOL    HW223064   3.050   1.109   4.274  2.1635 -0.0405  0.1449
 3869SOL     OW23065   3.245   0.558   7.899 -0.5085  0.6498  0.2584
 3869SOL    HW123066   3.154   0.528   7.896 -0.1944  0.0013 -2.3487
 3869SOL    HW223067   3.283   0.481   7.857 -1.7177 -1.0972  2.3686
 3870SOL     OW23068   0.901   3.506   2.415 -0.7047  0.1578 -0.3440
 3870SOL    HW123069   0.943   3.421   2.401 -0.8230  0.0035  0.2399
 3870SOL    HW223070   0.855   3.494   2.498  0.9218  0.7593  0.6305
 3871SOL     OW23071   0.606   4.044   3.103  0.9566  0.1252  0.4595
 3871SOL    HW123072   0.532   4.030   3.043  1.9768 -0.1156 -0.7295
 3871SOL    HW223073   0.674   3.991   3.062  0.9456  0.7981 -0.4400
 3872SOL     OW23074   2.914   1.612   5.984 -0.3624  0.0788 -0.1120
 3872SOL    HW123075   2.835   1.665   5.971  0.0334  1.0738  1.5460
 3872SOL    HW223076   2.879   1.554   6.052 -0.4192  1.6721  1.2125
 3873SOL     OW23077   0.900   1.583   3.565 -0.0794  0.4303  0.1923
 3873SOL    HW123078   0.958   1.522   3.611 -0.1812  0.8236  0.8498
 3873SOL    HW223079   0.909   1.555   3.474  1.7219 -0.3092  0.5990
 3874SOL     OW23080   2.092   1.850   7.624  0.2687 -0.7109 -0.7249
 3874SOL    HW123081   2.059   1.804   7.547  2.1246 -0.1739 -1.8556
 3874SOL    HW223082   2.182   1.868   7.595  1.1775 -1.4190  1.6234
 3875SOL     OW23083   4.049   3.519   8.639  0.0009 -0.3551  0.0427
 3875SOL    HW123084   4.097   3.497   8.718 -0.2431  0.3569  0.3871
 3875SOL    HW223085   4.022   3.436   8.600  1.4892 -0.6857 -0.2501
 3876SOL     OW23086   3.393   3.860  15.621  0.1593  0.2546 -0.7351
 3876SOL    HW123087   3.408   3.954  15.611 -0.1198  0.1911 -1.7684
 3876SOL    HW223088   3.327   3.851  15.552  0.5309  1.6040 -1.2658
 3877SOL     OW23089   0.282   4.666   7.022 -0.1506 -0.5395 -0.2672
 3877SOL    HW123090   0.237   4.597   7.071  2.0066 -0.1883  2.1757
 3877SOL    HW223091   0.313   4.630   6.939  1.6415  1.5258 -0.4788
 3878SOL     OW23092   3.879   1.956   4.918 -0.2685 -0.1198  0.7017
 3878SOL    HW123093   3.934   1.992   4.848  0.2892 -1.9451  0.1854
 3878SOL    HW223094   3.847   2.040   4.951 -0.6506  0.0788 -0.1744
 3879SOL     OW23095   2.562   3.027   7.998 -0.2979  0.0555  0.1694
 3879SOL    HW123096   2.495   3.091   8.021  1.6203  1.4625  1.8480
 3879SOL    HW223097   2.541   2.957   8.059 -0.3201  0.8143  1.0233
 3880SOL     OW23098   3.498   1.387  14.383  0.1706 -0.3651  0.1083
 3880SOL    HW123099   3.481   1.325  14.453 -0.9025 -1.0198 -0.7395
 3880SOL    HW223100   3.438   1.460  14.396  0.8218  0.2120 -0.1173
 3881SOL     OW23101   3.470   1.526  17.400  0.3814 -0.5182  0.6803
 3881SOL    HW123102   3.430   1.568  17.476  0.7459  0.1284  0.5135
 3881SOL    HW223103   3.402   1.461  17.385 -1.6241  1.3199  1.7429
 3882SOL     OW23104   3.315   2.449   4.084 -0.1182  1.1198 -0.1559
 3882SOL    HW123105   3.338   2.538   4.113 -0.3779  0.9133  0.6826
 3882SOL    HW223106   3.220   2.459   4.084 -0.4042 -1.5888  1.8477
 3883SOL     OW23107   1.011   2.999   8.149 -0.0196 -0.0682  0.1619
 3883SOL    HW123108   0.985   2.907   8.148  0.5288 -0.2161 -0.2669
 3883SOL    HW223109   1.106   2.989   8.154  0.3264  3.0066  0.0569
 3884SOL     OW23110   0.914   2.223   4.563  0.1774 -0.4593 -0.0486
 3884SOL    HW123111   0.982   2.183   4.509 -0.8525 -0.5927 -1.2365
 3884SOL    HW223112   0.926   2.317   4.547 -0.3604  0.3348  3.9735
 3885SOL     OW23113   0.271   4.189   6.223  0.0387 -0.0272 -0.2827
 3885SOL    HW123114   0.333   4.262   6.212  1.1863 -0.8158  1.1010
 3885SOL    HW223115   0.212   4.229   6.287  1.6163 -0.2893  1.3102
 3886SOL     OW23116   0.527   1.032   6.006 -0.0143  0.2775  0.5519
 3886SOL    HW123117   0.456   1.077   6.051 -1.2901  1.1639 -2.3427
 3886SOL    HW223118   0.557   0.962   6.064  1.0054 -0.0435 -0.3708
 3887SOL     OW23119   1.058   0.544  15.350  0.3059 -0.2206 -0.0586
 3887SOL    HW123120   1.095   0.567  15.265 -1.2268  1.2348 -0.3461
 3887SOL    HW223121   1.133   0.546  15.409  0.1115  2.2647  0.1133
 3888SOL     OW23122   1.342   2.189   8.170 -0.1488 -0.3978  0.3014
 3888SOL    HW123123   1.325   2.097   8.192 -0.7745 -1.0197 -2.8762
 3888SOL    HW223124   1.419   2.175   8.115  0.2732  1.9743  0.2792
 3889SOL     OW23125   0.551   1.501   3.588  0.3789  0.0282 -0.0598
 3889SOL    HW123126   0.523   1.563   3.520 -0.0209  0.4968  0.5284
 3889SOL    HW223127   0.624   1.451   3.551 -0.5076 -1.9257  0.8970
 3890SOL     OW23128   2.046   3.888  10.640  0.0560 -0.2910 -0.0702
 3890SOL    HW123129   2.048   3.895  10.735  1.2076 -0.8626 -0.0489
 3890SOL    HW223130   2.025   3.980  10.622 -0.3308 -0.1396  1.1659
 3891SOL     OW23131   1.281   0.270   5.590 -0.1639 -0.3897  0.6865
 3891SOL    HW123132   1.355   0.209   5.590  0.9401  0.9758 -1.2091
 3891SOL    HW223133   1.251   0.253   5.501  0.1908  0.6472  0.3770
 3892SOL     OW23134   3.046   4.256   7.932 -0.0063 -0.5347 -0.1057
 3892SOL    HW123135   2.967   4.214   7.967 -0.5240  1.4670  1.1477
 3892SOL    HW223136   3.050   4.208   7.850 -1.0761  1.8419 -1.5654
 3893SOL     OW23137   3.473   0.066   7.241  0.0242  0.3731 -0.2985
 3893SOL    HW123138   3.514   0.020   7.315 -2.7653 -0.3024  0.8165
 3893SOL    HW223139   3.427   0.129   7.297 -0.6747 -0.0688 -0.3864
 3894SOL     OW23140   3.012   1.024   5.376 -0.0372 -0.3061 -0.4344
 3894SOL    HW123141   3.106   1.005   5.371  0.7089  3.0559  1.2110
 3894SOL    HW223142   2.980   0.960   5.312  1.6797 -0.8700 -0.7367
 3895SOL     OW23143   0.353   4.419  16.567 -0.1685  0.5231 -0.4913
 3895SOL    HW123144   0.346   4.330  16.601  1.3035  1.0234  1.1160
 3895SOL    HW223145   0.448   4.418  16.549  0.2261  2.5599  1.5381
 3896SOL     OW23146   3.241   3.094   9.372 -0.0166 -0.1052  0.2521
 3896SOL    HW123147   3.335   3.083   9.384  0.0569  2.2487  1.9667
 3896SOL    HW223148   3.214   3.158   9.439 -0.2613 -0.4058  0.4394
 3897SOL     OW23149   2.961   2.663  10.642  0.6784  0.0736  0.1391
 3897SOL    HW123150   3.044   2.661  10.594  0.1365 -2.1477 -0.7078
 3897SOL    HW223151   2.936   2.754  10.626 -0.7873 -0.1899  0.9725
 3898SOL     OW23152   4.586   3.568   8.179 -0.0831  0.2787 -0.4421
 3898SOL    HW123153   4.671   3.611   8.179 -0.6690  1.4496  2.8361
 3898SOL    HW223154   4.598   3.493   8.238 -2.6830  0.5508  0.4449
 3899SOL     OW23155   4.473   4.571   0.394  0.0870 -0.0752 -0.3194
 3899SOL    HW123156   4.434   4.652   0.428  1.4483 -0.5569  2.4587
 3899SOL    HW223157   4.402   4.509   0.409  0.7733 -0.6518  0.6159
 3900SOL     OW23158   1.008   0.069   5.878  1.2213 -0.1214 -0.4814
 3900SOL    HW123159   1.044   0.141   5.930  1.1763 -2.2637  2.5553
 3900SOL    HW223160   0.991   0.016   5.956 -0.1524  0.7916 -0.1571
 3901SOL     OW23161   4.237   2.857   0.988  0.3958  0.6795  0.1734
 3901SOL    HW123162   4.293   2.918   0.939 -0.2963  1.6146  0.5550
 3901SOL    HW223163   4.199   2.805   0.917 -0.1587  1.0802  0.1773
 3902SOL     OW23164   4.648   3.494   3.536  0.6207  0.6761  0.0427
 3902SOL    HW123165   4.704   3.549   3.592 -0.0662  1.1483  0.2562
 3902SOL    HW223166   4.610   3.562   3.481  0.6606  0.7764  0.1401
 3903SOL     OW23167   3.121   3.812   4.000 -0.5703 -0.0860 -0.0902
 3903SOL    HW123168   3.061   3.858   4.059  0.4215 -0.7334  1.4339
 3903SOL    HW223169   3.059   3.755   3.954 -1.2304 -0.7187  1.5981
 3904SOL     OW23170   0.863   0.721   5.557  0.0047 -0.1031  0.2568
 3904SOL    HW123171   0.844   0.634   5.522  3.2214 -1.3438  1.5486
 3904SOL    HW223172   0.850   0.697   5.649  2.9416 -2.0475  0.1447
 3905SOL     OW23173   1.454   3.300  12.855 -0.1910  0.4671  0.1304
 3905SOL    HW123174   1.422   3.222  12.810  2.2579  0.8275 -2.2286
 3905SOL    HW223175   1.378   3.329  12.906 -0.6780 -0.3989 -0.1083
 3906SOL     OW23176   4.451   1.719  11.880 -0.3072 -0.3604 -0.2274
 3906SOL    HW123177   4.358   1.711  11.902 -0.8994 -1.3691 -3.0547
 3906SOL    HW223178   4.477   1.627  11.878 -2.1015 -0.8238 -2.0789
 3907SOL     OW23179   0.536   1.889  16.599  0.3268 -0.3976  0.3207
 3907SOL    HW123180   0.487   1.884  16.517 -1.3928 -1.5479  1.4227
 3907SOL    HW223181   0.623   1.860  16.571 -1.4667 -3.0539 -2.5957
 3908SOL     OW23182   2.144   2.658   7.570  0.3725  0.3461 -0.0391
 3908SOL    HW123183   2.057   2.697   7.578  1.0405  1.9107 -0.4887
 3908SOL    HW223184   2.209   2.727   7.580 -0.0862  1.0239 -1.7488
 3909SOL     OW23185   1.510   0.806  14.679  0.3268  1.0920  0.2924
 3909SOL    HW123186   1.592   0.846  14.652  1.1207  0.1138  1.2982
 3909SOL    HW223187   1.531   0.760  14.760 -0.4394  0.2338  0.0104
 3910SOL     OW23188   1.257   1.912   8.261  0.0454  0.7218  0.1246
 3910SOL    HW123189   1.192   1.981   8.276 -2.6845 -1.2037 -2.9839
 3910SOL    HW223190   1.285   1.903   8.352 -0.7552 -0.4606  0.2473
 3911SOL     OW23191   3.519   2.970   5.034 -0.1494  0.2483  0.1833
 3911SOL    HW123192   3.465   2.918   5.094  0.4590 -0.4904  0.1000
 3911SOL    HW223193   3.454   2.979   4.964  0.1841 -0.4903 -0.2157
 3912SOL     OW23194   3.073   3.468  12.831  0.1129  0.2054  0.3650
 3912SOL    HW123195   3.130   3.461  12.908  0.1957 -2.0191  0.1001
 3912SOL    HW223196   3.144   3.480  12.769 -0.0656 -1.3138 -0.1204
 3913SOL     OW23197   0.920   1.331  11.330 -0.0869 -0.3194  0.1414
 3913SOL    HW123198   0.869   1.412  11.333 -0.2374 -0.3218 -2.3113
 3913SOL    HW223199   0.938   1.312  11.422 -2.0170  2.8944  1.1898
 3914SOL     OW23200   1.308   3.132   3.128  0.0048 -0.1250  0.3963
 3914SOL    HW123201   1.324   3.107   3.219 -1.5597 -1.0538  0.4109
 3914SOL    HW223202   1.370   3.076   3.082  0.8912  0.6207  0.6783
 3915SOL     OW23203   1.963   0.486   6.862 -0.0001 -0.4811 -0.3060
 3915SOL    HW123204   2.049   0.519   6.887 -1.7406  2.7101  1.4787
 3915SOL    HW223205   1.904   0.520   6.929  0.7385  1.4245 -0.6274
 3916SOL     OW23206   0.412   3.344   2.042 -0.5064 -0.4958  0.0980
 3916SOL    HW123207   0.496   3.377   2.074  0.0791 -0.6359 -1.2813
 3916SOL    HW223208   0.351   3.414   2.067 -0.0749  0.2797 -1.0163
 3917SOL     OW23209   2.257   2.871   3.301  0.1643  0.4185  0.4161
 3917SOL    HW123210   2.246   2.928   3.377  0.5640 -0.2376  0.9663
 3917SOL    HW223211   2.335   2.825   3.332  1.3698  1.6621 -0.7803
 3918SOL     OW23212   1.512   0.429   4.218  0.0972 -0.2548 -0.1529
 3918SOL    HW123213   1.517   0.425   4.123  0.8492 -0.1063 -0.1194
 3918SOL    HW223214   1.467   0.347   4.240 -2.2583  0.8044 -1.0349
 3919SOL     OW23215   1.043   3.929   3.549 -0.1789  0.3462  0.1724
 3919SOL    HW123216   1.084   3.874   3.482  1.7387  1.0600  0.7400
 3919SOL    HW223217   1.104   3.908   3.621 -0.4308 -2.3566 -0.4154
 3920SOL     OW23218   1.083   4.571   4.616 -0.1807 -0.0288  0.6635
 3920SOL    HW123219   1.032   4.571   4.535  2.1095  1.8383 -0.8155
 3920SOL    HW223220   1.053   4.653   4.656  1.3178  0.1721  1.3755
 3921SOL     OW23221   2.068   0.675   6.383  0.4326  0.0859  0.1494
 3921SOL    HW123222   1.991   0.623   6.407  0.1168  0.6704  0.4003
 3921SOL    HW223223   2.137   0.626   6.428  0.9033  0.9125  0.3328
 3922SOL     OW23224   3.589   1.087   2.867  0.2789 -0.0054 -0.6410
 3922SOL    HW123225   3.537   1.029   2.923  2.3538 -2.1674 -0.9523
 3922SOL    HW223226   3.643   1.024   2.820  0.5603  0.0582 -0.4064
 3923SOL     OW23227   0.632   1.185   3.721 -0.4810  0.3966 -0.3673
 3923SOL    HW123228   0.631   1.213   3.812 -2.5850  3.5582 -1.3589
 3923SOL    HW223229   0.716   1.220   3.692 -0.9191 -0.5999 -2.8689
 3924SOL     OW23230   0.519   2.867   2.979  0.3462 -0.6590  0.0596
 3924SOL    HW123231   0.523   2.930   3.052  0.8879 -0.4408 -0.1589
 3924SOL    HW223232   0.447   2.906   2.928  0.6613 -1.8942 -1.3071
 3925SOL     OW23233   2.882   3.721   7.431 -0.6417  0.2352  0.4039
 3925SOL    HW123234   2.924   3.710   7.345  0.8175  0.0869  1.1377
 3925SOL    HW223235   2.892   3.635   7.472  0.0102 -0.3214 -0.8977
 3926SOL     OW23236   4.700   0.737   7.869 -0.3332 -0.8340  0.1464
 3926SOL    HW123237   4.680   0.735   7.776 -0.4507 -0.2333  0.1569
 3926SOL    HW223238   0.044   0.809   7.869 -0.4820 -0.6946  1.9095
 3927SOL     OW23239   1.723   1.097   5.391  0.4657 -0.9539  0.1310
 3927SOL    HW123240   1.667   1.164   5.429  1.2687 -1.0874  1.5240
 3927SOL    HW223241   1.812   1.123   5.415  0.9968 -1.5420 -1.1805
 3928SOL     OW23242   2.740   1.069   5.170  0.7228  0.5168 -0.2159
 3928SOL    HW123243   2.766   1.000   5.230 -0.1889  0.5770  0.2534
 3928SOL    HW223244   2.647   1.087   5.188  0.3651 -0.2534 -1.2966
 3929SOL     OW23245   4.053   3.578   2.345 -0.1082 -0.5850  0.1797
 3929SOL    HW123246   4.110   3.501   2.353  0.0924 -0.2653  1.7116
 3929SOL    HW223247   4.065   3.594   2.251  2.3258 -2.8122  0.0952
 3930SOL     OW23248   1.875   3.460   3.144 -0.2746 -0.1236  0.3437
 3930SOL    HW123249   1.866   3.539   3.198 -0.5211  0.4099 -0.4839
 3930SOL    HW223250   1.913   3.406   3.214 -1.3715 -1.0188  0.2528
 3931SOL     OW23251   2.387   2.854   8.819  0.1961  0.7440 -0.1689
 3931SOL    HW123252   2.393   2.783   8.883  0.8888  2.3200  1.4752
 3931SOL    HW223253   2.293   2.870   8.827  0.2343  1.0603 -0.3504
 3932SOL     OW23254   3.005   3.046   6.132 -0.1851  0.8165  0.2774
 3932SOL    HW123255   2.998   2.997   6.214  0.0592  0.4573  0.0823
 3932SOL    HW223256   2.944   3.120   6.142 -0.9133  0.2031  0.3500
 3933SOL     OW23257   4.611   4.482   4.603 -0.0668 -0.0127  0.6244
 3933SOL    HW123258   4.667   4.560   4.611  1.2659 -0.6199 -2.7699
 3933SOL    HW223259   4.635   4.444   4.519  0.3896  0.8709  0.3504
 3934SOL     OW23260   2.516   1.664  12.826 -0.3284  0.0855 -0.0959
 3934SOL    HW123261   2.590   1.721  12.803  1.4355 -1.4251  1.7843
 3934SOL    HW223262   2.531   1.582  12.779 -4.0400 -0.0062 -1.1139
 3935SOL     OW23263   1.835   1.382   8.658 -0.2555 -0.2340  0.1676
 3935SOL    HW123264   1.878   1.433   8.727 -1.0126  0.8799 -0.1945
 3935SOL    HW223265   1.757   1.347   8.701  0.3938 -1.5567  0.2728
 3936SOL     OW23266   1.385   3.717   5.746  0.4109 -0.3562 -0.7240
 3936SOL    HW123267   1.437   3.704   5.667  1.2488  1.9493 -0.5326
 3936SOL    HW223268   1.407   3.637   5.793  0.2971 -0.0112 -0.0803
 3937SOL     OW23269   2.834   1.362   4.579 -0.6419  0.7081  0.0207
 3937SOL    HW123270   2.863   1.271   4.584  0.0594  0.9707  0.5629
 3937SOL    HW223271   2.772   1.366   4.652  1.4336 -1.7632  1.9111
 3938SOL     OW23272   2.897   3.093   4.065 -0.9945 -0.1781  0.2597
 3938SOL    HW123273   2.924   3.059   4.151  2.0073  1.0375 -0.1950
 3938SOL    HW223274   2.948   3.172   4.045 -2.9306  0.8800 -0.4941
 3939SOL     OW23275   1.500   3.734   6.535 -0.4938 -0.9729  0.6605
 3939SOL    HW123276   1.454   3.816   6.550  0.7228 -0.1622 -0.0794
 3939SOL    HW223277   1.568   3.755   6.471  0.0863 -0.2887  1.5176
 3940SOL     OW23278   0.500   2.505   1.435 -0.3241  0.0494  0.7761
 3940SOL    HW123279   0.564   2.469   1.374 -1.6274 -1.7767  0.4627
 3940SOL    HW223280   0.551   2.527   1.513  1.7587 -1.4442 -0.1709
 3941SOL     OW23281   3.359   1.356   9.107 -0.6338  0.8444 -0.2470
 3941SOL    HW123282   3.431   1.295   9.123 -0.1821  1.8166  1.4611
 3941SOL    HW223283   3.319   1.322   9.027 -0.3398  1.7413 -0.7787
 3942SOL     OW23284   0.696   4.712  10.375 -0.2226  0.8439 -0.1451
 3942SOL    HW123285   0.697   0.054  10.301 -0.7684 -1.5215 -2.1062
 3942SOL    HW223286   0.604   4.712  10.399 -0.3434  2.4054 -0.6080
 3943SOL     OW23287   3.804   2.235   6.028  0.0284 -0.1561 -0.6947
 3943SOL    HW123288   3.770   2.276   5.948  0.5157  3.0621  0.7281
 3943SOL    HW223289   3.728   2.178   6.045 -1.4097  1.5194 -1.4843
 3944SOL     OW23290   4.348   0.091   2.888 -0.8805  0.0620  0.3166
 3944SOL    HW123291   4.358   0.182   2.916  0.9954 -1.0164  3.0904
 3944SOL    HW223292   4.252   0.096   2.884 -0.7458  1.5004 -1.1855
 3945SOL     OW23293   3.376   0.354   6.956  0.1039  0.6483 -0.2875
 3945SOL    HW123294   3.403   0.444   6.940  1.5948  0.0719 -1.0131
 3945SOL    HW223295   3.408   0.341   7.046 -0.1844  0.6529 -0.1857
 3946SOL     OW23296   0.172   2.295   8.511 -0.1383 -0.8858 -0.1885
 3946SOL    HW123297   0.267   2.288   8.499 -0.1299  1.1374 -1.2603
 3946SOL    HW223298   0.156   2.358   8.581 -0.5802 -2.1109  0.8209
 3947SOL     OW23299   0.675   1.630   6.915  0.1963 -0.2235  0.2993
 3947SOL    HW123300   0.729   1.659   6.842 -0.6979  0.3253 -0.1400
 3947SOL    HW223301   0.596   1.685   6.919  0.7580  0.8233 -3.7030
 3948SOL     OW23302   2.107   2.043   2.387  0.4612  0.6289  0.2359
 3948SOL    HW123303   2.046   2.087   2.447 -0.0504 -1.5522  1.3298
 3948SOL    HW223304   2.195   2.061   2.421  0.5887  0.8308 -0.2071
 3949SOL     OW23305   1.877   2.889   3.831 -0.0907  0.0671 -0.3155
 3949SOL    HW123306   1.934   2.813   3.833 -0.1469 -0.0072 -1.2999
 3949SOL    HW223307   1.929   2.958   3.871  0.0543  1.0305 -2.1849
 3950SOL     OW23308   2.221   1.906   9.865 -0.7700  0.1364  0.2426
 3950SOL    HW123309   2.147   1.955   9.902 -1.7742 -1.6702  0.6078
 3950SOL    HW223310   2.195   1.911   9.773 -0.2385 -2.2281 -0.0323
 3951SOL     OW23311   4.027   0.385  16.044 -0.3743 -0.4395 -0.0671
 3951SOL    HW123312   4.117   0.417  16.044 -0.2404 -0.7350 -3.8056
 3951SOL    HW223313   3.995   0.453  16.102 -1.0540 -1.9795  1.3557
 3952SOL     OW23314   0.306   1.343   7.998  0.1846 -0.4632  0.0137
 3952SOL    HW123315   0.315   1.435   7.973 -1.4943  0.2034  1.8726
 3952SOL    HW223316   0.335   1.298   7.918 -0.8063 -1.9825  0.4951
 3953SOL     OW23317   4.325   1.920   5.810  0.3039 -0.0824  0.7667
 3953SOL    HW123318   4.354   1.884   5.894 -0.6055  1.7105  1.8558
 3953SOL    HW223319   4.291   1.848   5.758 -0.2001  0.3045  0.5531
 3954SOL     OW23320   3.367   0.627   6.924 -0.3667  0.2219  0.3834
 3954SOL    HW123321   3.422   0.689   6.971 -1.7518  0.4248  1.7422
 3954SOL    HW223322   3.393   0.633   6.832  1.9557 -1.5544  0.9089
 3955SOL     OW23323   2.590   2.015   6.657  0.3952 -0.6789  0.6861
 3955SOL    HW123324   2.643   1.999   6.579  0.6311  3.0654  0.0963
 3955SOL    HW223325   2.499   2.011   6.625  0.1716  1.6813  1.0257
 3956SOL     OW23326   0.383   0.085   3.402  0.5518 -0.1729  0.4599
 3956SOL    HW123327   0.435   0.005   3.398  2.5167  1.2406 -2.1311
 3956SOL    HW223328   0.413   0.121   3.318 -2.0654  1.1968  0.1289
 3957SOL     OW23329   1.866   4.189   4.840 -0.0470 -0.4119  0.0947
 3957SOL    HW123330   1.874   4.274   4.798 -0.8411 -0.3647  0.0455
 3957SOL    HW223331   1.852   4.130   4.765  1.3701 -1.2160  0.4460
 3958SOL     OW23332   3.505   1.897  12.858  0.3794 -0.5001 -0.0706
 3958SOL    HW123333   3.452   1.930  12.786  0.7582  0.6773  0.1878
 3958SOL    HW223334   3.458   1.932  12.934  0.1180 -0.3973 -0.2827
 3959SOL     OW23335   4.442   3.071   8.806  0.1339  0.0974 -0.5711
 3959SOL    HW123336   4.482   3.016   8.874 -1.0565  1.0643  0.9234
 3959SOL    HW223337   4.425   3.156   8.846 -2.8997 -0.8767  0.2117
 3960SOL     OW23338   2.060   1.581  15.504  0.2980  0.0355 -0.2117
 3960SOL    HW123339   2.051   1.672  15.530  0.0761 -0.6639  2.1058
 3960SOL    HW223340   2.138   1.585  15.449  1.0898  0.5496  0.9689
 3961SOL     OW23341   0.536   0.925   7.420 -0.1041 -0.4215 -0.0286
 3961SOL    HW123342   0.471   0.864   7.385  2.2888 -2.2799 -1.2765
 3961SOL    HW223343   0.597   0.872   7.471  0.3891  0.7703  0.6218
 3962SOL     OW23344   4.358   4.582   3.458 -0.7809 -0.2460  0.0410
 3962SOL    HW123345   4.421   4.512   3.475  0.6671  0.4885 -2.3129
 3962SOL    HW223346   4.391   4.606   3.372 -0.9108  2.5138  0.7227
 3963SOL     OW23347   4.101   0.725   7.970  0.2082  0.0117  0.1893
 3963SOL    HW123348   4.023   0.688   8.012 -1.5819  2.4946 -0.9207
 3963SOL    HW223349   4.085   0.716   7.877 -1.1617 -0.1380  0.4417
 3964SOL     OW23350   3.166   3.541   6.238 -0.7493 -0.1175 -0.5476
 3964SOL    HW123351   3.078   3.567   6.264 -0.4993 -0.3238  0.5222
 3964SOL    HW223352   3.180   3.546   6.144  0.9606 -0.7196 -0.3217
 3965SOL     OW23353   0.044   1.895   9.228 -0.2240 -0.0250  0.0953
 3965SOL    HW123354   4.668   1.903   9.241 -0.0361  1.1654  0.7734
 3965SOL    HW223355   0.052   1.810   9.272  2.3013 -0.5032 -1.3159
 3966SOL     OW23356   0.122   1.534   6.633  0.1377 -0.5508 -0.0069
 3966SOL    HW123357   0.208   1.552   6.596 -0.4684 -0.2875 -1.2820
 3966SOL    HW223358   0.080   1.618   6.615  0.7334  0.0484  1.4469
 3967SOL     OW23359   4.038   2.559   5.078  0.3794  0.0765 -0.2566
 3967SOL    HW123360   3.993   2.522   5.002 -3.4168 -0.0774  2.0552
 3967SOL    HW223361   4.099   2.613   5.028  0.9733  0.4175  0.8307
 3968SOL     OW23362   4.367   3.222   5.274  0.4430  0.2048 -0.1636
 3968SOL    HW123363   4.454   3.240   5.239  1.1028 -1.2196  0.7573
 3968SOL    HW223364   4.372   3.127   5.286  2.1979  0.8414  4.1142
 3969SOL     OW23365   1.050   1.521  15.894  0.1101  0.0832  0.1232
 3969SOL    HW123366   0.979   1.478  15.847  0.6886 -0.2218 -0.4800
 3969SOL    HW223367   1.018   1.601  15.934 -1.0050 -0.6371  0.6483
 3970SOL     OW23368   2.727   1.339   2.642  0.3547  0.3574  0.5246
 3970SOL    HW123369   2.669   1.295   2.580  0.5275  1.0407 -0.1239
 3970SOL    HW223370   2.717   1.290   2.723 -0.1173 -1.3541 -0.5763
 3971SOL     OW23371   0.312   2.055   7.229 -0.5145 -0.0582 -0.1364
 3971SOL    HW123372   0.306   2.011   7.145  0.1984  1.7514 -1.1418
 3971SOL    HW223373   0.338   2.143   7.202 -0.2904  0.1682  0.8045
 3972SOL     OW23374   2.039   3.795   7.862 -0.4168 -0.4590 -0.4787
 3972SOL    HW123375   2.073   3.838   7.940 -0.1196 -1.2295 -0.1855
 3972SOL    HW223376   1.949   3.770   7.882 -0.1209 -0.8673  0.3245
 3973SOL     OW23377   2.675   4.676   5.940  0.0908  0.2148 -0.4670
 3973SOL    HW123378   2.645   0.048   5.936 -0.5445  0.0210 -0.1939
 3973SOL    HW223379   2.678   4.654   6.033 -1.9123 -1.1459 -0.7320
 3974SOL     OW23380   2.925   0.173   4.317  0.5355  0.2842 -0.1226
 3974SOL    HW123381   2.928   0.110   4.389  0.5236  2.5196  1.8098
 3974SOL    HW223382   2.866   0.119   4.263  0.8443 -0.0353 -0.1435
 3975SOL     OW23383   3.988   3.911   4.135 -0.2634  0.1661  0.2363
 3975SOL    HW123384   3.986   3.998   4.096 -0.9390 -0.4505 -1.1103
 3975SOL    HW223385   4.016   3.866   4.055 -0.9221  1.9154 -0.9658
 3976SOL     OW23386   4.327   2.193  14.341 -0.0826 -0.4202 -0.7396
 3976SOL    HW123387   4.283   2.142  14.408  1.5259  0.0611  0.6868
 3976SOL    HW223388   4.258   2.257  14.321  1.1617  0.7618 -1.2656
 3977SOL     OW23389   3.549   2.898  13.446 -0.6014 -0.0445 -0.0412
 3977SOL    HW123390   3.569   2.808  13.419  0.7431  0.4091 -0.5114
 3977SOL    HW223391   3.453   2.892  13.437 -0.4455 -1.8042 -0.6279
 3978SOL     OW23392   4.548   1.876   1.078 -0.4453 -0.0958  0.2486
 3978SOL    HW123393   4.556   1.948   1.017 -2.7443 -0.8311 -0.9189
 3978SOL    HW223394   4.571   1.804   1.018 -0.9454 -0.1130  0.0805
 3979SOL     OW23395   2.703   2.697   4.588  0.2362 -0.1367 -0.0040
 3979SOL    HW123396   2.791   2.720   4.559 -1.0222  1.0060 -3.0144
 3979SOL    HW223397   2.657   2.701   4.504 -0.0915  1.9552  0.2591
 3980SOL     OW23398   3.196   0.866   5.898 -0.3993  0.0069 -0.0804
 3980SOL    HW123399   3.108   0.896   5.920 -0.6100 -1.8015  1.5877
 3980SOL    HW223400   3.194   0.908   5.813  0.5716 -1.2361 -0.7157
 3981SOL     OW23401   2.699   1.890   7.946  0.1763  0.0705 -0.0229
 3981SOL    HW123402   2.701   1.881   8.041 -2.3996  0.3023  0.0504
 3981SOL    HW223403   2.693   1.984   7.928 -0.5819 -0.3686 -2.1275
 3982SOL     OW23404   0.713   2.455   4.748  0.4607 -0.2655 -0.0782
 3982SOL    HW123405   0.672   2.393   4.808 -0.0121  0.3456  0.2231
 3982SOL    HW223406   0.805   2.434   4.760  1.1042  1.7572 -1.4838
 3983SOL     OW23407   3.039   4.104   5.253 -0.3862  0.2207  0.2248
 3983SOL    HW123408   2.993   4.188   5.250 -0.3100  0.2019 -1.3049
 3983SOL    HW223409   3.114   4.137   5.302  0.7502 -1.8629 -0.1217
 3984SOL     OW23410   0.024   1.137   3.937  0.0426  0.1330 -0.8664
 3984SOL    HW123411   0.106   1.107   3.977 -0.6255  0.8310  1.0194
 3984SOL    HW223412   0.055   1.178   3.856  0.2127  1.0019 -0.3646
 3985SOL     OW23413   3.042   2.922   4.245 -0.4407 -0.4743 -0.2618
 3985SOL    HW123414   3.134   2.931   4.221 -0.3257  0.1172  0.4138
 3985SOL    HW223415   3.039   2.831   4.274  2.6487 -0.0676  1.3205
 3986SOL     OW23416   0.046   0.596   4.652  0.1350  0.0991  0.1644
 3986SOL    HW123417   0.014   0.510   4.624 -0.6992  0.1696  0.8866
 3986SOL    HW223418   0.039   0.589   4.747 -0.2034  3.1757  0.3444
 3987SOL     OW23419   0.084   1.898   2.298 -0.3236 -0.3409  0.2020
 3987SOL    HW123420   0.007   1.889   2.242 -0.0872 -1.6939  0.1064
 3987SOL    HW223421   0.069   1.812   2.337  2.7168  0.4630  3.1141
 3988SOL     OW23422   3.674   1.735  12.746 -0.6978  0.8145 -0.3052
 3988SOL    HW123423   3.614   1.701  12.680  0.6292 -2.5270  0.2404
 3988SOL    HW223424   3.612   1.793  12.792 -1.5161 -0.3460  0.0497
 3989SOL     OW23425   1.089   1.224   7.590 -0.4632 -0.1288 -0.0444
 3989SOL    HW123426   1.064   1.132   7.597  0.7000 -0.5565 -1.4890
 3989SOL    HW223427   1.184   1.210   7.592 -0.6419 -1.1482  1.6011
 3990SOL     OW23428   1.743   2.837   9.723  0.4261  0.0159  0.2461
 3990SOL    HW123429   1.647   2.831   9.730  0.2520  2.5436  0.1395
 3990SOL    HW223430   1.737   2.913   9.664  0.4762 -0.4342 -0.3409
 3991SOL     OW23431   1.035   3.896   2.058  0.6603 -0.2722  0.2027
 3991SOL    HW123432   0.993   3.873   1.975 -1.0604 -1.4146  1.3761
 3991SOL    HW223433   1.023   3.991   2.058  2.5037 -0.0421  0.9003
 3992SOL     OW23434   3.252   3.859   9.539 -0.5266 -0.1278 -0.2228
 3992SOL    HW123435   3.319   3.878   9.473  0.5070  0.1866  0.9089
 3992SOL    HW223436   3.201   3.939   9.522 -0.9165 -0.5304 -0.9512
 3993SOL     OW23437   1.974   2.371   2.308  0.3242  0.2499 -0.4017
 3993SOL    HW123438   1.943   2.339   2.224  1.8514  0.8090 -1.1769
 3993SOL    HW223439   1.911   2.440   2.327 -0.6731 -0.5954 -0.6714
 3994SOL     OW23440   2.901   3.130   6.846 -0.3703  0.0826 -0.1948
 3994SOL    HW123441   2.835   3.125   6.777 -1.2471 -2.5608  0.8099
 3994SOL    HW223442   2.865   3.062   6.904  0.8924  0.9056  1.5697
 3995SOL     OW23443   4.049   2.342   5.251 -0.3163  0.0142 -0.3703
 3995SOL    HW123444   4.047   2.427   5.207  3.0404  0.2113 -0.0983
 3995SOL    HW223445   4.048   2.294   5.169  2.4705  0.5117 -0.6809
 3996SOL     OW23446   4.216   1.539   7.767 -0.4032 -0.0471 -0.2730
 3996SOL    HW123447   4.228   1.623   7.722 -1.8113  0.2773 -0.0333
 3996SOL    HW223448   4.229   1.567   7.858 -0.2708 -1.4428  0.1303
 3997SOL     OW23449   4.672   1.699   7.405 -0.5568  0.3494 -0.0213
 3997SOL    HW123450   0.010   1.754   7.459 -1.1091  0.8992 -0.0010
 3997SOL    HW223451   4.595   1.680   7.458 -0.5674 -1.8333 -0.7816
 3998SOL     OW23452   3.067   4.511   6.759 -0.1229  0.2832 -0.0250
 3998SOL    HW123453   3.061   4.422   6.726 -0.6613  0.6732 -0.9880
 3998SOL    HW223454   3.046   4.504   6.852  0.7574  3.2367  0.3921
 3999SOL     OW23455   0.658   1.868   9.612 -0.0240  0.4117 -0.1830
 3999SOL    HW123456   0.608   1.805   9.664  0.4474  0.1355 -0.0612
 3999SOL    HW223457   0.709   1.801   9.566 -2.5894 -0.7774 -1.2893
 4000SOL     OW23458   1.343   4.319   4.940  0.3392  0.2884  0.1930
 4000SOL    HW123459   1.433   4.288   4.951 -0.0648 -0.7397  0.5769
 4000SOL    HW223460   1.326   4.372   5.018  1.8708  1.9817 -0.6320
 4001SOL     OW23461   0.465   3.880  16.462 -0.4263 -0.2385  0.4095
 4001SOL    HW123462   0.400   3.914  16.400 -1.2605 -3.1617 -0.3134
 4001SOL    HW223463   0.507   3.963  16.484 -0.3840 -0.1501 -0.0110
 4002SOL     OW23464   0.437   4.371   2.409 -0.4800  0.3661  0.7405
 4002SOL    HW123465   0.509   4.432   2.392 -0.7995  0.5432  0.0624
 4002SOL    HW223466   0.382   4.390   2.334  0.7960 -2.0692 -0.8189
 4003SOL     OW23467   4.179   0.360  15.405 -0.4030 -0.1747  0.5341
 4003SOL    HW123468   4.182   0.455  15.418 -0.3209 -0.2268  0.9186
 4003SOL    HW223469   4.265   0.331  15.374 -0.0580  1.0333  0.3778
 4004SOL     OW23470   2.400   3.092   1.871  0.9185  0.4010 -0.3056
 4004SOL    HW123471   2.495   3.101   1.869  1.0280 -0.9671 -1.1395
 4004SOL    HW223472   2.378   3.175   1.830 -3.1289 -0.3553  0.3459
 4005SOL     OW23473   4.250   4.190  10.802  0.7972  0.1087  0.0404
 4005SOL    HW123474   4.264   4.107  10.848 -2.7374 -0.1235  0.7267
 4005SOL    HW223475   4.339   4.222  10.788  0.8592  0.2797  0.8356
 4006SOL     OW23476   1.969   3.792   1.329  0.4332  0.1144  0.2773
 4006SOL    HW123477   1.899   3.809   1.391 -1.6224 -1.1322 -1.6922
 4006SOL    HW223478   1.953   3.859   1.262  1.6287  1.7984  1.6835
 4007SOL     OW23479   3.219   0.510   5.329  0.0115  0.0168  0.2154
 4007SOL    HW123480   3.300   0.559   5.343  0.7764 -0.8543 -1.1040
 4007SOL    HW223481   3.158   0.570   5.372 -0.7614 -0.4031 -0.2833
 4008SOL     OW23482   3.350   1.732   5.871  0.4191 -0.1011  0.1509
 4008SOL    HW123483   3.405   1.785   5.812 -0.4273 -1.5589 -1.9476
 4008SOL    HW223484   3.411   1.734   5.945  0.5601  0.8688  0.0165
 4009SOL     OW23485   0.903   3.541   5.458  0.2138 -0.0278  0.1725
 4009SOL    HW123486   0.808   3.539   5.467  0.3226  0.2238  1.3771
 4009SOL    HW223487   0.923   3.484   5.533  1.4523  0.7122  0.3988
 4010SOL     OW23488   3.447   1.510   2.653 -0.2905  0.3469 -0.5703
 4010SOL    HW123489   3.388   1.489   2.725  0.8053  1.2685  0.5885
 4010SOL    HW223490   3.450   1.430   2.600  1.3845 -0.3894  0.6391
 4011SOL     OW23491   2.770   3.817   0.217 -0.0342  0.0917 -0.2956
 4011SOL    HW123492   2.748   3.820   0.124  1.5018  0.0773 -0.6648
 4011SOL    HW223493   2.760   3.723   0.231  0.1035  0.0349 -0.5770
 4012SOL     OW23494   4.527   2.561   9.130 -0.0699 -0.1133 -0.5448
 4012SOL    HW123495   4.455   2.610   9.170  0.2914 -0.4840  0.5714
 4012SOL    HW223496   4.597   2.623   9.145 -1.3362  0.5008  2.9146
 4013SOL     OW23497   4.425   0.941   9.994 -0.4318 -0.4136 -0.1664
 4013SOL    HW123498   4.494   1.000   9.961  1.9941 -2.4357  1.2809
 4013SOL    HW223499   4.464   0.854   9.984  0.2121 -0.4349  2.4210
 4014SOL     OW23500   2.713   2.435   8.065 -0.0406 -0.5491 -0.2275
 4014SOL    HW123501   2.694   2.387   7.985 -1.3263 -0.0275 -0.2333
 4014SOL    HW223502   2.666   2.514   8.041 -0.7133 -1.1577 -0.8825
 4015SOL     OW23503   0.945   2.170   5.624  0.1454  0.2943  0.2482
 4015SOL    HW123504   0.857   2.207   5.613  0.0680  0.3075  0.9188
 4015SOL    HW223505   0.925   2.126   5.707 -2.9290 -2.2514 -1.8731
 4016SOL     OW23506   1.861   1.793   7.138 -0.1041 -0.8832 -0.6217
 4016SOL    HW123507   1.814   1.711   7.146 -0.3768 -0.7279 -0.6259
 4016SOL    HW223508   1.791   1.859   7.140  0.0295 -0.8304  1.5497
 4017SOL     OW23509   3.974   1.924   8.641 -0.2522 -0.0024  0.6329
 4017SOL    HW123510   4.051   1.974   8.667  1.0252 -1.4988 -0.2575
 4017SOL    HW223511   3.974   1.935   8.546  3.3075 -0.5292  0.5658
 4018SOL     OW23512   0.219   0.277   3.034 -0.1549 -0.3505  1.0451
 4018SOL    HW123513   0.221   0.370   3.012 -1.5703 -0.4618  0.4200
 4018SOL    HW223514   0.197   0.240   2.948  0.8448  0.2644  0.5307
 4019SOL     OW23515   0.208   2.472   1.234  0.4393 -0.7274  0.1476
 4019SOL    HW123516   0.259   2.450   1.312  0.0940  0.5320  0.7367
 4019SOL    HW223517   0.278   2.494   1.173 -0.2592 -3.0105 -1.5059
 4020SOL     OW23518   1.082   3.306  13.601 -0.0010  0.0867  0.3052
 4020SOL    HW123519   1.176   3.325  13.608 -0.0753  0.0362  1.3254
 4020SOL    HW223520   1.074   3.302  13.505 -0.4789 -2.9628  0.4821
 4021SOL     OW23521   0.448   1.018  13.588 -0.1689 -0.4122  0.4759
 4021SOL    HW123522   0.452   1.046  13.679  0.6614  1.5283 -0.1626
 4021SOL    HW223523   0.353   1.004  13.587 -0.1461 -0.4627 -1.1605
 4022SOL     OW23524   3.905   1.893   6.765 -0.3505  0.6201  0.4341
 4022SOL    HW123525   3.810   1.880   6.768 -0.4751  1.3798 -0.1407
 4022SOL    HW223526   3.943   1.819   6.813 -2.7036 -0.7369  0.2107
 4023SOL     OW23527   3.165   0.810   3.679  0.0149  0.1810 -0.2133
 4023SOL    HW123528   3.135   0.877   3.618 -2.5770  0.1888  1.0801
 4023SOL    HW223529   3.244   0.783   3.631 -0.9744 -2.5303 -0.3159
 4024SOL     OW23530   3.832   3.006   7.388  0.5283  0.1456 -0.7106
 4024SOL    HW123531   3.827   2.997   7.484 -1.8345  1.0313 -0.7560
 4024SOL    HW223532   3.788   2.931   7.348  0.2073 -0.5405  0.9119
 4025SOL     OW23533   3.687   0.267   6.802  0.0608  0.1612  0.3986
 4025SOL    HW123534   3.644   0.245   6.885  1.0637  1.4160  1.2450
 4025SOL    HW223535   3.722   0.181   6.779  2.9284  1.5823 -0.4871
 4026SOL     OW23536   3.608   1.723   2.708  0.1063 -0.8791  0.5281
 4026SOL    HW123537   3.546   1.650   2.704 -1.1338  0.2880 -1.8287
 4026SOL    HW223538   3.550   1.781   2.758  0.0579  0.5395 -1.1813
 4027SOL     OW23539   4.471   0.327   3.252  0.3373 -0.1861 -0.0980
 4027SOL    HW123540   4.441   0.374   3.329 -1.5427 -1.1309 -0.2544
 4027SOL    HW223541   4.552   0.288   3.285  0.6323  1.5592  1.2042
 4028SOL     OW23542   2.969   1.400   3.748  0.5113  0.3098  0.5403
 4028SOL    HW123543   2.957   1.442   3.834  0.0712 -0.4761  0.8649
 4028SOL    HW223544   2.963   1.477   3.691  1.9538 -1.1718 -1.5706
 4029SOL     OW23545   3.304   2.264   7.803  0.3209  0.0284 -0.0723
 4029SOL    HW123546   3.297   2.179   7.848 -0.7537  0.6782  0.9886
 4029SOL    HW223547   3.231   2.305   7.850 -1.7606 -1.4866 -1.9621
 4030SOL     OW23548   0.758   2.196   4.241  0.8799  0.7263 -0.2305
 4030SOL    HW123549   0.779   2.142   4.317  0.2893  2.9728  1.5534
 4030SOL    HW223550   0.737   2.282   4.277 -0.6906  1.4372 -2.8513
 4031SOL     OW23551   0.425   3.730  12.198 -0.4162 -0.6330  0.3464
 4031SOL    HW123552   0.454   3.639  12.195 -1.7084 -1.0601  1.2417
 4031SOL    HW223553   0.433   3.758  12.106 -0.0495 -1.4144  0.1427
 4032SOL     OW23554   4.038   1.583   9.157  0.0287  0.7611  0.0809
 4032SOL    HW123555   4.003   1.622   9.077 -0.2842 -0.3637 -0.3350
 4032SOL    HW223556   3.982   1.610   9.229  3.0177 -2.9605  3.7808
 4033SOL     OW23557   1.907   1.985  16.282  0.0312  0.0657 -0.1733
 4033SOL    HW123558   1.837   2.033  16.326  1.6459  1.3185  1.0916
 4033SOL    HW223559   1.886   1.996  16.189 -0.8917  0.5636  0.0894
 4034SOL     OW23560   0.413   2.292   6.268 -0.2945  0.1804 -0.2476
 4034SOL    HW123561   0.497   2.327   6.296  0.4466 -1.6862 -0.1736
 4034SOL    HW223562   0.369   2.267   6.349 -1.2769  0.1107 -0.8024
 4035SOL     OW23563   2.901   4.060   8.415  0.1240 -0.1210  0.3858
 4035SOL    HW123564   2.939   3.978   8.448  0.2057  0.0668  0.7608
 4035SOL    HW223565   2.807   4.057   8.434  0.0464 -3.3834 -0.4853
 4036SOL     OW23566   4.076   2.724   7.883  0.0531 -0.0554 -0.0369
 4036SOL    HW123567   4.085   2.749   7.791  3.0310  1.5062  0.6672
 4036SOL    HW223568   4.014   2.787   7.919  3.2865  2.7028  0.7598
 4037SOL     OW23569   1.740   1.293  15.186 -0.1048  0.0624 -0.5306
 4037SOL    HW123570   1.815   1.233  15.177  1.7420  2.3671 -0.3949
 4037SOL    HW223571   1.679   1.256  15.122 -1.3659  1.0314  0.1155
 4038SOL     OW23572   2.287   0.333   3.899 -0.5153 -0.0571 -0.0999
 4038SOL    HW123573   2.259   0.423   3.914  0.4649  0.7409 -3.1949
 4038SOL    HW223574   2.266   0.304   3.988  1.1008  2.4177  1.0714
 4039SOL     OW23575   1.320   0.339   8.129 -0.1911 -0.4541 -0.0164
 4039SOL    HW123576   1.370   0.420   8.120  2.2129 -1.9075  0.2234
 4039SOL    HW223577   1.273   0.349   8.211 -1.0982  0.7601 -0.6852
 4040SOL     OW23578   3.943   2.476   7.202  0.2134  0.1058  0.5044
 4040SOL    HW123579   3.900   2.404   7.247  0.3281  1.7042  3.2444
 4040SOL    HW223580   3.882   2.547   7.222 -0.3015 -0.1740 -0.1032
 4041SOL     OW23581   0.747   3.106  15.799  0.2740 -0.2502  0.5244
 4041SOL    HW123582   0.706   3.057  15.728 -1.0535  1.3552  0.1842
 4041SOL    HW223583   0.683   3.177  15.807  1.1367  0.4287  1.4979
 4042SOL     OW23584   3.887   3.255  12.721  0.3070  0.2614 -0.1467
 4042SOL    HW123585   3.904   3.161  12.720 -0.0515  0.1464  3.2179
 4042SOL    HW223586   3.940   3.285  12.796 -0.9440  1.7620  0.1353
 4043SOL     OW23587   3.230   3.000   3.333  0.0727  0.0809 -0.2054
 4043SOL    HW123588   3.185   2.977   3.414  1.4257 -0.0434  0.5108
 4043SOL    HW223589   3.172   3.067   3.299 -0.6209 -0.3686  0.0930
 4044SOL     OW23590   2.381   0.658   6.534  0.4193 -0.1484  0.1530
 4044SOL    HW123591   2.325   0.582   6.517  2.5316 -1.6695 -0.0938
 4044SOL    HW223592   2.411   0.634   6.621  0.0086 -0.3233  0.2439
 4045SOL     OW23593   1.928   0.179  15.692 -0.1896  0.1637 -0.5002
 4045SOL    HW123594   1.989   0.117  15.652  1.5468  0.5094  1.6102
 4045SOL    HW223595   1.889   0.119  15.756 -0.0555 -1.2481 -1.7392
 4046SOL     OW23596   1.227   3.204  13.873  0.1027 -0.2117  0.3750
 4046SOL    HW123597   1.209   3.295  13.897 -1.1941  0.2061 -2.1512
 4046SOL    HW223598   1.140   3.163  13.869  1.7025 -3.7278  1.1393
 4047SOL     OW23599   1.545   3.011   0.059  0.0457 -0.3381  0.6041
 4047SOL    HW123600   1.521   2.964  17.658  0.3373  2.2725 -1.0279
 4047SOL    HW223601   1.463   3.033   0.102 -0.7181 -0.2937 -0.8734
 4048SOL     OW23602   2.926   3.765   4.906 -0.3782 -0.6090 -0.1215
 4048SOL    HW123603   2.953   3.847   4.947  0.7020 -1.4497  0.8403
 4048SOL    HW223604   2.897   3.798   4.821  1.6287 -1.6238 -1.1988
 4049SOL     OW23605   4.486   1.360  12.257  0.1821 -0.3342  0.1165
 4049SOL    HW123606   4.514   1.309  12.333  1.0606  1.1736  0.8141
 4049SOL    HW223607   4.445   1.300  12.195 -0.3885  0.0543  0.1131
 4050SOL     OW23608   4.389   0.570   7.805  0.5276 -0.4019  0.5841
 4050SOL    HW123609   4.428   0.644   7.851 -0.3613 -0.8282  2.0351
 4050SOL    HW223610   4.356   0.517   7.879  1.5812 -0.4797  0.9985
 4051SOL     OW23611   4.401   3.896   4.873  0.1695 -0.3092  0.0478
 4051SOL    HW123612   4.327   3.898   4.934 -2.4018 -0.4977 -3.1175
 4051SOL    HW223613   4.347   3.919   4.798 -0.0819  1.3821  0.7507
 4052SOL     OW23614   1.691   0.871   5.567  0.3165  0.0830 -0.4969
 4052SOL    HW123615   1.625   0.855   5.635  2.1620  1.5169  1.6234
 4052SOL    HW223616   1.669   0.954   5.525 -1.9139 -0.4758 -0.4192
 4053SOL     OW23617   1.071   1.682   3.928 -0.3435  0.1003 -0.4729
 4053SOL    HW123618   1.102   1.718   4.011 -1.9205  1.9184 -0.6653
 4053SOL    HW223619   1.082   1.759   3.873  5.2517  0.4784  1.1174
 4054SOL     OW23620   4.005   3.169   3.879  0.5287 -0.1344  0.3512
 4054SOL    HW123621   3.965   3.183   3.794 -1.6523 -0.3938  1.3442
 4054SOL    HW223622   3.993   3.258   3.913  1.4918  1.4657 -3.5428
 4055SOL     OW23623   0.393   3.295   2.562  0.4378 -0.0859  0.2279
 4055SOL    HW123624   0.332   3.237   2.515 -1.3306  1.4004  0.6944
 4055SOL    HW223625   0.409   3.362   2.496 -1.2718  0.2138  0.1192
 4056SOL     OW23626   1.378   2.388   9.030 -0.2731  0.0737 -0.0090
 4056SOL    HW123627   1.373   2.481   9.007  1.2555  0.0509 -0.4363
 4056SOL    HW223628   1.340   2.378   9.117  2.4292  2.2027  1.4256
 4057SOL     OW23629   1.922   2.183   3.157  0.0796 -0.0105  0.1051
 4057SOL    HW123630   1.834   2.161   3.186 -0.3563  0.0069 -1.2092
 4057SOL    HW223631   1.898   2.240   3.083 -1.9166 -0.9819  0.0199
 4058SOL     OW23632   4.419   0.709   3.670  0.2137 -0.4426 -0.1442
 4058SOL    HW123633   4.388   0.670   3.589  0.2834  0.8709 -0.7887
 4058SOL    HW223634   4.397   0.802   3.664  0.1615 -0.4896 -0.6377
 4059SOL     OW23635   0.765   1.855  16.403  0.1225  0.4694  0.6870
 4059SOL    HW123636   0.732   1.838  16.315  0.3449  0.3029  0.6354
 4059SOL    HW223637   0.782   1.948  16.389  0.1223  0.3040 -0.4360
 4060SOL     OW23638   0.315   1.454   2.564  0.0993 -0.1682  0.0823
 4060SOL    HW123639   0.282   1.374   2.607 -0.9305  0.5365  0.6049
 4060SOL    HW223640   0.402   1.452   2.602 -0.6301 -0.8243  1.7292
 4061SOL     OW23641   4.563   3.115   7.178  0.4736  0.1694 -0.2492
 4061SOL    HW123642   4.586   3.197   7.223 -0.3800  0.4446 -0.3085
 4061SOL    HW223643   4.489   3.082   7.229 -0.6766  2.2659 -0.5447
 4062SOL     OW23644   2.603   3.277  14.749 -0.2494 -0.9419 -0.2204
 4062SOL    HW123645   2.669   3.234  14.803  0.1473 -0.0921 -0.0333
 4062SOL    HW223646   2.638   3.364  14.732 -1.2112 -0.6776 -0.8476
 4063SOL     OW23647   0.763   0.132   6.591 -0.0084  0.8434  0.0929
 4063SOL    HW123648   0.756   0.197   6.521  1.2451  1.6242  0.7016
 4063SOL    HW223649   0.726   0.179   6.666  1.1695 -0.5894  1.5997
 4064SOL     OW23650   4.068   2.990   8.336  0.5310  0.5999 -0.1529
 4064SOL    HW123651   4.028   3.025   8.256 -1.8445 -0.4422  0.5670
 4064SOL    HW223652   4.160   2.979   8.312 -0.0343  0.5692 -2.2549
 4065SOL     OW23653   0.696   1.340   6.746 -0.2784  0.8594  0.4119
 4065SOL    HW123654   0.689   1.429   6.711  1.4457  1.0344  0.5296
 4065SOL    HW223655   0.642   1.280   6.694  1.4825 -0.5002  0.1601
 4066SOL     OW23656   0.156   4.096   4.152 -0.1770 -0.4129 -0.5502
 4066SOL    HW123657   0.173   4.002   4.152 -0.5961 -0.4781  0.9461
 4066SOL    HW223658   0.177   4.115   4.060 -0.8810  1.2406 -0.3702
 4067SOL     OW23659   4.172   0.974   8.805  0.3506 -0.2421  0.3698
 4067SOL    HW123660   4.127   0.911   8.861 -2.0402  0.5958 -0.6179
 4067SOL    HW223661   4.262   0.941   8.813  0.0086 -0.5777  2.9688
 4068SOL     OW23662   1.404   2.465   6.943  0.4425 -0.5141  0.4307
 4068SOL    HW123663   1.334   2.528   6.927 -0.0153 -0.7265  1.6073
 4068SOL    HW223664   1.427   2.481   7.034  4.0785  0.0679 -0.6063
 4069SOL     OW23665   4.397   2.538   3.394 -0.4644  0.2695  0.1331
 4069SOL    HW123666   4.417   2.531   3.487  1.6461  0.6165 -0.2816
 4069SOL    HW223667   4.447   2.615   3.366  0.9275  0.1091  2.1591
 4070SOL     OW23668   2.110   4.672   5.346 -0.0543  0.0094 -0.4053
 4070SOL    HW123669   2.024   4.691   5.385  0.1389  0.2525 -0.0957
 4070SOL    HW223670   2.131   4.591   5.392  2.1086 -0.1649 -1.7209
 4071SOL     OW23671   3.257   1.576   5.686 -0.0589 -0.3444 -0.1451
 4071SOL    HW123672   3.293   1.624   5.760  2.8354  1.8685 -3.0020
 4071SOL    HW223673   3.211   1.650   5.648 -2.4553 -1.3075  0.9039
 4072SOL     OW23674   4.331   0.195   6.253 -0.4916 -0.5940 -0.0298
 4072SOL    HW123675   4.350   0.239   6.336  0.7890 -1.9940  0.4168
 4072SOL    HW223676   4.310   0.272   6.200 -0.8936 -0.8179 -0.1929
 4073SOL     OW23677   1.125   4.311   0.052 -0.3660 -0.0901 -0.0444
 4073SOL    HW123678   1.180   4.334   0.127  0.3301  0.0809 -0.6044
 4073SOL    HW223679   1.039   4.341   0.079  0.0715  0.8784  0.2753
 4074SOL     OW23680   2.216   3.795  15.767 -0.0210  1.0477  0.1529
 4074SOL    HW123681   2.132   3.838  15.783 -0.6808  0.7589 -2.4862
 4074SOL    HW223682   2.187   3.709  15.737 -1.2940  0.9695  1.6002
 4075SOL     OW23683   2.397   1.849   1.320 -0.2183  0.7965  0.3551
 4075SOL    HW123684   2.452   1.826   1.245  0.0566  1.7248  0.2744
 4075SOL    HW223685   2.363   1.934   1.293 -0.8509 -0.6073 -3.2488
 4076SOL     OW23686   1.817   0.785   2.025  0.6463  0.3762 -0.0030
 4076SOL    HW123687   1.724   0.785   2.004  0.1976 -0.1733  2.0481
 4076SOL    HW223688   1.837   0.739   1.943 -1.8497 -2.8926  1.2527
 4077SOL     OW23689   2.842   0.629   8.947  0.2734 -0.4598 -0.5006
 4077SOL    HW123690   2.890   0.590   9.020  1.2523  0.6331 -0.5625
 4077SOL    HW223691   2.761   0.611   8.995  0.1850  1.5793  0.0844
 4078SOL     OW23692   2.114   2.181   5.441 -0.7033  0.2896 -0.0038
 4078SOL    HW123693   2.134   2.218   5.527  0.0942  1.8259 -0.8592
 4078SOL    HW223694   2.019   2.193   5.443 -0.6700  0.5504 -0.0082
 4079SOL     OW23695   3.125   2.509  14.457 -0.1234 -0.3447  0.1517
 4079SOL    HW123696   3.094   2.519  14.367  0.6109 -0.7216 -0.1443
 4079SOL    HW223697   3.050   2.463  14.495  1.8520 -2.5544  1.3774
 4080SOL     OW23698   0.537   2.835   9.962 -0.8419 -0.4766  0.5054
 4080SOL    HW123699   0.628   2.825   9.936 -0.6015  0.1742  1.1083
 4080SOL    HW223700   0.507   2.920   9.932 -0.4198 -0.8912 -1.0959
 4081SOL     OW23701   1.124   2.706   5.711 -0.1990 -0.4373  0.0867
 4081SOL    HW123702   1.195   2.753   5.755  0.5484 -2.3594  0.9336
 4081SOL    HW223703   1.100   2.626   5.758  1.9888 -0.8593  0.4896
 4082SOL     OW23704   1.250   4.557  11.530  0.0774  0.5706  0.5299
 4082SOL    HW123705   1.342   4.535  11.516 -0.0231 -0.2788  1.1818
 4082SOL    HW223706   1.207   4.477  11.501 -1.3745  1.3257  0.6123
 4083SOL     OW23707   3.863   2.562   3.372  0.1919 -0.5829 -0.0697
 4083SOL    HW123708   3.926   2.493   3.351 -0.7450 -1.4092 -0.1752
 4083SOL    HW223709   3.919   2.639   3.359 -2.6118  0.9412 -3.1174
 4084SOL     OW23710   2.257   4.486  14.267  0.0897  0.1221  0.0462
 4084SOL    HW123711   2.200   4.464  14.341  1.1470 -2.1374  0.1984
 4084SOL    HW223712   2.288   4.402  14.233 -0.4885  0.4919 -1.4170
 4085SOL     OW23713   2.647   1.222   5.949  0.3472 -0.3243 -0.0088
 4085SOL    HW123714   2.646   1.127   5.938 -1.1755 -0.6528  2.8308
 4085SOL    HW223715   2.662   1.258   5.862  0.1647  0.8768  0.4629
 4086SOL     OW23716   2.484   4.469   8.965 -0.0940  0.3419 -0.1737
 4086SOL    HW123717   2.502   4.477   9.058  0.2601 -1.0873 -0.1250
 4086SOL    HW223718   2.472   4.559   8.934  0.1721 -0.0441 -1.3988
 4087SOL     OW23719   0.918   0.584   8.296 -0.2370 -0.0744  0.4700
 4087SOL    HW123720   0.828   0.581   8.330 -1.0549  0.7588 -1.6862
 4087SOL    HW223721   0.950   0.602   8.385  0.8115  0.3839 -0.0093
 4088SOL     OW23722   2.079   3.148   4.648  0.2405 -0.5284 -0.0614
 4088SOL    HW123723   2.068   3.220   4.710  0.0006 -0.3655 -0.2912
 4088SOL    HW223724   2.165   3.112   4.669  0.2565  0.7844  2.0973
 4089SOL     OW23725   1.941   3.451  12.844 -0.5398 -0.2133 -0.8883
 4089SOL    HW123726   1.874   3.516  12.863  0.3961  0.7088 -0.7366
 4089SOL    HW223727   1.913   3.424  12.757 -2.4255 -1.1969  0.0262
 4090SOL     OW23728   4.190   4.673   8.245  0.0803 -0.0221  0.2113
 4090SOL    HW123729   4.132   4.603   8.214  0.2451  0.9969 -2.3700
 4090SOL    HW223730   4.276   4.643   8.215 -0.4724 -0.0654 -1.2857
 4091SOL     OW23731   1.443   4.370  16.544  0.7992  0.0075  0.1475
 4091SOL    HW123732   1.390   4.342  16.618 -0.3397 -0.5692 -0.8988
 4091SOL    HW223733   1.525   4.381  16.592 -0.1196  1.1637  1.4606
 4092SOL     OW23734   4.094   2.135  14.501 -0.2026  0.1276 -0.0931
 4092SOL    HW123735   4.124   2.215  14.544 -0.4642  0.9390 -1.4141
 4092SOL    HW223736   4.015   2.172  14.460  0.4924 -0.8405 -2.2657
 4093SOL     OW23737   4.502   0.920   2.838  0.4115 -0.0324 -0.1328
 4093SOL    HW123738   4.418   0.949   2.874  1.1594  1.9689 -0.0340
 4093SOL    HW223739   4.549   0.971   2.903 -0.2626  1.0416 -0.4780
 4094SOL     OW23740   4.605   3.365   4.224 -0.4400  0.3599  0.0378
 4094SOL    HW123741   4.539   3.306   4.190 -0.7421 -0.1422  1.4794
 4094SOL    HW223742   4.637   3.403   4.142 -0.2182 -0.7291 -0.3759
 4095SOL     OW23743   0.170   1.965  11.763  0.0934 -0.0844 -0.0136
 4095SOL    HW123744   0.113   1.907  11.712 -0.8205  2.4008 -1.8106
 4095SOL    HW223745   0.240   1.904  11.789 -0.4689 -0.8063 -0.2037
 4096SOL     OW23746   1.564   3.658  16.691 -0.8143  0.7549 -0.3547
 4096SOL    HW123747   1.631   3.632  16.754 -0.4816 -0.2140 -1.0975
 4096SOL    HW223748   1.565   3.754  16.692  1.0900  0.7428  0.1057
 4097SOL     OW23749   3.511   0.605   6.677  0.2450  0.1826 -0.1058
 4097SOL    HW123750   3.490   0.511   6.674 -0.0842  0.2624 -0.2534
 4097SOL    HW223751   3.601   0.598   6.709 -0.2778  0.8723  1.4910
 4098SOL     OW23752   0.833   0.289   7.741 -0.3214 -0.7829 -0.0794
 4098SOL    HW123753   0.909   0.280   7.684  0.4189  1.9649  0.5055
 4098SOL    HW223754   0.849   0.235   7.819  0.1105  0.0099  0.3813
 4099SOL     OW23755   3.858   0.463   3.352  0.2543  0.0068  0.1231
 4099SOL    HW123756   3.788   0.421   3.302  0.1614  0.9069 -0.4903
 4099SOL    HW223757   3.878   0.539   3.298  3.4046 -0.0443  1.1936
 4100SOL     OW23758   2.574   3.652  17.246 -0.6208  0.5378  0.5025
 4100SOL    HW123759   2.559   3.566  17.286  0.0884  0.2058  0.0557
 4100SOL    HW223760   2.512   3.673  17.175 -2.1525  0.7906  1.9202
 4101SOL     OW23761   0.198   3.796   5.924  0.5483  0.0265  0.4336
 4101SOL    HW123762   0.229   3.874   5.970  2.2680 -1.8025  2.3820
 4101SOL    HW223763   0.110   3.790   5.962  0.5998 -2.0123  0.2323
 4102SOL     OW23764   3.151   0.216   6.873  0.1506  0.2768 -0.2787
 4102SOL    HW123765   3.209   0.278   6.917 -0.0544  0.3079 -0.0583
 4102SOL    HW223766   3.118   0.172   6.951  0.7748  0.4295  0.0719
 4103SOL     OW23767   1.962   1.441   0.053 -0.1784  0.8209  0.2295
 4103SOL    HW123768   1.883   1.486   0.082 -0.5493  0.1470  0.2574
 4103SOL    HW223769   2.036   1.489   0.091  1.6405 -0.1069 -2.1327
 4104SOL     OW23770   4.054   0.529   9.512  0.6096  0.0119 -0.0691
 4104SOL    HW123771   4.018   0.513   9.425  0.8647  0.7110 -0.3005
 4104SOL    HW223772   4.072   0.444   9.554 -0.6769  0.3872  1.2381
 4105SOL     OW23773   3.492   1.867   5.663  0.1541 -0.7601 -0.3061
 4105SOL    HW123774   3.471   1.873   5.570 -0.1237 -0.7524 -0.2408
 4105SOL    HW223775   3.483   1.959   5.687 -0.5921 -0.7007 -0.8383
 4106SOL     OW23776   2.032   1.515   4.017 -0.1804 -0.3553 -0.1014
 4106SOL    HW123777   1.991   1.553   3.939 -2.5650 -0.5781  1.0482
 4106SOL    HW223778   2.073   1.594   4.052  0.6954 -0.1569 -1.5680
 4107SOL     OW23779   1.087   1.478   3.749  0.4501  0.3556 -0.1879
 4107SOL    HW123780   1.138   1.410   3.793  0.6469  0.6065 -0.0328
 4107SOL    HW223781   1.069   1.539   3.821  0.6752 -0.4511  0.5476
 4108SOL     OW23782   3.734   4.131   6.765 -0.2381  0.3044 -0.5881
 4108SOL    HW123783   3.692   4.048   6.740  3.6514 -2.5258  2.2275
 4108SOL    HW223784   3.761   4.112   6.855 -0.3102  0.6009 -0.5042
 4109SOL     OW23785   2.521   0.451  12.985  0.1855  0.2087 -0.4708
 4109SOL    HW123786   2.515   0.371  13.036 -0.7616  1.8485  1.9834
 4109SOL    HW223787   2.616   0.456  12.983  0.2307 -0.1280  0.8908
 4110SOL     OW23788   2.506   0.740   3.638  0.1716 -0.1776 -0.1226
 4110SOL    HW123789   2.459   0.657   3.635 -2.5643  1.3281  1.1974
 4110SOL    HW223790   2.592   0.708   3.610  0.6967 -1.2032  2.6438
 4111SOL     OW23791   4.452   0.424   9.648 -0.1633 -0.5120  0.2802
 4111SOL    HW123792   4.434   0.376   9.729  0.5122 -0.8406  0.2380
 4111SOL    HW223793   4.465   0.507   9.693  0.3935  0.8806 -2.4522
 4112SOL     OW23794   2.740   4.658  12.743 -0.2665 -0.3692 -0.1933
 4112SOL    HW123795   2.733   4.711  12.823  3.3728  0.5775 -0.4833
 4112SOL    HW223796   2.827   4.679  12.707  0.1672 -3.5209 -0.9514
 4113SOL     OW23797   0.864   4.716   6.232  0.0769  0.3266 -0.3645
 4113SOL    HW123798   0.924   4.642   6.222 -0.3463 -0.0243 -0.3300
 4113SOL    HW223799   0.784   4.688   6.186  0.1492  0.2241 -0.4273
 4114SOL     OW23800   4.001   1.525   2.482  0.5235 -0.6196  0.0962
 4114SOL    HW123801   3.959   1.524   2.568 -0.5769 -4.5911 -0.4755
 4114SOL    HW223802   4.067   1.594   2.491  1.7944 -1.7788 -0.3446
 4115SOL     OW23803   0.707   1.564   0.231 -0.1233 -0.3471 -0.4945
 4115SOL    HW123804   0.619   1.567   0.194 -0.5837  1.0898  0.7431
 4115SOL    HW223805   0.704   1.475   0.267  0.4682  0.6638  2.0518
 4116SOL     OW23806   3.037   1.004  15.069 -0.3435 -0.0509 -0.1301
 4116SOL    HW123807   2.979   0.978  14.997 -0.7188 -0.1364  0.2027
 4116SOL    HW223808   3.052   1.092  15.035  1.7790  0.4032  2.0090
 4117SOL     OW23809   3.834   1.388   4.410 -0.1932  0.5120 -0.8623
 4117SOL    HW123810   3.899   1.320   4.430  1.4656  1.6443 -2.3745
 4117SOL    HW223811   3.874   1.435   4.337  1.1267  1.5070  0.5073
 4118SOL     OW23812   4.307   4.284   5.030 -0.3361 -0.1900  0.1837
 4118SOL    HW123813   4.341   4.347   4.967  0.3270 -0.5600  0.1761
 4118SOL    HW223814   4.357   4.321   5.102  3.0875 -0.7129 -1.9352
 4119SOL     OW23815   1.667   4.068   7.330  0.4975 -0.2506 -0.3128
 4119SOL    HW123816   1.677   4.046   7.423 -0.9153  0.1254 -0.0782
 4119SOL    HW223817   1.595   4.014   7.297  0.6553  0.9957 -2.6776
 4120SOL     OW23818   1.694   1.891   7.494 -0.3220 -0.1806 -0.2789
 4120SOL    HW123819   1.661   1.906   7.406  1.6601  0.0306 -0.9722
 4120SOL    HW223820   1.675   1.975   7.536 -0.5278 -0.3088 -0.1135
 4121SOL     OW23821   3.972   4.519   6.852 -0.0444  0.0495 -0.0085
 4121SOL    HW123822   3.913   4.493   6.923  1.3431 -1.9273  0.4537
 4121SOL    HW223823   4.023   4.438   6.843  0.2405  0.1226  0.9864
 4122SOL     OW23824   0.211   4.346   7.849  0.3358  0.1627  0.3679
 4122SOL    HW123825   0.169   4.432   7.851  0.0131  0.0541 -2.4679
 4122SOL    HW223826   0.134   4.296   7.877  0.2413 -0.8404 -1.6977
 4123SOL     OW23827   3.007   4.411  13.563  0.0316 -0.2842  0.1059
 4123SOL    HW123828   2.927   4.383  13.519  0.5138 -0.8600 -0.3931
 4123SOL    HW223829   3.059   4.334  13.586 -2.2664 -1.6992  0.5265
 4124SOL     OW23830   0.334   3.053   3.664  0.1778  0.2583 -0.2531
 4124SOL    HW123831   0.329   3.147   3.678 -0.7644  0.7767 -3.8917
 4124SOL    HW223832   0.263   3.033   3.726  0.5655  1.7177  0.6589
 4125SOL     OW23833   2.361   2.859   8.534  0.1844 -0.7919 -0.3260
 4125SOL    HW123834   2.372   2.844   8.627 -0.3782  0.0928 -0.1168
 4125SOL    HW223835   2.449   2.853   8.497  0.7179 -2.4169  1.2255
 4126SOL     OW23836   4.595   4.118   0.458 -0.0373  0.6541 -0.4506
 4126SOL    HW123837   4.601   4.065   0.379  1.6443  1.1696 -0.6723
 4126SOL    HW223838   4.686   4.138   0.483  0.0390  0.6430 -0.7227
 4127SOL     OW23839   3.833   2.360  13.213 -0.4673 -0.3031 -0.2866
 4127SOL    HW123840   3.827   2.269  13.242  2.0249 -0.6642 -0.8972
 4127SOL    HW223841   3.922   2.369  13.179 -0.9102 -1.3537 -1.7181
 4128SOL     OW23842   2.855   0.934   4.476  0.2769  0.0567 -0.6849
 4128SOL    HW123843   2.873   1.010   4.531 -1.0743  0.7736 -1.2147
 4128SOL    HW223844   2.900   0.954   4.394  0.2344  2.1972 -0.1815
 4129SOL     OW23845   3.462   1.039   7.993 -0.0005  0.1928  0.0018
 4129SOL    HW123846   3.407   1.083   8.058  0.0012 -0.0207  0.1489
 4129SOL    HW223847   3.399   0.972   7.966 -0.2641 -0.7673  3.0322
 4130SOL     OW23848   4.056   3.274  14.289  0.6399 -0.5681  0.0955
 4130SOL    HW123849   4.054   3.230  14.204 -1.4738  2.5801 -1.4701
 4130SOL    HW223850   4.030   3.199  14.343 -3.3498  0.6322 -0.1562
 4131SOL     OW23851   0.124   3.022  11.381  0.0363  0.0255  0.1341
 4131SOL    HW123852   0.113   3.066  11.297 -0.8000 -0.6857 -0.1272
 4131SOL    HW223853   0.074   3.078  11.442  0.0975 -0.6584  0.8057
 4132SOL     OW23854   1.660   4.377   7.320 -0.0232 -0.1666 -0.7814
 4132SOL    HW123855   1.613   4.307   7.366  0.1593  0.0342 -0.2884
 4132SOL    HW223856   1.713   4.329   7.256 -0.8268 -0.0406 -1.5476
 4133SOL     OW23857   2.960   0.513   1.012 -0.4767  0.2011  0.3246
 4133SOL    HW123858   2.987   0.422   1.021  3.3463  1.2849 -0.1795
 4133SOL    HW223859   2.982   0.537   0.922 -0.9279 -0.6579 -0.0073
 4134SOL     OW23860   1.748   1.701   0.363  0.2613 -0.0315 -0.4518
 4134SOL    HW123861   1.696   1.643   0.308 -4.0494  1.9234  1.5461
 4134SOL    HW223862   1.813   1.645   0.405  0.7240 -1.4948 -3.1294
 4135SOL     OW23863   4.401   4.059   9.815  0.2471  0.6252  0.3000
 4135SOL    HW123864   4.311   4.037   9.792  0.1247 -0.1460  1.5038
 4135SOL    HW223865   4.450   4.043   9.734 -1.0027  1.5088 -0.6174
 4136SOL     OW23866   1.225   0.107  11.510  0.1294  0.4416 -0.3023
 4136SOL    HW123867   1.130   0.118  11.515  0.2082 -0.6667  3.2070
 4136SOL    HW223868   1.229   0.013  11.526  1.3009  0.1787 -2.1600
 4137SOL     OW23869   1.852   0.911  15.214 -0.0081  0.2881  0.1686
 4137SOL    HW123870   1.929   0.855  15.221 -1.1502 -1.3312 -0.3832
 4137SOL    HW223871   1.894   0.997  15.212 -0.2747  0.3777 -1.3875
 4138SOL     OW23872   4.700   1.755   3.557 -0.0048  0.4530 -0.3521
 4138SOL    HW123873   4.711   1.675   3.608 -1.3497 -0.0769 -0.8980
 4138SOL    HW223874   4.712   1.827   3.620  0.9413 -1.9112  2.1389
 4139SOL     OW23875   2.529   4.199  16.754  0.2231 -0.2606 -0.2976
 4139SOL    HW123876   2.515   4.105  16.746 -1.1022 -0.1406  0.5760
 4139SOL    HW223877   2.610   4.203  16.804 -0.6928 -1.5435  1.2857
 4140SOL     OW23878   0.023   1.725  17.638 -0.1843  0.0615  0.3212
 4140SOL    HW123879   0.052   1.644   0.003  2.4889  1.4673  1.1269
 4140SOL    HW223880   4.684   1.703  17.565  1.4046 -0.5564 -0.7400
 4141SOL     OW23881   1.050   4.235   4.882 -0.4439  0.4559  0.5196
 4141SOL    HW123882   1.123   4.283   4.920 -0.3089  1.9475 -1.6087
 4141SOL    HW223883   1.057   4.253   4.788  1.7197  1.2690  0.8365
 4142SOL     OW23884   1.175   2.480   4.240 -0.4752 -0.2664 -0.0093
 4142SOL    HW123885   1.135   2.513   4.160  2.3088  1.6610 -0.5926
 4142SOL    HW223886   1.178   2.387   4.219  2.0300 -0.2025 -0.0203
 4143SOL     OW23887   4.536   2.131  14.081  0.1252  0.4435  0.6854
 4143SOL    HW123888   4.579   2.059  14.035 -2.9822 -0.7186 -0.3888
 4143SOL    HW223889   4.552   2.114  14.174  0.3661 -0.9773  0.3783
 4144SOL     OW23890   0.262   3.315   6.574  0.5174 -0.0039 -0.1945
 4144SOL    HW123891   0.261   3.410   6.581  0.1139  0.0785 -1.2974
 4144SOL    HW223892   0.170   3.304   6.547 -0.4565  1.4853  2.5474
 4145SOL     OW23893   0.548   0.941   3.787  0.6873  0.8524  0.2796
 4145SOL    HW123894   0.466   0.906   3.753  0.4000  2.8527 -1.0997
 4145SOL    HW223895   0.566   1.022   3.739  0.8191  0.0281 -1.0583
 4146SOL     OW23896   1.450   1.187  13.189  0.3288 -0.4213 -0.4805
 4146SOL    HW123897   1.419   1.158  13.103  0.4992  0.5583 -0.8836
 4146SOL    HW223898   1.527   1.242  13.171 -0.4634  0.9991  0.4112
 4147SOL     OW23899   2.121   2.805   8.340 -0.4985 -0.0064  0.3964
 4147SOL    HW123900   2.207   2.821   8.377 -0.4846  0.7539  0.0381
 4147SOL    HW223901   2.069   2.785   8.418 -2.4448 -1.0068 -1.1488
 4148SOL     OW23902   1.444   0.485   7.360 -0.4268  0.1047 -0.2484
 4148SOL    HW123903   1.358   0.444   7.348 -0.2012 -0.7001  0.9109
 4148SOL    HW223904   1.431   0.501   7.454 -0.6391 -0.3806 -0.1930
 4149SOL     OW23905   4.521   1.738   9.863  0.2284  0.4355  0.0760
 4149SOL    HW123906   4.485   1.826   9.855 -2.0300 -0.4294  0.8259
 4149SOL    HW223907   4.457   1.694   9.918  1.3353 -3.2889 -1.6028
 4150SOL     OW23908   3.796   3.796  12.406 -0.5045  0.0336  0.2295
 4150SOL    HW123909   3.892   3.791  12.407 -0.5541 -1.2736 -2.7251
 4150SOL    HW223910   3.781   3.841  12.323 -0.4904  0.9061  0.6907
 4151SOL     OW23911   4.113   2.885   2.172 -0.1725  0.4907 -0.1807
 4151SOL    HW123912   4.116   2.794   2.140 -1.4657  0.0030  1.0764
 4151SOL    HW223913   4.206   2.892   2.192 -0.2564  3.1317 -0.7501
 4152SOL     OW23914   0.549   4.550   5.655 -0.6179 -0.0075  0.6229
 4152SOL    HW123915   0.609   4.615   5.693 -1.6212  0.2590  1.7827
 4152SOL    HW223916   0.475   4.537   5.715  0.0915 -0.4206  1.4005
 4153SOL     OW23917   1.474   1.745   4.483  0.1040 -0.0342  0.1579
 4153SOL    HW123918   1.551   1.793   4.452 -0.4358  1.8182  1.7579
 4153SOL    HW223919   1.509   1.688   4.552  1.5794  1.5315  0.6902
 4154SOL     OW23920   1.688   2.516   7.591 -0.5001  0.3918 -0.2145
 4154SOL    HW123921   1.712   2.450   7.526 -1.3150  0.2349 -0.3623
 4154SOL    HW223922   1.650   2.453   7.652 -1.1456  1.1415  0.1693
 4155SOL     OW23923   0.156   4.490   7.190 -0.5647 -0.2762  0.1467
 4155SOL    HW123924   0.070   4.461   7.220 -1.2997 -0.3628 -2.0074
 4155SOL    HW223925   0.183   4.399   7.176 -0.5749 -0.0989 -1.0907
 4156SOL     OW23926   0.931   0.751   1.997  0.2119 -0.6108 -0.0448
 4156SOL    HW123927   0.909   0.840   2.026 -1.9446 -1.1342 -0.0255
 4156SOL    HW223928   0.848   0.718   2.033 -0.3064  1.2121  0.4364
 4157SOL     OW23929   0.053   2.997   3.357  0.2880  0.1165  0.2443
 4157SOL    HW123930   0.047   3.091   3.370  1.8262  0.0115  1.7250
 4157SOL    HW223931   0.084   2.996   3.267  0.9529  0.5431  0.4725
 4158SOL     OW23932   0.565   2.938   3.542  0.1134 -0.0851 -0.3614
 4158SOL    HW123933   0.504   2.891   3.485  0.7852 -2.2493  0.6992
 4158SOL    HW223934   0.502   2.980   3.601  1.3503 -0.3342  1.1307
 4159SOL     OW23935   0.836   2.344   3.308 -0.2226  0.1710 -0.6541
 4159SOL    HW123936   0.754   2.392   3.297 -1.7838 -2.3029  0.1875
 4159SOL    HW223937   0.852   2.309   3.220 -1.2334  2.0660 -1.5983
 4160SOL     OW23938   0.255   2.836   0.925  0.2260 -0.4417  0.2732
 4160SOL    HW123939   0.346   2.845   0.954 -0.5238  1.0324  2.1479
 4160SOL    HW223940   0.227   2.749   0.951  2.2584 -0.9431  0.8305
 4161SOL     OW23941   1.162   0.829   2.536 -0.4001  0.5524  0.3878
 4161SOL    HW123942   1.076   0.866   2.517 -1.1771 -0.5143  1.7333
 4161SOL    HW223943   1.152   0.739   2.506  3.5622 -0.4104  1.9612
 4162SOL     OW23944   1.453   3.621  11.875  0.0076  0.0435  0.9085
 4162SOL    HW123945   1.393   3.671  11.820  0.8271 -0.5075 -0.4857
 4162SOL    HW223946   1.541   3.648  11.848  0.8070 -0.1003  3.3314
 4163SOL     OW23947   1.756   0.408  15.090 -0.2793 -0.0264 -0.4764
 4163SOL    HW123948   1.675   0.453  15.067 -0.6316 -0.3846  0.0594
 4163SOL    HW223949   1.736   0.390  15.181  1.3916 -2.2442 -0.5359
 4164SOL     OW23950   3.189   2.666  10.482  0.6994 -0.8784  0.2629
 4164SOL    HW123951   3.160   2.625  10.400  0.5956 -0.8059  0.2630
 4164SOL    HW223952   3.265   2.705  10.439  0.5330 -1.0299 -0.1771
 4165SOL     OW23953   2.205   3.711  12.191  0.0743 -0.2824 -0.7789
 4165SOL    HW123954   2.146   3.652  12.144 -1.6856  0.9386 -0.0900
 4165SOL    HW223955   2.233   3.660  12.267 -0.7906  0.3510 -0.0357
 4166SOL     OW23956   0.759   4.574  14.990 -0.3780 -0.1494 -0.4941
 4166SOL    HW123957   0.733   4.509  14.925 -3.4828 -0.1851  0.8200
 4166SOL    HW223958   0.851   4.553  15.008 -1.0704 -1.8821  0.9645
 4167SOL     OW23959   1.393   1.334   2.103  0.3309 -0.1403  0.1374
 4167SOL    HW123960   1.349   1.326   2.018  0.2989 -0.0173  0.1417
 4167SOL    HW223961   1.439   1.250   2.104 -0.7850 -0.7453  0.9099
 4168SOL     OW23962   0.742   2.411   4.448  0.7581 -0.1486 -0.0650
 4168SOL    HW123963   0.824   2.449   4.480  1.7050 -0.2223 -2.4064
 4168SOL    HW223964   0.733   2.330   4.499  0.3889 -0.6011 -0.8506
 4169SOL     OW23965   2.259   2.150   2.168 -0.3506  0.6749  0.0795
 4169SOL    HW123966   2.236   2.237   2.199  0.4109 -0.1178  2.8661
 4169SOL    HW223967   2.214   2.096   2.232 -0.8261  0.1061 -0.7264
 4170SOL     OW23968   1.812   2.961  16.190  0.3503 -0.0574 -0.3446
 4170SOL    HW123969   1.904   2.967  16.163  0.9023  2.4158  2.1258
 4170SOL    HW223970   1.796   2.868  16.206 -0.0341 -0.2701 -1.8892
 4171SOL     OW23971   0.222   3.572   4.247  0.7531  0.2283  0.2325
 4171SOL    HW123972   0.247   3.663   4.264 -1.5063  1.4673 -3.2060
 4171SOL    HW223973   0.133   3.571   4.282 -0.1166  1.3816 -1.9462
 4172SOL     OW23974   1.240   1.541   6.929  0.1957  0.9018 -0.3998
 4172SOL    HW123975   1.171   1.528   6.864  0.0051 -2.0985  0.4006
 4172SOL    HW223976   1.182   1.525   7.004 -2.1989  0.7717 -2.2913
 4173SOL     OW23977   3.186   1.893   9.190 -0.0879  0.5284  0.2722
 4173SOL    HW123978   3.216   1.813   9.146 -0.5814  0.8668 -0.6711
 4173SOL    HW223979   3.101   1.870   9.227  1.3594 -0.9744  2.6903
 4174SOL     OW23980   3.813   4.085   1.895  0.1625 -0.1476  0.2257
 4174SOL    HW123981   3.852   4.002   1.865  0.5778 -0.5865  2.0031
 4174SOL    HW223982   3.842   4.083   1.986  1.0254  2.1896  0.0104
 4175SOL     OW23983   3.652   2.579   7.075 -0.3563  0.1414 -0.4133
 4175SOL    HW123984   3.635   2.540   6.989 -3.6223 -0.2040  0.3629
 4175SOL    HW223985   3.590   2.539   7.137  0.2338  0.5995  0.4691
 4176SOL     OW23986   0.092   3.351   3.203  0.0913  0.3814 -0.2813
 4176SOL    HW123987   0.124   3.279   3.148 -1.0809 -1.1775  1.0823
 4176SOL    HW223988   0.037   3.399   3.142 -2.6347 -1.9445  0.3499
 4177SOL     OW23989   0.610   0.607   2.597  0.0189  0.3255  0.4819
 4177SOL    HW123990   0.597   0.569   2.684 -0.2418  1.1151  0.7829
 4177SOL    HW223991   0.553   0.683   2.603 -0.9764 -0.3943  0.0515
 4178SOL     OW23992   0.715   2.749  15.717 -0.0909  0.0465  0.5553
 4178SOL    HW123993   0.751   2.824  15.671  2.1240 -1.1633  0.3390
 4178SOL    HW223994   0.712   2.691  15.641 -0.2846 -0.2072  0.7532
 4179SOL     OW23995   2.439   0.218   1.737 -0.4394 -0.2735  0.8130
 4179SOL    HW123996   2.467   0.294   1.686  0.8342 -2.2649 -1.4690
 4179SOL    HW223997   2.429   0.154   1.666 -1.2301 -0.3712  1.0210
 4180SOL     OW23998   2.356   0.108   3.779 -0.2902 -0.3189  0.1447
 4180SOL    HW123999   2.298   0.038   3.810 -0.9632  0.1536 -0.0502
 4180SOL    HW224000   2.325   0.172   3.843  1.8234  2.2330 -1.4053
 4181SOL     OW24001   3.650   2.291   5.563 -0.1635  0.1516  1.1062
 4181SOL    HW124002   3.589   2.339   5.507  1.0967  2.0506  1.3626
 4181SOL    HW224003   3.595   2.217   5.589  0.2853 -0.7800 -0.5839
 4182SOL     OW24004   2.008   0.313   6.182 -0.8600 -0.5512 -0.1539
 4182SOL    HW124005   1.988   0.241   6.123 -0.6607 -0.3572 -0.4563
 4182SOL    HW224006   2.012   0.266   6.266  0.1779 -1.0033 -0.4580
 4183SOL     OW24007   0.553   1.887   6.826 -0.6211  0.9335  0.0286
 4183SOL    HW124008   0.466   1.880   6.865 -0.7633  0.2953 -0.4076
 4183SOL    HW224009   0.545   1.851   6.738  0.6593 -0.4115  0.4620
 4184SOL     OW24010   3.929   2.892   6.692  0.5084  0.0911 -0.3097
 4184SOL    HW124011   3.894   2.828   6.754  2.8059 -0.6048  0.2856
 4184SOL    HW224012   3.943   2.961   6.756 -0.3437 -0.9545  0.9848
 4185SOL     OW24013   4.467   3.296  11.238 -0.0556 -0.0620 -0.2171
 4185SOL    HW124014   4.505   3.252  11.162  0.5828  2.6424 -1.4570
 4185SOL    HW224015   4.547   3.315  11.286  0.2911 -3.3730  0.5139
 4186SOL     OW24016   2.315   4.057   9.321 -0.0227  0.0768 -0.0943
 4186SOL    HW124017   2.409   4.063   9.336  0.0194 -0.6398 -0.0504
 4186SOL    HW224018   2.287   4.027   9.408 -0.2222  1.9876  0.5060
 4187SOL     OW24019   0.899   2.795   6.724  0.1152  0.6154 -0.1638
 4187SOL    HW124020   0.943   2.787   6.809 -1.6314  0.9166  0.7626
 4187SOL    HW224021   0.815   2.764   6.757  1.2688 -1.3566  0.9790
 4188SOL     OW24022   2.629   0.654  11.232 -0.3477 -0.0577 -0.1509
 4188SOL    HW124023   2.634   0.695  11.146  2.8082 -0.8873 -0.3785
 4188SOL    HW224024   2.605   0.562  11.221 -0.5037 -0.0244 -0.0889
 4189SOL     OW24025   3.238   2.763  12.906 -0.4508  0.2662  0.4031
 4189SOL    HW124026   3.206   2.673  12.903  2.3000 -0.6521 -1.3030
 4189SOL    HW224027   3.212   2.791  12.994  1.1619  3.5133 -0.1524
 4190SOL     OW24028   2.548   3.721   3.620 -0.1250  0.3144  0.0321
 4190SOL    HW124029   2.472   3.701   3.565 -0.3055  0.9158  0.0649
 4190SOL    HW224030   2.598   3.647   3.586 -0.7210  0.5971 -1.4944
 4191SOL     OW24031   4.142   3.076   6.158 -0.0587 -0.6441 -0.1136
 4191SOL    HW124032   4.157   3.160   6.203 -1.1569 -0.0134 -0.9425
 4191SOL    HW224033   4.123   3.098   6.067  2.4476  2.5556  0.1328
 4192SOL     OW24034   0.478   3.070   4.553  0.1317 -0.2301 -0.0432
 4192SOL    HW124035   0.503   2.992   4.604  1.0817 -0.7006 -1.2466
 4192SOL    HW224036   0.384   3.052   4.546  0.9785 -4.3400 -1.0134
 4193SOL     OW24037   3.176   2.798   5.437  0.1649 -0.5485 -0.1470
 4193SOL    HW124038   3.135   2.869   5.385 -0.5044 -1.3668 -0.7482
 4193SOL    HW224039   3.119   2.729   5.403  0.6925 -1.5220  0.9971
 4194SOL     OW24040   4.587   2.142   2.845 -0.2136 -0.2088  0.1429
 4194SOL    HW124041   4.571   2.201   2.772 -0.2487  0.0822  0.3825
 4194SOL    HW224042   4.558   2.197   2.919  1.5402  0.9184 -0.0072
 4195SOL     OW24043   3.486   3.113   7.390  0.5476  0.4205 -0.2226
 4195SOL    HW124044   3.526   3.082   7.472  0.6301 -1.0064 -0.8019
 4195SOL    HW224045   3.474   3.207   7.405 -3.8990 -0.5445  2.1898
 4196SOL     OW24046   4.499   3.436   9.875 -0.4405 -0.3098  0.3714
 4196SOL    HW124047   4.481   3.348   9.908 -2.4914 -0.3517 -0.8526
 4196SOL    HW224048   4.589   3.419   9.850 -0.8664 -0.4878 -1.0056
 4197SOL     OW24049   0.873   4.417   6.403 -0.2895  0.1754  0.1373
 4197SOL    HW124050   0.840   4.358   6.335 -0.1799  3.5752 -2.8211
 4197SOL    HW224051   0.963   4.388   6.418 -0.5403 -0.3115  0.7040
 4198SOL     OW24052   0.039   0.326   2.110 -0.6089  0.0741 -0.1344
 4198SOL    HW124053   4.695   0.255   2.124 -1.0154  0.4447 -0.0469
 4198SOL    HW224054   0.099   0.291   2.045 -0.9955  0.4640 -0.6999
 4199SOL     OW24055   0.254   0.146  11.882 -0.2724  0.0568 -0.0716
 4199SOL    HW124056   0.335   0.187  11.911  0.1298 -1.2762  0.6935
 4199SOL    HW224057   0.183   0.192  11.926  0.5766  0.1935  1.1451
 4200SOL     OW24058   2.935   3.779  12.638  0.1195  0.3373  0.1145
 4200SOL    HW124059   2.930   3.701  12.584 -1.4681 -0.1760  1.0099
 4200SOL    HW224060   2.943   3.843  12.567  0.5642  0.5032  0.3113
 4201SOL     OW24061   0.807   1.221   7.203 -1.0313  0.7255 -0.4597
 4201SOL    HW124062   0.745   1.150   7.186 -0.4325 -0.2448  1.3961
 4201SOL    HW224063   0.777   1.281   7.135  0.4007  0.8518 -0.9723
 4202SOL     OW24064   2.576   1.907   8.575 -0.0954  0.3758  0.1002
 4202SOL    HW124065   2.624   1.832   8.610  0.7167  0.1980 -1.3783
 4202SOL    HW224066   2.637   1.931   8.505 -0.0692 -0.6443 -0.2285
 4203SOL     OW24067   0.102   1.355  17.087 -0.0610  0.2012  0.3009
 4203SOL    HW124068   0.096   1.275  17.036 -0.5532  1.5173 -1.7082
 4203SOL    HW224069   0.135   1.414  17.019  0.6777 -0.0170  0.4721
 4204SOL     OW24070   3.419   2.012   4.856 -0.0826  0.7993  0.2178
 4204SOL    HW124071   3.495   1.954   4.851 -2.4163 -2.1594 -0.6123
 4204SOL    HW224072   3.419   2.042   4.764 -1.3702  1.8541  0.5591
 4205SOL     OW24073   2.011   0.841  17.501  0.5886 -0.2669 -0.2737
 4205SOL    HW124074   2.092   0.823  17.548 -0.8557  2.6451  3.3907
 4205SOL    HW224075   1.945   0.773  17.518  0.0191  0.2313 -0.4779
 4206SOL     OW24076   3.287   2.285  13.237  0.7331 -0.5214  0.2065
 4206SOL    HW124077   3.228   2.234  13.182  2.5396 -0.6843 -1.5892
 4206SOL    HW224078   3.323   2.218  13.295  0.0026 -0.9355  0.1843
 4207SOL     OW24079   4.174   0.089   9.154  0.2123  0.2037  0.1215
 4207SOL    HW124080   4.111   0.148   9.195 -0.1736 -1.2495  1.6164
 4207SOL    HW224081   4.226   0.138   9.091 -0.3567 -0.5686 -0.9380
 4208SOL     OW24082   2.216   4.029   1.953 -0.4665 -0.4863  0.3416
 4208SOL    HW124083   2.168   4.104   1.987 -1.1542 -1.4687  1.5068
 4208SOL    HW224084   2.303   4.064   1.931  0.0529 -3.5501 -2.5226
 4209SOL     OW24085   0.286   0.224   4.495 -0.2221  0.1311 -0.1107
 4209SOL    HW124086   0.317   0.191   4.579  1.5060 -1.1139 -1.2588
 4209SOL    HW224087   0.360   0.206   4.438 -0.2115  1.5368 -0.5572
 4210SOL     OW24088   3.381   2.927  11.368  0.1788 -0.6372 -0.4831
 4210SOL    HW124089   3.407   3.003  11.317  0.5282 -0.7198 -0.4294
 4210SOL    HW224090   3.387   2.861  11.299  1.1970  2.0303 -2.9040
 4211SOL     OW24091   2.440   0.303   6.864 -0.2867  0.1189 -0.2040
 4211SOL    HW124092   2.378   0.235   6.891 -1.8167  1.4793 -0.2378
 4211SOL    HW224093   2.475   0.339   6.945 -0.4956  0.7297 -0.3841
 4212SOL     OW24094   3.367   4.713   4.471  0.1675  0.0616 -0.0587
 4212SOL    HW124095   3.326   4.633   4.506  0.9768  1.4235  3.9393
 4212SOL    HW224096   3.308   0.062   4.503 -0.7209 -0.7039 -0.0275
 4213SOL     OW24097   2.185   0.816   3.767 -0.0204 -0.6459 -0.2654
 4213SOL    HW124098   2.276   0.805   3.795 -0.1169  2.3610  1.1512
 4213SOL    HW224099   2.177   0.761   3.689 -0.4778  0.7569 -1.1951
 4214SOL     OW24100   0.459   1.025   6.336  0.3659 -0.6926 -0.1005
 4214SOL    HW124101   0.511   0.946   6.351  0.9208 -0.5337 -1.1722
 4214SOL    HW224102   0.380   0.985   6.299  0.2192 -1.4064  0.9791
 4215SOL     OW24103   1.836   0.213   7.534  0.2752 -0.7213  0.2318
 4215SOL    HW124104   1.874   0.186   7.451  0.7361  0.2763  0.1230
 4215SOL    HW224105   1.799   0.131   7.567  0.1005 -0.5788  0.3962
 4216SOL     OW24106   2.589   0.187   6.292  0.2098 -0.5954 -0.3293
 4216SOL    HW124107   2.568   0.225   6.378 -1.3852  0.6661 -1.2710
 4216SOL    HW224108   2.640   0.252   6.243  0.1781 -1.0471 -0.9641
 4217SOL     OW24109   2.079   2.996   5.256  0.1083  0.4110 -0.0101
 4217SOL    HW124110   2.094   2.946   5.176 -1.7091  1.8881 -1.2734
 4217SOL    HW224111   2.169   3.023   5.272 -0.1726  1.5344 -0.2663
 4218SOL     OW24112   2.618   0.043   2.591  0.3744  0.3041 -0.0060
 4218SOL    HW124113   2.537   0.078   2.553  0.7998  0.7323 -0.5308
 4218SOL    HW224114   2.688   0.086   2.541  1.4519 -0.1389  1.1244
 4219SOL     OW24115   4.397   3.701   8.565  0.2388 -0.2294  0.5723
 4219SOL    HW124116   4.398   3.717   8.660  0.5895  0.7137  0.4068
 4219SOL    HW224117   4.483   3.676   8.533  0.8023  0.6938  1.3748
 4220SOL     OW24118   3.184   4.185  10.179  0.0458  0.2862  0.0665
 4220SOL    HW124119   3.239   4.229  10.115  1.4115 -2.0174 -0.3497
 4220SOL    HW224120   3.251   4.152  10.238 -0.0849  0.0254  0.0689
 4221SOL     OW24121   3.501   4.138  17.627  0.0569  0.0608  0.5172
 4221SOL    HW124122   3.519   4.090   0.029 -1.0744 -0.1360  0.6598
 4221SOL    HW224123   3.588   4.168  17.601 -0.3124 -0.0435 -0.8343
 4222SOL     OW24124   1.390   1.274  11.720 -0.6644 -0.0769  0.1195
 4222SOL    HW124125   1.429   1.361  11.713 -2.0201  0.4488 -0.9090
 4222SOL    HW224126   1.397   1.248  11.628 -1.4030  0.7515 -0.1780
 4223SOL     OW24127   0.434   0.044  10.403 -0.3015 -0.1319 -0.2300
 4223SOL    HW124128   0.355   0.046  10.349 -0.2043 -1.2265 -0.4138
 4223SOL    HW224129   0.426   0.115  10.467  1.6345 -1.1351  1.1387
 4224SOL     OW24130   1.805   1.087   4.071  1.2956 -0.0187 -0.2566
 4224SOL    HW124131   1.871   1.152   4.096 -0.6945  1.7033  0.5110
 4224SOL    HW224132   1.856   1.032   4.012  1.4937 -0.4523  0.3197
 4225SOL     OW24133   1.643   3.227   2.295  0.1330  0.1932  0.0677
 4225SOL    HW124134   1.549   3.235   2.280  0.6848  0.1808 -3.4107
 4225SOL    HW224135   1.652   3.315   2.331 -1.1011 -1.0460  3.4601
 4226SOL     OW24136   2.159   3.338   4.033  0.3581  0.0512  0.2422
 4226SOL    HW124137   2.079   3.305   4.074  0.4450  1.0701  1.2197
 4226SOL    HW224138   2.173   3.418   4.083  0.5788  1.4927 -2.1593
 4227SOL     OW24139   1.398   4.712   2.683  0.2889 -0.3088 -0.1002
 4227SOL    HW124140   1.456   0.013   2.756  0.3544 -0.0795 -0.2154
 4227SOL    HW224141   1.345   0.072   2.678  3.8656  2.1365  0.5405
 4228SOL     OW24142   2.590   1.046   7.810  0.6412 -0.5169  0.4870
 4228SOL    HW124143   2.516   1.100   7.836  0.1961  0.0193 -1.8860
 4228SOL    HW224144   2.546   0.963   7.796  0.6854 -0.7081  1.5068
 4229SOL     OW24145   2.741   2.112   1.448 -0.1203 -0.0534 -0.6164
 4229SOL    HW124146   2.714   2.046   1.384  1.7123 -1.2201 -0.1835
 4229SOL    HW224147   2.833   2.087   1.459 -0.2049  0.4864  1.2438
 4230SOL     OW24148   4.539   4.583  16.715 -0.0558  0.2530 -0.3032
 4230SOL    HW124149   4.595   4.551  16.786  0.1672  0.9031 -0.1902
 4230SOL    HW224150   4.458   4.588  16.766  0.3863  0.2498  0.4012
 4231SOL     OW24151   2.288   1.800  10.109  0.1377  0.0745 -0.6835
 4231SOL    HW124152   2.381   1.781  10.095 -0.2923 -1.2733 -1.6468
 4231SOL    HW224153   2.253   1.822  10.023 -0.7058  0.1605 -0.3249
 4232SOL     OW24154   4.678   0.975   7.482 -0.2409  0.1394 -0.6223
 4232SOL    HW124155   4.712   0.901   7.431  1.8311  0.5687  0.1626
 4232SOL    HW224156   0.036   1.027   7.503  0.0407  0.3222 -2.1225
 4233SOL     OW24157   1.262   0.427   3.365 -0.2582  0.6231 -0.1155
 4233SOL    HW124158   1.238   0.490   3.433 -2.2739  0.4405 -0.6314
 4233SOL    HW224159   1.300   0.365   3.427 -4.7392 -0.6952  1.3548
 4234SOL     OW24160   2.024   1.277   5.037 -0.4871  0.2103 -0.3187
 4234SOL    HW124161   2.047   1.190   5.005 -0.8489  0.1357 -0.3723
 4234SOL    HW224162   2.077   1.282   5.117 -1.5228  0.5731  0.3427
 4235SOL     OW24163   1.779   0.248  17.433  0.0154  0.0204 -0.2866
 4235SOL    HW124164   1.801   0.297  17.511 -1.8987  0.3046  0.0701
 4235SOL    HW224165   1.852   0.186  17.421 -1.3250 -1.8478  1.3789
 4236SOL     OW24166   3.422   1.116   4.107 -0.0025  0.4779  0.5914
 4236SOL    HW124167   3.462   1.094   4.023 -0.1573  0.5904  0.4866
 4236SOL    HW224168   3.492   1.161   4.153 -0.1626  0.1494  1.1489
 4237SOL     OW24169   1.840   2.473   6.932  0.2294 -0.0253 -0.0860
 4237SOL    HW124170   1.780   2.400   6.915  0.8380 -0.4038 -0.6270
 4237SOL    HW224171   1.918   2.419   6.942  0.6977  0.3718 -1.6088
 4238SOL     OW24172   2.730   0.623   5.944  0.1653  0.1661  0.2968
 4238SOL    HW124173   2.806   0.566   5.931 -1.2915 -1.0046 -2.9756
 4238SOL    HW224174   2.777   0.700   5.977  1.4610 -0.3919 -0.2173
 4239SOL     OW24175   3.699   3.633   4.192  0.2216  0.4489  0.0453
 4239SOL    HW124176   3.723   3.601   4.106 -0.6220  1.9693 -0.7614
 4239SOL    HW224177   3.606   3.649   4.177  0.1514 -1.2966 -1.2533
 4240SOL     OW24178   0.914   2.566   2.465  0.1651  0.2229  0.2331
 4240SOL    HW124179   0.888   2.515   2.388 -1.5582  0.5330  0.6019
 4240SOL    HW224180   0.865   2.526   2.537  0.8875  1.6327  1.5061
 4241SOL     OW24181   1.782   3.441  16.502  0.5398  0.0252  0.7063
 4241SOL    HW124182   1.785   3.397  16.417  1.5971  0.5114  0.4874
 4241SOL    HW224183   1.870   3.428  16.537  0.7008 -1.1267 -0.1257
 4242SOL     OW24184   4.487   1.753  16.910 -0.2716 -0.1912 -0.1083
 4242SOL    HW124185   4.563   1.764  16.967 -0.7400 -0.5193  0.5717
 4242SOL    HW224186   4.434   1.680  16.942 -0.8870  1.0194  1.5939
 4243SOL     OW24187   0.509   2.750  17.000  0.1270  0.1422 -0.0749
 4243SOL    HW124188   0.571   2.743  17.072  1.0037 -0.0504 -0.8490
 4243SOL    HW224189   0.562   2.710  16.931 -0.1277  1.2635 -0.9271
 4244SOL     OW24190   2.441   4.320   2.622 -0.2314 -0.0109  0.7139
 4244SOL    HW124191   2.430   4.408   2.656  0.3424  0.5862 -0.6195
 4244SOL    HW224192   2.457   4.348   2.532 -3.7360  0.9420  0.3919
 4245SOL     OW24193   1.694   4.248   3.451  1.1909 -0.2995 -0.3644
 4245SOL    HW124194   1.661   4.195   3.379 -0.7572 -0.3388  0.5647
 4245SOL    HW224195   1.614   4.293   3.478  0.3880 -2.4535  0.8554
 4246SOL     OW24196   0.388   4.339   8.831  0.0696 -0.0831 -0.5526
 4246SOL    HW124197   0.399   4.386   8.913  1.1247  0.2871 -0.9054
 4246SOL    HW224198   0.299   4.361   8.803 -0.0500  1.9812  1.4612
 4247SOL     OW24199   2.839   2.047  17.538 -0.0123  0.1196  0.1742
 4247SOL    HW124200   2.758   2.005  17.510 -0.8892  0.6085  2.0520
 4247SOL    HW224201   2.830   2.128  17.487 -1.5216 -0.8228 -1.0610
 4248SOL     OW24202   1.582   1.581   9.561 -0.0761 -0.4584  0.3548
 4248SOL    HW124203   1.490   1.592   9.586 -0.5952  1.0768 -2.2946
 4248SOL    HW224204   1.616   1.517   9.624 -1.2579 -1.6349 -0.2025
 4249SOL     OW24205   4.453   1.627   6.095  0.2778  0.0336 -0.3259
 4249SOL    HW124206   4.514   1.580   6.038  1.2855 -1.1411  1.7038
 4249SOL    HW224207   4.463   1.713   6.056 -2.5818  1.4185  2.0087
 4250SOL     OW24208   0.416   0.562  14.731 -0.1060 -0.1987  0.2639
 4250SOL    HW124209   0.455   0.475  14.723  0.8157  0.4511 -2.1590
 4250SOL    HW224210   0.458   0.597  14.809 -1.5090  0.9296  0.5202
 4251SOL     OW24211   0.988   4.680  11.775  0.6053 -0.2842 -0.3672
 4251SOL    HW124212   1.077   4.677  11.810 -1.0673 -0.8798  3.8945
 4251SOL    HW224213   0.957   4.590  11.784  2.1895 -0.6371  1.4010
 4252SOL     OW24214   4.025   1.720  17.433 -0.1652 -0.5155 -0.4403
 4252SOL    HW124215   3.986   1.807  17.423  1.2303 -0.0807 -2.0452
 4252SOL    HW224216   4.003   1.696  17.523  0.5233 -1.0788 -0.4181
 4253SOL     OW24217   0.264   3.034   6.611 -0.4256  0.2024  0.1821
 4253SOL    HW124218   0.275   3.121   6.572 -1.0568  0.8091  1.3487
 4253SOL    HW224219   0.273   3.049   6.705 -0.8393  0.1587  0.2281
 4254SOL     OW24220   3.168   0.106  12.370 -0.1219 -0.1052  0.3044
 4254SOL    HW124221   3.246   0.153  12.341  0.9021 -0.9431  1.7177
 4254SOL    HW224222   3.115   0.103  12.290  0.5473 -5.0986  0.0250
 4255SOL     OW24223   0.821   0.713   3.263 -0.0415 -0.0985  0.1894
 4255SOL    HW124224   0.868   0.796   3.270 -0.5991  0.2381  0.0208
 4255SOL    HW224225   0.814   0.690   3.355 -1.3441 -0.9467 -0.1122
 4256SOL     OW24226   2.426   3.311   2.806 -0.3753 -0.0566 -0.0610
 4256SOL    HW124227   2.489   3.307   2.733  0.8087 -4.1495  1.1739
 4256SOL    HW224228   2.386   3.224   2.796  0.5406 -0.3578 -1.2213
 4257SOL     OW24229   1.366   2.032   6.778 -0.3904 -0.0997  0.4975
 4257SOL    HW124230   1.430   2.012   6.709 -0.8750 -2.2935  0.6894
 4257SOL    HW224231   1.374   1.954   6.832  1.8271 -0.6450 -0.6078
 4258SOL     OW24232   0.318   1.383  16.715  0.4025 -0.4157 -0.3956
 4258SOL    HW124233   0.347   1.319  16.781  2.1563 -0.3612 -1.0988
 4258SOL    HW224234   0.392   1.395  16.655  1.7261 -0.6636  1.1582
 4259SOL     OW24235   0.893   1.249   3.665  0.1064  0.1349  0.1992
 4259SOL    HW124236   0.963   1.201   3.620  0.9359  0.9767  0.5941
 4259SOL    HW224237   0.936   1.318   3.715  1.2215 -0.7232  0.4228
 4260SOL     OW24238   2.461   2.468   7.102  0.1629 -0.1414 -0.6235
 4260SOL    HW124239   2.411   2.514   7.170  3.0870  0.9230  0.7977
 4260SOL    HW224240   2.525   2.413   7.148  1.7595  1.0619 -1.4076
 4261SOL     OW24241   2.243   4.140   3.218 -0.1363  0.4699  0.4163
 4261SOL    HW124242   2.305   4.068   3.228  0.9035  1.4737  1.2028
 4261SOL    HW224243   2.236   4.179   3.305 -1.0599  3.0253 -0.7887
 4262SOL     OW24244   3.785   3.011   1.410  0.1428 -0.0917  0.7727
 4262SOL    HW124245   3.705   3.014   1.462  0.7518 -0.4154  1.7363
 4262SOL    HW224246   3.856   3.000   1.473  1.0557 -2.5951 -0.7147
 4263SOL     OW24247   4.244   3.688  10.873  0.5242  0.8188  0.9541
 4263SOL    HW124248   4.217   3.673  10.783 -0.0503 -0.4053  1.3327
 4263SOL    HW224249   4.285   3.604  10.892  1.3171  0.2803 -3.3160
 4264SOL     OW24250   3.918   4.563   5.014 -0.0995 -0.4401 -0.2092
 4264SOL    HW124251   3.966   4.606   5.084 -2.7519  0.0747  1.2613
 4264SOL    HW224252   3.827   4.591   5.023  0.4257  0.5015  1.9334
 4265SOL     OW24253   1.244   0.899   5.755 -0.1789  0.5927  0.0009
 4265SOL    HW124254   1.207   0.922   5.670  0.9081  0.1421 -0.5963
 4265SOL    HW224255   1.333   0.878   5.725 -0.7569  0.6051 -1.7149
 4266SOL     OW24256   2.016   0.067  17.340 -0.0041  0.1620  0.2867
 4266SOL    HW124257   1.983   0.106  17.259  3.6001 -0.7716 -1.6439
 4266SOL    HW224258   2.100   0.029  17.312  0.0528 -0.5473  1.4291
 4267SOL     OW24259   0.381   0.429   1.728  0.1445  0.0010 -0.7275
 4267SOL    HW124260   0.474   0.411   1.746  0.2455  0.8131 -0.4578
 4267SOL    HW224261   0.389   0.426   1.633 -0.6019  1.2673 -0.8208
 4268SOL     OW24262   2.072   2.591   2.990  0.4688 -0.3231 -0.2350
 4268SOL    HW124263   2.025   2.508   2.994  0.7834 -0.4644  0.6244
 4268SOL    HW224264   2.013   2.641   2.934  0.1504  0.0752  0.4571
 4269SOL     OW24265   2.443   2.094   2.892 -0.2160 -0.0167  0.6660
 4269SOL    HW124266   2.434   2.172   2.837  2.9091 -0.3859 -0.3904
 4269SOL    HW224267   2.436   2.121   2.984 -0.9654 -3.0826  1.5023
 4270SOL     OW24268   3.458   3.087   0.438  0.1833 -0.4565  0.5606
 4270SOL    HW124269   3.368   3.100   0.408  0.0179 -0.7988  0.9169
 4270SOL    HW224270   3.450   3.110   0.531 -2.4596  0.7434  0.0354
 4271SOL     OW24271   0.673   0.731  11.721 -0.2941  0.0219  0.3555
 4271SOL    HW124272   0.623   0.778  11.654 -1.9799 -1.2773  0.7191
 4271SOL    HW224273   0.638   0.643  11.730 -0.5541  0.0471 -0.4162
 4272SOL     OW24274   1.287   3.782   5.073 -0.2108  0.0056 -0.2570
 4272SOL    HW124275   1.278   3.788   5.168 -0.8509  1.5604 -0.4174
 4272SOL    HW224276   1.313   3.692   5.053 -0.7289 -0.5750  1.7194
 4273SOL     OW24277   0.446   0.290   2.541 -0.1902 -0.0186  0.1955
 4273SOL    HW124278   0.371   0.238   2.512  0.4852 -1.1950  0.5558
 4273SOL    HW224279   0.507   0.216   2.550  0.6325  0.7778  1.2381
 4274SOL     OW24280   3.963   2.450   4.071  0.2898 -0.1669  0.1530
 4274SOL    HW124281   4.006   2.500   4.140 -0.9760 -1.1403  1.6343
 4274SOL    HW224282   3.911   2.393   4.127  1.5127 -2.3141 -0.9064
 4275SOL     OW24283   3.580   4.531   4.019 -0.5982  0.4262  0.1785
 4275SOL    HW124284   3.585   4.443   3.982 -0.2665  0.8727 -0.8671
 4275SOL    HW224285   3.492   4.520   4.054 -0.3684 -2.6788 -0.2358
 4276SOL     OW24286   4.146   4.381  16.285  0.5086 -0.2662  0.8884
 4276SOL    HW124287   4.216   4.336  16.237  1.0882 -1.0563  2.4750
 4276SOL    HW224288   4.196   4.392  16.366  2.2936 -0.6223 -0.1519
 4277SOL     OW24289   0.449   0.189   3.175  0.3228 -0.1700 -0.3379
 4277SOL    HW124290   0.493   0.124   3.120  1.9041  1.2864 -0.8261
 4277SOL    HW224291   0.389   0.220   3.107  1.1709 -1.0127 -1.4684
 4278SOL     OW24292   3.616   1.033   6.903 -0.6083 -0.1570  0.1186
 4278SOL    HW124293   3.706   1.000   6.910 -1.2124 -1.9304 -0.5055
 4278SOL    HW224294   3.641   1.123   6.881 -0.3274  0.1593  1.7088
 4279SOL     OW24295   1.316   2.965   2.779 -0.1992 -0.0036  0.2976
 4279SOL    HW124296   1.261   2.896   2.816 -0.6255  0.1945  0.0259
 4279SOL    HW224297   1.305   2.953   2.685 -2.2553  0.6404  0.4470
 4280SOL     OW24298   1.823   3.659   4.154  0.2361 -0.1697  0.1600
 4280SOL    HW124299   1.784   3.594   4.213  0.2887  1.1084  1.5858
 4280SOL    HW224300   1.759   3.730   4.165  0.4387 -0.2671  1.9511
 4281SOL     OW24301   2.152   1.301   4.516  0.5771 -0.0722  0.4125
 4281SOL    HW124302   2.152   1.352   4.597 -1.5190 -0.7980  0.8631
 4281SOL    HW224303   2.197   1.222   4.548  0.0534 -0.2613  0.6813
 4282SOL     OW24304   3.232   3.632   5.410 -0.1626  0.1656 -0.4696
 4282SOL    HW124305   3.176   3.706   5.386 -2.3036 -1.3059 -0.0196
 4282SOL    HW224306   3.168   3.564   5.386  1.0348 -0.5651 -1.6058
 4283SOL     OW24307   3.784   1.209   6.194  0.9467 -0.2349 -0.0415
 4283SOL    HW124308   3.736   1.291   6.178  3.9447  1.3265 -1.1080
 4283SOL    HW224309   3.719   1.139   6.197  2.0691 -1.2711  0.0776
 4284SOL     OW24310   1.285   4.059   8.718 -0.2488 -0.2017 -0.0671
 4284SOL    HW124311   1.338   4.018   8.650  1.3632 -0.0664  1.0857
 4284SOL    HW224312   1.198   4.020   8.706 -0.1160  0.3117 -2.7278
 4285SOL     OW24313   3.627   4.594   0.642  0.6304  0.1065  0.0745
 4285SOL    HW124314   3.634   4.550   0.727  1.1831 -0.5172 -0.2963
 4285SOL    HW224315   3.718   4.587   0.615  0.3258  0.0147 -0.9397
 4286SOL     OW24316   0.448   1.265  16.273 -0.1790 -0.4645  0.1707
 4286SOL    HW124317   0.360   1.304  16.281 -0.0544 -0.4134  1.2707
 4286SOL    HW224318   0.470   1.292  16.184  1.8326  0.1527  0.8726
 4287SOL     OW24319   0.530   3.236   6.074  0.3866  0.1107 -0.0434
 4287SOL    HW124320   0.533   3.331   6.083  1.5999 -0.1886  2.8954
 4287SOL    HW224321   0.516   3.211   6.165  0.8910  1.8724  0.5249
 4288SOL     OW24322   2.277   1.251  17.331  0.2467 -0.1985  0.3779
 4288SOL    HW124323   2.356   1.247  17.384 -1.0709  1.1155  2.4581
 4288SOL    HW224324   2.206   1.252  17.395  1.2708 -1.9494  1.5290
 4289SOL     OW24325   3.721   3.163  11.555  0.3094  0.1475 -0.6142
 4289SOL    HW124326   3.778   3.188  11.627  0.6341  0.7940 -1.1001
 4289SOL    HW224327   3.776   3.194  11.483 -0.8147  2.8119 -0.3152
 4290SOL     OW24328   2.412   3.761   9.082 -1.0083 -0.3138  0.0876
 4290SOL    HW124329   2.331   3.730   9.123 -3.0042  1.7254 -2.3263
 4290SOL    HW224330   2.420   3.698   9.010  2.4232  0.5844 -0.3407
 4291SOL     OW24331   3.603   3.169   8.152 -0.4001 -0.6866 -0.1705
 4291SOL    HW124332   3.533   3.194   8.091  0.5076  1.2859 -0.3767
 4291SOL    HW224333   3.590   3.249   8.203 -2.2908 -0.0955 -1.5837
 4292SOL     OW24334   1.516   3.555   2.799 -0.2325 -0.0249  0.1325
 4292SOL    HW124335   1.603   3.580   2.831  0.1415 -0.7407 -0.3285
 4292SOL    HW224336   1.529   3.472   2.754  0.0143  0.0066  0.1425
 4293SOL     OW24337   0.043   4.276  14.117 -0.0940  0.3092 -0.1855
 4293SOL    HW124338   0.034   4.309  14.028 -0.2120 -0.8203 -0.5889
 4293SOL    HW224339   0.131   4.304  14.142 -0.4028  0.8655  0.3153
 4294SOL     OW24340   3.892   2.640   1.364  0.1390 -0.3264  0.2960
 4294SOL    HW124341   3.964   2.701   1.348  1.4742 -1.5227  1.8181
 4294SOL    HW224342   3.873   2.613   1.274  1.9813 -0.7853  0.0475
 4295SOL     OW24343   3.099   0.062  10.863 -0.5426 -0.3716  0.6762
 4295SOL    HW124344   3.061   0.150  10.870  0.6023  0.4779 -4.1916
 4295SOL    HW224345   3.166   0.072  10.796 -1.7576 -0.1087 -0.5028
 4296SOL     OW24346   4.708   1.431   4.011  0.2569  0.5606 -0.2012
 4296SOL    HW124347   4.666   1.347   4.029  0.0725  0.5781 -0.5439
 4296SOL    HW224348   0.071   1.410   4.056  0.2275  0.2028 -0.3143
 4297SOL     OW24349   1.487   4.540  16.269  0.2668 -0.0338 -0.2051
 4297SOL    HW124350   1.578   4.540  16.298  0.8981 -2.9231 -2.1511
 4297SOL    HW224351   1.442   4.483  16.332  0.6117 -1.4258 -1.2099
 4298SOL     OW24352   2.595   0.442   5.772 -0.4263 -0.3659  0.0280
 4298SOL    HW124353   2.614   0.365   5.827 -3.7277 -1.5830 -0.5283
 4298SOL    HW224354   2.606   0.515   5.832 -3.0405  0.0971 -0.0494
 4299SOL     OW24355   2.472   2.689   2.126  0.3975 -0.1430  0.4242
 4299SOL    HW124356   2.439   2.608   2.087 -1.9864  0.0040  2.1391
 4299SOL    HW224357   2.415   2.713   2.199  0.3418 -0.5142  0.4988
 4300SOL     OW24358   2.461   4.619   5.066  0.1851 -0.2067  0.1863
 4300SOL    HW124359   2.548   4.612   5.106  0.6976  0.9455 -0.7191
 4300SOL    HW224360   2.409   4.543   5.092 -0.0339 -0.2337 -0.3201
 4301SOL     OW24361   3.472   2.517   4.384  0.2612 -0.3189  0.4447
 4301SOL    HW124362   3.537   2.542   4.319  0.9956 -2.0433  0.5013
 4301SOL    HW224363   3.473   2.421   4.381  1.4706 -0.1638 -3.7783
 4302SOL     OW24364   4.465   2.536   3.659 -0.3423  0.1635 -0.2738
 4302SOL    HW124365   4.436   2.586   3.735  0.0571 -0.1879  0.1112
 4302SOL    HW224366   4.557   2.564   3.659  0.0231 -1.0098  0.3517
 4303SOL     OW24367   0.811   2.026   2.827  0.4756  0.0222 -0.9919
 4303SOL    HW124368   0.838   2.078   2.902 -0.1391  1.9335 -2.0955
 4303SOL    HW224369   0.836   2.083   2.755 -0.6729  1.3967 -0.2982
 4304SOL     OW24370   4.119   2.190   7.006 -0.0303 -0.4938 -0.7150
 4304SOL    HW124371   4.108   2.264   6.947  1.0691 -0.6131 -1.0577
 4304SOL    HW224372   4.139   2.117   6.947 -0.3259 -0.5434 -0.7548
 4305SOL     OW24373   4.274   3.960  10.941  0.6482  0.6214 -0.1457
 4305SOL    HW124374   4.233   3.880  10.908  2.0384 -1.0459  2.1506
 4305SOL    HW224375   4.335   3.925  11.006  0.2814 -0.3723 -0.3354
 4306SOL     OW24376   4.304   3.694   7.714  0.2318  0.5830  0.2909
 4306SOL    HW124377   4.349   3.764   7.762 -0.4582  2.7631 -2.1970
 4306SOL    HW224378   4.222   3.705   7.762 -0.3054  0.1540 -0.5302
 4307SOL     OW24379   2.346   2.588   7.341 -0.2365 -0.1586 -0.2640
 4307SOL    HW124380   2.254   2.565   7.353 -0.3693  0.2326 -0.5467
 4307SOL    HW224381   2.396   2.540   7.407 -0.4731 -0.5596 -0.3783
 4308SOL     OW24382   2.725   3.698  12.331 -0.1754 -0.0520 -0.3160
 4308SOL    HW124383   2.800   3.642  12.350 -0.7988 -0.9185 -0.4436
 4308SOL    HW224384   2.651   3.667  12.383  1.3566 -1.0511  1.2803
 4309SOL     OW24385   0.269   2.843   6.388  0.7172 -0.3005 -0.3015
 4309SOL    HW124386   0.264   2.784   6.463 -4.1435 -0.0392 -0.4286
 4309SOL    HW224387   0.237   2.922   6.433 -0.4592 -1.2425  0.5197
 4310SOL     OW24388   0.161   3.155   4.219 -0.0871  0.2739 -0.0171
 4310SOL    HW124389   0.163   3.216   4.145  2.1435 -0.1812 -0.3300
 4310SOL    HW224390   0.202   3.215   4.282  0.1297  1.0955 -0.9290
 4311SOL     OW24391   3.475   1.487   7.937  0.0033 -0.0183 -0.2170
 4311SOL    HW124392   3.509   1.458   8.021 -1.8257  0.5755  0.7324
 4311SOL    HW224393   3.381   1.500   7.949 -0.1338  1.1783 -2.5213
 4312SOL     OW24394   1.132   3.792   6.445  0.2365 -0.2686  0.1669
 4312SOL    HW124395   1.143   3.814   6.353  0.2672 -0.3583  0.1496
 4312SOL    HW224396   1.212   3.828   6.484 -0.5913  1.4895  0.2454
 4313SOL     OW24397   2.945   3.020   2.977 -0.1616 -0.7521 -0.3671
 4313SOL    HW124398   2.991   2.992   2.898 -0.1559  0.1984 -0.6907
 4313SOL    HW224399   2.853   3.007   2.954 -0.1513 -1.0186 -0.2621
 4314SOL     OW24400   1.106   1.354  16.955  0.1889  0.2661 -0.0053
 4314SOL    HW124401   1.045   1.290  16.992 -0.0262  2.4709  3.4984
 4314SOL    HW224402   1.163   1.368  17.031 -0.0102  2.9704 -0.3484
 4315SOL     OW24403   2.872   0.887   3.350  0.2323  0.5359  0.2415
 4315SOL    HW124404   2.804   0.943   3.314  0.2254  0.5717  0.3117
 4315SOL    HW224405   2.889   0.845   3.265 -1.5783 -0.5528  0.4238
 4316SOL     OW24406   0.475   3.894   4.533  0.3166 -0.1235  0.0144
 4316SOL    HW124407   0.546   3.884   4.596  1.6086 -0.8383 -1.5749
 4316SOL    HW224408   0.411   3.911   4.603  1.9471  0.0938  1.4540
 4317SOL     OW24409   4.661   3.583   6.103 -0.2981  0.5553  0.4421
 4317SOL    HW124410   4.656   3.664   6.054 -0.6698 -0.0570 -0.5225
 4317SOL    HW224411   4.568   3.561   6.110 -0.1735 -0.7340 -2.0276
 4318SOL     OW24412   4.309   3.056   4.972  0.2016 -0.0287  0.0295
 4318SOL    HW124413   4.344   2.995   5.037  3.1203  0.1941 -1.3089
 4318SOL    HW224414   4.366   3.129   4.947  0.7875  0.3726  2.6051
 4319SOL     OW24415   1.401   3.172  16.584 -0.0121  0.0624 -0.1522
 4319SOL    HW124416   1.453   3.248  16.610  0.9036 -0.7311  0.3239
 4319SOL    HW224417   1.431   3.158  16.494  0.7452  1.8534 -0.1655
 4320SOL     OW24418   0.676   3.324   7.834  0.6768  0.1930  0.0149
 4320SOL    HW124419   0.735   3.332   7.759  2.2412  0.9022  1.3234
 4320SOL    HW224420   0.729   3.336   7.912  1.3981 -2.9872  0.0275
 4321SOL     OW24421   2.883   1.914  13.737 -0.0235  0.3545  0.0622
 4321SOL    HW124422   2.886   1.823  13.707 -1.2404 -0.0314  1.0833
 4321SOL    HW224423   2.879   1.903  13.832 -1.0465  1.8058  0.1978
 4322SOL     OW24424   4.320   2.312   3.745  0.7564  0.0173  0.4289
 4322SOL    HW124425   4.392   2.335   3.685  0.0078  2.2992  0.3865
 4322SOL    HW224426   4.286   2.401   3.748  0.4360 -0.1983  2.7042
 4323SOL     OW24427   3.370   3.336  14.151  0.1659  0.3016 -0.2849
 4323SOL    HW124428   3.391   3.295  14.235  1.3014 -0.5924 -0.9997
 4323SOL    HW224429   3.342   3.415  14.197  0.1339  0.4517 -0.5661
 4324SOL     OW24430   4.489   1.979   7.463  0.7299 -0.1209 -0.1749
 4324SOL    HW124431   4.425   2.049   7.456  0.7880 -0.1702 -1.1997
 4324SOL    HW224432   4.465   1.932   7.543  1.5444  0.1417  0.2252
 4325SOL     OW24433   2.251   0.136   4.524  0.1956  0.1804  0.4817
 4325SOL    HW124434   2.276   0.065   4.583  1.6512  0.7788  0.5748
 4325SOL    HW224435   2.200   0.194   4.581  0.9470 -0.5034  1.8332
 4326SOL     OW24436   4.223   3.678   0.221  0.5134 -0.6597 -0.8159
 4326SOL    HW124437   4.203   3.602   0.167 -1.4494 -0.6006 -0.1683
 4326SOL    HW224438   4.143   3.728   0.207  0.2523 -0.2212  2.2475
 4327SOL     OW24439   4.709   3.259   9.777 -0.2519 -0.3719 -0.6417
 4327SOL    HW124440   4.631   3.231   9.825 -0.2550  1.8038  0.6394
 4327SOL    HW224441   4.681   3.262   9.686 -2.6714 -1.9443  0.0473
 4328SOL     OW24442   4.274   2.833   4.047 -0.2303 -0.1913  0.5514
 4328SOL    HW124443   4.188   2.801   4.021 -0.1078 -1.8171  2.1502
 4328SOL    HW224444   4.247   2.879   4.126  0.8111 -2.0376  1.9824
 4329SOL     OW24445   2.388   1.782  13.272 -0.1374 -0.4831 -0.2738
 4329SOL    HW124446   2.456   1.844  13.297 -0.8583 -0.5633  1.8909
 4329SOL    HW224447   2.381   1.800  13.179 -0.8847  1.1623  0.0937
 4330SOL     OW24448   3.431   2.065  13.066 -0.1237  0.1354 -0.2042
 4330SOL    HW124449   3.442   2.026  13.152 -0.8541 -1.2414 -0.7462
 4330SOL    HW224450   3.494   2.137  13.066 -0.8083  0.7354 -0.3995
 4331SOL     OW24451   1.666   1.310   6.905  0.5031  0.1381 -0.0305
 4331SOL    HW124452   1.625   1.277   6.825 -1.0409  0.4912  0.5989
 4331SOL    HW224453   1.603   1.378   6.931  0.6030 -0.1141  0.8650
 4332SOL     OW24454   4.061   3.397   4.290  0.5142 -0.3200  0.1103
 4332SOL    HW124455   4.107   3.441   4.362  0.2272  1.0957 -0.5857
 4332SOL    HW224456   3.978   3.368   4.329  0.2582 -1.8825 -1.6164
 4333SOL     OW24457   3.292   2.930  17.266  0.2654  0.1919  0.1564
 4333SOL    HW124458   3.271   2.895  17.353  0.6384 -0.2736  0.0593
 4333SOL    HW224459   3.386   2.944  17.256 -0.3929  1.3935 -4.2238
 4334SOL     OW24460   1.497   3.996   8.308 -0.0055 -0.2118  0.7548
 4334SOL    HW124461   1.495   3.980   8.403 -0.4194 -1.5294  0.5299
 4334SOL    HW224462   1.405   4.019   8.298  0.5564  1.5323 -0.3151
 4335SOL     OW24463   1.178   0.552   9.588  0.2578  0.2260 -0.3268
 4335SOL    HW124464   1.263   0.562   9.546  0.1564 -1.9026 -1.0311
 4335SOL    HW224465   1.189   0.467   9.629 -0.0275 -1.4447 -3.6925
 4336SOL     OW24466   3.495   2.143   1.134 -0.0745 -0.0236 -0.3634
 4336SOL    HW124467   3.559   2.084   1.174 -1.5254 -0.2411  1.6342
 4336SOL    HW224468   3.420   2.114   1.186 -0.3390  0.1636 -0.6406
 4337SOL     OW24469   1.970   1.176   5.502 -0.2389 -0.2272  0.4991
 4337SOL    HW124470   2.062   1.183   5.474  0.2442 -0.8023  1.9615
 4337SOL    HW224471   1.968   1.129   5.585  0.5449  0.2318  0.7755
 4338SOL     OW24472   1.164   1.453   5.776  0.1800 -0.0517 -0.0189
 4338SOL    HW124473   1.093   1.426   5.834 -0.3344 -1.7387 -1.4491
 4338SOL    HW224474   1.236   1.478   5.835  1.0060 -1.2533 -0.5142
 4339SOL     OW24475   0.217   3.751   3.557 -0.4478  0.4849 -0.6407
 4339SOL    HW124476   0.281   3.685   3.532 -0.1117  0.6582 -0.2450
 4339SOL    HW224477   0.255   3.838   3.545  1.6254 -0.3283  0.1610
 4340SOL     OW24478   1.622   3.730  15.071  0.1483  0.6639  0.0102
 4340SOL    HW124479   1.580   3.775  15.144  1.7606  0.9519  0.7618
 4340SOL    HW224480   1.593   3.642  15.095  3.1682 -0.2116  0.4739
 4341SOL     OW24481   2.019   2.911   1.688  0.5333 -0.2496 -0.3125
 4341SOL    HW124482   2.046   2.982   1.746  1.3008 -0.0730 -0.8883
 4341SOL    HW224483   2.015   2.835   1.746 -0.1931  0.3849  0.4576
 4342SOL     OW24484   4.546   0.303   5.092  0.5922  0.0429  0.0189
 4342SOL    HW124485   4.463   0.331   5.131  0.5248  1.1314 -0.9076
 4342SOL    HW224486   4.529   0.294   4.998 -0.5713 -2.1659  0.4378
 4343SOL     OW24487   3.727   3.376   3.037 -0.3270  0.1156 -0.0785
 4343SOL    HW124488   3.776   3.431   2.976 -1.3754 -0.3089 -1.3007
 4343SOL    HW224489   3.649   3.359   2.985  0.4877  1.2911 -1.6958
 4344SOL     OW24490   0.997   4.139   7.372  0.0269 -1.0085  0.1778
 4344SOL    HW124491   1.087   4.165   7.389 -0.3093 -0.2686  0.8276
 4344SOL    HW224492   1.006   4.045   7.357  1.0131 -0.5372 -2.0695
 4345SOL     OW24493   2.479   2.522   6.389 -0.1471  0.2931  0.3339
 4345SOL    HW124494   2.518   2.607   6.412 -1.2657  1.0343 -0.5275
 4345SOL    HW224495   2.458   2.490   6.476 -1.1449 -1.8092 -0.6918
 4346SOL     OW24496   2.318   2.990  14.462 -0.4110 -0.5646  0.2057
 4346SOL    HW124497   2.372   2.910  14.467 -1.0491 -1.1468 -2.5844
 4346SOL    HW224498   2.360   3.030  14.538 -0.2873 -0.0872 -0.1158
 4347SOL     OW24499   4.295   2.067   2.716  0.3014  0.5282 -0.1888
 4347SOL    HW124500   4.347   2.141   2.685 -1.5876  2.0018  0.1502
 4347SOL    HW224501   4.269   2.107   2.799  1.2513 -0.0355  0.3840
 4348SOL     OW24502   1.000   3.272  16.088  0.1001  0.5368 -0.0793
 4348SOL    HW124503   0.932   3.312  16.142 -0.2508 -0.1765 -0.0031
 4348SOL    HW224504   1.008   3.348  16.029  0.1981  0.3786 -0.2702
 4349SOL     OW24505   1.873   4.586   4.912  0.5085  0.0420 -0.5520
 4349SOL    HW124506   1.842   4.512   4.964  1.5431 -1.1938 -1.6641
 4349SOL    HW224507   1.918   4.625   4.986  0.8967 -0.9268 -0.2698
 4350SOL     OW24508   2.249   2.010   4.298 -0.3262 -0.4582  0.1718
 4350SOL    HW124509   2.337   2.046   4.288 -0.2771 -0.9507 -1.0534
 4350SOL    HW224510   2.241   2.015   4.394 -1.1722  0.9172  0.0329
 4351SOL     OW24511   2.573   4.252   8.769 -0.0300 -0.2574 -0.3429
 4351SOL    HW124512   2.585   4.306   8.848  1.9612  2.0144 -2.2003
 4351SOL    HW224513   2.665   4.240   8.744 -0.0867 -1.6942  0.0937
 4352SOL     OW24514   2.673   0.645   5.175 -0.1320  0.0444  0.2682
 4352SOL    HW124515   2.678   0.571   5.115  0.3053 -0.5850  1.0809
 4352SOL    HW224516   2.585   0.647   5.214  1.3718 -1.2114  3.7719
 4353SOL     OW24517   0.234   0.099   5.200  0.3137  0.0394  0.3528
 4353SOL    HW124518   0.247   0.110   5.105 -0.5647 -0.7367  0.1352
 4353SOL    HW224519   0.198   0.186   5.215  1.1998 -0.0714  3.0370
 4354SOL     OW24520   1.152   3.509   1.932  0.0528 -0.3428 -0.4122
 4354SOL    HW124521   1.067   3.502   1.977 -0.7140  0.7298 -1.6953
 4354SOL    HW224522   1.129   3.552   1.850 -0.1605  0.3832  0.0324
 4355SOL     OW24523   2.041   0.332   9.692 -0.9336  0.0192 -0.3701
 4355SOL    HW124524   1.957   0.373   9.669 -0.0294  0.9673 -2.0440
 4355SOL    HW224525   2.049   0.255   9.635 -1.2973 -1.1905  1.2045
 4356SOL     OW24526   2.730   3.826  16.992 -0.2608  0.2871 -0.0300
 4356SOL    HW124527   2.808   3.772  17.004 -0.3069 -0.1720 -1.7047
 4356SOL    HW224528   2.753   3.897  17.052 -0.4906  0.9779 -0.7530
 4357SOL     OW24529   1.548   4.671   8.059 -0.2836  0.6701  0.5977
 4357SOL    HW124530   1.614   4.605   8.078  0.3205  1.7101  2.0937
 4357SOL    HW224531   1.466   4.622   8.066  1.1486 -1.7428  0.5079
 4358SOL     OW24532   2.737   4.508   3.026 -0.2590  0.3811 -0.6321
 4358SOL    HW124533   2.785   4.482   2.947 -2.3677  0.6811 -2.0027
 4358SOL    HW224534   2.729   4.600   2.999 -0.6207 -0.1850 -2.4758
 4359SOL     OW24535   2.646   3.625  16.323 -0.4760 -0.4968  0.4506
 4359SOL    HW124536   2.602   3.698  16.279  0.6891 -0.1774 -0.1904
 4359SOL    HW224537   2.577   3.558  16.317  0.0620 -0.8410 -1.8856
 4360SOL     OW24538   3.181   4.514   7.384  0.8308  0.7349  0.0913
 4360SOL    HW124539   3.152   4.599   7.419 -2.3807 -1.2238  2.1212
 4360SOL    HW224540   3.235   4.477   7.454  1.8973  0.9460 -0.6234
 4361SOL     OW24541   1.897   1.035   8.187  0.0460 -0.3723 -0.2419
 4361SOL    HW124542   1.969   1.048   8.126  1.0831 -0.3454  0.9919
 4361SOL    HW224543   1.839   1.091   8.134  0.1907  0.1074  0.1147
 4362SOL     OW24544   3.882   0.552   0.721 -0.6903  0.4521  0.3569
 4362SOL    HW124545   3.963   0.602   0.726  0.1145 -0.7135 -1.1036
 4362SOL    HW224546   3.832   0.592   0.650 -0.7252 -1.1918 -0.5491
 4363SOL     OW24547   1.969   1.152  15.208  0.5859 -0.6592  0.1849
 4363SOL    HW124548   1.995   1.188  15.292  0.9785 -0.8894  0.1618
 4363SOL    HW224549   2.055   1.143  15.167  0.6041 -1.8231  0.4679
 4364SOL     OW24550   3.528   3.998   1.828  0.0384  0.3933 -0.0121
 4364SOL    HW124551   3.464   4.064   1.800  0.0376  0.5398  0.3343
 4364SOL    HW224552   3.609   4.045   1.811  0.7050 -0.9795 -0.6147
 4365SOL     OW24553   3.710   1.305   8.847 -0.3269  0.6433  0.4063
 4365SOL    HW124554   3.785   1.344   8.803 -0.2525 -1.4954 -1.3396
 4365SOL    HW224555   3.762   1.255   8.910  0.1290 -0.2651 -0.6904
 4366SOL     OW24556   0.324   0.520   7.503 -0.0794 -0.3970  0.1396
 4366SOL    HW124557   0.257   0.453   7.517  0.4070 -1.0108 -0.4354
 4366SOL    HW224558   0.375   0.530   7.583  1.0144 -1.6762 -0.4028
 4367SOL     OW24559   0.251   4.455   5.042  0.0526  0.3580  0.6705
 4367SOL    HW124560   0.293   4.464   5.128  0.0425  0.0618  0.7071
 4367SOL    HW224561   0.321   4.448   4.978 -0.9330 -0.2358 -0.3386
 4368SOL     OW24562   2.334   1.340   8.446 -0.8279  0.1538 -0.3516
 4368SOL    HW124563   2.374   1.318   8.361  1.9731  0.6731  0.8463
 4368SOL    HW224564   2.412   1.371   8.492 -1.0025  0.3255 -0.1723
 4369SOL     OW24565   0.196   1.105   7.565  0.2001 -0.3959 -0.3732
 4369SOL    HW124566   0.244   1.160   7.627 -0.8105  0.0787  0.0000
 4369SOL    HW224567   0.234   1.145   7.487  2.2114  2.5964  2.1389
 4370SOL     OW24568   0.526   1.744  17.385 -0.1544 -0.4353  0.2973
 4370SOL    HW124569   0.547   1.837  17.385 -2.3137  0.0216 -1.3981
 4370SOL    HW224570   0.588   1.710  17.450 -0.0484  0.7433  0.8257
 4371SOL     OW24571   3.642   4.083   4.718  0.7702  0.4298 -0.4013
 4371SOL    HW124572   3.619   4.062   4.628 -1.5530 -0.1835  0.3367
 4371SOL    HW224573   3.637   3.996   4.756 -5.0974  1.2130  0.6560
 4372SOL     OW24574   3.771   3.548   5.080 -0.2970 -0.0356  0.4850
 4372SOL    HW124575   3.735   3.464   5.052 -0.6338  0.6994 -1.3435
 4372SOL    HW224576   3.854   3.528   5.123  0.6578 -0.8788 -1.7410
 4373SOL     OW24577   3.056   2.158   7.324 -0.1801 -0.3555  0.2143
 4373SOL    HW124578   3.031   2.244   7.291 -1.9933 -0.5242  1.1930
 4373SOL    HW224579   3.151   2.167   7.331 -0.1814  0.4273 -0.8962
 4374SOL     OW24580   2.161   1.704   5.199 -0.0728  0.2916 -0.4957
 4374SOL    HW124581   2.192   1.712   5.109 -0.6263  0.5074 -0.6615
 4374SOL    HW224582   2.179   1.786   5.245 -0.8007  0.2227 -0.0936
 4375SOL     OW24583   2.644   3.690  15.968 -0.1383 -0.3688 -0.4256
 4375SOL    HW124584   2.627   3.781  15.944 -1.0110 -0.1336  1.0972
 4375SOL    HW224585   2.552   3.667  15.976 -0.5390  1.7632  1.0464
 4376SOL     OW24586   4.316   1.112   6.095  0.0555 -0.2597 -0.4298
 4376SOL    HW124587   4.257   1.111   6.170  0.5657 -1.4250 -0.0402
 4376SOL    HW224588   4.395   1.093   6.145  0.9132 -0.1025 -1.7202
 4377SOL     OW24589   0.002   2.640   7.425  0.2950 -0.3186 -0.5909
 4377SOL    HW124590   0.077   2.587   7.452 -0.3244 -1.2287 -0.6387
 4377SOL    HW224591   4.648   2.583   7.450  2.9512 -2.7802  1.4765
 4378SOL     OW24592   0.693   3.507  11.347 -0.1186 -0.0021  0.6807
 4378SOL    HW124593   0.753   3.446  11.303  0.0368  1.9259 -1.7691
 4378SOL    HW224594   0.649   3.452  11.412  0.9308  1.3095  2.4864
 4379SOL     OW24595   2.215   1.790   4.128  0.2372  0.0729 -0.0214
 4379SOL    HW124596   2.193   1.708   4.172 -0.3846 -0.6162 -1.6007
 4379SOL    HW224597   2.223   1.855   4.198  0.1697  2.8582 -2.6335
 4380SOL     OW24598   1.533   1.264   3.249 -0.2003  0.2400  0.0893
 4380SOL    HW124599   1.493   1.309   3.174 -1.8208 -1.4080 -0.0349
 4380SOL    HW224600   1.561   1.337   3.304  2.2020 -0.3210 -0.3767
 4381SOL     OW24601   2.946   2.398  14.650 -0.5835  0.0899 -0.1181
 4381SOL    HW124602   2.872   2.454  14.671 -0.2657  0.3727  0.2500
 4381SOL    HW224603   2.908   2.312  14.668  1.2719 -0.5800  0.5795
 4382SOL     OW24604   0.904   2.925  11.654  0.4497 -0.4083 -0.4477
 4382SOL    HW124605   0.882   2.845  11.701  2.3083 -0.5934  0.1079
 4382SOL    HW224606   0.816   2.961  11.640 -0.4996 -2.3708  0.4058
 4383SOL     OW24607   1.780   2.339   3.704  0.4846 -0.1686  0.2029
 4383SOL    HW124608   1.725   2.400   3.752  0.5901 -0.9909  1.3574
 4383SOL    HW224609   1.719   2.266   3.704 -0.0442  0.2592 -0.9828
 4384SOL     OW24610   3.335   1.375  10.868 -0.1434 -0.0670 -0.0890
 4384SOL    HW124611   3.333   1.458  10.916  0.7007  0.0528 -0.2735
 4384SOL    HW224612   3.258   1.329  10.902 -0.6764  0.6854 -0.2758
 4385SOL     OW24613   1.151   0.654   6.316 -0.5858 -1.1192 -0.4177
 4385SOL    HW124614   1.241   0.629   6.294 -0.1557  0.9189 -1.0393
 4385SOL    HW224615   1.166   0.647   6.410  1.3902  1.1904 -0.5348
 4386SOL     OW24616   2.806   1.998  16.070 -0.1553 -0.6462  0.5990
 4386SOL    HW124617   2.816   2.093  16.072  1.3932 -0.7812 -0.5285
 4386SOL    HW224618   2.721   1.984  16.112  0.1134 -2.5727  0.4729
 4387SOL     OW24619   4.291   2.230   5.813  0.2099 -0.3448  0.1019
 4387SOL    HW124620   4.200   2.249   5.794 -0.0289 -1.8253 -0.2111
 4387SOL    HW224621   4.307   2.141   5.782  0.3194  0.1885 -1.3920
 4388SOL     OW24622   4.473   2.287   7.278 -0.1525 -0.0331 -0.4107
 4388SOL    HW124623   4.495   2.371   7.236 -1.5461 -0.2073 -1.5123
 4388SOL    HW224624   4.403   2.311   7.339  1.2371 -1.5161  1.7195
 4389SOL     OW24625   2.939   3.571   1.694  0.3124 -0.5660  0.0847
 4389SOL    HW124626   2.947   3.574   1.598 -0.1879 -2.0712 -0.0172
 4389SOL    HW224627   2.978   3.657   1.709 -2.8034  1.1054 -1.3179
 4390SOL     OW24628   3.401   0.211   5.755 -0.1917 -0.2796  0.0069
 4390SOL    HW124629   3.493   0.195   5.775 -0.0892 -0.6314 -0.7676
 4390SOL    HW224630   3.408   0.211   5.660  0.3238 -0.1032  0.0454
 4391SOL     OW24631   3.433   4.444   4.766 -0.4067  0.0288 -0.1024
 4391SOL    HW124632   3.501   4.484   4.713  0.0843  1.1901  1.4133
 4391SOL    HW224633   3.469   4.361   4.798  0.3223  1.0542  1.7895
 4392SOL     OW24634   0.657   1.567   4.871  0.3490  0.1568 -0.5207
 4392SOL    HW124635   0.738   1.618   4.869  1.9568 -2.3856  0.6956
 4392SOL    HW224636   0.667   1.503   4.801 -0.5636  0.9438 -1.3831
 4393SOL     OW24637   1.686   3.104  10.973 -0.1988  0.5350 -0.5386
 4393SOL    HW124638   1.629   3.161  11.024  0.5059  0.6384  0.1382
 4393SOL    HW224639   1.710   3.145  10.890  1.9350  0.1817 -0.0907
 4394SOL     OW24640   1.188   4.694  11.964  0.0447 -0.1316  0.3749
 4394SOL    HW124641   1.219   0.061  11.935  1.5636 -1.1662 -1.1512
 4394SOL    HW224642   1.227   4.688  12.051 -2.0722 -0.5389  1.2999
 4395SOL     OW24643   2.772   1.582   8.986  0.3745  0.6251  0.2865
 4395SOL    HW124644   2.776   1.603   9.080  0.1000  1.0298  0.2074
 4395SOL    HW224645   2.679   1.586   8.963  0.3060 -0.6113  0.3499
 4396SOL     OW24646   2.750   0.177  11.728 -0.1306 -0.7600 -0.1445
 4396SOL    HW124647   2.663   0.192  11.763 -1.3157 -0.8341 -3.0990
 4396SOL    HW224648   2.733   0.161  11.635 -0.5944 -0.6227 -0.0827
 4397SOL     OW24649   3.988   2.947  16.417 -0.5501  0.3610  0.1580
 4397SOL    HW124650   4.039   3.012  16.370 -1.4054  2.1796  1.7582
 4397SOL    HW224651   4.051   2.921  16.485 -0.2707  0.7387  0.0404
 4398SOL     OW24652   3.902   0.945   4.706 -0.0229  0.2811  0.0473
 4398SOL    HW124653   3.958   0.880   4.749  1.0929  0.6913 -0.7920
 4398SOL    HW224654   3.938   0.914   4.623  2.2736 -1.5413  1.7197
 4399SOL     OW24655   3.131   0.331   3.333  0.0657 -0.1155  0.1292
 4399SOL    HW124656   3.105   0.423   3.333 -0.5552 -0.2874  0.0999
 4399SOL    HW224657   3.153   0.314   3.242  3.0408  1.7117  0.5332
 4400SOL     OW24658   3.098   2.331   4.350  0.2580  0.7805 -0.1144
 4400SOL    HW124659   3.190   2.313   4.334  0.1498  0.3355 -0.2449
 4400SOL    HW224660   3.057   2.249   4.324 -1.1291  0.9807  1.4754
 4401SOL     OW24661   2.177   2.340   1.265  0.0022  0.8273  0.0827
 4401SOL    HW124662   2.258   2.291   1.283 -0.9667 -1.1651 -0.9188
 4401SOL    HW224663   2.119   2.277   1.223  0.1039 -0.3372  1.6956
 4402SOL     OW24664   3.204   0.951   8.146  0.0933  0.2425 -0.2789
 4402SOL    HW124665   3.201   1.047   8.141  3.2209  0.3745  0.3282
 4402SOL    HW224666   3.213   0.936   8.240 -0.9358 -0.0332 -0.2275
 4403SOL     OW24667   3.080   2.266  11.312 -0.5087  0.1261 -0.0107
 4403SOL    HW124668   3.104   2.179  11.342 -0.9425 -0.7330 -2.1769
 4403SOL    HW224669   2.994   2.244  11.275 -0.5526 -1.7996  1.2654
 4404SOL     OW24670   4.210   0.774  10.593 -0.3145 -0.2600 -0.1153
 4404SOL    HW124671   4.280   0.759  10.657 -1.3149  0.8594  1.2589
 4404SOL    HW224672   4.259   0.788  10.513  0.3895 -0.9329  0.1960
 4405SOL     OW24673   2.874   1.305   4.306 -0.4960  0.7602  0.0895
 4405SOL    HW124674   2.850   1.341   4.392  2.8082  2.2875  0.3277
 4405SOL    HW224675   2.903   1.383   4.260  1.6482 -0.8217 -1.2221
 4406SOL     OW24676   1.784   2.553   2.606 -0.1514  0.3304 -0.5212
 4406SOL    HW124677   1.865   2.574   2.561 -0.2246  0.3870 -0.6263
 4406SOL    HW224678   1.782   2.457   2.607 -0.8864  0.3383 -0.6298
 4407SOL     OW24679   0.894   3.038   6.870  0.5107  0.1652 -0.5467
 4407SOL    HW124680   0.955   3.090   6.818 -0.0900  1.4648  0.0468
 4407SOL    HW224681   0.856   2.994   6.794  1.1808  0.7349 -1.2085
 4408SOL     OW24682   1.828   2.582   9.683  0.2217 -0.4224  0.6560
 4408SOL    HW124683   1.800   2.674   9.690  0.9014 -0.3505  2.3658
 4408SOL    HW224684   1.742   2.542   9.693 -0.1274  0.0312 -0.5139
 4409SOL     OW24685   1.674   0.858   6.610  0.0858 -0.0598  0.0820
 4409SOL    HW124686   1.752   0.878   6.558 -1.4884  0.2084 -2.1794
 4409SOL    HW224687   1.615   0.925   6.577 -0.7229 -0.8149 -0.0030
 4410SOL     OW24688   0.626   3.517   4.251  0.1038  0.0106 -0.2650
 4410SOL    HW124689   0.661   3.598   4.290 -3.6223  2.1178 -1.2086
 4410SOL    HW224690   0.609   3.474   4.335 -0.0009  1.2239  0.3485
 4411SOL     OW24691   3.305   0.694  12.040 -0.0214  0.0398  0.2059
 4411SOL    HW124692   3.376   0.754  12.063 -0.8259 -0.3302  3.5469
 4411SOL    HW224693   3.224   0.732  12.073  0.4575 -1.2893  2.9118
 4412SOL     OW24694   1.809   0.398   2.969 -0.1610  0.1942  0.4459
 4412SOL    HW124695   1.775   0.401   2.880  1.6531  1.0160 -0.2129
 4412SOL    HW224696   1.796   0.488   2.998 -0.5898 -0.1170  1.2262
 4413SOL     OW24697   2.434   1.389   8.721 -0.5761  0.0142 -0.0066
 4413SOL    HW124698   2.489   1.350   8.789 -1.8927 -0.1239  0.9780
 4413SOL    HW224699   2.346   1.366   8.750  0.5851 -1.5870  2.2733
 4414SOL     OW24700   1.100   3.522  11.122 -0.3814  0.5345 -0.3465
 4414SOL    HW124701   1.084   3.570  11.041 -1.7988 -0.1794 -0.4918
 4414SOL    HW224702   1.106   3.431  11.091 -1.6662  0.7546 -1.2582
 4415SOL     OW24703   1.321   1.040  12.517 -0.5535 -0.0163 -0.1514
 4415SOL    HW124704   1.382   1.078  12.581 -2.5179  0.8519  1.2106
 4415SOL    HW224705   1.286   0.966  12.566  1.7410  0.0041  1.4902
 4416SOL     OW24706   2.196   4.146   0.411 -0.6618  0.0010  0.3613
 4416SOL    HW124707   2.158   4.075   0.360 -0.9916  1.4760 -1.4437
 4416SOL    HW224708   2.124   4.141   0.474  0.8320 -0.4225  2.0273
 4417SOL     OW24709   2.249   0.798  17.339 -0.1929 -0.2634 -0.3921
 4417SOL    HW124710   2.294   0.867  17.289  2.8627  0.0168  2.7966
 4417SOL    HW224711   2.184   0.854  17.383 -0.0706 -0.7543  0.4026
 4418SOL     OW24712   0.439   3.257  16.937 -0.1760 -0.5053  0.1669
 4418SOL    HW124713   0.448   3.182  16.996 -1.5718  1.3141  2.6843
 4418SOL    HW224714   0.491   3.318  16.989 -0.5499  0.2032 -0.2946
 4419SOL     OW24715   4.102   2.589   2.135 -0.3356 -0.6262  0.4458
 4419SOL    HW124716   4.006   2.594   2.133 -0.2554  1.0622  0.5207
 4419SOL    HW224717   4.119   2.522   2.202  0.1904 -0.8514  0.0839
 4420SOL     OW24718   1.480   1.775   6.307 -0.1685 -0.6619  0.5088
 4420SOL    HW124719   1.404   1.775   6.250  0.3456  1.6804 -0.1809
 4420SOL    HW224720   1.533   1.834   6.253 -3.2482  2.2911  0.6992
 4421SOL     OW24721   3.445   4.035   8.093  0.3179 -0.4536  0.0174
 4421SOL    HW124722   3.401   4.106   8.140  0.6887  0.9722 -1.8104
 4421SOL    HW224723   3.440   4.069   8.004  0.7892  0.7535  0.4531
 4422SOL     OW24724   3.902   1.634   9.382 -0.1257  0.9225 -0.0128
 4422SOL    HW124725   3.922   1.728   9.385  0.7842  0.5854  4.8776
 4422SOL    HW224726   3.837   1.623   9.451  0.1829 -0.1659  0.1057
 4423SOL     OW24727   4.495   1.763   7.989  0.7985 -1.1591  0.5400
 4423SOL    HW124728   4.528   1.752   8.078  1.1451 -0.5051  0.4920
 4423SOL    HW224729   4.498   1.670   7.969 -1.2942 -1.2032  0.4084
 4424SOL     OW24730   4.533   0.475   5.407  0.0269 -0.1964  0.3901
 4424SOL    HW124731   4.578   0.557   5.387 -3.0750  1.1891 -0.7586
 4424SOL    HW224732   4.592   0.440   5.474  0.6658 -1.0902 -0.6232
 4425SOL     OW24733   3.207   1.576  14.833 -0.0720 -0.0157 -0.5015
 4425SOL    HW124734   3.163   1.611  14.755 -2.8446 -1.0863  0.5812
 4425SOL    HW224735   3.138   1.583  14.899  2.2827  1.1891  1.8522
 4426SOL     OW24736   4.532   2.733   4.842 -0.4401 -0.1580 -0.2019
 4426SOL    HW124737   4.586   2.690   4.776 -0.1004  0.3558 -0.2575
 4426SOL    HW224738   4.591   2.723   4.917 -1.1550  0.7722  0.4969
 4427SOL     OW24739   3.492   1.399  12.441 -0.4041  0.2681 -0.3085
 4427SOL    HW124740   3.533   1.470  12.391  0.8330 -0.7004 -0.6842
 4427SOL    HW224741   3.452   1.345  12.373  0.0443 -0.5863  0.0967
 4428SOL     OW24742   1.136   3.420   8.253 -0.2502 -0.2804 -0.3344
 4428SOL    HW124743   1.134   3.516   8.256 -0.7313 -0.1458 -4.7476
 4428SOL    HW224744   1.231   3.408   8.253 -0.3373 -0.9309 -0.0417
 4429SOL     OW24745   2.543   0.199   7.680 -0.2109  0.4021  0.2635
 4429SOL    HW124746   2.473   0.135   7.664  0.5291 -1.2326  3.4311
 4429SOL    HW224747   2.496   0.282   7.668 -2.0490 -1.0040 -2.1124
 4430SOL     OW24748   3.993   3.439   5.207 -0.1565 -0.0100  0.9575
 4430SOL    HW124749   3.947   3.358   5.229  1.1578 -0.8483  0.6597
 4430SOL    HW224750   4.066   3.398   5.160 -0.5563  2.6260 -1.9575
 4431SOL     OW24751   1.819   0.416   3.360 -0.2564 -0.3866  0.4444
 4431SOL    HW124752   1.874   0.342   3.384 -0.5159 -0.4272  0.9000
 4431SOL    HW224753   1.756   0.365   3.308 -0.8773  0.0377  0.7895
 4432SOL     OW24754   0.327   0.967   3.597  0.3765  0.2065 -0.1201
 4432SOL    HW124755   0.266   0.947   3.669 -0.5967  0.1840 -0.9421
 4432SOL    HW224756   0.335   1.061   3.615  0.6349 -0.0993  1.3377
 4433SOL     OW24757   2.952   1.568  14.974 -0.0114 -0.4162 -0.3189
 4433SOL    HW124758   2.870   1.608  14.944 -2.2749 -3.0972  2.3103
 4433SOL    HW224759   2.914   1.485  15.004 -0.3700 -0.7259 -1.6178
 4434SOL     OW24760   1.770   1.131   7.348  0.5097  0.2175  0.4834
 4434SOL    HW124761   1.717   1.105   7.424  0.7865 -0.4015  0.4692
 4434SOL    HW224762   1.856   1.124   7.389 -0.8524 -0.0026  3.3296
 4435SOL     OW24763   0.426   4.443   6.513 -0.0193 -0.2013 -0.0253
 4435SOL    HW124764   0.442   4.537   6.500 -0.7278  0.0133  0.6628
 4435SOL    HW224765   0.347   4.450   6.566 -0.6166 -0.4143 -0.8889
 4436SOL     OW24766   4.595   4.650   2.557  0.0275  0.0707 -0.0782
 4436SOL    HW124767   4.640   4.628   2.639 -1.6081  1.0906  1.0872
 4436SOL    HW224768   4.661   4.618   2.495  1.0368 -1.1611  1.6348
 4437SOL     OW24769   4.253   3.001   9.773  0.0121 -0.0090 -0.0166
 4437SOL    HW124770   4.227   2.924   9.722 -0.1175 -0.7645  1.1951
 4437SOL    HW224771   4.218   3.066   9.711  1.2741 -1.2251 -2.0139
 4438SOL     OW24772   2.199   3.863  17.641  0.2329 -0.0190 -0.2672
 4438SOL    HW124773   2.256   3.824   0.028 -0.2762  0.8387  0.6832
 4438SOL    HW224774   2.213   3.803  17.568 -1.6788  0.3816 -0.9857
 4439SOL     OW24775   1.417   2.522   4.900 -0.7135  0.2975  0.4770
 4439SOL    HW124776   1.487   2.576   4.864  1.7152 -1.3301  2.8118
 4439SOL    HW224777   1.334   2.569   4.887  0.1169  1.5176 -0.3685
 4440SOL     OW24778   1.353   2.650  10.861  0.3931 -0.0730  0.2902
 4440SOL    HW124779   1.281   2.672  10.920 -0.1287  1.2309 -0.8399
 4440SOL    HW224780   1.335   2.556  10.851 -2.1155  0.4495 -0.1102
 4441SOL     OW24781   3.783   4.502  15.336  0.4457  0.4011  0.2029
 4441SOL    HW124782   3.844   4.567  15.372 -1.6301  2.3382  0.2531
 4441SOL    HW224783   3.783   4.520  15.242  2.0609  1.5638  0.4146
 4442SOL     OW24784   2.327   0.444   6.202  0.4797 -0.1723  0.3005
 4442SOL    HW124785   2.258   0.380   6.222  0.4523 -0.2634 -0.0740
 4442SOL    HW224786   2.377   0.389   6.141 -1.3443  0.5760 -1.8756
 4443SOL     OW24787   0.680   4.206   3.465  0.0512  0.0868 -0.2390
 4443SOL    HW124788   0.730   4.138   3.419 -0.9881 -1.2950  0.6847
 4443SOL    HW224789   0.732   4.285   3.452 -1.1583  0.5227 -2.5641
 4444SOL     OW24790   1.757   0.939  14.090  0.4563 -0.2267 -0.2758
 4444SOL    HW124791   1.845   0.900  14.093  0.6225  0.1752  0.2932
 4444SOL    HW224792   1.777   1.029  14.063  0.5238 -0.2580 -0.3302
 4445SOL     OW24793   1.673   0.585  12.994  0.1931  0.0461 -0.2168
 4445SOL    HW124794   1.631   0.526  13.057 -0.6491  0.3862 -0.4643
 4445SOL    HW224795   1.755   0.537  12.981  0.1735  0.1350 -0.6621
 4446SOL     OW24796   4.079   4.097   8.641 -0.0384  0.1787 -0.4824
 4446SOL    HW124797   4.171   4.088   8.616  0.1801 -0.0184  0.3936
 4446SOL    HW224798   4.085   4.174   8.697  0.3987 -0.8460  0.8748
 4447SOL     OW24799   3.770   0.758   6.338 -0.5144 -0.1321 -0.1015
 4447SOL    HW124800   3.737   0.697   6.404 -2.0003  1.3950  0.5676
 4447SOL    HW224801   3.704   0.825   6.355 -0.7604 -0.6210  0.8642
 4448SOL     OW24802   2.480   1.987   9.828 -0.2825  0.2111 -0.4960
 4448SOL    HW124803   2.397   1.943   9.843 -0.6587 -0.1753 -3.5416
 4448SOL    HW224804   2.464   2.038   9.748 -1.5342  0.2404 -0.2147
 4449SOL     OW24805   2.064   0.089   3.687  0.3525 -0.3127 -0.8847
 4449SOL    HW124806   2.015   0.140   3.622 -1.3412 -3.0901 -1.7707
 4449SOL    HW224807   2.141   0.145   3.697  1.0675 -1.3945 -0.3657
 4450SOL     OW24808   4.576   3.993  16.461 -0.0323  0.2637 -0.2262
 4450SOL    HW124809   4.481   3.992  16.461 -0.0359  0.5035  0.0659
 4450SOL    HW224810   4.601   3.907  16.493  0.7125 -0.5055 -2.8314
 4451SOL     OW24811   0.666   2.249  11.126 -0.5942  0.1099  0.0161
 4451SOL    HW124812   0.611   2.290  11.193 -0.4300  0.5267 -0.1049
 4451SOL    HW224813   0.738   2.311  11.133  0.1708 -0.9451  1.5924
 4452SOL     OW24814   3.635   3.488   3.446  0.2449 -0.6348 -0.4582
 4452SOL    HW124815   3.577   3.460   3.517  2.3594 -3.7482  0.0519
 4452SOL    HW224816   3.577   3.500   3.371  1.1629 -0.0865 -1.0842
 4453SOL     OW24817   0.447   2.546   1.133 -0.6492 -0.6286 -0.2175
 4453SOL    HW124818   0.468   2.474   1.074  1.2186 -0.1777 -0.0962
 4453SOL    HW224819   0.475   2.624   1.086 -2.0756 -0.9369 -1.6011
 4454SOL     OW24820   4.449   4.526  15.736 -0.2411  0.0762  0.0927
 4454SOL    HW124821   4.497   4.477  15.668  0.6541 -2.1205  2.3090
 4454SOL    HW224822   4.522   4.549  15.794 -0.2653 -1.2682  0.6511
 4455SOL     OW24823   3.709   2.489   8.265  0.5077 -0.1273 -0.3319
 4455SOL    HW124824   3.628   2.528   8.296  0.9334  1.2350 -0.8997
 4455SOL    HW224825   3.695   2.407   8.311 -0.1682 -1.3338 -2.7015
 4456SOL     OW24826   2.778   3.826   2.771 -0.0536 -0.0172 -0.4650
 4456SOL    HW124827   2.873   3.816   2.772 -0.2951 -2.3625  1.8969
 4456SOL    HW224828   2.768   3.905   2.824 -1.8647 -0.7355  0.2812
 4457SOL     OW24829   3.149   3.405   2.019  0.3432 -0.2467 -0.6933
 4457SOL    HW124830   3.208   3.343   1.976  1.6550  0.8643 -0.4831
 4457SOL    HW224831   3.188   3.382   2.103  2.2130  0.8658 -1.2613
 4458SOL     OW24832   0.171   1.248   7.083 -0.2930 -0.1304  0.1389
 4458SOL    HW124833   0.239   1.182   7.071 -0.2751 -0.5072  2.2654
 4458SOL    HW224834   0.094   1.206   7.045  1.5406 -1.6624 -1.8130
 4459SOL     OW24835   1.284   0.476   6.617  0.1492  0.4991 -0.1705
 4459SOL    HW124836   1.360   0.530   6.638 -1.6115  2.2804  1.5675
 4459SOL    HW224837   1.217   0.541   6.597 -1.1745 -1.2837 -1.5329
 4460SOL     OW24838   3.371   3.456  12.800  0.3345  0.0082 -0.3819
 4460SOL    HW124839   3.393   3.549  12.795  0.9624 -0.0565  1.1815
 4460SOL    HW224840   3.448   3.423  12.752  1.7275  3.2246 -0.3728
 4461SOL     OW24841   1.544   2.942  15.002  0.7316 -0.0811  0.2425
 4461SOL    HW124842   1.500   2.949  14.917 -0.5940  0.3148  0.9536
 4461SOL    HW224843   1.572   3.030  15.026  0.6789 -1.0741  3.8998
 4462SOL     OW24844   4.253   3.415  12.808 -0.8142 -0.4047 -0.1081
 4462SOL    HW124845   4.267   3.397  12.715  1.3775 -0.1105  0.1777
 4462SOL    HW224846   4.197   3.342  12.835 -1.5548  0.9716  2.0741
 4463SOL     OW24847   4.401   1.410  10.615 -0.0010  0.4231  0.6546
 4463SOL    HW124848   4.443   1.327  10.593 -0.2330  0.2575  0.8313
 4463SOL    HW224849   4.474   1.464  10.644  0.9823 -0.3240 -0.4102
 4464SOL     OW24850   3.972   2.314  12.902  0.6338 -0.1738  0.5446
 4464SOL    HW124851   3.968   2.371  12.979 -1.2857  2.0817 -1.2308
 4464SOL    HW224852   4.052   2.264  12.913  0.6840 -0.6844 -2.2316
 4465SOL     OW24853   4.674   2.243   2.482  0.1725 -0.1518  0.4058
 4465SOL    HW124854   4.611   2.171   2.474 -0.1958  0.2442 -0.2295
 4465SOL    HW224855   0.013   2.219   2.410  0.3363  1.9672 -0.1736
 4466SOL     OW24856   1.143   2.365  17.182  0.2685  0.3762 -0.0889
 4466SOL    HW124857   1.175   2.454  17.166  0.6675  0.0931 -0.8183
 4466SOL    HW224858   1.210   2.333  17.242  0.9755 -2.3334 -2.3874
 4467SOL     OW24859   0.531   0.184   0.762  0.2617  0.1916  0.3747
 4467SOL    HW124860   0.571   0.270   0.749  1.2500 -0.3042  0.2015
 4467SOL    HW224861   0.474   0.197   0.839  0.5626  1.0018  0.4606
 4468SOL     OW24862   2.815   1.811  14.177 -0.2537 -0.0439 -0.4298
 4468SOL    HW124863   2.850   1.789  14.264  1.7028 -1.3095 -1.5455
 4468SOL    HW224864   2.727   1.841  14.202 -0.3824 -0.1132 -0.8024
 4469SOL     OW24865   2.578   1.870  10.461  0.0020 -0.4348  0.2174
 4469SOL    HW124866   2.661   1.908  10.435  0.4285 -0.9725  0.7952
 4469SOL    HW224867   2.542   1.952  10.495 -2.0817 -0.8814 -0.9142
 4470SOL     OW24868   4.517   1.384   4.695  0.0232 -0.0137  0.0438
 4470SOL    HW124869   4.571   1.349   4.765 -1.0605 -1.4617  0.1651
 4470SOL    HW224870   4.494   1.301   4.652 -1.5109  0.8397 -0.7855
 4471SOL     OW24871   1.834   1.947   6.632 -0.5333 -0.3841 -0.2873
 4471SOL    HW124872   1.897   2.018   6.644 -1.1744  0.4233 -1.6662
 4471SOL    HW224873   1.872   1.871   6.675 -0.8888 -0.2107  0.3250
 4472SOL     OW24874   4.469   4.582   2.855 -0.4668 -0.5059 -0.4367
 4472SOL    HW124875   4.559   4.599   2.883 -0.3675 -1.2746 -0.2983
 4472SOL    HW224876   4.419   4.663   2.863 -2.5528 -1.8924  0.4958
 4473SOL     OW24877   2.391   2.426   5.549 -0.2685  0.2491 -0.5344
 4473SOL    HW124878   2.298   2.416   5.571  0.1012  1.1465  1.4017
 4473SOL    HW224879   2.407   2.353   5.489  1.8813  0.9693 -0.8345
 4474SOL     OW24880   4.223   0.680   4.053 -0.4958  0.2215 -0.1669
 4474SOL    HW124881   4.299   0.625   4.032 -0.2155  0.2675  0.7033
 4474SOL    HW224882   4.193   0.697   3.964  3.1351  0.4995 -1.3448
 4475SOL     OW24883   1.474   2.352   1.268 -0.4317 -0.2064  0.2663
 4475SOL    HW124884   1.443   2.333   1.357  0.9871 -0.2104  0.7641
 4475SOL    HW224885   1.411   2.416   1.235  1.5221  1.4814 -0.1307
 4476SOL     OW24886   0.786   0.424   8.721 -0.0456  0.1101 -0.1872
 4476SOL    HW124887   0.874   0.462   8.727  0.1554 -0.5260  0.7917
 4476SOL    HW224888   0.766   0.420   8.814  0.8749  2.9623  0.1320
 4477SOL     OW24889   1.576   2.422   7.830  0.0227 -0.1490  0.2907
 4477SOL    HW124890   1.584   2.460   7.917 -2.6504 -0.8803  0.8273
 4477SOL    HW224891   1.504   2.359   7.840  0.7747 -0.7048  2.2399
 4478SOL     OW24892   2.703   4.361  16.162  0.2994 -0.2863 -0.1521
 4478SOL    HW124893   2.755   4.397  16.089 -0.7636 -0.5676 -1.0401
 4478SOL    HW224894   2.690   4.436  16.220  2.0892 -3.0001  3.7360
 4479SOL     OW24895   0.488   4.440   6.895 -0.5762 -0.0569  0.4918
 4479SOL    HW124896   0.524   4.464   6.981  0.5248  0.4397 -0.1073
 4479SOL    HW224897   0.556   4.467   6.833  0.5670  0.4285  1.9675
 4480SOL     OW24898   4.160   0.328  16.667 -0.4234  0.5640 -0.0657
 4480SOL    HW124899   4.090   0.268  16.642  1.6314 -0.6879 -2.7474
 4480SOL    HW224900   4.194   0.358  16.583  0.0243  1.6907  0.5161
 4481SOL     OW24901   0.767   4.344  11.092 -0.7775 -0.4012  0.9003
 4481SOL    HW124902   0.706   4.318  11.162 -1.3614  1.5413  1.0988
 4481SOL    HW224903   0.820   4.417  11.125 -0.8040 -0.8564  1.9712
 4482SOL     OW24904   3.849   1.836   2.760 -0.1172  0.0142  0.1578
 4482SOL    HW124905   3.769   1.798   2.725 -1.7816  2.2186  1.5326
 4482SOL    HW224906   3.834   1.846   2.854 -0.1952 -0.1471  0.1622
 4483SOL     OW24907   4.632   0.255  16.707  0.3263  0.0136  0.4954
 4483SOL    HW124908   4.559   0.279  16.765  0.7553 -1.2427  1.5738
 4483SOL    HW224909   4.679   0.338  16.707 -0.5240  0.4740 -2.5074
 4484SOL     OW24910   1.810   2.391   5.684 -0.0399 -0.0486  0.3796
 4484SOL    HW124911   1.809   2.419   5.776 -1.0203  2.6541 -0.4608
 4484SOL    HW224912   1.843   2.469   5.640  1.4782 -0.8524  0.1255
 4485SOL     OW24913   2.963   1.432  12.647  0.1500  0.0273  0.4643
 4485SOL    HW124914   2.997   1.500  12.590  2.8737 -0.3892  1.6158
 4485SOL    HW224915   2.914   1.501  12.692 -1.6322 -1.0266  0.1660
 4486SOL     OW24916   3.581   4.369   1.298  0.7703  0.2974 -0.7431
 4486SOL    HW124917   3.653   4.408   1.346  0.9633 -1.2659  0.2266
 4486SOL    HW224918   3.511   4.425   1.333  1.5661  0.6730  0.2221
 4487SOL     OW24919   4.158   2.411   3.391 -0.2857  0.2046  0.3667
 4487SOL    HW124920   4.150   2.457   3.475  0.9203  1.5142 -0.2463
 4487SOL    HW224921   4.246   2.444   3.374 -0.1548 -1.1606 -1.5946
 4488SOL     OW24922   1.054   3.424  12.583  0.5045 -0.1767  0.5947
 4488SOL    HW124923   0.993   3.491  12.554  1.2254 -0.1323 -0.8215
 4488SOL    HW224924   0.989   3.370  12.627 -1.2418 -0.6997 -2.6619
 4489SOL     OW24925   0.789   3.568  14.911 -0.5037  0.8822 -0.3095
 4489SOL    HW124926   0.864   3.515  14.883 -0.9752  0.2559 -0.3939
 4489SOL    HW224927   0.713   3.524  14.875  0.0006 -0.3841  0.1734
 4490SOL     OW24928   2.329   3.271   3.845 -0.0866 -0.9570  0.5095
 4490SOL    HW124929   2.315   3.348   3.791 -3.4004  0.0469  2.8288
 4490SOL    HW224930   2.270   3.291   3.918  0.1590 -0.1672  0.4840
 4491SOL     OW24931   3.996   2.255   6.221  0.7813  0.1091  0.1739
 4491SOL    HW124932   3.947   2.285   6.145 -0.3788  0.1527  0.9427
 4491SOL    HW224933   3.957   2.171   6.246 -0.0916 -0.0946 -1.8846
 4492SOL     OW24934   3.774   3.663  10.967 -0.3849  0.0239 -0.0386
 4492SOL    HW124935   3.686   3.625  10.962 -0.5575  0.2877  0.9216
 4492SOL    HW224936   3.756   3.755  10.945 -0.0416  0.3591  1.0742
 4493SOL     OW24937   3.387   0.250  12.305 -0.1133  0.1526 -0.1678
 4493SOL    HW124938   3.460   0.285  12.356  2.9590 -1.5420 -3.3353
 4493SOL    HW224939   3.357   0.325  12.254 -1.1795 -1.3570 -1.7814
 4494SOL     OW24940   0.874   2.588   4.094  0.0784 -0.5418 -0.2671
 4494SOL    HW124941   0.867   2.614   4.186 -2.0248 -4.0229  0.5608
 4494SOL    HW224942   0.862   2.493   4.096 -1.2265 -0.3890 -0.8211
 4495SOL     OW24943   3.421   4.672   3.008  0.0754 -0.1166  0.1384
 4495SOL    HW124944   3.490   4.666   3.075  0.0119 -0.0699  0.2085
 4495SOL    HW224945   3.345   4.644   3.059  0.2421 -1.3963 -0.3286
 4496SOL     OW24946   3.133   0.399   6.158 -0.1028 -0.0802 -0.2829
 4496SOL    HW124947   3.168   0.432   6.241 -0.1797  0.2802 -0.3969
 4496SOL    HW224948   3.139   0.303   6.160  1.6191 -0.0353 -4.5724
 4497SOL     OW24949   2.246   3.515   3.764 -0.3973 -0.0898 -0.0768
 4497SOL    HW124950   2.315   3.505   3.699 -1.0276  3.3097 -1.2565
 4497SOL    HW224951   2.166   3.518   3.712  0.2903 -2.8685 -1.2756
 4498SOL     OW24952   2.851   3.273   8.217  0.4827  0.4527  0.2020
 4498SOL    HW124953   2.854   3.224   8.135  0.1494  0.3563  0.2466
 4498SOL    HW224954   2.758   3.271   8.238 -0.1499  2.4256 -2.5186
 4499SOL     OW24955   3.250   2.057  16.691  0.3465 -0.6135 -0.1514
 4499SOL    HW124956   3.336   2.074  16.730  0.4466 -4.4089  1.3227
 4499SOL    HW224957   3.270   2.036  16.600  1.4291 -0.7102  0.1136
 4500SOL     OW24958   4.171   4.446   7.236 -0.1715  0.0825  0.7091
 4500SOL    HW124959   4.174   4.383   7.308  2.2150 -0.5271  0.0593
 4500SOL    HW224960   4.118   4.408   7.165  0.7947 -0.7547  0.4339
 4501SOL     OW24961   2.482   4.713   9.582  0.3112  0.5722  0.5072
 4501SOL    HW124962   2.406   4.665   9.613  0.6130  0.2523  0.7521
 4501SOL    HW224963   2.443   0.082   9.586  0.8328  0.8275  0.0095
 4502SOL     OW24964   0.383   0.434   1.471 -0.3562 -0.1351 -0.2346
 4502SOL    HW124965   0.329   0.506   1.441 -0.1130  1.1362  2.3876
 4502SOL    HW224966   0.466   0.451   1.426  0.4878 -0.8065  1.0317
 4503SOL     OW24967   4.004   3.739  15.906 -0.1102 -0.3371  0.7072
 4503SOL    HW124968   4.031   3.721  15.816  1.3069  1.8973  0.6977
 4503SOL    HW224969   3.953   3.819  15.902  2.4450  1.2519  0.2748
 4504SOL     OW24970   3.344   4.496   1.725 -0.1050 -0.1282 -0.0918
 4504SOL    HW124971   3.432   4.533   1.723  0.5129 -1.6460 -0.3799
 4504SOL    HW224972   3.285   4.572   1.721  0.4937  0.3654  0.4455
 4505SOL     OW24973   2.750   4.522   6.597 -0.3181  0.3457 -0.0147
 4505SOL    HW124974   2.656   4.535   6.604 -0.1168  0.8799  1.7692
 4505SOL    HW224975   2.774   4.445   6.650 -0.6540  0.2520 -0.0005
 4506SOL     OW24976   4.446   3.027   5.564 -0.1735  0.2936  0.2612
 4506SOL    HW124977   4.373   2.966   5.575 -1.8869  2.2982 -0.0974
 4506SOL    HW224978   4.477   3.047   5.652 -0.4459 -0.9515  0.6426
 4507SOL     OW24979   0.468   0.511   7.191 -0.0769 -0.3338 -0.1682
 4507SOL    HW124980   0.522   0.439   7.224 -0.5684 -0.5799  0.0985
 4507SOL    HW224981   0.396   0.463   7.150  2.2076 -2.5043 -1.7174
 4508SOL     OW24982   4.084   2.254   4.812  0.3031  0.1074  0.1317
 4508SOL    HW124983   4.029   2.333   4.813 -1.7945 -1.3323  0.1910
 4508SOL    HW224984   4.171   2.294   4.814  0.7997 -0.9116 -1.0149
 4509SOL     OW24985   1.233   0.090   7.441  0.2471 -0.6204  0.1685
 4509SOL    HW124986   1.208   0.086   7.533 -1.9624  0.0885 -0.4041
 4509SOL    HW224987   1.319   0.132   7.447  0.7169 -1.2990 -1.5903
 4510SOL     OW24988   2.094   1.794  11.595  0.1300  0.4324  0.2901
 4510SOL    HW124989   2.189   1.786  11.606  0.2132 -1.1114 -1.5324
 4510SOL    HW224990   2.076   1.741  11.518 -1.1777 -0.4028  1.1507
 4511SOL     OW24991   1.203   2.657   7.186 -0.3001  0.1217 -0.0846
 4511SOL    HW124992   1.257   2.595   7.236  3.4325  3.2562 -0.2565
 4511SOL    HW224993   1.238   2.739   7.220  1.1269 -0.3800 -0.3602
 4512SOL     OW24994   3.477   1.077  14.283  0.1557 -0.4701 -0.1343
 4512SOL    HW124995   3.553   1.048  14.232 -0.1331 -0.3624 -0.6272
 4512SOL    HW224996   3.485   1.031  14.366  0.9368 -1.0735 -0.5456
 4513SOL     OW24997   3.851   4.596   2.525  0.0555  0.3270 -0.0017
 4513SOL    HW124998   3.868   4.637   2.610  0.5645  0.0729  0.0184
 4513SOL    HW224999   3.756   4.601   2.537  0.1712 -0.9338  1.5189
 4514SOL     OW25000   3.646   0.681   4.442 -0.4379  0.0420 -0.5317
 4514SOL    HW125001   3.610   0.747   4.382 -2.6183 -1.5097 -0.9212
 4514SOL    HW225002   3.641   0.600   4.391  0.1965 -0.5974  0.4290
 4515SOL     OW25003   2.495   0.946  16.943  0.2425  0.0733 -0.4799
 4515SOL    HW125004   2.435   1.021  16.948  0.9756  0.4581  2.3529
 4515SOL    HW225005   2.431   0.879  16.966  0.9563 -0.3478  0.2911
 4516SOL     OW25006   4.024   4.428  10.525 -0.1517  0.6532  0.3169
 4516SOL    HW125007   4.078   4.421  10.604 -0.1420  2.3559  0.4469
 4516SOL    HW225008   4.041   4.521  10.516 -0.8796  0.7372 -0.1477
 4517SOL     OW25009   2.159   3.207   8.236  0.1831 -0.0005  0.4839
 4517SOL    HW125010   2.176   3.112   8.238  2.4654  0.4720  3.3447
 4517SOL    HW225011   2.079   3.208   8.289 -1.0798 -0.7921 -1.4072
 4518SOL     OW25012   2.249   2.233   7.658  0.2803 -0.2037 -0.6250
 4518SOL    HW125013   2.187   2.188   7.715  1.1624 -0.3350  0.2302
 4518SOL    HW225014   2.329   2.185   7.677 -0.0349 -0.3713  0.2800
 4519SOL     OW25015   1.087   1.176   3.503  0.3770  0.3366 -0.0045
 4519SOL    HW125016   1.130   1.147   3.422 -2.1066 -0.2248 -1.1222
 4519SOL    HW225017   1.134   1.259   3.509  0.6753  0.3393 -2.4658
 4520SOL     OW25018   4.440   2.777   7.424 -0.3159  0.1813  0.5083
 4520SOL    HW125019   4.443   2.810   7.334  0.2840 -1.0651  0.0771
 4520SOL    HW225020   4.526   2.737   7.417  0.2266  1.5640 -0.8528
 4521SOL     OW25021   3.303   0.775  11.028 -0.0284 -0.2098 -0.2542
 4521SOL    HW125022   3.283   0.751  11.119  0.6228 -3.5709 -1.0085
 4521SOL    HW225023   3.375   0.837  11.043 -0.2457  0.5685 -2.5206
 4522SOL     OW25024   1.901   4.384   8.641  0.0728  0.3767  0.3238
 4522SOL    HW125025   1.833   4.349   8.584  1.2685 -3.1275  1.0428
 4522SOL    HW225026   1.916   4.468   8.599 -1.8244  0.6745  0.2766
 4523SOL     OW25027   3.871   0.600   4.974 -0.5291 -0.2873 -0.0144
 4523SOL    HW125028   3.903   0.684   5.008 -2.9676  0.5163  0.2968
 4523SOL    HW225029   3.899   0.540   5.043 -0.5986 -0.8259 -0.4650
 4524SOL     OW25030   0.387   1.653   4.260  0.1051 -0.2910  0.7619
 4524SOL    HW125031   0.444   1.582   4.290  0.4072 -0.0745  0.6995
 4524SOL    HW225032   0.445   1.672   4.186  1.4310  0.5068  2.0267
 4525SOL     OW25033   3.057   0.760  15.450  0.3646 -0.2002 -0.1794
 4525SOL    HW125034   3.084   0.816  15.522  1.0263 -1.6911  0.7324
 4525SOL    HW225035   3.020   0.680  15.488 -0.5669  0.8320  1.0827
 4526SOL     OW25036   3.499   2.563   6.844 -0.0551  0.1421  0.0976
 4526SOL    HW125037   3.435   2.629   6.817  0.4526 -0.5736 -2.8780
 4526SOL    HW225038   3.512   2.510   6.765 -2.0035  0.1871 -0.2447
 4527SOL     OW25039   3.519   0.161   6.336 -0.1268  0.4907 -0.3334
 4527SOL    HW125040   3.601   0.207   6.355  0.1215  0.0181 -0.2765
 4527SOL    HW225041   3.497   0.135   6.425 -0.7700 -0.5772 -0.7961
 4528SOL     OW25042   3.823   3.600   1.593 -0.6428  0.5279 -0.3263
 4528SOL    HW125043   3.905   3.569   1.630 -1.0529 -0.7579 -0.4767
 4528SOL    HW225044   3.824   3.531   1.526 -0.1366  0.2515 -0.0297
 4529SOL     OW25045   3.070   2.816  11.152 -0.2627  0.3618 -0.5727
 4529SOL    HW125046   3.136   2.812  11.222  1.6498 -1.0907 -2.4658
 4529SOL    HW225047   3.087   2.907  11.127 -0.7605  0.4780 -0.4745
 4530SOL     OW25048   1.766   0.871  15.850 -0.3133  0.3902  0.2800
 4530SOL    HW125049   1.834   0.917  15.899  1.7394 -1.6436 -0.6884
 4530SOL    HW225050   1.788   0.907  15.764 -1.6456 -0.7231 -0.5337
 4531SOL     OW25051   4.372   3.087   1.201  0.6483  0.5469  0.2122
 4531SOL    HW125052   4.451   3.073   1.253  1.8816 -2.4926 -2.4307
 4531SOL    HW225053   4.407   3.068   1.114  0.7760 -1.5952  0.7308
 4532SOL     OW25054   4.583   1.544  10.091  0.2112 -0.4865 -0.3960
 4532SOL    HW125055   4.501   1.589  10.070  0.0160 -0.5606  0.2185
 4532SOL    HW225056   4.554   1.502  10.172 -0.4838 -1.5832 -1.2118
 4533SOL     OW25057   3.237   0.662  13.810 -0.0078  0.2453 -0.4073
 4533SOL    HW125058   3.189   0.658  13.894 -1.0165 -0.8256 -1.0274
 4533SOL    HW225059   3.179   0.610  13.755 -1.2322  1.5174 -0.3156
 4534SOL     OW25060   0.636   3.755   8.447  0.2384  0.9362 -0.6536
 4534SOL    HW125061   0.562   3.778   8.391 -0.6643 -1.0880 -0.2905
 4534SOL    HW225062   0.711   3.775   8.391  0.1065 -0.3491 -1.2747
 4535SOL     OW25063   3.940   2.849  10.155  0.4811  0.4496 -0.7006
 4535SOL    HW125064   3.924   2.932  10.199  1.7840 -0.1989  0.9801
 4535SOL    HW225065   3.936   2.789  10.229  3.0114  1.0540 -0.0514
 4536SOL     OW25066   1.741   2.005   5.416  0.4258 -0.1324  0.4628
 4536SOL    HW125067   1.791   2.087   5.422 -0.5166  0.4291  0.8695
 4536SOL    HW225068   1.704   2.023   5.330 -0.5111  0.0697  0.9081
 4537SOL     OW25069   0.110   2.292  14.070 -0.1077 -0.5143  0.7213
 4537SOL    HW125070   0.123   2.369  14.125  0.9669 -0.1256 -0.0933
 4537SOL    HW225071   0.158   2.221  14.114 -0.8666 -0.7488  1.1726
 4538SOL     OW25072   3.313   2.237  10.717 -0.6316  0.3516 -0.3679
 4538SOL    HW125073   3.355   2.191  10.645 -1.3943  0.8904 -1.1559
 4538SOL    HW225074   3.352   2.197  10.795 -0.2165  1.5693  0.0504
 4539SOL     OW25075   0.064   3.449   5.057 -0.2104  0.1793  0.5158
 4539SOL    HW125076   0.024   3.381   5.111 -1.6374  0.4746 -0.1799
 4539SOL    HW225077   0.002   3.516   5.087 -0.3929  0.5393 -0.6965
 4540SOL     OW25078   0.110   4.594   2.392 -0.5874  0.0766 -0.0707
 4540SOL    HW125079   0.093   4.641   2.310  0.8543 -0.8732 -0.9224
 4540SOL    HW225080   0.154   4.515   2.360 -0.9854 -1.2024  2.4858
 4541SOL     OW25081   3.935   0.408   7.569 -0.4527  0.4146  0.2459
 4541SOL    HW125082   4.008   0.360   7.609 -0.4735 -0.5566 -0.8653
 4541SOL    HW225083   3.876   0.437   7.638 -2.0897 -1.5189 -0.3556
 4542SOL     OW25084   0.076   3.995   5.459  0.0093 -0.0741 -0.4294
 4542SOL    HW125085   0.027   4.075   5.439  1.5143  1.0425  0.3177
 4542SOL    HW225086   0.110   4.010   5.547 -0.5528 -0.2943 -0.1733
 4543SOL     OW25087   3.841   1.165   7.652 -0.2026 -0.1589  0.5034
 4543SOL    HW125088   3.833   1.247   7.699 -2.6845  1.2491 -2.3825
 4543SOL    HW225089   3.849   1.099   7.720 -0.3860 -0.3975  0.2962
 4544SOL     OW25090   3.510   2.222   3.455 -0.9080  0.3856 -0.1896
 4544SOL    HW125091   3.538   2.302   3.412 -1.9529  0.8213 -0.0643
 4544SOL    HW225092   3.513   2.239   3.549 -0.3467  0.7810 -0.2806
 4545SOL     OW25093   4.099   4.212   2.645 -0.4039 -0.0337 -0.4323
 4545SOL    HW125094   4.064   4.123   2.637 -0.7888 -0.0849  1.7411
 4545SOL    HW225095   4.047   4.246   2.572 -1.0776  1.5315  0.7765
 4546SOL     OW25096   0.934   0.516   2.343  0.0601 -0.6194 -0.0473
 4546SOL    HW125097   0.923   0.457   2.268  1.0081 -0.2068 -0.5112
 4546SOL    HW225098   1.022   0.547   2.324 -0.0366  1.0008  2.2038
 4547SOL     OW25099   1.548   4.430  15.070  0.4886  0.2808 -0.3952
 4547SOL    HW125100   1.475   4.387  15.025  0.7602 -2.3122  1.6530
 4547SOL    HW225101   1.540   4.407  15.162  0.1410  0.6488 -0.3333
 4548SOL     OW25102   2.382   4.240   4.766  0.0361 -0.4036 -0.2680
 4548SOL    HW125103   2.409   4.322   4.725  1.1980 -0.9567 -0.6405
 4548SOL    HW225104   2.464   4.195   4.788  1.6073  3.1617  1.0661
 4549SOL     OW25105   2.309   1.435   3.911  0.3874 -0.4088  0.0663
 4549SOL    HW125106   2.297   1.440   3.816  2.4723 -1.6419 -0.2783
 4549SOL    HW225107   2.237   1.383   3.945 -0.4838  1.1348  0.5733
 4550SOL     OW25108   2.764   0.061   5.361  0.0703 -0.1111 -0.2230
 4550SOL    HW125109   2.719   0.145   5.349  2.0983  1.0408  0.0736
 4550SOL    HW225110   2.750   0.056   5.456  0.0865  0.2007 -0.2038
 4551SOL     OW25111   2.170   4.453   1.116  0.3506  0.5765 -0.8217
 4551SOL    HW125112   2.247   4.464   1.171 -0.9344  2.6430  0.5675
 4551SOL    HW225113   2.207   4.404   1.043 -2.0475 -3.2233  0.4978
 4552SOL     OW25114   3.775   2.388   8.954 -0.0694 -0.2265  0.5588
 4552SOL    HW125115   3.690   2.347   8.938  0.0971  0.1263 -1.1357
 4552SOL    HW225116   3.828   2.315   8.985 -0.2886 -1.6497 -2.4279
 4553SOL     OW25117   0.876   2.519  10.270  0.3675 -0.0065 -0.1680
 4553SOL    HW125118   0.851   2.554  10.355  0.4067  1.2273 -0.6742
 4553SOL    HW225119   0.907   2.431  10.294 -2.7982 -1.3456 -1.0238
 4554SOL     OW25120   3.151   3.134   5.623 -0.0072  0.1797 -0.3200
 4554SOL    HW125121   3.104   3.217   5.620  0.0637  0.2333  0.0006
 4554SOL    HW225122   3.230   3.155   5.672  0.2856 -0.9019 -0.3292
 4555SOL     OW25123   3.963   1.625   1.070  0.6526  0.1743 -0.0555
 4555SOL    HW125124   3.888   1.638   1.127 -0.3497  1.9498 -1.8075
 4555SOL    HW225125   4.017   1.703   1.087 -1.1454  0.6547  3.5572
 4556SOL     OW25126   0.205   4.173  13.383  0.2576  0.2688  0.4549
 4556SOL    HW125127   0.185   4.179  13.290  0.0691 -1.1125  0.4097
 4556SOL    HW225128   0.201   4.265  13.407 -2.0561  0.4043 -0.5278
 4557SOL     OW25129   1.316   0.218   2.513 -0.0106 -0.9349 -0.1460
 4557SOL    HW125130   1.233   0.222   2.466  0.0043  3.5805  0.2138
 4557SOL    HW225131   1.305   0.290   2.574  0.9968 -2.3676  1.7474
 4558SOL     OW25132   1.201   3.369   6.711  0.3583  0.2175 -0.5218
 4558SOL    HW125133   1.138   3.439   6.696 -0.0588  0.3063  1.5745
 4558SOL    HW225134   1.253   3.396   6.787  0.6278 -1.3775 -0.1406
 4559SOL     OW25135   2.538   1.672   3.364 -0.0264  0.0559 -0.2256
 4559SOL    HW125136   2.594   1.744   3.334  0.2238 -0.1939 -0.3570
 4559SOL    HW225137   2.474   1.676   3.292 -1.0025 -1.1717  0.5724
 4560SOL     OW25138   4.078   3.588   7.043  0.2265  0.6945  0.3799
 4560SOL    HW125139   3.985   3.565   7.040 -0.0253  1.3918  2.7773
 4560SOL    HW225140   4.111   3.500   7.026 -2.0237 -0.3401  1.4185
 4561SOL     OW25141   0.567   3.096   2.078  0.0883  0.0681  0.0541
 4561SOL    HW125142   0.568   3.111   2.172  0.7724 -0.2790  0.1000
 4561SOL    HW225143   0.493   3.151   2.052  1.0864  0.5733 -1.7686
 4562SOL     OW25144   1.922   2.775  13.666  0.2006 -0.6027  0.2816
 4562SOL    HW125145   1.935   2.699  13.723  1.8459 -1.0440 -0.6832
 4562SOL    HW225146   1.832   2.797  13.692  0.6507  0.5726  0.8270
 4563SOL     OW25147   4.385   1.972  10.433  0.6664  0.6553  0.1233
 4563SOL    HW125148   4.379   1.906  10.502 -1.8845 -0.7696 -1.4752
 4563SOL    HW225149   4.404   1.921  10.355  0.0982 -1.3402  1.2880
 4564SOL     OW25150   4.593   4.080   6.053  0.1492 -0.3281 -0.1417
 4564SOL    HW125151   4.565   4.104   6.142  1.3622 -1.4183  0.5345
 4564SOL    HW225152   4.564   4.153   5.999  1.6912  1.1009  0.9658
 4565SOL     OW25153   2.326   0.123   5.081  0.2075 -0.5658 -0.3493
 4565SOL    HW125154   2.302   0.130   5.174  0.0038 -0.6507 -0.3970
 4565SOL    HW225155   2.376   0.042   5.079  0.5068 -0.2943 -3.7606
 4566SOL     OW25156   3.234   1.482   7.107 -0.7297  0.4380 -0.0332
 4566SOL    HW125157   3.251   1.492   7.200 -1.8172 -0.5838  0.2646
 4566SOL    HW225158   3.313   1.521   7.068  0.2518  0.2918  1.8090
 4567SOL     OW25159   3.659   1.911   1.160 -0.6119 -0.2154 -0.5541
 4567SOL    HW125160   3.576   1.903   1.112 -0.6826 -0.5677 -0.3745
 4567SOL    HW225161   3.675   1.817   1.172  1.2733  0.1210 -0.4524
 4568SOL     OW25162   0.477   0.654   5.755 -0.5513  0.1205 -0.4199
 4568SOL    HW125163   0.568   0.640   5.726 -0.3901 -0.6081  0.4645
 4568SOL    HW225164   0.442   0.595   5.689  0.5016 -1.9300  0.8539
 4569SOL     OW25165   2.776   2.771   6.212  0.4266 -0.3203  0.6255
 4569SOL    HW125166   2.730   2.775   6.295 -2.2075  0.2053 -0.8407
 4569SOL    HW225167   2.845   2.708   6.232  0.2081  0.1644  2.8917
 4570SOL     OW25168   4.673   2.448   0.477  0.2762  0.1288 -0.4957
 4570SOL    HW125169   0.008   2.426   0.553  0.5905 -1.1614 -1.0814
 4570SOL    HW225170   0.016   2.421   0.408  0.7779 -1.2487  0.4868
 4571SOL     OW25171   3.789   1.644   7.965  0.2714 -0.1679 -0.3754
 4571SOL    HW125172   3.702   1.614   7.939 -0.4038  1.9451 -0.5750
 4571SOL    HW225173   3.829   1.682   7.887  3.1706  0.2466  1.3188
 4572SOL     OW25174   0.142   0.506  14.250  0.0017  0.2818 -0.1754
 4572SOL    HW125175   0.092   0.571  14.299 -0.9809 -0.7094  0.1463
 4572SOL    HW225176   0.086   0.428  14.253 -0.9476  0.9066 -1.6747
 4573SOL     OW25177   0.044   0.393   2.842 -0.3168 -0.5866 -0.2072
 4573SOL    HW125178   4.669   0.375   2.833 -0.0582 -1.7424 -0.6259
 4573SOL    HW225179   0.056   0.448   2.765 -3.0487 -1.0164 -0.9417
 4574SOL     OW25180   0.223   2.010   8.490  0.5028 -0.8674 -0.2093
 4574SOL    HW125181   0.251   2.101   8.489 -1.4585 -0.2528  0.2525
 4574SOL    HW225182   0.160   2.017   8.561  3.0840 -1.8864  2.1722
 4575SOL     OW25183   3.460   2.371   2.591  0.1339 -0.0313 -0.5199
 4575SOL    HW125184   3.391   2.307   2.573  1.7162 -2.0547  0.5888
 4575SOL    HW225185   3.414   2.453   2.577  0.4599  0.5573  1.7937
 4576SOL     OW25186   4.616   0.401   9.074 -0.0326 -0.3747 -0.6761
 4576SOL    HW125187   4.642   0.435   9.160  0.9941 -0.4361 -0.9563
 4576SOL    HW225188   4.684   0.443   9.021  1.9932 -1.2912  1.1753
 4577SOL     OW25189   1.453   0.745   5.975 -0.0184  0.1171 -0.4012
 4577SOL    HW125190   1.372   0.764   6.023 -0.4518 -1.9991 -0.2884
 4577SOL    HW225191   1.501   0.694   6.041 -1.4033  0.3676  0.8041
 4578SOL     OW25192   3.955   3.970   8.311 -0.0422 -0.0781  0.0247
 4578SOL    HW125193   3.991   4.042   8.258 -0.9319  1.0343  0.9320
 4578SOL    HW225194   3.876   3.975   8.257  1.1162 -0.0789 -1.6817
 4579SOL     OW25195   3.010   3.794   5.766  0.2166 -0.3189 -0.8181
 4579SOL    HW125196   2.963   3.805   5.683  0.1036 -0.2870 -0.7495
 4579SOL    HW225197   3.007   3.884   5.798  0.1449 -0.4095 -0.5730
 4580SOL     OW25198   0.420   2.434   5.003  0.2057  0.0865  0.0123
 4580SOL    HW125199   0.414   2.409   5.095 -0.2364  0.3058  0.0459
 4580SOL    HW225200   0.508   2.401   4.985  0.9827  2.2618 -0.1932
 4581SOL     OW25201   3.716   1.791  13.100 -1.0314  0.1547  0.0110
 4581SOL    HW125202   3.647   1.811  13.037 -0.5858  0.0292 -0.5111
 4581SOL    HW225203   3.791   1.769  13.046 -0.9624  0.2624  0.0641
 4582SOL     OW25204   0.363   0.023   6.173  0.1840 -0.1208 -0.1173
 4582SOL    HW125205   0.314   0.018   6.255 -0.6991  1.5322 -0.5456
 4582SOL    HW225206   0.289   4.708   6.123 -0.7096 -0.1457  1.2175
 4583SOL     OW25207   4.000   1.305   8.458  0.1338 -0.1989  0.1783
 4583SOL    HW125208   3.937   1.367   8.422  2.1262  0.6549 -1.8107
 4583SOL    HW225209   4.053   1.296   8.379 -1.7269 -1.2115 -0.9420
 4584SOL     OW25210   3.220   1.446   4.915  0.0358  0.4330 -0.2621
 4584SOL    HW125211   3.190   1.434   4.825 -1.4043  0.1528  0.2514
 4584SOL    HW225212   3.293   1.505   4.897 -0.4765  0.6867 -1.5062
 4585SOL     OW25213   4.002   1.524   7.486  0.4939  0.3094 -0.0851
 4585SOL    HW125214   4.051   1.522   7.569  4.6817 -0.8572 -2.5589
 4585SOL    HW225215   3.913   1.512   7.518  0.0470  1.8758 -0.7492
 4586SOL     OW25216   1.659   2.701  16.196  0.9228 -0.4397 -0.0669
 4586SOL    HW125217   1.610   2.642  16.139 -1.1270  0.3473  0.8948
 4586SOL    HW225218   1.689   2.650  16.271 -0.1655 -0.1366  0.5715
 4587SOL     OW25219   3.602   2.843  14.942  0.2145 -0.0725 -0.3279
 4587SOL    HW125220   3.601   2.747  14.944 -0.9825 -0.0081  2.3681
 4587SOL    HW225221   3.647   2.854  14.859 -0.0809  1.1486 -0.3246
 4588SOL     OW25222   0.126   1.375   5.512  0.7420  0.5542 -0.4482
 4588SOL    HW125223   0.088   1.372   5.600 -0.1382 -2.6038 -0.9370
 4588SOL    HW225224   0.180   1.296   5.520  1.8963  1.6955  2.8611
 4589SOL     OW25225   0.864   4.585   1.669  0.0400  1.0433  0.4595
 4589SOL    HW125226   0.797   4.517   1.657  0.5784  0.4061  1.0453
 4589SOL    HW225227   0.945   4.542   1.644 -0.1445  0.8957  0.1191
 4590SOL     OW25228   4.129   1.743   4.162  0.5699  0.2672  0.1987
 4590SOL    HW125229   4.123   1.806   4.091 -3.4457 -1.9785 -1.4647
 4590SOL    HW225230   4.212   1.699   4.142  1.3675  2.0208 -0.3064
 4591SOL     OW25231   2.985   2.596   2.211  0.8884 -0.3622 -0.7462
 4591SOL    HW125232   2.890   2.596   2.204  0.7480  2.7363  1.5072
 4591SOL    HW225233   3.006   2.540   2.286  0.9541 -1.3646 -1.5041
 4592SOL     OW25234   0.155   4.109   6.963  0.3719  0.0259  0.3450
 4592SOL    HW125235   0.194   4.155   7.036 -1.6233  0.1395  1.3460
 4592SOL    HW225236   0.103   4.039   7.003 -0.0737 -1.1952 -2.3224
 4593SOL     OW25237   3.129   2.110   8.696 -0.1980  0.3084  0.5350
 4593SOL    HW125238   3.152   2.020   8.720 -0.4426  0.0936 -0.0412
 4593SOL    HW225239   3.048   2.103   8.646  1.5671  0.0720 -2.3039
 4594SOL     OW25240   1.692   2.911   3.176  0.3740 -0.3677 -0.7272
 4594SOL    HW125241   1.778   2.898   3.217  1.4102  1.1864 -2.4210
 4594SOL    HW225242   1.693   3.006   3.169 -1.0133 -0.2820  0.2813
 4595SOL     OW25243   4.711   1.311   4.873  0.0211 -0.2304  0.1910
 4595SOL    HW125244   4.689   1.293   4.964 -2.0605 -1.2967 -0.5389
 4595SOL    HW225245   0.041   1.390   4.896  0.1796 -0.1102 -0.5546
 4596SOL     OW25246   4.676   0.703   1.338 -0.2354 -0.4860 -0.1050
 4596SOL    HW125247   4.618   0.779   1.329  0.4785 -0.1364 -1.7931
 4596SOL    HW225248   4.613   0.647   1.384 -0.6099  0.1550  0.1636
 4597SOL     OW25249   1.981   0.996   9.720  0.0775  0.0398 -0.3746
 4597SOL    HW125250   1.913   1.057   9.692  0.4411  0.7537  0.2935
 4597SOL    HW225251   2.044   1.059   9.754  1.5366 -2.1328  0.9743
 4598SOL     OW25252   2.380   2.771   7.907 -0.4532  0.0694  0.1409
 4598SOL    HW125253   2.345   2.682   7.900  0.0868 -0.0745 -0.7084
 4598SOL    HW225254   2.358   2.798   7.996 -0.6891 -2.4695  0.8583
 4599SOL     OW25255   4.272   3.394  10.746 -0.3056  0.2403  0.3053
 4599SOL    HW125256   4.344   3.428  10.692 -2.3605  0.6997 -2.1615
 4599SOL    HW225257   4.303   3.307  10.773 -0.5711  0.3966  1.0936
 4600SOL     OW25258   1.577   4.452   8.778  0.4183  0.7784 -0.1732
 4600SOL    HW125259   1.577   4.544   8.752 -1.9043  1.5028  2.4598
 4600SOL    HW225260   1.554   4.461   8.870 -2.6078  4.0005 -1.2437
 4601SOL     OW25261   0.449   0.114   1.701 -0.2247 -0.5531 -0.1308
 4601SOL    HW125262   0.490   0.142   1.783  1.8493  1.4608 -1.8541
 4601SOL    HW225263   0.509   0.161   1.643 -0.1922  1.1940  1.2901
 4602SOL     OW25264   1.749   4.347   1.934 -0.3527  0.6393 -0.2526
 4602SOL    HW125265   1.790   4.432   1.954  2.0963 -0.5515 -0.2001
 4602SOL    HW225266   1.654   4.352   1.921 -0.7361  0.3837  2.3429
 4603SOL     OW25267   1.086   1.907  12.521 -0.2560  0.2656  0.3524
 4603SOL    HW125268   1.091   1.846  12.594 -0.6386  0.0523  0.1949
 4603SOL    HW225269   1.011   1.870  12.476  0.7427  0.6926 -1.6735
 4604SOL     OW25270   2.273   0.822   5.872 -0.7792  0.5037  0.1917
 4604SOL    HW125271   2.249   0.751   5.932  1.9928  0.3534  1.1462
 4604SOL    HW225272   2.358   0.794   5.836 -1.6280 -3.0340  0.9026
 4605SOL     OW25273   3.166   2.579   6.158  0.5253  0.2724 -0.1801
 4605SOL    HW125274   3.121   2.530   6.227 -1.7694  1.3907 -0.9112
 4605SOL    HW225275   3.096   2.626   6.114  1.7808  1.6676 -0.6787
 4606SOL     OW25276   2.465   4.161   7.354  0.4862 -0.1732 -0.0826
 4606SOL    HW125277   2.430   4.074   7.371 -1.6176  0.3925 -1.4182
 4606SOL    HW225278   2.388   4.193   7.306  0.3412  0.4105  0.5329
 4607SOL     OW25279   3.025   4.563   2.921  0.1529  0.4330  0.3535
 4607SOL    HW125280   2.979   4.559   3.005  0.5288  2.7680  0.6720
 4607SOL    HW225281   3.098   4.503   2.938  2.3845  2.9240 -0.5329
 4608SOL     OW25282   2.426   1.956   2.632 -0.0211  0.3733 -0.4891
 4608SOL    HW125283   2.405   2.004   2.712 -2.0514  0.0356 -0.8063
 4608SOL    HW225284   2.433   1.861   2.647  1.7053  0.2010 -2.3495
 4609SOL     OW25285   3.690   4.639   6.828 -0.4470 -0.8464  0.0935
 4609SOL    HW125286   3.603   4.649   6.866 -0.3696  1.2631 -0.3237
 4609SOL    HW225287   3.730   4.645   6.914 -2.1005  1.9639  0.6459
 4610SOL     OW25288   4.253   1.815   9.342 -0.4697  0.0447  0.0003
 4610SOL    HW125289   4.208   1.730   9.334  0.0247 -0.1207 -0.9596
 4610SOL    HW225290   4.215   1.864   9.269  0.0925  0.5226  0.0347
 4611SOL     OW25291   2.110   3.504  12.453  0.4531 -0.9233  0.3641
 4611SOL    HW125292   2.056   3.504  12.531 -0.1473  1.9346 -0.0328
 4611SOL    HW225293   2.199   3.504  12.488  0.7894 -1.8239 -0.4931
 4612SOL     OW25294   3.052   0.819   7.592 -0.7367 -0.5245  0.1073
 4612SOL    HW125295   3.087   0.732   7.571  1.1057  0.0845  0.6483
 4612SOL    HW225296   3.014   0.799   7.678  0.0600  1.8949  1.0227
 4613SOL     OW25297   0.637   1.123   5.406  0.3530 -0.3015 -0.1362
 4613SOL    HW125298   0.678   1.197   5.362 -0.1550 -1.0575 -1.8762
 4613SOL    HW225299   0.701   1.083   5.466  0.5786  1.2267  0.6363
 4614SOL     OW25300   0.049   0.573   8.560  0.1808  0.3077 -0.4861
 4614SOL    HW125301   0.080   0.630   8.489  1.9969 -0.2415 -0.1442
 4614SOL    HW225302   0.006   0.638   8.615 -1.3824  0.2942 -1.6980
 4615SOL     OW25303   3.054   4.498   4.341 -0.3269  0.5430  1.1684
 4615SOL    HW125304   3.031   4.564   4.407  2.1107  1.6269  0.9431
 4615SOL    HW225305   3.135   4.465   4.380  1.1245  1.1017 -1.3816
 4616SOL     OW25306   4.201   2.488   8.553  0.4756  0.2766  0.0147
 4616SOL    HW125307   4.118   2.474   8.507 -0.4529  1.4695  1.3506
 4616SOL    HW225308   4.259   2.501   8.478  0.8390 -0.0459  0.2413
 4617SOL     OW25309   0.967   3.277   3.422 -0.0142  0.3214 -0.2969
 4617SOL    HW125310   1.006   3.292   3.336 -1.8796 -0.0875 -1.1996
 4617SOL    HW225311   0.895   3.340   3.428  0.4518  0.6764  1.5147
 4618SOL     OW25312   0.018   3.530   2.556  0.1206  0.4854  0.7129
 4618SOL    HW125313   4.711   3.511   2.466  0.4585 -0.3012  0.7777
 4618SOL    HW225314   4.709   3.449   2.599 -1.2268  1.0055  0.8033
 4619SOL     OW25315   2.180   1.890   3.651  0.1853 -0.1901  0.2846
 4619SOL    HW125316   2.191   1.919   3.741  0.1107  0.7860 -0.0172
 4619SOL    HW225317   2.245   1.820   3.648  2.9367  2.3694  0.5412
 4620SOL     OW25318   3.347   1.205   0.793 -0.3673 -0.1597 -0.2491
 4620SOL    HW125319   3.441   1.190   0.807 -0.2165 -1.6900 -2.8971
 4620SOL    HW225320   3.307   1.212   0.880  2.6477  0.9991  1.0443
 4621SOL     OW25321   0.917   4.155   5.099 -0.0796 -1.0808 -0.0727
 4621SOL    HW125322   0.977   4.186   5.030 -0.4278  2.2896  1.1360
 4621SOL    HW225323   0.976   4.094   5.142  1.3524  1.2677  1.2591
 4622SOL     OW25324   0.664   1.314   3.088 -0.9600 -1.1843 -0.2128
 4622SOL    HW125325   0.722   1.383   3.120 -4.1867  0.8476  1.2798
 4622SOL    HW225326   0.621   1.303   3.172  0.5579 -1.0817  0.5718
 4623SOL     OW25327   0.472   3.066  11.178 -0.3254 -0.2191 -0.1598
 4623SOL    HW125328   0.544   3.013  11.213 -1.5641 -1.3542  0.7080
 4623SOL    HW225329   0.511   3.150  11.154 -0.1029 -0.6376 -1.2461
 4624SOL     OW25330   4.076   4.156   5.256  0.0968 -0.1195 -0.3556
 4624SOL    HW125331   4.091   4.248   5.280  0.0178 -0.5450  1.3154
 4624SOL    HW225332   4.160   4.120   5.284  0.1964 -0.3428 -0.9357
 4625SOL     OW25333   0.871   2.423   7.314  0.1926 -0.2639  0.7708
 4625SOL    HW125334   0.840   2.488   7.377 -1.7548 -0.5639  0.1030
 4625SOL    HW225335   0.953   2.402   7.358  1.1347  1.0079 -0.3629
 4626SOL     OW25336   4.348   4.253   9.277  0.4015  0.0984  0.1285
 4626SOL    HW125337   4.311   4.338   9.256  0.8147  0.3888  0.5833
 4626SOL    HW225338   4.274   4.192   9.281 -0.3685  0.9640 -1.2687
 4627SOL     OW25339   2.927   2.096   6.878 -0.2799  0.6764 -0.8441
 4627SOL    HW125340   3.017   2.070   6.897 -0.5798  0.5092  0.3559
 4627SOL    HW225341   2.927   2.122   6.786 -0.9215 -1.5979 -1.4985
 4628SOL     OW25342   1.893   2.779   9.094  0.3715 -0.4425  0.2556
 4628SOL    HW125343   1.868   2.751   9.006  1.5452  1.0796 -0.5641
 4628SOL    HW225344   1.810   2.760   9.137  0.7136  1.6666  1.8673
 4629SOL     OW25345   4.168   4.120   7.938  0.4075  0.2894 -0.3306
 4629SOL    HW125346   4.192   4.052   8.000 -1.7947  0.6571  0.9575
 4629SOL    HW225347   4.079   4.133   7.971  0.7521  0.0992  0.6741
 4630SOL     OW25348   2.189   1.673   0.770 -1.0414  0.1812 -0.7014
 4630SOL    HW125349   2.200   1.636   0.682  1.4686 -0.1452 -0.2321
 4630SOL    HW225350   2.152   1.596   0.814  2.6314 -0.3242  1.5184
 4631SOL     OW25351   2.935   0.198   1.065  0.4595  0.5627 -0.9167
 4631SOL    HW125352   2.950   0.155   0.981 -0.7931  1.4540 -1.6018
 4631SOL    HW225353   2.839   0.198   1.067  0.4030  0.3007 -3.7148
 4632SOL     OW25354   3.604   2.308   2.362 -0.9203 -1.1596 -0.0443
 4632SOL    HW125355   3.545   2.349   2.299  1.0624 -0.6568 -1.5632
 4632SOL    HW225356   3.563   2.315   2.448  1.9580  0.9481  1.1606
 4633SOL     OW25357   2.528   1.244  17.466  0.5454 -0.2059 -0.1787
 4633SOL    HW125358   2.608   1.266  17.418  1.2644 -0.6035  0.8286
 4633SOL    HW225359   2.542   1.279  17.553 -0.1763  0.4250 -0.3230
 4634SOL     OW25360   1.946   3.948   2.106 -0.1014 -0.5465 -0.1224
 4634SOL    HW125361   1.952   4.034   2.147 -0.8723  0.3575 -1.8698
 4634SOL    HW225362   1.906   3.903   2.180 -0.4320  0.3666  0.2543
 4635SOL     OW25363   1.374   0.806   7.706  0.1399 -0.1679  0.0938
 4635SOL    HW125364   1.456   0.819   7.755 -0.6587  2.2963  0.7976
 4635SOL    HW225365   1.322   0.769   7.777  0.0726  1.6750  1.0169
 4636SOL     OW25366   3.274   2.936   7.374 -0.6413  0.2194  0.2385
 4636SOL    HW125367   3.279   2.996   7.300  0.1960  0.0774  0.1712
 4636SOL    HW225368   3.353   2.967   7.418 -0.8958 -1.0603  1.5957
 4637SOL     OW25369   4.448   2.907   8.582  0.3881  0.0549 -0.5442
 4637SOL    HW125370   4.368   2.855   8.589  0.1993  0.4597  0.2990
 4637SOL    HW225371   4.438   2.950   8.667 -1.1703 -1.9431  0.2973
 4638SOL     OW25372   3.825   0.422  15.391 -0.1025  0.1886  0.2795
 4638SOL    HW125373   3.749   0.368  15.412  0.6699 -1.2499 -0.6262
 4638SOL    HW225374   3.875   0.362  15.336  0.9594  1.9854 -0.7104
 4639SOL     OW25375   1.524   1.052   6.521  0.7786  0.2418  0.4771
 4639SOL    HW125376   1.491   1.116   6.584  1.0642  1.4896 -0.6298
 4639SOL    HW225377   1.563   1.113   6.458 -0.5814 -0.2684 -0.8722
 4640SOL     OW25378   1.340   3.224  15.031 -0.2552  0.2488  0.1669
 4640SOL    HW125379   1.301   3.309  15.014  1.2838  1.1279  1.0662
 4640SOL    HW225380   1.397   3.252  15.103 -1.8830  2.9565  0.4068
 4641SOL     OW25381   1.568   0.184   8.402  0.0177 -0.0723 -0.0154
 4641SOL    HW125382   1.510   0.255   8.429 -0.8312 -1.3596  1.5544
 4641SOL    HW225383   1.502   0.119   8.380  0.9396  0.2920 -3.9610
 4642SOL     OW25384   1.545   3.940  11.831  0.0592 -0.4370 -0.3372
 4642SOL    HW125385   1.487   3.883  11.781  0.7539 -1.5541  0.1368
 4642SOL    HW225386   1.623   3.885  11.836 -0.2064 -0.7331  0.4504
 4643SOL     OW25387   2.913   1.096   7.653 -0.3661 -0.0966 -0.3296
 4643SOL    HW125388   2.832   1.104   7.601 -0.7584  0.7638  0.4146
 4643SOL    HW225389   2.949   1.021   7.606  1.2777  0.1575  0.5536
 4644SOL     OW25390   4.470   2.664   9.452 -0.2507 -0.3395 -0.5412
 4644SOL    HW125391   4.486   2.734   9.389 -0.2382 -0.4163 -0.6249
 4644SOL    HW225392   4.556   2.621   9.455  0.2065  0.5088 -1.2833
 4645SOL     OW25393   1.158   2.202   9.026 -0.5970  0.3915  0.0626
 4645SOL    HW125394   1.134   2.151   8.949  2.3572 -2.0716  0.7491
 4645SOL    HW225395   1.197   2.273   8.976  1.8124  0.3742  1.9235
 4646SOL     OW25396   1.756   0.395   6.195  0.2434 -0.2387 -0.0329
 4646SOL    HW125397   1.751   0.397   6.291 -2.1758 -1.1921 -0.1543
 4646SOL    HW225398   1.848   0.374   6.177  0.4424  1.4877 -0.9963
 4647SOL     OW25399   4.621   4.403   8.184  0.7169 -0.6070  0.2450
 4647SOL    HW125400   4.717   4.410   8.178  0.7386  1.2811  2.7598
 4647SOL    HW225401   4.607   4.432   8.274  1.3586  3.3460 -0.9146
 4648SOL     OW25402   3.983   4.004  14.751 -0.4309 -0.2782 -0.1033
 4648SOL    HW125403   4.028   4.066  14.693 -1.1680  0.1581 -0.1970
 4648SOL    HW225404   4.018   3.924  14.711  1.5584  0.7399 -0.3923
 4649SOL     OW25405   0.426   3.329   6.969  0.2068  0.0908 -0.7667
 4649SOL    HW125406   0.515   3.293   6.970 -0.2121 -0.9075  0.0894
 4649SOL    HW225407   0.426   3.400   7.033  0.3483 -1.3978  0.8837
 4650SOL     OW25408   1.245   1.788   3.211 -0.0058 -0.4514  0.4160
 4650SOL    HW125409   1.296   1.794   3.291 -1.5732  0.6729  1.3326
 4650SOL    HW225410   1.216   1.696   3.209 -2.5835  0.4006 -2.3159
 4651SOL     OW25411   2.560   2.280   4.570 -0.0703 -0.4211  0.2191
 4651SOL    HW125412   2.629   2.274   4.504  1.2478  0.3149  1.5239
 4651SOL    HW225413   2.488   2.240   4.522 -1.4357  0.6066  1.3907
 4652SOL     OW25414   0.704   0.694   2.090  0.0857  0.3637  0.3467
 4652SOL    HW125415   0.613   0.721   2.074 -0.0876 -0.1711  0.4300
 4652SOL    HW225416   0.709   0.694   2.185  2.2131  0.9969  0.2300
 4653SOL     OW25417   1.199   1.859   0.496 -0.0595  0.0204 -0.6579
 4653SOL    HW125418   1.184   1.857   0.402 -0.4325  2.8773 -0.6417
 4653SOL    HW225419   1.214   1.766   0.515  0.1279  0.3317  0.7245
 4654SOL     OW25420   1.429   3.725   1.970 -0.0621 -0.4954  0.0038
 4654SOL    HW125421   1.434   3.752   1.878 -0.1072 -0.6133 -0.0347
 4654SOL    HW225422   1.357   3.780   1.999  0.8373  0.2824  0.7486
 4655SOL     OW25423   2.676   2.194   6.894  0.1400  0.0605 -0.2383
 4655SOL    HW125424   2.632   2.118   6.854 -0.6075  1.3213 -1.8224
 4655SOL    HW225425   2.769   2.186   6.877 -0.0404  1.1419 -1.7502
 4656SOL     OW25426   0.806   1.748  11.222  0.0425  0.0383  0.4245
 4656SOL    HW125427   0.739   1.713  11.281 -1.4469 -0.3882 -1.4829
 4656SOL    HW225428   0.813   1.666  11.172  0.7154 -0.6152  1.6049
 4657SOL     OW25429   3.513   0.617  15.032  0.4370  0.1033 -0.2835
 4657SOL    HW125430   3.481   0.557  14.965  0.4549 -0.6485  0.3841
 4657SOL    HW225431   3.590   0.565  15.057 -0.4911 -0.0043  2.3495
 4658SOL     OW25432   4.105   2.221   1.977  0.1632  0.4239  0.4485
 4658SOL    HW125433   4.198   2.217   1.996  0.0021  3.8569  2.0933
 4658SOL    HW225434   4.070   2.203   2.065  0.8115 -2.0950  0.1865
 4659SOL     OW25435   4.703   4.145  15.973  0.3250 -0.3737 -0.1872
 4659SOL    HW125436   4.616   4.151  16.013  1.3247  2.1594  1.6376
 4659SOL    HW225437   4.685   4.167  15.881  0.8749  0.1348 -0.1773
 4660SOL     OW25438   4.037   3.648   7.560  0.0320  0.0443 -0.3232
 4660SOL    HW125439   4.109   3.662   7.621  0.8648  0.7045 -1.4681
 4660SOL    HW225440   4.066   3.572   7.509  2.5426  2.2655 -2.1713
 4661SOL     OW25441   0.424   2.806   4.314 -0.2939 -0.4182 -0.2977
 4661SOL    HW125442   0.469   2.786   4.396  1.7745  2.5760 -0.6762
 4661SOL    HW225443   0.448   2.726   4.267  2.1881  0.6539 -0.8442
 4662SOL     OW25444   2.714   4.315  10.199 -0.1151 -0.3183 -0.3854
 4662SOL    HW125445   2.772   4.249  10.237 -1.4488  0.2330  2.6411
 4662SOL    HW225446   2.762   4.341  10.121  1.3572  0.5145  0.7832
 4663SOL     OW25447   0.703   2.601  11.009 -0.2128  0.2308  0.1635
 4663SOL    HW125448   0.722   2.545  10.933 -0.8364 -0.7371  0.7324
 4663SOL    HW225449   0.770   2.566  11.069 -1.6801 -0.3069  1.4738
 4664SOL     OW25450   4.033   2.894  17.365  0.3706  0.2263 -0.3595
 4664SOL    HW125451   3.995   2.883  17.278 -0.1887  2.6325 -0.4078
 4664SOL    HW225452   4.006   2.984  17.384  2.1930  0.1894  2.4313
 4665SOL     OW25453   0.295   0.043   7.738 -0.3599  0.3995  0.7129
 4665SOL    HW125454   0.247   0.071   7.816  0.1171  1.7168  0.5243
 4665SOL    HW225455   0.253   4.685   7.700 -0.5801  1.1407 -0.5300
 4666SOL     OW25456   3.571   2.043   2.249 -0.0010  0.0103  0.2858
 4666SOL    HW125457   3.590   2.116   2.308  1.1239 -0.2696  0.2692
 4666SOL    HW225458   3.491   2.005   2.285 -0.9364  0.9429 -0.8013
 4667SOL     OW25459   1.300   4.167   5.538  0.9598 -0.0735 -0.3568
 4667SOL    HW125460   1.222   4.120   5.510  0.4145  1.0117 -0.6609
 4667SOL    HW225461   1.368   4.141   5.475  0.5482 -2.3660  0.1452
 4668SOL     OW25462   3.642   0.406   5.389 -0.2185 -0.1821 -0.2221
 4668SOL    HW125463   3.575   0.360   5.440 -0.9962 -0.4252 -1.4413
 4668SOL    HW225464   3.722   0.390   5.438 -0.4794  0.3774  0.3819
 4669SOL     OW25465   2.993   2.987  12.504  0.2050 -0.0623  0.0116
 4669SOL    HW125466   2.900   3.002  12.519  0.1661  0.2657 -0.5297
 4669SOL    HW225467   3.014   3.065  12.453  0.8890 -0.4956 -0.3764
 4670SOL     OW25468   0.390   2.817   3.362  0.1914 -0.7782  0.2310
 4670SOL    HW125469   0.392   2.734   3.409  1.4593 -1.6361 -1.3312
 4670SOL    HW225470   0.320   2.795   3.301 -0.5353 -1.9023  1.4797
 4671SOL     OW25471   1.377   3.476   5.908 -0.0158  0.2714 -0.3073
 4671SOL    HW125472   1.343   3.422   5.836 -0.2855  1.2961 -0.9458
 4671SOL    HW225473   1.376   3.412   5.979 -1.2126 -2.4797 -2.8043
 4672SOL     OW25474   3.749   4.141   7.042  0.4731  0.1305 -0.0489
 4672SOL    HW125475   3.754   4.151   7.137 -1.0139  0.4232  0.0089
 4672SOL    HW225476   3.660   4.172   7.023  0.8230  1.0766 -0.1731
 4673SOL     OW25477   0.170   2.217   8.172  0.2945 -0.6529 -0.0212
 4673SOL    HW125478   0.193   2.125   8.184  1.3450 -0.4720 -0.6610
 4673SOL    HW225479   0.257   2.257   8.164 -0.5451  0.9174 -1.2677
 4674SOL     OW25480   4.273   0.129   3.444 -0.5924  0.0055 -0.3655
 4674SOL    HW125481   4.326   0.083   3.379  0.9808  0.0646  0.8768
 4674SOL    HW225482   4.200   0.165   3.393 -0.8534  0.1469  0.1089
 4675SOL     OW25483   2.290   3.728   8.121  0.2325 -0.9165  0.1126
 4675SOL    HW125484   2.223   3.797   8.128  0.1753 -0.7178 -2.1248
 4675SOL    HW225485   2.334   3.744   8.204  2.0312 -2.9708 -0.4555
 4676SOL     OW25486   2.191   3.541   6.925 -0.1893 -0.3635 -0.4871
 4676SOL    HW125487   2.179   3.613   6.986  0.3083  0.5680 -1.4762
 4676SOL    HW225488   2.165   3.477   6.991 -0.2811  0.6359  0.4438
 4677SOL     OW25489   0.526   0.508  16.242 -0.4404 -0.1946  0.0282
 4677SOL    HW125490   0.488   0.442  16.301  0.9599 -1.1633 -0.1465
 4677SOL    HW225491   0.604   0.523  16.296  0.2250 -1.3549 -0.6030
 4678SOL     OW25492   1.727   0.910   7.205  0.0600 -0.6697 -0.8591
 4678SOL    HW125493   1.740   0.940   7.115  1.1471  0.6763 -0.2457
 4678SOL    HW225494   1.738   0.995   7.248  0.7071  0.1422 -2.5892
 4679SOL     OW25495   0.625   2.813   2.758  0.2708  0.2587  0.5217
 4679SOL    HW125496   0.559   2.744   2.755  1.8251 -1.0703 -2.9585
 4679SOL    HW225497   0.601   2.840   2.847  0.0785  0.4284  0.4189
 4680SOL     OW25498   0.789   3.688  12.124  0.5401 -0.4287  0.2190
 4680SOL    HW125499   0.731   3.615  12.141 -0.1059  0.1049  0.3185
 4680SOL    HW225500   0.738   3.747  12.069 -0.4495  0.5876  2.2037
 4681SOL     OW25501   2.475   0.713   5.710 -0.2811 -0.4159 -0.3591
 4681SOL    HW125502   2.403   0.698   5.649 -1.6451  1.5228  0.7677
 4681SOL    HW225503   2.515   0.627   5.718 -3.5425 -1.9993 -1.5128
 4682SOL     OW25504   4.092   4.197  14.065 -0.7381 -0.1908 -0.0112
 4682SOL    HW125505   4.159   4.173  14.001 -0.4283  2.7394 -0.7902
 4682SOL    HW225506   4.013   4.150  14.038 -0.5839 -0.4350 -0.0322
 4683SOL     OW25507   0.237   0.433  15.020 -0.2056  0.2837  0.3503
 4683SOL    HW125508   0.194   0.347  15.012  0.7602  0.0231 -2.0686
 4683SOL    HW225509   0.329   0.409  15.031 -0.2160 -0.1812 -0.4778
 4684SOL     OW25510   3.985   2.891   3.934 -0.4495 -0.2577 -0.3703
 4684SOL    HW125511   3.973   2.985   3.947 -2.0578 -0.6863  1.2101
 4684SOL    HW225512   3.902   2.856   3.963  0.6791 -0.8017  2.1946
 4685SOL     OW25513   1.809   1.211   8.022 -0.0260  0.3515  0.1441
 4685SOL    HW125514   1.883   1.271   8.010  0.9484 -0.6497  1.1242
 4685SOL    HW225515   1.743   1.266   7.981  2.3406  3.4550  0.4763
 4686SOL     OW25516   1.546   0.472   6.043  0.0695  0.3797 -0.1421
 4686SOL    HW125517   1.610   0.456   6.113 -2.1022 -1.4901  1.3725
 4686SOL    HW225518   1.606   0.498   5.973  1.1949 -0.6823  0.4335
 4687SOL     OW25519   3.052   1.770   5.027 -0.3770  0.3882 -0.1425
 4687SOL    HW125520   3.065   1.760   4.933 -1.7169  2.1067 -0.5155
 4687SOL    HW225521   2.967   1.727   5.035 -0.8916  1.4497  0.1420
 4688SOL     OW25522   4.011   3.828   0.154 -0.2675 -0.1384 -0.1206
 4688SOL    HW125523   3.953   3.785   0.217 -1.9932  0.7635 -1.0938
 4688SOL    HW225524   3.978   3.795   0.071  0.6829 -0.7922 -0.2450
 4689SOL     OW25525   2.063   1.463   5.769  0.1275  0.3830 -0.1537
 4689SOL    HW125526   1.973   1.430   5.757  1.3761 -2.3021 -2.1559
 4689SOL    HW225527   2.071   1.521   5.694 -1.5973  1.3284  0.3759
 4690SOL     OW25528   2.238   1.572   2.821  0.2391  0.4643 -0.0561
 4690SOL    HW125529   2.316   1.596   2.770  0.2614 -0.3551 -0.4130
 4690SOL    HW225530   2.221   1.654   2.867 -3.0842 -0.7274  0.8201
 4691SOL     OW25531   3.441   2.425   2.190  0.0465 -0.4712  0.5556
 4691SOL    HW125532   3.390   2.506   2.199 -0.0339 -0.4150 -0.5063
 4691SOL    HW225533   3.374   2.364   2.161  0.2726 -0.4695  0.0396
 4692SOL     OW25534   0.948   2.920  10.804 -0.0024  0.2784  0.1624
 4692SOL    HW125535   1.007   2.903  10.877  3.4210 -2.6157 -3.2243
 4692SOL    HW225536   0.979   3.003  10.767  1.2643 -1.4305 -2.6746
 4693SOL     OW25537   3.063   3.446   8.290 -0.4962  0.2813 -0.2110
 4693SOL    HW125538   3.013   3.497   8.354  0.6453 -0.4523  1.2752
 4693SOL    HW225539   2.995   3.381   8.273 -0.0156 -0.6983  1.4826
 4694SOL     OW25540   4.416   0.332  12.328 -0.2048 -0.3230  0.4234
 4694SOL    HW125541   4.466   0.276  12.388 -2.5978 -1.8883  0.9349
 4694SOL    HW225542   4.401   0.275  12.252 -0.3371  0.8055 -0.4012
 4695SOL     OW25543   0.347   3.462   7.299  0.6273 -0.0592  0.1899
 4695SOL    HW125544   0.365   3.371   7.323  0.1097 -0.0644  0.5569
 4695SOL    HW225545   0.257   3.451   7.267 -0.1024  0.3827  2.0972
 4696SOL     OW25546   4.542   2.713   0.012 -0.0846  0.3474  0.2281
 4696SOL    HW125547   4.557   2.738  17.600 -1.7426  1.0796  0.1702
 4696SOL    HW225548   4.628   2.702   0.054 -0.1829 -0.0039  0.3412
 4697SOL     OW25549   1.814   0.698   6.183 -0.8172 -0.4263 -0.1338
 4697SOL    HW125550   1.868   0.708   6.105  0.5269  0.2312  0.8813
 4697SOL    HW225551   1.771   0.614   6.168 -0.9827 -0.2487 -0.6775
 4698SOL     OW25552   3.064   0.800  16.695  0.3588  0.5071  0.1928
 4698SOL    HW125553   3.001   0.767  16.759 -0.5082  0.9329 -0.4407
 4698SOL    HW225554   3.033   0.763  16.613  2.6833  0.0718 -0.4661
 4699SOL     OW25555   3.988   2.856   8.785 -0.6508  0.3203  0.2839
 4699SOL    HW125556   4.015   2.854   8.877 -2.2264 -0.3440  0.7502
 4699SOL    HW225557   3.925   2.784   8.774  0.6637 -0.9591  1.1229
 4700SOL     OW25558   1.127   3.696   6.134  0.0000  0.2877 -0.3293
 4700SOL    HW125559   1.218   3.725   6.133 -0.0963  0.6515  1.1370
 4700SOL    HW225560   1.074   3.775   6.130 -2.1431 -1.1697 -0.4845
 4701SOL     OW25561   3.976   1.579   3.393 -0.0655  0.6886 -0.0897
 4701SOL    HW125562   3.988   1.669   3.362 -1.6649  1.0226  0.2978
 4701SOL    HW225563   4.050   1.533   3.353 -1.1917 -1.0618 -0.1691
 4702SOL     OW25564   2.479   4.553   3.570 -0.4096  0.0726 -0.1883
 4702SOL    HW125565   2.437   4.622   3.520 -1.1076 -1.1069 -1.2373
 4702SOL    HW225566   2.424   4.475   3.560 -2.4608  1.4545  0.2888
 4703SOL     OW25567   3.048   2.430   2.443 -0.0089  0.2518  0.3043
 4703SOL    HW125568   3.072   2.343   2.411 -0.5922 -0.2049  1.1065
 4703SOL    HW225569   3.134   2.469   2.461  0.6821 -0.4352 -1.5090
 4704SOL     OW25570   3.744   1.007  14.292  0.0088  0.2874 -0.2294
 4704SOL    HW125571   3.804   1.035  14.362  0.4059  0.7040 -0.7369
 4704SOL    HW225572   3.795   0.972  14.219  0.6983 -0.2565  0.5143
 4705SOL     OW25573   2.438   0.458  14.116 -0.8117 -0.3204 -0.4552
 4705SOL    HW125574   2.432   0.458  14.021  0.4601  1.4198 -0.5170
 4705SOL    HW225575   2.530   0.434  14.118 -0.5865  0.8929  3.4262
 4706SOL     OW25576   2.978   0.460   0.383  0.2891 -0.1052 -0.0369
 4706SOL    HW125577   2.930   0.434   0.305  2.3749 -0.4434 -1.2136
 4706SOL    HW225578   2.906   0.502   0.431 -0.4165  1.4628 -2.4629
 4707SOL     OW25579   0.111   0.082   1.178 -0.0491 -0.0595 -0.0882
 4707SOL    HW125580   0.076   0.131   1.252 -2.2043 -0.7411 -0.6417
 4707SOL    HW225581   0.178   0.034   1.226 -0.8541 -2.3080 -1.1734
 4708SOL     OW25582   2.772   4.300   4.993 -0.2357  0.3188  0.4113
 4708SOL    HW125583   2.722   4.244   4.933 -2.4626  0.8136  1.8275
 4708SOL    HW225584   2.866   4.282   4.987 -0.2354  0.1547  0.9370
 4709SOL     OW25585   4.198   3.244   3.500 -0.2820 -0.5729  0.7169
 4709SOL    HW125586   4.231   3.322   3.456 -2.0572 -1.6044 -2.4745
 4709SOL    HW225587   4.240   3.237   3.585 -0.3547 -1.6119  0.6722
 4710SOL     OW25588   1.894   0.251  16.771 -0.0830 -0.5369 -0.4134
 4710SOL    HW125589   1.841   0.190  16.821 -3.1062 -0.5792 -3.6957
 4710SOL    HW225590   1.873   0.223  16.682 -0.2120  2.1571 -1.2526
 4711SOL     OW25591   0.188   2.949   5.260 -0.1296  0.0218  0.0688
 4711SOL    HW125592   0.205   2.862   5.294 -2.7657 -0.2301  0.7609
 4711SOL    HW225593   0.124   2.979   5.325  1.3317  1.9439  0.6113
 4712SOL     OW25594   2.997   0.572   3.345 -0.8208  0.2425  0.2403
 4712SOL    HW125595   2.933   0.511   3.382  0.2940 -0.6478  0.7067
 4712SOL    HW225596   2.936   0.601   3.277 -1.9567  0.7396  1.4829
 4713SOL     OW25597   2.968   2.930   2.246 -0.0850  0.6640  0.2422
 4713SOL    HW125598   2.936   2.911   2.158  1.9751  1.0719 -0.5892
 4713SOL    HW225599   2.911   2.871   2.295  0.2023 -0.0228 -0.2506
 4714SOL     OW25600   2.215   1.495   6.171 -0.2372  0.3944 -0.0265
 4714SOL    HW125601   2.196   1.416   6.222 -2.4447  2.7800  2.8419
 4714SOL    HW225602   2.238   1.455   6.087 -0.6450  3.2114 -1.4782
 4715SOL     OW25603   2.573   1.020   7.221  0.4169  0.2947  0.4820
 4715SOL    HW125604   2.574   0.992   7.130  0.3374 -0.1637  0.6202
 4715SOL    HW225605   2.629   1.097   7.220  1.4801 -0.5505 -2.9601
 4716SOL     OW25606   2.018   2.995   2.536 -0.0917  0.5985  0.1947
 4716SOL    HW125607   2.058   2.966   2.454  1.0707 -3.3498  2.1344
 4716SOL    HW225608   2.104   3.013   2.575  1.1952 -3.0817 -0.8755
 4717SOL     OW25609   1.259   3.003   2.504 -0.3348  0.0099 -0.1141
 4717SOL    HW125610   1.172   3.041   2.511 -0.4885 -0.2147 -0.8248
 4717SOL    HW225611   1.303   3.067   2.448  0.2412  2.3619  3.0061
 4718SOL     OW25612   2.852   1.812   8.476 -0.3407  0.2076  0.6158
 4718SOL    HW125613   2.881   1.747   8.540  0.6415 -0.3146 -0.3553
 4718SOL    HW225614   2.894   1.884   8.522 -0.8618  1.6097 -1.0997
 4719SOL     OW25615   1.407   1.579   7.198  0.1398  0.5255  0.5952
 4719SOL    HW125616   1.382   1.494   7.234  1.9715 -0.0387  0.4793
 4719SOL    HW225617   1.379   1.640   7.267  2.5266  2.5209 -0.2134
 4720SOL     OW25618   4.082   0.511   8.926 -0.3637  0.2977 -0.1280
 4720SOL    HW125619   4.057   0.590   8.974  0.1431 -0.1283  0.8485
 4720SOL    HW225620   4.128   0.553   8.854  1.0140  0.5974  0.9321
 4721SOL     OW25621   2.611   4.140   2.247 -0.1903  0.1801 -0.1064
 4721SOL    HW125622   2.588   4.176   2.162  2.3276  0.5623 -0.6329
 4721SOL    HW225623   2.551   4.192   2.300 -0.0873  0.5303 -0.3338
 4722SOL     OW25624   1.100   3.861   7.187 -0.1127 -0.0119 -0.2217
 4722SOL    HW125625   1.053   3.935   7.151  0.4804  0.8577  0.7967
 4722SOL    HW225626   1.035   3.795   7.211  1.4012 -1.4389  0.0298
 4723SOL     OW25627   0.130   2.323   4.249 -0.1972 -0.8215  0.0988
 4723SOL    HW125628   0.156   2.272   4.173 -1.3185  1.4011 -1.7795
 4723SOL    HW225629   0.174   2.405   4.227 -2.5112 -0.0091 -1.4877
 4724SOL     OW25630   1.001   1.404  17.335  0.5255  0.1613  0.1335
 4724SOL    HW125631   1.091   1.406  17.303  1.3394  1.0739  2.4606
 4724SOL    HW225632   0.954   1.440  17.260 -1.1480  0.0462  1.1191
 4725SOL     OW25633   3.163   3.811   0.887  0.5361 -0.4151  0.7190
 4725SOL    HW125634   3.093   3.867   0.921 -0.4351 -1.3652  0.2819
 4725SOL    HW225635   3.149   3.810   0.793  1.8667 -1.3672  0.5408
 4726SOL     OW25636   1.579   3.184   5.673 -0.1479 -0.1643 -0.4377
 4726SOL    HW125637   1.590   3.136   5.591  2.6730  0.9909 -0.7374
 4726SOL    HW225638   1.499   3.142   5.706 -0.8645 -0.1443 -2.1488
 4727SOL     OW25639   3.593   1.310  10.890  0.0302  0.2152  0.1701
 4727SOL    HW125640   3.497   1.310  10.881 -0.1029  1.1865  1.6686
 4727SOL    HW225641   3.607   1.217  10.873  2.6882  0.9702 -1.7991
 4728SOL     OW25642   0.271   3.211   7.587 -0.6553  0.4496  0.0718
 4728SOL    HW125643   0.318   3.146   7.640  0.3117 -0.0880 -1.4534
 4728SOL    HW225644   0.275   3.291   7.638 -0.6099 -0.3316  1.2976
 4729SOL     OW25645   0.952   4.682   7.464  0.3643 -0.3401 -0.0374
 4729SOL    HW125646   0.996   4.666   7.548 -0.2062  1.2197  0.5761
 4729SOL    HW225647   0.869   0.003   7.492  1.0419  1.0740 -0.0033
 4730SOL     OW25648   3.710   2.868   2.795 -0.1380  0.6318 -0.3909
 4730SOL    HW125649   3.674   2.779   2.790  0.6945  0.2492  0.5120
 4730SOL    HW225650   3.796   2.829   2.779 -0.2120  0.3348 -0.0604
 4731SOL     OW25651   1.346   2.151  11.886  0.0329 -0.6819 -0.2724
 4731SOL    HW125652   1.251   2.147  11.897  0.2615 -3.4640  0.6548
 4731SOL    HW225653   1.360   2.184  11.975 -0.2993  0.4665 -0.6431
 4732SOL     OW25654   2.978   1.665   6.308 -0.5100  0.1592 -0.1277
 4732SOL    HW125655   2.923   1.589   6.288  1.2462 -1.4152  1.0196
 4732SOL    HW225656   2.961   1.672   6.402 -0.8566 -1.6992 -0.0461
 4733SOL     OW25657   2.247   0.965  12.398 -0.1184  0.3256  0.0452
 4733SOL    HW125658   2.324   0.921  12.363  0.3222 -0.2540  1.7194
 4733SOL    HW225659   2.242   0.935  12.489  2.1759  1.0405  0.4141
 4734SOL     OW25660   4.465   3.883   0.622  0.2117  0.2156 -1.1044
 4734SOL    HW125661   4.487   3.971   0.652  1.4361 -0.7461  0.8353
 4734SOL    HW225662   4.539   3.834   0.588  0.8178 -1.1765  2.2339
 4735SOL     OW25663   4.685   1.500   5.325  0.2590  0.0958 -0.5419
 4735SOL    HW125664   0.011   1.470   5.403 -2.0421 -1.6732  0.1084
 4735SOL    HW225665   4.600   1.482   5.365 -0.3836  1.2093 -1.4010
 4736SOL     OW25666   3.227   4.080   3.601 -0.0406 -0.6074 -0.0447
 4736SOL    HW125667   3.249   3.991   3.627 -0.0262 -0.4989  0.3184
 4736SOL    HW225668   3.148   4.069   3.549  0.5684 -1.5930 -0.7471
 4737SOL     OW25669   2.391   4.176   4.184  0.1711  0.4728 -0.9179
 4737SOL    HW125670   2.374   4.270   4.180  1.8252  0.7847 -0.7000
 4737SOL    HW225671   2.381   4.156   4.090 -0.3032 -0.5147 -0.6623
 4738SOL     OW25672   0.301   3.642   2.872  0.9344 -0.0389  0.0049
 4738SOL    HW125673   0.311   3.576   2.940 -0.3305 -0.2896 -0.0557
 4738SOL    HW225674   0.239   3.701   2.916  0.1485  0.4988 -1.7877
 4739SOL     OW25675   4.421   1.625   6.346 -0.4210 -0.6661  0.2646
 4739SOL    HW125676   4.426   1.616   6.250 -2.3894 -1.9363  0.2855
 4739SOL    HW225677   4.329   1.654   6.347 -0.1781  0.2789 -2.4944
 4740SOL     OW25678   1.113   2.678   7.494 -0.0536  0.4771 -0.1553
 4740SOL    HW125679   1.032   2.630   7.512  0.6416 -0.4114  0.6731
 4740SOL    HW225680   1.096   2.717   7.409  0.2788  0.9124 -0.0229
 4741SOL     OW25681   2.473   2.434   9.019 -0.4486  0.0815 -0.2755
 4741SOL    HW125682   2.451   2.527   9.011  1.6354  0.4646 -1.5345
 4741SOL    HW225683   2.503   2.430   9.109  1.0350  3.6146 -0.6369
 4742SOL     OW25684   3.117   0.096   2.879 -0.2782  0.2416  0.3169
 4742SOL    HW125685   3.076   0.010   2.885 -0.2042  0.4609  3.7334
 4742SOL    HW225686   3.202   0.060   2.852  0.4157  1.0027  1.4762
 4743SOL     OW25687   1.618   2.144  16.332 -0.1563  0.0305 -0.2145
 4743SOL    HW125688   1.567   2.178  16.405 -0.0932  1.3287 -0.7769
 4743SOL    HW225689   1.634   2.056  16.368  1.8917  0.6181  0.2864
 4744SOL     OW25690   0.796   1.279  10.302 -0.1185  0.0491  0.2592
 4744SOL    HW125691   0.789   1.232  10.385  3.7905  0.7904  0.9827
 4744SOL    HW225692   0.704   1.304  10.293 -0.5652 -1.3107  1.0687
 4745SOL     OW25693   1.744   4.525   6.782 -0.1400 -0.0675 -0.4690
 4745SOL    HW125694   1.726   4.476   6.862  1.0596  2.2078  1.1986
 4745SOL    HW225695   1.787   4.602   6.820  1.9069 -0.6917 -1.5423
 4746SOL     OW25696   3.248   1.575   6.224  0.1089 -0.1879  0.5437
 4746SOL    HW125697   3.159   1.582   6.259 -0.7342  0.2671 -1.7325
 4746SOL    HW225698   3.237   1.509   6.156  1.3996  1.2937 -1.1156
 4747SOL     OW25699   3.935   1.550   4.184 -0.6307 -1.0549 -0.1520
 4747SOL    HW125700   3.971   1.514   4.103 -0.5254  0.0696 -0.6093
 4747SOL    HW225701   3.995   1.625   4.183 -1.1890 -0.6028  0.2953
 4748SOL     OW25702   2.913   0.379   9.378 -0.1496  0.0912 -0.3621
 4748SOL    HW125703   2.893   0.363   9.471 -0.8992 -0.4057 -0.6065
 4748SOL    HW225704   2.946   0.468   9.390  0.6376 -0.2537  0.0324
 4749SOL     OW25705   0.695   4.459   6.700  0.7929 -0.1244  0.2112
 4749SOL    HW125706   0.690   4.502   6.614  3.5615 -0.2681 -0.0321
 4749SOL    HW225707   0.788   4.441   6.716  0.7347  2.1881  3.1570
 4750SOL     OW25708   2.710   2.902  14.578 -0.0803  0.1373 -0.9268
 4750SOL    HW125709   2.628   2.951  14.589  0.2070  0.2820  0.5075
 4750SOL    HW225710   2.752   2.912  14.663 -2.2836  1.6080 -0.0118
 4751SOL     OW25711   2.701   4.574   5.207 -0.4253 -0.8194 -0.2007
 4751SOL    HW125712   2.720   4.619   5.289 -0.7964 -0.9154 -0.0631
 4751SOL    HW225713   2.724   4.489   5.245  0.2316 -0.4916  0.1387
 4752SOL     OW25714   0.732   1.876   4.725  0.1847  0.0790  0.7711
 4752SOL    HW125715   0.641   1.872   4.697  0.2843  1.4714  0.2221
 4752SOL    HW225716   0.740   1.969   4.750  1.3010  0.0408  0.5754
 4753SOL     OW25717   0.830   4.388   3.309 -0.3046  0.0383 -0.0357
 4753SOL    HW125718   0.906   4.343   3.347 -0.6200 -1.6057 -1.3229
 4753SOL    HW225719   0.863   4.475   3.329 -0.8465  0.2726 -0.1672
 4754SOL     OW25720   3.933   0.094   6.726  0.2728 -0.7725  0.6476
 4754SOL    HW125721   4.011   0.150   6.717 -0.0173 -0.8174 -2.0994
 4754SOL    HW225722   3.918   0.120   6.817 -0.0890 -0.3172  0.4573
 4755SOL     OW25723   2.825   0.651   3.134  0.1868  0.0017  0.0604
 4755SOL    HW125724   2.765   0.719   3.102  0.0873  0.2691  0.8096
 4755SOL    HW225725   2.779   0.569   3.112 -0.9799  0.9212 -0.9342
 4756SOL     OW25726   1.826   0.333  12.935 -0.4936  0.5369  0.0353
 4756SOL    HW125727   1.803   0.241  12.922 -1.3106  0.6969  0.3052
 4756SOL    HW225728   1.892   0.345  12.867 -0.4473 -2.7852 -0.5034
 4757SOL     OW25729   1.777   0.601   0.930  0.5303 -0.2925 -0.0875
 4757SOL    HW125730   1.835   0.676   0.946  1.2555 -1.2903  1.8708
 4757SOL    HW225731   1.733   0.622   0.847  2.3020 -0.6303 -1.1240
 4758SOL     OW25732   2.215   3.121   2.852 -0.4059  0.8608  0.3369
 4758SOL    HW125733   2.143   3.058   2.852  0.1697  0.2126  0.1728
 4758SOL    HW225734   2.190   3.157   2.937 -0.6272  2.0156 -0.2176
 4759SOL     OW25735   0.526   0.641  13.360 -0.3996  0.2221 -0.6411
 4759SOL    HW125736   0.552   0.680  13.275  1.1049 -3.5273 -1.8948
 4759SOL    HW225737   0.588   0.569  13.373 -2.0540 -0.7853  1.5018
 4760SOL     OW25738   0.296   3.998   4.746 -0.1182  0.0095  0.1305
 4760SOL    HW125739   0.222   4.039   4.703 -0.5626  0.0870  0.9819
 4760SOL    HW225740   0.244   3.964   4.819 -2.2694 -1.5651 -2.1472
 4761SOL     OW25741   0.682   4.049   7.772  0.2169  0.1456 -0.4176
 4761SOL    HW125742   0.615   4.117   7.780 -0.1137  0.0276 -2.1325
 4761SOL    HW225743   0.736   4.090   7.704  1.7503 -1.2088 -0.0072
 4762SOL     OW25744   4.120   0.767   9.034  0.6826 -0.0907  0.2097
 4762SOL    HW125745   4.213   0.741   9.031  0.3664 -0.9169 -3.1101
 4762SOL    HW225746   4.123   0.827   9.108 -1.0587  1.6920 -1.1586
 4763SOL     OW25747   3.537   3.765   7.746  0.0043 -0.1268  0.0978
 4763SOL    HW125748   3.632   3.771   7.749  0.0618 -2.5503  2.6296
 4763SOL    HW225749   3.514   3.702   7.814  0.4823 -2.9796 -2.3642
 4764SOL     OW25750   2.401   3.881   7.381 -0.2308 -0.1958  0.1169
 4764SOL    HW125751   2.324   3.852   7.332  1.4341 -1.2160 -1.9226
 4764SOL    HW225752   2.464   3.813   7.358  0.3537 -0.0827  1.3803
 4765SOL     OW25753   2.158   3.276  12.060 -0.0948 -0.5735 -0.1889
 4765SOL    HW125754   2.087   3.268  12.125  1.1076  0.6047  1.2826
 4765SOL    HW225755   2.118   3.216  11.997 -1.5551  0.1069  0.0853
 4766SOL     OW25756   2.222   3.608   7.763  0.4885 -1.1897  0.2594
 4766SOL    HW125757   2.182   3.692   7.785 -1.8081 -1.8061 -1.5080
 4766SOL    HW225758   2.171   3.586   7.685  0.3862  1.3602 -0.3638
 4767SOL     OW25759   4.313   2.097   4.077 -0.7439 -0.2403  0.4180
 4767SOL    HW125760   4.241   2.055   4.031 -0.3082 -1.6681  1.0601
 4767SOL    HW225761   4.296   2.191   4.078  0.5149 -0.0061  0.4862
 4768SOL     OW25762   0.659   2.730   6.864  0.0337  0.2210 -0.2483
 4768SOL    HW125763   0.591   2.776   6.915 -1.5438 -0.4682 -1.7349
 4768SOL    HW225764   0.695   2.673   6.932 -1.4688  1.2313  1.4108
 4769SOL     OW25765   3.736   0.496  15.133  0.4005  0.5684 -0.0857
 4769SOL    HW125766   3.815   0.511  15.187  0.0071  1.9304  0.1199
 4769SOL    HW225767   3.703   0.416  15.173 -0.7133  1.9072  1.6985
 4770SOL     OW25768   2.687   2.998   5.722 -0.0756  0.1977  0.0420
 4770SOL    HW125769   2.683   2.911   5.762 -0.9715  0.7736  1.1863
 4770SOL    HW225770   2.612   3.045   5.759 -1.4961  0.3415 -3.0206
 4771SOL     OW25771   2.107   3.827   5.016 -0.1047  0.4567  0.3664
 4771SOL    HW125772   2.167   3.776   4.962 -0.4461 -1.9105  2.2072
 4771SOL    HW225773   2.036   3.763   5.011 -0.0738  0.3170  1.7102
 4772SOL     OW25774   1.599   4.670   4.510 -0.0153 -0.0621 -0.7018
 4772SOL    HW125775   1.525   4.632   4.558  1.2961 -0.3295  1.0793
 4772SOL    HW225776   1.644   4.717   4.580 -1.2301  0.3783 -0.2086
 4773SOL     OW25777   0.680   3.202   7.008  0.0787 -0.5252  0.2239
 4773SOL    HW125778   0.761   3.237   7.046 -0.1314 -1.5133  1.6083
 4773SOL    HW225779   0.721   3.124   6.972  1.9947 -0.5184  2.3864
 4774SOL     OW25780   3.091   2.187   0.457 -0.3516 -0.3138 -0.0603
 4774SOL    HW125781   2.999   2.204   0.476 -0.5546  0.6193 -1.9528
 4774SOL    HW225782   3.081   2.098   0.423  0.6242 -0.5683  0.2984
 4775SOL     OW25783   1.273   3.575  12.681  0.1826  0.0781  0.2139
 4775SOL    HW125784   1.227   3.632  12.744 -4.4472 -1.1725 -2.0495
 4775SOL    HW225785   1.198   3.538  12.635  0.5754  0.5815 -0.8218
 4776SOL     OW25786   1.682   3.441  14.981 -0.7040  0.3729 -0.3444
 4776SOL    HW125787   1.627   3.456  15.058  0.6092  1.5560  0.3698
 4776SOL    HW225788   1.755   3.416  15.037 -0.6883 -1.3092 -1.1193
 4777SOL     OW25789   1.980   4.254   3.734 -0.6573 -0.4866 -0.2543
 4777SOL    HW125790   1.973   4.198   3.657 -0.0384  1.3825 -1.6901
 4777SOL    HW225791   2.059   4.307   3.724 -0.6775 -0.6638 -1.3725
 4778SOL     OW25792   3.243   3.822   3.622 -0.2985 -0.1929  0.5017
 4778SOL    HW125793   3.250   3.784   3.534  0.3445  2.5216 -0.6084
 4778SOL    HW225794   3.148   3.833   3.627 -0.3390 -0.1104 -0.5082
 4779SOL     OW25795   3.427   0.059  15.144 -0.3302 -0.8170  0.4573
 4779SOL    HW125796   3.474   0.011  15.076 -0.1022 -0.2680  0.2310
 4779SOL    HW225797   3.365   4.715  15.182  0.0334 -1.0293  0.6915
 4780SOL     OW25798   4.203   1.698  10.801 -0.4332 -0.1946 -0.1612
 4780SOL    HW125799   4.239   1.612  10.824 -1.1617  0.2123  2.4699
 4780SOL    HW225800   4.108   1.684  10.798 -0.8179  1.9652  1.4939
 4781SOL     OW25801   4.219   1.642   8.031  0.3209 -0.2644 -0.2816
 4781SOL    HW125802   4.238   1.729   8.065 -2.7141  0.2179  0.1543
 4781SOL    HW225803   4.173   1.605   8.107 -0.1864  1.9757  0.4980
 4782SOL     OW25804   4.408   1.414   0.288  0.6029 -0.1600  0.2290
 4782SOL    HW125805   4.342   1.483   0.288  0.4375 -0.3164  0.2378
 4782SOL    HW225806   4.370   1.363   0.359 -0.0367 -0.4346 -0.3001
 4783SOL     OW25807   3.806   3.615   7.386 -0.0249  0.2455 -0.1620
 4783SOL    HW125808   3.851   3.564   7.319 -1.1731 -1.0565  0.0522
 4783SOL    HW225809   3.855   3.611   7.468  2.0602 -1.3833 -1.5079
 4784SOL     OW25810   0.240   2.938   7.460 -0.0562  0.5282 -0.0347
 4784SOL    HW125811   0.180   2.910   7.529  3.3117 -1.6710  2.0271
 4784SOL    HW225812   0.191   2.925   7.379  0.5762  1.8060 -0.6167
 4785SOL     OW25813   0.792   3.851   7.554  0.3694 -0.6061  0.3154
 4785SOL    HW125814   0.801   3.901   7.635  0.9804  1.0537 -0.7579
 4785SOL    HW225815   0.700   3.823   7.549 -0.0894  0.9043  0.3740
 4786SOL     OW25816   1.443   3.639   6.786 -0.4917 -0.2100 -0.5794
 4786SOL    HW125817   1.486   3.682   6.712  1.1271 -1.3870 -0.3333
 4786SOL    HW225818   1.352   3.663   6.775 -0.3384  1.2659  1.2938
 4787SOL     OW25819   0.563   1.530   2.667  0.1711  0.4403 -0.5848
 4787SOL    HW125820   0.580   1.624   2.659  2.9123  0.1013  1.1339
 4787SOL    HW225821   0.634   1.496   2.612  0.7964 -0.4098  0.7545
 4788SOL     OW25822   0.674   1.397   5.345  0.2784 -0.2670 -0.1407
 4788SOL    HW125823   0.734   1.458   5.302 -0.1685  0.9117  0.9198
 4788SOL    HW225824   0.672   1.444   5.429  0.2450 -0.6501  0.0702
 4789SOL     OW25825   2.965   2.400   7.677 -0.1967 -0.3581 -0.3393
 4789SOL    HW125826   2.987   2.455   7.601 -0.0069  0.8604  0.6058
 4789SOL    HW225827   2.948   2.471   7.739 -1.3527 -0.8076 -0.1607
 4790SOL     OW25828   3.549   3.911   7.519  0.3688  0.2030 -0.0298
 4790SOL    HW125829   3.544   3.856   7.598 -0.0882  2.1395  1.2887
 4790SOL    HW225830   3.543   3.997   7.561  0.5176 -0.0092  0.4341
 4791SOL     OW25831   2.694   4.070   5.892 -0.7466 -0.3324 -0.0097
 4791SOL    HW125832   2.657   4.137   5.834 -2.7616 -2.4153 -1.1340
 4791SOL    HW225833   2.631   4.003   5.866 -0.8905 -0.2623  0.1542
 4792SOL     OW25834   2.854   2.690   3.847  0.5622 -0.1021  0.0508
 4792SOL    HW125835   2.946   2.710   3.828  0.8975 -1.0659  0.6516
 4792SOL    HW225836   2.837   2.618   3.787 -0.8542  0.5996 -0.3765
 4793SOL     OW25837   0.333   3.355  12.104 -0.0620  0.4160  0.0489
 4793SOL    HW125838   0.374   3.431  12.063 -0.7393  0.8388  0.1693
 4793SOL    HW225839   0.381   3.279  12.070  0.0380  1.2190 -1.6077
 4794SOL     OW25840   0.346   2.323   1.906 -0.4447  0.6293 -0.6130
 4794SOL    HW125841   0.428   2.310   1.953  0.1052  1.8624 -1.2376
 4794SOL    HW225842   0.297   2.244   1.930  1.3982 -0.5355 -0.7331
 4795SOL     OW25843   4.006   2.073   2.230 -0.3984  0.3280  0.2669
 4795SOL    HW125844   3.920   2.073   2.187 -0.2908 -1.9756  0.0764
 4795SOL    HW225845   4.034   1.990   2.191  0.0253 -0.0458  1.3665
 4796SOL     OW25846   1.939   1.512   1.457 -0.1132 -0.1152  0.2155
 4796SOL    HW125847   1.908   1.596   1.424  2.8058  1.5112  1.6365
 4796SOL    HW225848   1.858   1.481   1.498  0.1806 -1.1728 -0.0001
 4797SOL     OW25849   0.857   0.159  13.034  0.0319 -0.2989 -0.2049
 4797SOL    HW125850   0.884   0.100  12.964  2.6900 -0.0805  0.6479
 4797SOL    HW225851   0.893   0.125  13.116 -1.2107 -0.3834  0.3049
 4798SOL     OW25852   0.886   2.739   8.607 -0.0207  0.2844  0.3724
 4798SOL    HW125853   0.971   2.776   8.582  0.0159 -0.3853 -0.5123
 4798SOL    HW225854   0.827   2.813   8.590  1.9781  2.1540  1.5200
 4799SOL     OW25855   2.756   3.263   2.763 -0.5954 -0.1219 -0.5918
 4799SOL    HW125856   2.705   3.272   2.682 -1.4853  2.7191  0.2749
 4799SOL    HW225857   2.774   3.170   2.751  0.8468  0.1624 -0.5847
 4800SOL     OW25858   2.446   3.425  16.330 -0.3789 -0.0917 -0.0010
 4800SOL    HW125859   2.373   3.391  16.382 -0.3711 -0.4032 -0.1929
 4800SOL    HW225860   2.497   3.348  16.305 -1.0928 -0.5683 -0.0224
 4801SOL     OW25861   0.793   2.674  11.811 -0.0868 -0.6651 -0.3716
 4801SOL    HW125862   0.732   2.713  11.872  0.1850 -1.4935  0.4318
 4801SOL    HW225863   0.878   2.691  11.853 -1.1566  0.5367  1.2778
 4802SOL     OW25864   0.934   2.488   0.621  0.2016  0.1443  0.0797
 4802SOL    HW125865   0.966   2.547   0.553 -0.5991 -1.2828 -1.5468
 4802SOL    HW225866   0.845   2.487   0.586 -0.4587  1.3292  1.7380
 4803SOL     OW25867   3.317   2.483   7.589 -0.3778 -0.7112 -0.7121
 4803SOL    HW125868   3.275   2.533   7.659  0.2698  1.6989 -2.0310
 4803SOL    HW225869   3.298   2.395   7.620 -0.2157 -0.6245 -0.3742
 4804SOL     OW25870   4.461   1.756   4.842 -0.0740 -0.4014 -0.1618
 4804SOL    HW125871   4.421   1.804   4.770  0.6396 -1.7722 -1.4761
 4804SOL    HW225872   4.553   1.745   4.817  0.4559  1.8167  0.8460
 4805SOL     OW25873   3.193   2.070   2.142 -0.2315 -0.3126  0.0268
 4805SOL    HW125874   3.237   2.004   2.196  0.2015 -1.3636 -1.6173
 4805SOL    HW225875   3.211   2.052   2.050  1.4890 -1.8530  0.6666
 4806SOL     OW25876   2.961   3.615   3.554  0.1974 -0.6005 -0.0706
 4806SOL    HW125877   2.936   3.694   3.602  0.2458 -0.0664 -0.9210
 4806SOL    HW225878   3.013   3.658   3.485  1.5082  0.4091  1.5486
 4807SOL     OW25879   0.215   3.066   5.715  0.2523 -0.1996  0.3023
 4807SOL    HW125880   0.249   3.000   5.655 -2.8603 -0.5897 -1.0373
 4807SOL    HW225881   0.275   3.049   5.787  0.5129 -0.2207  0.0800
 4808SOL     OW25882   0.727   2.925   7.142 -0.3349  0.0841  0.3355
 4808SOL    HW125883   0.753   3.013   7.113  1.0071 -0.6327 -0.6412
 4808SOL    HW225884   0.797   2.869   7.109 -0.3642 -0.4202  1.1368
 4809SOL     OW25885   1.665   3.898   4.819  0.3280 -0.2662  0.4645
 4809SOL    HW125886   1.698   3.958   4.752 -0.3796 -0.1421  0.2273
 4809SOL    HW225887   1.693   3.813   4.786 -2.2067 -0.9395  0.0381
 4810SOL     OW25888   2.684   0.710  15.036 -0.1083 -0.6053  0.0716
 4810SOL    HW125889   2.618   0.653  15.076 -1.7276  0.8908 -0.4622
 4810SOL    HW225890   2.733   0.732  15.115 -1.5065  0.5833  0.6078
 4811SOL     OW25891   2.557   2.155   4.024 -0.5306 -0.1636 -0.6139
 4811SOL    HW125892   2.647   2.134   4.048 -1.4175 -0.8155  2.2315
 4811SOL    HW225893   2.538   2.096   3.951 -1.6408 -0.8962  0.2581
 4812SOL     OW25894   1.407   1.957   5.068  0.9029 -0.2239 -0.4172
 4812SOL    HW125895   1.434   1.866   5.053  0.5834 -0.3293 -0.3499
 4812SOL    HW225896   1.342   1.947   5.137  0.2819 -0.3052 -1.0083
 4813SOL     OW25897   2.116   2.227   9.702  0.0928 -0.3992 -0.0111
 4813SOL    HW125898   2.059   2.187   9.636  1.6250 -0.8065 -1.0909
 4813SOL    HW225899   2.202   2.193   9.678  0.3357  1.3962 -1.6202
 4814SOL     OW25900   2.408   0.198   3.113  0.3035  0.1889  0.4304
 4814SOL    HW125901   2.432   0.157   3.195  1.4608 -0.1452 -0.0711
 4814SOL    HW225902   2.490   0.230   3.075 -0.7446  1.6576 -0.6180
 4815SOL     OW25903   4.555   3.750   6.412  0.0440 -0.1063  0.4276
 4815SOL    HW125904   4.569   3.830   6.361 -0.4420 -0.7238 -0.6942
 4815SOL    HW225905   4.635   3.743   6.463  0.3987 -0.2881 -0.1565
 4816SOL     OW25906   3.001   1.461   6.666 -0.1134 -0.6422 -0.1719
 4816SOL    HW125907   2.915   1.420   6.673 -0.7352  1.1304  2.4600
 4816SOL    HW225908   3.063   1.388   6.678  0.3242  0.0401  1.6252
 4817SOL     OW25909   3.870   0.348   5.607 -0.2173 -0.3571 -0.0309
 4817SOL    HW125910   3.814   0.285   5.654 -1.5945  1.1434  0.3235
 4817SOL    HW225911   3.859   0.426   5.661  0.6821  0.1186 -0.5587
 4818SOL     OW25912   3.074   1.681  12.530  0.0697 -0.6981  0.4191
 4818SOL    HW125913   3.131   1.707  12.458 -0.0352  0.6439  0.8210
 4818SOL    HW225914   3.094   1.753  12.590 -0.5098 -0.8467  0.7900
 4819SOL     OW25915   1.734   1.266  14.682  0.5283 -0.2792 -0.2433
 4819SOL    HW125916   1.642   1.270  14.706  0.6421 -2.2912  0.5243
 4819SOL    HW225917   1.748   1.359  14.665 -0.0087 -0.5336 -2.0008
 4820SOL     OW25918   4.013   0.218   3.321  0.4523 -0.1794 -0.2450
 4820SOL    HW125919   3.956   0.295   3.329  0.6282 -0.2665  1.9361
 4820SOL    HW225920   4.003   0.216   3.226 -1.6685 -0.2386 -0.0168
 4821SOL     OW25921   4.556   0.021   8.414  0.1753 -0.2493  0.6935
 4821SOL    HW125922   4.647   0.008   8.387 -0.2409  1.3143 -1.5077
 4821SOL    HW225923   4.514   4.678   8.355  0.7634 -1.1277  1.2001
 4822SOL     OW25924   3.014   1.580   8.580  0.4297  0.2378  0.3354
 4822SOL    HW125925   2.967   1.511   8.534  0.0663  0.2071  0.7578
 4822SOL    HW225926   3.089   1.604   8.525 -1.2158  0.5771 -1.7793
 4823SOL     OW25927   2.430   0.961  11.418 -0.2026  0.6277  0.3422
 4823SOL    HW125928   2.451   0.947  11.326  0.7832 -0.7018  0.7623
 4823SOL    HW225929   2.387   1.046  11.424 -1.9587 -0.2198 -0.3595
 4824SOL     OW25930   1.440   0.645   4.388 -0.1236 -0.4282 -0.0511
 4824SOL    HW125931   1.468   0.573   4.332  0.3341  1.4570 -2.2616
 4824SOL    HW225932   1.505   0.644   4.458 -0.4152 -0.9187  0.2088
 4825SOL     OW25933   1.039   2.827  16.573 -0.5746 -0.1817  0.2854
 4825SOL    HW125934   1.116   2.870  16.536 -0.4553 -1.2054 -0.6443
 4825SOL    HW225935   1.042   2.867  16.660  0.1728  1.0914 -0.3181
 4826SOL     OW25936   3.503   3.025   4.460 -0.5520 -0.2007 -0.4306
 4826SOL    HW125937   3.473   2.935   4.467 -0.0484 -0.4927 -1.8493
 4826SOL    HW225938   3.446   3.077   4.516 -1.1046 -0.0726 -1.1131
 4827SOL     OW25939   0.963   1.130  17.360  0.0400 -0.2909  0.5104
 4827SOL    HW125940   0.973   1.224  17.348 -0.7652 -0.4011 -1.0509
 4827SOL    HW225941   1.053   1.099  17.368 -0.1714 -1.3222 -1.2588
 4828SOL     OW25942   2.620   3.533  10.986  0.2020  0.1926 -0.1399
 4828SOL    HW125943   2.574   3.595  10.930  0.7426  1.0848  0.4050
 4828SOL    HW225944   2.706   3.571  11.006 -0.3447  1.3415  0.0248
 4829SOL     OW25945   0.947   1.842   2.476  0.0778  0.9406 -0.4733
 4829SOL    HW125946   0.959   1.928   2.517 -4.4491  1.6034 -0.4929
 4829SOL    HW225947   0.997   1.848   2.394 -0.2043  1.9608 -0.5785
 4830SOL     OW25948   3.726   4.209   3.842 -0.0052  0.4297  0.2441
 4830SOL    HW125949   3.649   4.234   3.892  0.5400 -1.0296  1.8297
 4830SOL    HW225950   3.688   4.138   3.790  0.4535  0.7670 -0.5484
 4831SOL     OW25951   4.621   2.952  10.432  0.3252  0.7191 -0.3811
 4831SOL    HW125952   4.548   2.966  10.493  0.4240 -0.7532  0.0684
 4831SOL    HW225953   4.583   2.996  10.356  0.1497  0.8049 -0.2449
 4832SOL     OW25954   2.762   4.601   8.780  0.0830  0.6239 -0.2413
 4832SOL    HW125955   2.836   4.565   8.731 -0.5595  2.1864 -2.3565
 4832SOL    HW225956   2.683   4.577   8.731  0.5681  0.6729 -1.0341
 4833SOL     OW25957   2.343   0.269   5.993 -0.8272  0.2958 -1.1793
 4833SOL    HW125958   2.278   0.199   6.003  0.9597 -0.8819  1.9784
 4833SOL    HW225959   2.420   0.220   5.964 -0.7236 -0.4572  0.3625
 4834SOL     OW25960   4.136   3.714   9.779 -0.0164 -0.2083  0.3324
 4834SOL    HW125961   4.112   3.727   9.871 -0.1872 -2.9120  0.6899
 4834SOL    HW225962   4.067   3.767   9.740 -0.5011 -1.9666 -1.2465
 4835SOL     OW25963   3.323   1.918   3.455 -0.2309 -0.1055  0.4639
 4835SOL    HW125964   3.371   2.001   3.466 -0.6962 -0.2123  3.2842
 4835SOL    HW225965   3.374   1.857   3.509  0.6088 -0.2165 -0.4393
 4836SOL     OW25966   2.247   3.194   3.151  0.4728 -0.8906 -0.1960
 4836SOL    HW125967   2.155   3.196   3.176  0.3807 -1.4176 -0.5206
 4836SOL    HW225968   2.285   3.153   3.229  0.3096 -0.2415  0.2322
 4837SOL     OW25969   1.821   1.526   4.201  0.3687  0.0673  0.5228
 4837SOL    HW125970   1.837   1.485   4.286 -0.0926  1.2949  1.1958
 4837SOL    HW225971   1.854   1.614   4.221 -2.0756  1.1554 -0.3159
 4838SOL     OW25972   2.325   0.748   5.100  0.0832  0.0092  0.2039
 4838SOL    HW125973   2.388   0.750   5.172  1.5985 -0.2086 -1.1055
 4838SOL    HW225974   2.294   0.838   5.091  0.4276  0.2444  1.4301
 4839SOL     OW25975   4.230   0.969   4.108  0.1613  0.5398 -0.5898
 4839SOL    HW125976   4.288   1.011   4.044  1.6395  0.4060  0.6729
 4839SOL    HW225977   4.276   0.886   4.115  0.5819  0.8540  0.4154
 4840SOL     OW25978   1.027   1.935   0.688 -0.4200  0.5689  0.4006
 4840SOL    HW125979   1.090   1.865   0.673 -1.6706 -0.4115 -0.2785
 4840SOL    HW225980   0.953   1.876   0.706 -0.5457  0.1410 -1.5218
 4841SOL     OW25981   0.773   3.809   8.693 -1.0941  0.0279 -0.6490
 4841SOL    HW125982   0.766   3.904   8.702 -2.6329  0.0479 -2.0997
 4841SOL    HW225983   0.717   3.784   8.619  0.6562 -0.9379 -1.6492
 4842SOL     OW25984   4.134   2.194   8.421  0.0429  0.0720 -0.2942
 4842SOL    HW125985   4.086   2.269   8.456  1.7473  0.4227  1.2930
 4842SOL    HW225986   4.213   2.189   8.476  0.2403  1.7147 -0.4298
 4843SOL     OW25987   2.479   4.350   7.544  0.1331  0.0337  0.0713
 4843SOL    HW125988   2.479   4.268   7.495  0.8914 -1.4983  2.6160
 4843SOL    HW225989   2.385   4.351   7.563  0.2401 -0.1795  0.6213
 4844SOL     OW25990   4.263   2.911  16.644  0.2196  0.0703  0.1698
 4844SOL    HW125991   4.286   3.004  16.653  0.3591  0.0193  0.3394
 4844SOL    HW225992   4.336   2.883  16.698  0.6464  0.6503 -0.1072
 4845SOL     OW25993   3.026   3.050   7.438 -0.3426  0.1758 -0.2687
 4845SOL    HW125994   2.967   2.976   7.427 -2.2971  1.8754 -1.1068
 4845SOL    HW225995   3.101   2.994   7.460 -0.8789  0.2044  1.6080
 4846SOL     OW25996   3.184   3.246   5.984 -0.0872  0.1928 -1.1952
 4846SOL    HW125997   3.227   3.229   6.068 -2.1685  1.1741  0.0752
 4846SOL    HW225998   3.174   3.155   5.959 -3.1021  0.1327  0.2449
 4847SOL     OW25999   2.212   2.041   6.068  0.2938 -1.0377 -0.5320
 4847SOL    HW126000   2.118   2.042   6.048  0.4014  1.5178 -0.8600
 4847SOL    HW226001   2.236   2.118   6.017 -2.4817  0.7405  0.8114
 4848SOL     OW26002   0.541   0.017  17.071  0.6876  0.2447 -0.7058
 4848SOL    HW126003   0.616   0.076  17.078  1.8535 -1.3970  0.7503
 4848SOL    HW226004   0.549   4.679  16.994  1.1769 -0.2863 -0.2677
 4849SOL     OW26005   0.791   2.493   3.648 -0.1146  0.3045  0.3486
 4849SOL    HW126006   0.805   2.575   3.601 -0.5722  0.7895  1.0644
 4849SOL    HW226007   0.785   2.508   3.742  1.4047 -2.0169  0.8215
 4850SOL     OW26008   3.156   4.001   1.251  0.0087  0.1199  0.0565
 4850SOL    HW126009   3.203   3.986   1.333 -0.2267 -1.6705 -0.1382
 4850SOL    HW226010   3.073   3.955   1.254  0.1730 -0.0265  2.0565
 4851SOL     OW26011   4.069   2.423   5.830 -0.1466  0.0306 -0.0805
 4851SOL    HW126012   3.998   2.376   5.786  0.5754 -0.9512 -0.2171
 4851SOL    HW226013   4.024   2.499   5.867  0.5827  1.0954 -1.3742
 4852SOL     OW26014   2.748   2.342   0.918  0.0541 -0.3153 -0.5902
 4852SOL    HW126015   2.667   2.342   0.969 -1.8959  0.9217 -3.7293
 4852SOL    HW226016   2.778   2.254   0.940  0.2964 -0.5502 -1.8563
 4853SOL     OW26017   3.682   2.756   7.344 -0.3230 -0.0463  0.3347
 4853SOL    HW126018   3.713   2.672   7.378 -0.7413  0.3182  1.6158
 4853SOL    HW226019   3.595   2.746   7.382 -0.1030 -1.9090  0.3459
 4854SOL     OW26020   4.118   0.732  12.428 -0.5190  0.2537 -0.1718
 4854SOL    HW126021   4.110   0.650  12.381 -0.6743  0.4632 -0.5068
 4854SOL    HW226022   4.145   0.783  12.352 -0.3598 -0.5672 -0.6613
 4855SOL     OW26023   2.407   0.486  12.252  0.4812 -0.6016 -0.5333
 4855SOL    HW126024   2.332   0.541  12.272 -0.1019 -2.4794  2.5897
 4855SOL    HW226025   2.425   0.455  12.341 -1.7874  1.9702  0.8377
 4856SOL     OW26026   2.699   0.722   4.344 -0.6467  0.6100  0.3918
 4856SOL    HW126027   2.783   0.707   4.302 -0.4024 -0.9387  1.4212
 4856SOL    HW226028   2.717   0.780   4.419  0.3218 -0.6833  1.1543
 4857SOL     OW26029   2.747   1.371  14.988  0.0636  0.0081  0.1975
 4857SOL    HW126030   2.740   1.456  14.945  2.2033 -0.7316 -1.6318
 4857SOL    HW226031   2.669   1.372  15.043 -0.9173 -0.2176 -1.1681
 4858SOL     OW26032   0.949   2.426   5.236 -0.3939  0.0032  0.3518
 4858SOL    HW126033   1.019   2.379   5.282  2.3101  1.6374 -2.1107
 4858SOL    HW226034   0.924   2.490   5.302 -0.9039  2.9395 -2.7153
 4859SOL     OW26035   3.859   0.237   7.289  0.7165 -0.4961  0.0476
 4859SOL    HW126036   3.946   0.201   7.308 -0.1181 -1.5344  1.9826
 4859SOL    HW226037   3.857   0.327   7.320 -0.4379 -0.0277 -1.3988
 4860SOL     OW26038   4.132   3.617   5.457  0.6634  0.7826 -0.2710
 4860SOL    HW126039   4.094   3.605   5.370 -1.5931 -2.3663  1.1083
 4860SOL    HW226040   4.201   3.550   5.452 -0.1099  0.0296 -0.9551
 4861SOL     OW26041   4.636   1.127   2.996  0.2615 -0.1812  0.1521
 4861SOL    HW126042   4.654   1.197   2.932 -1.1479  0.5440  0.5615
 4861SOL    HW226043   4.560   1.173   3.031  3.0930  4.0979  0.7321
 4862SOL     OW26044   4.104   4.203   2.287  0.8330 -0.0217  0.4530
 4862SOL    HW126045   4.058   4.287   2.296  1.6517  0.6245 -1.4999
 4862SOL    HW226046   4.180   4.232   2.337  0.6278  0.0100  0.7479
 4863SOL     OW26047   0.596   3.885  14.217  0.0464  0.7519  0.1322
 4863SOL    HW126048   0.621   3.859  14.128  0.1255 -1.1762  0.7292
 4863SOL    HW226049   0.509   3.920  14.200 -0.1190 -0.5978 -1.7858
 4864SOL     OW26050   3.325   0.860   2.370 -0.5594  0.2242  0.0759
 4864SOL    HW126051   3.265   0.791   2.342  0.3562  0.0009 -1.3539
 4864SOL    HW226052   3.314   0.930   2.306 -1.4684 -0.5061 -0.5647
 4865SOL     OW26053   2.616   4.265   8.071 -0.1574  0.2822  0.8731
 4865SOL    HW126054   2.674   4.323   8.021 -0.4653 -0.3051 -0.1688
 4865SOL    HW226055   2.570   4.327   8.127 -1.2595  1.6121 -1.4860
 4866SOL     OW26056   0.704   4.409  14.513 -0.1592 -0.0600 -0.2022
 4866SOL    HW126057   0.639   4.343  14.537  0.0720  0.0666  0.7546
 4866SOL    HW226058   0.780   4.355  14.492 -0.3583 -0.5908  0.4511
 4867SOL     OW26059   4.071   2.746   3.383 -0.5187  0.2024  1.0763
 4867SOL    HW126060   4.032   2.833   3.393  0.7196  0.7658  0.8870
 4867SOL    HW226061   4.165   2.761   3.380 -0.7877  1.5651 -0.5478
 4868SOL     OW26062   4.350   3.958   9.408  0.1570 -0.0973 -0.2794
 4868SOL    HW126063   4.397   3.959   9.325  0.2343  0.6284 -0.2206
 4868SOL    HW226064   4.417   3.994   9.465 -0.3566 -1.3170  1.1113
 4869SOL     OW26065   3.559   2.299   7.703 -1.2433  0.0886  0.0406
 4869SOL    HW126066   3.467   2.271   7.708 -0.9998 -0.5826  0.6393
 4869SOL    HW226067   3.535   2.390   7.724 -0.6903  0.6018 -1.4865
 4870SOL     OW26068   3.822   0.112   3.490  0.5365 -0.0317 -0.1731
 4870SOL    HW126069   3.845   0.164   3.567 -0.4423  0.5398 -0.2642
 4870SOL    HW226070   3.911   0.115   3.456  0.2874  0.5384 -0.7819
 4871SOL     OW26071   2.790   1.681  12.439  0.8553 -0.0605 -0.2679
 4871SOL    HW126072   2.748   1.765  12.423  0.6269 -0.2480 -0.6552
 4871SOL    HW226073   2.837   1.703  12.520 -0.4125 -0.0287  0.4749
 4872SOL     OW26074   0.051   2.264  12.754 -0.4292 -0.0410 -0.7015
 4872SOL    HW126075   0.101   2.282  12.674  1.3287  0.6207  0.5701
 4872SOL    HW226076   4.705   2.195  12.736 -0.1414 -0.1241 -1.4276
 4873SOL     OW26077   1.749   1.047  15.613  0.4982  0.2537 -0.6920
 4873SOL    HW126078   1.734   1.046  15.518 -1.3434 -1.5665 -0.3750
 4873SOL    HW226079   1.662   1.063  15.651 -0.1577 -0.3824 -1.9406
 4874SOL     OW26080   4.650   4.439   3.251  0.6520  0.0140 -0.2969
 4874SOL    HW126081   4.559   4.423   3.226  0.4265 -0.9600  1.1390
 4874SOL    HW226082   4.693   4.438   3.165  1.2923 -1.9374  0.0456
 4875SOL     OW26083   0.311   2.756  11.064  0.2615 -0.2491 -0.4664
 4875SOL    HW126084   0.300   2.691  10.995 -1.8860 -1.8345  1.3562
 4875SOL    HW226085   0.372   2.709  11.121 -0.0417  0.3973  0.3924
 4876SOL     OW26086   4.683   4.309  10.679 -0.6367  0.1714  0.0525
 4876SOL    HW126087   0.011   4.357  10.747  1.4063 -2.3626  0.4081
 4876SOL    HW226088   4.626   4.259  10.737 -0.1873 -0.7309 -0.2944
 4877SOL     OW26089   2.427   1.336   2.282 -0.2195  0.0090 -1.0278
 4877SOL    HW126090   2.415   1.241   2.283 -0.8516  0.1179  1.3528
 4877SOL    HW226091   2.354   1.370   2.230 -0.8075  1.8925  1.0445
 4878SOL     OW26092   3.125   2.074   3.088  0.2185  0.2387 -0.3109
 4878SOL    HW126093   3.031   2.088   3.099  0.3743  1.0701 -0.0646
 4878SOL    HW226094   3.172   2.153   3.113 -2.3261  1.8962 -0.7743
 4879SOL     OW26095   3.737   1.876   7.641 -0.6092  0.1083  0.0477
 4879SOL    HW126096   3.660   1.824   7.661 -0.0178 -1.3715 -1.5415
 4879SOL    HW226097   3.783   1.878   7.725 -1.4472  1.0292  0.4893
 4880SOL     OW26098   2.694   4.192   2.632 -0.3816 -0.1834 -0.7039
 4880SOL    HW126099   2.624   4.250   2.602  0.2220 -0.2283 -2.1834
 4880SOL    HW226100   2.675   4.110   2.587 -0.3201  0.5087 -1.9846
 4881SOL     OW26101   1.391   1.493  11.504 -0.2746  0.4915  0.1880
 4881SOL    HW126102   1.302   1.477  11.472 -0.4577  0.6099  0.6474
 4881SOL    HW226103   1.374   1.552  11.577  1.8997  0.8458  0.3855
 4882SOL     OW26104   1.651   2.753   1.758 -0.2755 -0.0801 -0.2077
 4882SOL    HW126105   1.572   2.709   1.790  0.5811 -1.7224 -0.3272
 4882SOL    HW226106   1.718   2.730   1.822 -1.2769 -0.8133  0.5715
 4883SOL     OW26107   0.906   3.655   4.550 -0.1926  0.1883 -0.0832
 4883SOL    HW126108   0.927   3.744   4.578 -2.8010  0.3236  1.4196
 4883SOL    HW226109   0.922   3.602   4.628 -2.3747 -1.4799 -0.7531
 4884SOL     OW26110   4.313   2.560   6.981  0.6474  0.4498 -0.4809
 4884SOL    HW126111   4.316   2.625   6.911  0.9049 -2.0520 -2.8174
 4884SOL    HW226112   4.407   2.553   6.996  0.3879 -0.7461  0.5238
 4885SOL     OW26113   3.722   0.160   5.778 -0.2222  0.0346  0.7994
 4885SOL    HW126114   3.696   0.241   5.821 -2.3405 -0.8576  1.2283
 4885SOL    HW226115   3.782   0.113   5.835  2.4879  2.7917  0.1755
 4886SOL     OW26116   0.061   2.954   7.117  1.0952 -0.8835  0.4322
 4886SOL    HW126117   0.131   3.017   7.135 -0.1730  1.4674 -2.8450
 4886SOL    HW226118   4.702   3.010   7.112  1.3136 -0.6630 -0.4586
 4887SOL     OW26119   1.024   2.436  12.381  0.4530 -0.2391 -0.5041
 4887SOL    HW126120   1.106   2.474  12.413 -0.1633  0.0933  0.7220
 4887SOL    HW226121   1.029   2.344  12.406  2.3720  0.0011 -0.0138
 4888SOL     OW26122   0.663   2.651  15.431 -0.2078  0.4575 -0.0574
 4888SOL    HW126123   0.641   2.693  15.348 -0.3760  2.0922  0.8090
 4888SOL    HW226124   0.617   2.567  15.430  2.2955 -0.9454  0.6966
 4889SOL     OW26125   3.267   3.870  15.371  0.1782 -0.2629 -0.3278
 4889SOL    HW126126   3.302   3.943  15.321 -1.4392  1.3741  0.9395
 4889SOL    HW226127   3.289   3.801  15.308 -0.3316 -0.8751  0.1695
 4890SOL     OW26128   0.434   2.219   3.357  0.0487 -0.9466 -0.3460
 4890SOL    HW126129   0.483   2.295   3.387 -0.6838 -1.1465  1.3344
 4890SOL    HW226130   0.425   2.237   3.264  0.3059  0.1786 -0.1502
 4891SOL     OW26131   0.870   1.266  12.699  0.3598  0.4946  0.1603
 4891SOL    HW126132   0.876   1.182  12.656 -0.8174 -0.4957  1.9076
 4891SOL    HW226133   0.814   1.244  12.773 -2.1637 -0.5076 -2.0647
 4892SOL     OW26134   1.285   4.147   3.303 -0.1370 -0.2560 -0.8245
 4892SOL    HW126135   1.260   4.057   3.321  2.8198 -1.1966 -1.3482
 4892SOL    HW226136   1.381   4.140   3.306 -0.1891 -0.2564  1.0388
 4893SOL     OW26137   4.541   2.656   5.253  0.5790 -0.3897  0.2123
 4893SOL    HW126138   4.515   2.575   5.298 -1.7532  0.2712  0.0545
 4893SOL    HW226139   4.581   2.701   5.327  2.4125 -1.8102  0.1074
 4894SOL     OW26140   2.506   0.095   1.958 -0.6414  0.5778  0.6647
 4894SOL    HW126141   2.421   0.071   1.995 -0.0158  0.1229  1.8213
 4894SOL    HW226142   2.473   0.141   1.881 -0.6667  0.1500  0.4205
 4895SOL     OW26143   0.303   0.875  11.061 -0.3043  0.0299  0.1313
 4895SOL    HW126144   0.381   0.929  11.046 -1.2527  1.4067  0.0931
 4895SOL    HW226145   0.306   0.822  10.982 -1.1180 -1.2222  0.9542
 4896SOL     OW26146   2.819   1.022   9.479 -0.4169 -0.1861 -0.0641
 4896SOL    HW126147   2.905   1.034   9.439 -0.7735 -3.6448 -1.8083
 4896SOL    HW226148   2.841   0.985   9.564 -0.1935  0.8570  0.3369
 4897SOL     OW26149   0.558   0.798   6.459 -0.0000  0.1955  0.1554
 4897SOL    HW126150   0.644   0.810   6.499  0.5110 -1.0083 -0.5657
 4897SOL    HW226151   0.513   0.775   6.541 -0.5813  0.0390 -0.2044
 4898SOL     OW26152   4.310   4.140   3.859  0.1592  0.1587 -0.4813
 4898SOL    HW126153   4.293   4.217   3.914  1.8104  0.6574 -0.6702
 4898SOL    HW226154   4.278   4.168   3.773  1.0732 -2.7705 -1.7794
 4899SOL     OW26155   3.070   3.161   0.622  0.5293  0.2188 -0.3695
 4899SOL    HW126156   3.123   3.126   0.694  0.8824  1.2240 -0.1395
 4899SOL    HW226157   2.987   3.141   0.665  0.9054  0.2638  0.3716
 4900SOL     OW26158   3.913   1.776   2.219 -0.1968  0.6330 -0.0437
 4900SOL    HW126159   3.853   1.730   2.160  0.9568  0.4927 -1.1053
 4900SOL    HW226160   3.870   1.770   2.304 -0.8391 -2.3672 -0.5945
 4901SOL     OW26161   0.555   0.576   7.992  0.4722 -0.0621 -0.2057
 4901SOL    HW126162   0.470   0.586   7.951  0.3502 -0.6678 -0.1110
 4901SOL    HW226163   0.613   0.600   7.920 -0.8962  1.4967 -0.7595
 4902SOL     OW26164   4.405   2.124  14.794  0.3948 -0.0887  0.0564
 4902SOL    HW126165   4.434   2.142  14.884  0.1386  0.1932  0.0810
 4902SOL    HW226166   4.353   2.200  14.768  1.1318  0.2689 -0.3357
 4903SOL     OW26167   3.165   0.978   2.845  0.4284  0.1818 -0.5896
 4903SOL    HW126168   3.242   0.964   2.790  0.9483  1.3035 -0.1401
 4903SOL    HW226169   3.096   0.982   2.779 -2.5676 -2.1975  2.3978
 4904SOL     OW26170   1.382   3.242   6.049  0.2145  0.3622  0.6426
 4904SOL    HW126171   1.354   3.221   6.138  0.4446 -0.3750  0.5421
 4904SOL    HW226172   1.477   3.227   6.053  0.5968  2.5551 -0.2658
 4905SOL     OW26173   3.145   0.112   5.585 -0.2015 -0.4040  0.2487
 4905SOL    HW126174   3.095   0.163   5.522  0.9243  1.0385  0.5225
 4905SOL    HW226175   3.077   0.073   5.639 -1.5824 -2.7361 -3.1612
 4906SOL     OW26176   4.359   3.190  14.082  0.3039 -0.7941 -0.2374
 4906SOL    HW126177   4.373   3.242  14.161 -0.0037  0.1954 -0.8324
 4906SOL    HW226178   4.266   3.169  14.088  0.4567 -1.5868 -0.7723
 4907SOL     OW26179   4.057   2.964   2.551  0.0079  0.3672  0.6099
 4907SOL    HW126180   4.077   3.052   2.584  0.6857  0.6191 -0.4548
 4907SOL    HW226181   4.038   2.983   2.459  0.7200  3.1044  1.0088
 4908SOL     OW26182   2.253   2.615  16.422 -0.2860 -0.5097 -0.0697
 4908SOL    HW126183   2.280   2.663  16.500 -0.9932 -0.9208  0.4332
 4908SOL    HW226184   2.319   2.641  16.358 -0.9393 -0.8785 -0.8859
 4909SOL     OW26185   1.833   2.008   5.012 -1.0711 -0.7882 -0.0537
 4909SOL    HW126186   1.862   1.917   5.018 -0.6732 -0.6537 -0.0007
 4909SOL    HW226187   1.780   2.021   5.091 -0.6736 -1.4656  0.3181
 4910SOL     OW26188   3.971   2.211  11.871 -0.1959  0.7227  0.1307
 4910SOL    HW126189   3.876   2.220  11.860 -0.1880 -0.3254 -0.7496
 4910SOL    HW226190   3.978   2.204  11.966 -0.7727 -1.5892 -0.0015
 4911SOL     OW26191   4.702   2.332   9.438  0.0820  0.1358  0.1443
 4911SOL    HW126192   0.043   2.374   9.377  1.2584 -1.5627  0.1112
 4911SOL    HW226193   4.706   2.394   9.510 -0.2098  0.6642 -0.2921
 4912SOL     OW26194   1.174   3.363   8.916 -0.2140 -0.2807  0.4643
 4912SOL    HW126195   1.117   3.321   8.852  0.2097 -0.6989  0.3578
 4912SOL    HW226196   1.202   3.442   8.869  2.4893 -2.9076 -2.2648
 4913SOL     OW26197   4.133   1.812  14.576 -0.7347 -0.4259 -0.2168
 4913SOL    HW126198   4.228   1.806  14.580 -0.7999 -0.4711  1.2868
 4913SOL    HW226199   4.128   1.898  14.535 -1.8909 -0.4709 -0.1674
 4914SOL     OW26200   2.384   0.982   3.139 -0.0854  0.5491  0.1954
 4914SOL    HW126201   2.381   1.076   3.155  0.0628  0.8905 -1.8636
 4914SOL    HW226202   2.290   0.965   3.136 -0.1341  1.2534 -2.0075
 4915SOL     OW26203   3.509   0.226   8.370 -0.4952 -0.4552  0.0293
 4915SOL    HW126204   3.422   0.205   8.338 -0.0272  0.2965 -1.6999
 4915SOL    HW226205   3.498   0.321   8.372  0.8360 -0.3009  0.3810
 4916SOL     OW26206   0.615   4.605  17.569 -0.4798  0.3111 -0.1509
 4916SOL    HW126207   0.591   4.542  17.502  1.5576 -0.9661  0.3003
 4916SOL    HW226208   0.689   4.645  17.524  0.5214 -0.7627  0.5288
 4917SOL     OW26209   3.813   2.640   9.069 -0.1070  0.3101  0.4492
 4917SOL    HW126210   3.776   2.596   9.146 -1.8915 -0.2129 -0.7169
 4917SOL    HW226211   3.799   2.572   9.003 -1.6706  2.8672 -1.8331
 4918SOL     OW26212   2.387   2.788  17.119  0.2912 -0.6049  0.6718
 4918SOL    HW126213   2.436   2.706  17.126 -0.9792 -1.3985  0.3373
 4918SOL    HW226214   2.454   2.838  17.073  0.7506 -0.0980  1.8879
 4919SOL     OW26215   1.686   2.199  14.335  0.2703 -0.4147  0.6540
 4919SOL    HW126216   1.622   2.154  14.281  1.1668 -2.0580  0.9734
 4919SOL    HW226217   1.671   2.291  14.313  0.2953 -0.7784 -0.9095
 4920SOL     OW26218   3.022   3.425   9.332 -0.4516  0.1359 -0.2935
 4920SOL    HW126219   2.938   3.456   9.366 -1.2188 -1.6315 -0.5615
 4920SOL    HW226220   3.071   3.506   9.340  0.7489 -0.6419  0.1509
 4921SOL     OW26221   3.284   3.478  14.360  0.1756 -0.3921  0.3545
 4921SOL    HW126222   3.197   3.439  14.366 -0.6264  0.8777 -2.5965
 4921SOL    HW226223   3.312   3.485  14.451  0.5017  2.5565  0.0340
 4922SOL     OW26224   4.014   4.105   0.208  0.4495  0.3558 -0.5196
 4922SOL    HW126225   4.022   4.121   0.113 -0.0682  2.2001 -0.2631
 4922SOL    HW226226   4.035   4.013   0.222  0.5359  0.1134 -2.2305
 4923SOL     OW26227   3.346   1.622   3.894  0.5855 -0.1426  0.1447
 4923SOL    HW126228   3.288   1.568   3.948 -0.6485  0.2616 -0.7635
 4923SOL    HW226229   3.427   1.594   3.936 -0.1531  1.8716  2.8768
 4924SOL     OW26230   4.251   1.010   7.164  0.4788 -0.5410  0.4538
 4924SOL    HW126231   4.170   1.045   7.127  0.1002 -2.0992 -0.2183
 4924SOL    HW226232   4.246   1.043   7.254 -1.9974 -2.4089  0.9892
 4925SOL     OW26233   2.710   0.519  10.487  0.2892  0.2626  0.0728
 4925SOL    HW126234   2.800   0.508  10.517  0.5930  4.0994  0.5422
 4925SOL    HW226235   2.726   0.557  10.401  0.2265  2.6797  1.1364
 4926SOL     OW26236   3.873   0.787   7.313 -0.3313  0.2513 -0.3247
 4926SOL    HW126237   3.941   0.735   7.356  0.9859 -0.2359 -2.9545
 4926SOL    HW226238   3.889   0.873   7.352 -1.0259 -0.3709  1.3106
 4927SOL     OW26239   3.559   1.553  13.125  0.0192  0.3989 -0.9395
 4927SOL    HW126240   3.473   1.560  13.166 -0.5577  0.0878 -2.0858
 4927SOL    HW226241   3.588   1.640  13.153  0.7152 -0.1128 -0.0864
 4928SOL     OW26242   3.958   3.226   4.951  0.3107 -0.1923 -0.1595
 4928SOL    HW126243   4.033   3.249   5.005 -0.2017  0.4877  0.2659
 4928SOL    HW226244   3.906   3.177   5.014 -0.6376  0.2535 -0.5949
 4929SOL     OW26245   0.693   3.361   8.224  0.6190  0.2716 -0.4420
 4929SOL    HW126246   0.720   3.272   8.202  0.2303  0.3478 -1.2129
 4929SOL    HW226247   0.751   3.376   8.299  0.1041 -1.1376  0.2572
 4930SOL     OW26248   3.297   1.022   2.156 -0.5267  0.0004  0.3471
 4930SOL    HW126249   3.300   1.117   2.163  1.4156 -0.0667  0.2914
 4930SOL    HW226250   3.375   1.005   2.103  0.2776 -0.9712  1.8205
 4931SOL     OW26251   4.689   4.327   5.478  0.1338  0.0490  0.3396
 4931SOL    HW126252   0.007   4.308   5.392  0.1602  1.1075  0.1122
 4931SOL    HW226253   4.633   4.403   5.466  0.1487 -0.1654 -0.9882
 4932SOL     OW26254   2.049   0.360  12.719  0.0118 -0.2845  0.4279
 4932SOL    HW126255   2.142   0.379  12.723 -0.0869 -0.0286  1.6984
 4932SOL    HW226256   2.015   0.360  12.630  1.3537 -1.8440 -0.0793
 4933SOL     OW26257   1.448   1.548   2.302 -0.1140 -0.4317 -0.0143
 4933SOL    HW126258   1.366   1.544   2.350  2.0573 -1.6145  3.5933
 4933SOL    HW226259   1.419   1.509   2.219  3.1648 -3.7311  0.3967
 4934SOL     OW26260   4.379   0.613   7.540  0.5972 -0.1185 -0.5311
 4934SOL    HW126261   4.436   0.690   7.544 -0.1939  0.3785  1.8542
 4934SOL    HW226262   4.378   0.593   7.634  2.3735 -1.3477 -0.7814
 4935SOL     OW26263   4.529   3.175  13.717 -0.1176 -0.0744  0.0986
 4935SOL    HW126264   4.492   3.245  13.771 -2.5327 -0.5066 -1.0100
 4935SOL    HW226265   4.616   3.207  13.694  0.5189 -0.8404  1.4644
 4936SOL     OW26266   1.153   4.216   4.320 -0.6167 -0.1131 -0.0905
 4936SOL    HW126267   1.088   4.274   4.280 -3.1416 -1.2448  2.4121
 4936SOL    HW226268   1.102   4.186   4.395 -2.0404  2.2949 -0.0868
 4937SOL     OW26269   0.932   3.953   3.827 -0.5827  0.2072  0.5977
 4937SOL    HW126270   1.007   4.008   3.803 -1.4099  0.6918 -0.8736
 4937SOL    HW226271   0.862   4.017   3.817  0.8427  1.7183  0.1604
 4938SOL     OW26272   0.870   1.495  11.055 -0.4550 -0.4263 -0.2009
 4938SOL    HW126273   0.951   1.466  11.014  0.1793  0.4528  0.4171
 4938SOL    HW226274   0.807   1.477  10.986  1.0525 -2.0705 -1.1348
 4939SOL     OW26275   2.924   1.704   7.089  0.0420  0.6469 -0.5718
 4939SOL    HW126276   2.939   1.799   7.097  1.7538  0.3442 -0.3013
 4939SOL    HW226277   2.922   1.682   7.183  0.1286 -1.0034 -0.9599
 4940SOL     OW26278   1.030   4.041   7.935 -0.1489 -0.0247 -0.4373
 4940SOL    HW126279   0.984   4.113   7.893 -0.3265  0.7804  1.1233
 4940SOL    HW226280   1.026   4.073   8.025 -2.3166  1.7483 -1.1401
 4941SOL     OW26281   2.997   3.304   1.788 -0.8829  0.0572  0.4077
 4941SOL    HW126282   3.035   3.327   1.873  0.3107 -0.2926 -0.0376
 4941SOL    HW226283   3.004   3.386   1.739 -4.7292 -0.0002 -0.2289
 4942SOL     OW26284   4.050   4.485   9.954 -0.1373 -0.4439 -0.3467
 4942SOL    HW126285   3.956   4.468   9.942  0.4524 -3.1045 -1.1141
 4942SOL    HW226286   4.068   4.544   9.881 -2.2575 -1.3855 -1.6440
 4943SOL     OW26287   2.198   1.910   8.737  0.3492 -1.0978 -0.0771
 4943SOL    HW126288   2.138   1.848   8.778  0.6442 -0.8309  0.7772
 4943SOL    HW226289   2.270   1.900   8.800  0.8638  2.8891  0.0100
 4944SOL     OW26290   3.926   3.976   4.880 -0.3862 -0.2258  0.3597
 4944SOL    HW126291   3.878   4.042   4.930 -0.4386 -0.0428  0.0718
 4944SOL    HW226292   3.925   4.006   4.789 -0.9844 -0.8931  0.1441
 4945SOL     OW26293   1.083   2.585   1.528 -0.5970 -0.2145  0.2882
 4945SOL    HW126294   1.059   2.666   1.573  3.4801  0.7263  0.7489
 4945SOL    HW226295   1.139   2.553   1.599  0.8791  0.9505 -0.3511
 4946SOL     OW26296   3.592   3.196   3.238 -0.0681 -0.2847 -1.1020
 4946SOL    HW126297   3.593   3.125   3.173  2.5381 -0.2575 -1.0781
 4946SOL    HW226298   3.627   3.264   3.182 -0.9668  0.6026 -0.5806
 4947SOL     OW26299   0.664   4.507   0.293 -0.9617 -0.1749  0.1848
 4947SOL    HW126300   0.641   4.460   0.373  0.7453 -2.4112 -0.6838
 4947SOL    HW226301   0.608   4.462   0.229 -1.5426  1.5560 -0.5613
 4948SOL     OW26302   0.014   0.407  17.433 -0.5871 -0.0967  0.5725
 4948SOL    HW126303   0.058   0.370  17.510  0.8742 -1.8006 -1.0874
 4948SOL    HW226304   4.648   0.363  17.420 -0.6638  0.1740  0.1587
 4949SOL     OW26305   2.882   0.805   5.743  0.2492 -0.0241  0.0248
 4949SOL    HW126306   2.869   0.823   5.836 -2.4728 -0.5523 -0.2642
 4949SOL    HW226307   2.801   0.844   5.709 -0.7362 -2.7195 -0.7209
 4950SOL     OW26308   1.062   0.232   2.390 -0.0304  0.0390 -0.0789
 4950SOL    HW126309   0.976   0.191   2.381  0.6613 -0.8464 -2.6465
 4950SOL    HW226310   1.080   0.263   2.301 -1.2761  0.4563 -0.1923
 4951SOL     OW26311   4.068   4.131   5.733 -0.0706  0.1628 -0.0430
 4951SOL    HW126312   3.998   4.074   5.700 -0.4698  0.0083  1.0697
 4951SOL    HW226313   4.137   4.096   5.677 -0.4304 -2.2263  0.9966
 4952SOL     OW26314   0.227   2.988   4.795 -0.1320 -0.0712 -0.6375
 4952SOL    HW126315   0.153   3.046   4.777  1.0582  1.2605 -1.2834
 4952SOL    HW226316   0.287   3.061   4.776 -2.1834  1.1243 -2.5596
 4953SOL     OW26317   2.264   2.242   1.899 -0.4402  0.2797 -0.3080
 4953SOL    HW126318   2.248   2.196   1.981 -0.8582 -0.1948 -0.6532
 4953SOL    HW226319   2.278   2.172   1.836  0.0306  0.4919 -0.4337
 4954SOL     OW26320   2.978   3.828   3.326  0.1902 -0.0350 -0.0620
 4954SOL    HW126321   3.059   3.786   3.297 -0.9101 -0.3583 -2.6465
 4954SOL    HW226322   3.006   3.912   3.363 -0.0308 -0.1650  0.4004
 4955SOL     OW26323   3.518   1.057   6.142  0.3035  0.6015 -0.1512
 4955SOL    HW126324   3.504   1.126   6.208  2.5176  0.3690  0.5648
 4955SOL    HW226325   3.438   1.004   6.150  1.3442 -0.8062  0.7899
 4956SOL     OW26326   1.300   2.788   4.949 -0.6830 -0.0617  0.1888
 4956SOL    HW126327   1.378   2.810   4.898 -0.9234  0.1835 -0.0747
 4956SOL    HW226328   1.246   2.866   4.959  0.4806  1.0233 -2.0743
 4957SOL     OW26329   1.736   4.569   2.191  0.2904  0.2270  0.0723
 4957SOL    HW126330   1.661   4.629   2.190  0.0040 -0.1272  0.2044
 4957SOL    HW226331   1.742   4.551   2.285  0.2386  1.2181  0.2576
 4958SOL     OW26332   3.786   3.229   1.593 -0.0443 -0.0564 -0.0576
 4958SOL    HW126333   3.793   3.285   1.516 -2.5503  1.5773  0.8839
 4958SOL    HW226334   3.695   3.241   1.623 -0.2875  1.3786 -1.3783
 4959SOL     OW26335   0.967   2.300   0.870  0.5007  0.2115 -0.2149
 4959SOL    HW126336   1.053   2.272   0.839 -0.4031 -2.4633 -0.2876
 4959SOL    HW226337   0.956   2.369   0.805  1.9543  0.0453 -0.6212
 4960SOL     OW26338   3.988   1.358   8.827  0.1261 -0.0071 -0.3214
 4960SOL    HW126339   4.034   1.313   8.897  2.5026  0.2519 -1.7172
 4960SOL    HW226340   4.033   1.442   8.822  0.8246 -0.3574  0.1374
 4961SOL     OW26341   4.175   0.674   8.667 -0.1187  0.0755  0.0407
 4961SOL    HW126342   4.107   0.723   8.713 -0.5949 -0.8676  0.3295
 4961SOL    HW226343   4.136   0.680   8.580  0.0202  1.5451  0.0740
 4962SOL     OW26344   4.057   1.467   6.486  0.3214  0.0545  0.4982
 4962SOL    HW126345   4.076   1.516   6.566 -0.4324  0.6882  0.2887
 4962SOL    HW226346   3.966   1.493   6.477  0.2880 -0.0496  0.5360
 4963SOL     OW26347   0.498   3.033   3.218 -1.0296  0.2737  0.4760
 4963SOL    HW126348   0.509   3.099   3.287 -1.9446 -1.6594  2.5002
 4963SOL    HW226349   0.471   2.960   3.274 -4.4450  0.5912 -0.7390
 4964SOL     OW26350   2.436   3.196   7.479  0.0151 -0.4238  0.0886
 4964SOL    HW126351   2.422   3.186   7.385 -0.1681  2.6481 -0.1869
 4964SOL    HW226352   2.518   3.148   7.490  0.3623  0.3235  0.7391
 4965SOL     OW26353   1.053   1.088   8.649  0.4808 -0.1631  0.6032
 4965SOL    HW126354   1.057   1.099   8.554 -2.1980 -0.1569  0.4920
 4965SOL    HW226355   0.979   1.028   8.648  1.5585 -1.4708 -2.2164
 4966SOL     OW26356   1.317   2.883   4.201 -0.4066 -0.3882  0.9904
 4966SOL    HW126357   1.238   2.891   4.255 -0.3868  1.2381  0.7835
 4966SOL    HW226358   1.345   2.799   4.237  0.7463  0.5637  2.3137
 4967SOL     OW26359   3.671   2.897   5.335 -0.2789  0.2094  0.2422
 4967SOL    HW126360   3.730   2.832   5.299  0.0672  1.2262 -1.0403
 4967SOL    HW226361   3.598   2.848   5.373  0.8305  0.2254  2.3842
 4968SOL     OW26362   3.867   0.375  16.397  0.4643  0.9557  0.7133
 4968SOL    HW126363   3.873   0.428  16.476 -1.0324  4.7677 -1.7133
 4968SOL    HW226364   3.906   0.291  16.422  2.1748  1.8552  1.1289
 4969SOL     OW26365   1.325   3.071   4.479 -0.0917  0.4712 -0.3404
 4969SOL    HW126366   1.380   3.127   4.425 -0.4101  0.1089 -1.0435
 4969SOL    HW226367   1.351   2.986   4.443  2.0107  0.5610  0.9449
 4970SOL     OW26368   1.715   0.527   3.584 -0.4513  0.0857  0.3449
 4970SOL    HW126369   1.632   0.546   3.540  0.0451 -0.6251 -0.8862
 4970SOL    HW226370   1.753   0.491   3.504  0.7578  0.6078  0.6918
 4971SOL     OW26371   4.289   2.711   0.133  0.0935 -0.1659 -0.1011
 4971SOL    HW126372   4.226   2.776   0.103  0.4750  1.3605  2.3852
 4971SOL    HW226373   4.375   2.747   0.111 -0.8945  1.2522 -1.6284
 4972SOL     OW26374   3.358   3.242   1.881  0.1167  0.6010 -0.0022
 4972SOL    HW126375   3.415   3.248   1.957 -1.1780  1.3450  0.9140
 4972SOL    HW226376   3.333   3.150   1.883 -0.7105  0.8365  0.5301
 4973SOL     OW26377   0.638   2.991  11.626 -0.5618 -0.1526  0.9005
 4973SOL    HW126378   0.583   3.064  11.654  0.8520  0.8913  1.0146
 4973SOL    HW226379   0.599   2.964  11.543 -0.6479 -0.5723  1.0825
 4974SOL     OW26380   0.301   3.527  14.191 -0.4171  0.1578  0.2782
 4974SOL    HW126381   0.378   3.560  14.236  0.2711  2.2711 -2.4457
 4974SOL    HW226382   0.304   3.436  14.219  0.8858  0.0853 -0.0800
 4975SOL     OW26383   1.962   1.568   5.329  0.0003 -0.3656 -0.3334
 4975SOL    HW126384   2.034   1.613   5.283  0.6548  0.9040  1.9359
 4975SOL    HW226385   1.906   1.554   5.253 -2.6872  2.2633  1.1822
 4976SOL     OW26386   1.963   0.946   0.565  0.2102  0.2687  0.4370
 4976SOL    HW126387   1.984   0.868   0.513  1.4651  2.9454 -3.0531
 4976SOL    HW226388   1.870   0.933   0.549  0.3810 -0.1166 -0.2711
 4977SOL     OW26389   3.176   1.093   4.586 -0.4077 -0.0609 -0.5954
 4977SOL    HW126390   3.189   1.032   4.512 -0.6690  1.6839 -2.0786
 4977SOL    HW226391   3.242   1.057   4.645  0.5208  2.7388  0.0515
 4978SOL     OW26392   2.523   2.320   3.169 -0.0631  0.0750  0.5796
 4978SOL    HW126393   2.480   2.387   3.116 -1.2975 -1.4135 -0.3002
 4978SOL    HW226394   2.618   2.330   3.163  0.0110 -1.2724 -0.3864
 4979SOL     OW26395   2.590   3.947   1.910  0.0817 -0.5656 -0.3513
 4979SOL    HW126396   2.528   4.009   1.873  0.4395 -1.1867 -1.9782
 4979SOL    HW226397   2.570   3.867   1.862 -2.5380  0.7568 -1.4404
 4980SOL     OW26398   3.872   3.941   5.576  0.2236  0.0386  0.2391
 4980SOL    HW126399   3.794   3.976   5.532 -0.9528 -2.4547  0.3767
 4980SOL    HW226400   3.854   3.849   5.595 -2.5647  0.2737 -1.2668
 4981SOL     OW26401   3.088   2.795   9.080  0.3104 -0.0969 -0.7527
 4981SOL    HW126402   3.157   2.861   9.080  2.2048 -2.0762  0.2453
 4981SOL    HW226403   3.131   2.730   9.135  2.7241  1.4387 -0.8185
 4982SOL     OW26404   1.285   1.142  14.608 -0.0070  0.3029  0.1846
 4982SOL    HW126405   1.195   1.129  14.638  1.0410 -1.7492  2.4140
 4982SOL    HW226406   1.322   1.054  14.614 -0.9306 -0.1986 -1.5431
 4983SOL     OW26407   1.801   0.407  17.670 -0.2745 -0.2207 -0.5207
 4983SOL    HW126408   1.744   0.402   0.068  0.1409 -1.4351 -0.2786
 4983SOL    HW226409   1.882   0.402   0.041 -1.0691 -1.2616  0.6494
 4984SOL     OW26410   0.492   2.602   3.072 -0.4832  0.0890  0.0662
 4984SOL    HW126411   0.523   2.692   3.065  0.9410 -0.4791 -0.9038
 4984SOL    HW226412   0.438   2.607   2.993 -2.1415  2.5168  1.3562
 4985SOL     OW26413   0.541   4.674   3.837 -0.3659 -0.5279  0.1188
 4985SOL    HW126414   0.447   4.683   3.820 -0.1018 -1.0552 -1.6775
 4985SOL    HW226415   0.538   4.603   3.901 -0.2065  0.5030  1.2763
 4986SOL     OW26416   2.892   0.056   9.454 -0.0335 -0.2955  0.4783
 4986SOL    HW126417   2.880   0.148   9.480  0.5406 -0.7419  2.3234
 4986SOL    HW226418   2.986   0.046   9.468 -0.0910  0.2759  1.2727
 4987SOL     OW26419   0.833   1.114  17.611 -0.3133  0.4710 -0.7768
 4987SOL    HW126420   0.848   1.108  17.517  3.2133  1.8057 -0.2891
 4987SOL    HW226421   0.908   1.168  17.634 -0.4744  1.2264 -2.0371
 4988SOL     OW26422   0.873   0.760   6.349  0.1599  0.0925  0.2693
 4988SOL    HW126423   0.835   0.677   6.377  2.2408 -0.9712 -0.0738
 4988SOL    HW226424   0.965   0.734   6.345  0.5122  1.1433  1.6553
 4989SOL     OW26425   1.765   0.556   7.040  0.4516  0.0738 -0.8386
 4989SOL    HW126426   1.704   0.566   7.114  2.0633 -1.4857  0.6883
 4989SOL    HW226427   1.729   0.629   6.989  0.6399  1.3168  0.7925
 4990SOL     OW26428   0.012   2.813   0.453  0.2624  0.2744  0.3710
 4990SOL    HW126429   4.714   2.758   0.530 -1.2353 -2.5966 -2.0113
 4990SOL    HW226430   0.107   2.809   0.441 -0.0581 -0.5506 -1.9332
 4991SOL     OW26431   0.021   0.938   9.983 -0.2402  0.1247  0.4443
 4991SOL    HW126432   0.031   0.870   9.917  1.9276  1.2598 -0.3926
 4991SOL    HW226433   0.112   0.967   9.990 -0.0541 -0.6223  1.0195
 4992SOL     OW26434   2.438   2.938   2.743 -0.4292 -1.1408  0.5973
 4992SOL    HW126435   2.430   2.923   2.649  1.4776  2.4290 -0.1376
 4992SOL    HW226436   2.361   2.987   2.771 -0.7825 -1.8980  0.9694
 4993SOL     OW26437   4.115   2.464   7.601  0.2341  0.4183  0.4378
 4993SOL    HW126438   4.086   2.398   7.538 -0.2745  1.8549 -0.8375
 4993SOL    HW226439   4.126   2.543   7.546  0.9617  0.5360  0.7575
 4994SOL     OW26440   0.257   4.609   3.061 -0.0222 -0.7359  0.4580
 4994SOL    HW126441   0.279   4.550   2.988 -3.0768  0.4280 -1.3737
 4994SOL    HW226442   0.317   4.584   3.132  0.0855 -1.3327  0.1633
 4995SOL     OW26443   2.311   1.815   6.179 -0.5360 -0.3124 -0.0502
 4995SOL    HW126444   2.227   1.790   6.218 -0.8556  0.8635  0.0272
 4995SOL    HW226445   2.302   1.910   6.183  0.0318 -0.3420  1.9659
 4996SOL     OW26446   1.294   1.313   5.050 -0.1081  0.2236  0.1850
 4996SOL    HW126447   1.236   1.239   5.068  0.4930 -0.2421  0.2107
 4996SOL    HW226448   1.310   1.346   5.138 -1.8638  0.0010  0.5968
 4997SOL     OW26449   1.923   3.612   5.038  0.3362  0.1644 -0.1900
 4997SOL    HW126450   1.898   3.574   5.123 -0.8291  2.5137  0.5078
 4997SOL    HW226451   1.837   3.622   4.996 -0.3890 -0.0528  1.2391
 4998SOL     OW26452   4.079   2.429  13.135  0.2375  0.1534  0.5107
 4998SOL    HW126453   4.119   2.510  13.103 -0.0291 -0.2578 -0.8381
 4998SOL    HW226454   4.150   2.374  13.168 -1.3015 -0.7741  2.2417
 4999SOL     OW26455   4.268   0.396  17.028 -0.4969 -0.3016  0.2435
 4999SOL    HW126456   4.194   0.391  17.089 -1.3673 -2.1205 -0.9625
 4999SOL    HW226457   4.245   0.480  16.990 -0.6103  0.0442  1.0730
 5000SOL     OW26458   1.943   1.467   2.475  0.1237 -0.0145  0.1259
 5000SOL    HW126459   1.925   1.382   2.515  1.1322  0.0950  0.8344
 5000SOL    HW226460   2.038   1.461   2.484  0.1322  1.3362  1.0603
 5001SOL     OW26461   1.252   3.530   8.704  0.4980 -0.6126  0.5043
 5001SOL    HW126462   1.197   3.464   8.661 -0.5551 -0.8017  2.1388
 5001SOL    HW226463   1.282   3.571   8.622 -0.9161  0.2088  0.4046
 5002SOL     OW26464   2.867   1.266  11.994 -0.4729 -0.6124  0.8157
 5002SOL    HW126465   2.774   1.260  12.019 -1.2514 -3.9592 -2.8122
 5002SOL    HW226466   2.853   1.324  11.919  1.1967 -0.5308  0.5666
 5003SOL     OW26467   2.094   4.598   5.932  0.6626  0.0656 -0.1987
 5003SOL    HW126468   2.005   4.565   5.939  1.0942 -0.8503  1.1035
 5003SOL    HW226469   2.101   4.629   5.842  0.2796  0.3161 -0.1389
 5004SOL     OW26470   1.372   3.171   2.279 -0.4672 -0.1870  0.0530
 5004SOL    HW126471   1.338   3.101   2.224  1.5818 -1.5311  0.4651
 5004SOL    HW226472   1.299   3.228   2.302 -0.2855  0.4239 -0.8748
 5005SOL     OW26473   0.411   1.605  13.080 -0.5139  0.2340  0.1960
 5005SOL    HW126474   0.365   1.662  13.019 -0.9346 -0.9087 -0.5493
 5005SOL    HW226475   0.334   1.585  13.133 -0.5679  1.0003  0.4151
 5006SOL     OW26476   0.836   1.045   2.085  0.4393 -0.9738  0.2328
 5006SOL    HW126477   0.902   1.109   2.113 -0.3192  0.1433 -0.5489
 5006SOL    HW226478   0.856   1.048   1.992 -0.1529  0.4727  0.1516
 5007SOL     OW26479   1.732   1.468   9.376 -0.4391  0.5625 -0.0581
 5007SOL    HW126480   1.659   1.521   9.407 -1.3279 -0.5590 -0.2222
 5007SOL    HW226481   1.682   1.401   9.329  1.5856 -0.1813 -1.1175
 5008SOL     OW26482   3.957   3.596  10.772 -0.1160  0.2252 -0.0991
 5008SOL    HW126483   3.894   3.637  10.713 -1.7898  0.0583  1.5245
 5008SOL    HW226484   3.907   3.611  10.853 -2.5454 -0.4114 -1.4904
 5009SOL     OW26485   3.089   1.472   7.374 -0.0954 -0.7548 -0.7838
 5009SOL    HW126486   3.181   1.493   7.385 -1.3993  3.7917  1.5455
 5009SOL    HW226487   3.041   1.543   7.417  0.5415 -1.6159  1.3304
 5010SOL     OW26488   3.782   0.509   6.696  0.2580 -0.0726  0.0686
 5010SOL    HW126489   3.835   0.512   6.776 -0.1685  0.6320  0.3261
 5010SOL    HW226490   3.764   0.415   6.695 -0.8756  0.1337  1.6332
 5011SOL     OW26491   2.173   2.794   4.079  0.3852  0.0875  0.3992
 5011SOL    HW126492   2.174   2.770   4.172  2.6175  1.4207  0.7212
 5011SOL    HW226493   2.204   2.716   4.033 -1.0817 -0.8876  1.0843
 5012SOL     OW26494   0.090   4.292   2.561  0.5588 -0.3644  0.2311
 5012SOL    HW126495   0.176   4.254   2.576  1.8131  2.2128 -0.3743
 5012SOL    HW226496   0.044   4.244   2.630  1.9537  0.4394  1.7373
 5013SOL     OW26497   3.849   1.522   2.712 -0.0847  0.2188  0.5071
 5013SOL    HW126498   3.770   1.572   2.732 -1.8035 -2.8920  1.4145
 5013SOL    HW226499   3.844   1.451   2.775  0.8925 -1.5976 -1.4536
 5014SOL     OW26500   4.088   0.029  14.130 -0.1864 -0.5570  0.0158
 5014SOL    HW126501   4.122   0.032  14.219 -1.4490  1.9854  0.4111
 5014SOL    HW226502   4.166   0.040  14.076 -0.4007 -0.9346 -0.3697
 5015SOL     OW26503   0.482   4.076   2.337 -0.2814  0.0678  0.2520
 5015SOL    HW126504   0.413   4.063   2.272 -1.4481  0.1937  1.4635
 5015SOL    HW226505   0.490   4.171   2.343  1.5153 -0.1630  1.7310
 5016SOL     OW26506   0.890   2.149   3.089  0.2597  0.1384  0.0380
 5016SOL    HW126507   0.958   2.120   3.150 -1.8742 -1.7998  1.4831
 5016SOL    HW226508   0.820   2.084   3.099  0.6573 -0.3459 -0.3452
 5017SOL     OW26509   0.248   4.312   4.547  0.5114  0.0294  0.2380
 5017SOL    HW126510   0.161   4.306   4.586  0.5297  0.8799  0.4168
 5017SOL    HW226511   0.242   4.408   4.547  0.2592  0.0131  0.6994
 5018SOL     OW26512   0.304   1.642  14.018  0.1178  0.5901  0.0274
 5018SOL    HW126513   0.383   1.692  13.995  0.8312  0.0165  1.2347
 5018SOL    HW226514   0.244   1.684  13.956  0.5786  0.2646 -0.6445
 5019SOL     OW26515   2.060   2.834   7.119  0.3292  0.2733  0.2699
 5019SOL    HW126516   2.021   2.867   7.200  2.9947  2.1274  0.7739
 5019SOL    HW226517   2.059   2.742   7.148 -2.4447  0.5002  0.9470
 5020SOL     OW26518   2.023   0.847   5.236  0.2682  0.4668  0.0971
 5020SOL    HW126519   1.949   0.881   5.185  0.3122 -0.5237 -0.6299
 5020SOL    HW226520   2.070   0.803   5.164 -0.0640 -0.9451  0.7424
 5021SOL     OW26521   3.723   4.006   3.283  0.7956 -0.1481  0.2216
 5021SOL    HW126522   3.819   4.002   3.280  1.0572  4.7607  1.0869
 5021SOL    HW226523   3.697   3.928   3.235  2.6497 -0.1337 -0.7992
 5022SOL     OW26524   1.043   0.213  10.587  0.7215 -0.2800 -0.5305
 5022SOL    HW126525   1.122   0.241  10.633  1.1076  0.5647 -1.7207
 5022SOL    HW226526   0.976   0.264  10.633 -0.0789 -3.1611  1.5047
 5023SOL     OW26527   1.955   1.169   1.289 -0.5097  0.5331 -0.4457
 5023SOL    HW126528   1.875   1.151   1.239  0.2362 -0.1373 -1.4105
 5023SOL    HW226529   1.921   1.185   1.377 -0.9890 -0.6998 -0.4031
 5024SOL     OW26530   0.699   1.384   7.017 -0.1170 -0.2570 -0.6081
 5024SOL    HW126531   0.679   1.468   6.977 -0.2050 -1.6688 -3.5679
 5024SOL    HW226532   0.733   1.343   6.937  1.3057 -0.1867 -0.0304
 5025SOL     OW26533   2.360   0.690  16.940  0.4128  0.3803 -0.7088
 5025SOL    HW126534   2.265   0.677  16.950  0.7596 -1.5698  0.1152
 5025SOL    HW226535   2.392   0.600  16.936 -0.3352  0.0549  0.4257
 5026SOL     OW26536   2.298   4.222   8.682 -0.3604 -0.2699 -0.1569
 5026SOL    HW126537   2.388   4.214   8.712  0.0001  1.7665 -0.7189
 5026SOL    HW226538   2.307   4.282   8.608  3.0451 -2.9993 -1.9504
 5027SOL     OW26539   2.752   3.521  12.750  0.1222 -0.1030 -0.3978
 5027SOL    HW126540   2.821   3.576  12.787 -0.0957  0.1917 -0.4346
 5027SOL    HW226541   2.797   3.500  12.668  0.6994  0.4886 -0.2308
 5028SOL     OW26542   4.426   1.258   5.882  0.2118  0.1467 -0.4340
 5028SOL    HW126543   4.493   1.194   5.858  2.0113  1.8427  0.0421
 5028SOL    HW226544   4.385   1.206   5.951 -0.6261 -2.0516 -2.5913
 5029SOL     OW26545   2.818   3.253   6.198  0.2510  0.1310 -0.3555
 5029SOL    HW126546   2.748   3.188   6.190 -1.8371  2.1366  1.3629
 5029SOL    HW226547   2.775   3.318   6.254 -1.0471 -0.5720 -0.5415
 5030SOL     OW26548   1.520   0.088  12.708  0.2072  0.1255  0.0731
 5030SOL    HW126549   1.461   0.015  12.689  2.0953 -0.6126 -2.9511
 5030SOL    HW226550   1.565   0.044  12.780  1.0333  0.4426 -0.2446
 5031SOL     OW26551   4.555   2.099   5.434  0.0251 -0.0346  0.0434
 5031SOL    HW126552   4.497   2.141   5.371 -2.4637 -1.5548  1.3412
 5031SOL    HW226553   4.627   2.078   5.374  1.4152  1.2490  1.2580
 5032SOL     OW26554   1.414   1.403  14.964  0.3895  0.1483  0.2185
 5032SOL    HW126555   1.476   1.436  14.898  0.0146  2.3188  0.9362
 5032SOL    HW226556   1.437   1.310  14.964  2.9151  0.7565  2.2325
 5033SOL     OW26557   2.050   1.742   3.414 -0.1721 -0.4601  0.3193
 5033SOL    HW126558   2.072   1.798   3.488 -0.7620  1.9336 -1.2977
 5033SOL    HW226559   2.033   1.813   3.352  3.1955 -1.4845 -1.8463
 5034SOL     OW26560   2.737   0.879  16.815  0.2076 -0.4696  0.2396
 5034SOL    HW126561   2.653   0.879  16.860 -0.9067 -1.4121 -1.8077
 5034SOL    HW226562   2.709   0.912  16.729  2.7688  1.4846  0.1487
 5035SOL     OW26563   0.891   3.546   5.104  0.1508 -0.2267 -0.5108
 5035SOL    HW126564   0.918   3.626   5.150 -0.5231  0.4152 -1.2316
 5035SOL    HW226565   0.959   3.482   5.125  0.1001  0.1195  0.6858
 5036SOL     OW26566   3.802   2.164  12.720 -0.4783 -0.6337  0.5045
 5036SOL    HW126567   3.891   2.154  12.753  0.0216  0.9979 -0.3363
 5036SOL    HW226568   3.812   2.134  12.629 -1.9788 -0.8571  0.4050
 5037SOL     OW26569   2.671   1.978  12.945  0.2871 -0.1837 -0.6658
 5037SOL    HW126570   2.746   1.975  13.004 -2.2483 -0.2341  2.5128
 5037SOL    HW226571   2.631   2.053  12.987  3.3593  1.8319 -1.3246
 5038SOL     OW26572   4.229   1.170  15.915 -0.3062 -0.1665 -0.2346
 5038SOL    HW126573   4.149   1.126  15.889  0.0118 -0.4347 -0.7531
 5038SOL    HW226574   4.273   1.199  15.835  0.1495  1.8764  0.7551
 5039SOL     OW26575   2.784   1.709  11.889 -0.0520 -0.4676 -0.0090
 5039SOL    HW126576   2.696   1.727  11.922  0.0842  1.1157 -0.5312
 5039SOL    HW226577   2.817   1.799  11.894  2.3804 -1.5481  3.1960
 5040SOL     OW26578   4.161   4.118  13.004  0.1687  0.2759 -0.0766
 5040SOL    HW126579   4.199   4.181  12.942 -1.0070  1.0094 -0.0463
 5040SOL    HW226580   4.129   4.042  12.955 -0.3754  0.3929  0.0972
 5041SOL     OW26581   1.648   4.287   1.673  0.1679 -0.2760 -0.0159
 5041SOL    HW126582   1.573   4.330   1.714  0.2419 -0.1793  0.0187
 5041SOL    HW226583   1.684   4.261   1.758  0.8287 -1.7191 -0.7362
 5042SOL     OW26584   0.340   0.670  16.049 -0.2365  0.0229 -0.2211
 5042SOL    HW126585   0.413   0.636  16.101  0.4889 -1.6773 -2.3930
 5042SOL    HW226586   0.270   0.674  16.115 -1.0581  1.5981 -1.1724
 5043SOL     OW26587   4.234   3.446  11.147  0.2008 -0.1295  0.2583
 5043SOL    HW126588   4.310   3.388  11.157 -0.2528 -0.9371 -1.1311
 5043SOL    HW226589   4.179   3.437  11.225 -0.4275  2.5888  0.1495
 5044SOL     OW26590   1.472   0.727   0.878 -0.0446  0.6316 -0.5828
 5044SOL    HW126591   1.381   0.735   0.906  0.2935  0.1606  0.6428
 5044SOL    HW226592   1.462   0.728   0.783 -1.0375  1.3682 -0.4697
 5045SOL     OW26593   4.352   0.175   2.592 -0.1552 -0.5135 -0.4445
 5045SOL    HW126594   4.378   0.125   2.669  2.8665 -0.2955 -1.3374
 5045SOL    HW226595   4.360   0.265   2.623 -1.5576 -0.5451  0.0318
 5046SOL     OW26596   2.873   2.072   8.563  0.1294  0.0833 -0.0871
 5046SOL    HW126597   2.866   2.165   8.539 -0.5795 -0.1731 -0.8510
 5046SOL    HW226598   2.818   2.073   8.640  0.0549 -1.3604 -0.1290
 5047SOL     OW26599   1.226   2.591   9.772  0.3510  0.4972  0.0684
 5047SOL    HW126600   1.302   2.648   9.764  0.4227 -0.0231 -2.9377
 5047SOL    HW226601   1.217   2.595   9.867  0.1211 -0.5641  0.1016
 5048SOL     OW26602   3.269   4.267   2.382  0.2315  0.4984  0.4601
 5048SOL    HW126603   3.257   4.172   2.385  1.9932  0.1997 -2.3228
 5048SOL    HW226604   3.288   4.286   2.291  1.9576  1.9505  1.1407
 5049SOL     OW26605   4.118   0.547   2.236 -0.0539  0.1559  0.0997
 5049SOL    HW126606   4.137   0.463   2.279  1.3267  2.1002  3.2371
 5049SOL    HW226607   4.183   0.547   2.166  0.0096 -0.1692  0.1557
 5050SOL     OW26608   2.454   3.041  10.350  1.0061 -0.2264  0.3099
 5050SOL    HW126609   2.523   3.063  10.413 -0.0677  1.5586  0.8415
 5050SOL    HW226610   2.407   3.123  10.342  0.6212 -0.5208 -0.4618
 5051SOL     OW26611   2.363   0.404  12.724  0.0237  0.0733 -0.2526
 5051SOL    HW126612   2.425   0.442  12.786  1.0804 -1.5880 -0.3031
 5051SOL    HW226613   2.394   0.427  12.637  1.8343  0.4883  0.5089
 5052SOL     OW26614   0.029   1.449   4.431  0.3833 -0.0431  0.3079
 5052SOL    HW126615   0.090   1.436   4.504 -1.7424 -0.6509  1.9573
 5052SOL    HW226616   0.087   1.444   4.355 -1.8234  0.6794 -1.4191
 5053SOL     OW26617   2.681   0.864   3.064 -0.0074 -0.2425  0.1253
 5053SOL    HW126618   2.642   0.886   3.148  1.1105  0.1015  0.5464
 5053SOL    HW226619   2.634   0.918   2.999  0.1214 -0.8164 -0.4460
 5054SOL     OW26620   1.840   2.620   8.200  0.0455  0.1148  0.1129
 5054SOL    HW126621   1.876   2.535   8.175  0.0788 -0.0096  0.5804
 5054SOL    HW226622   1.909   2.681   8.172 -0.8174  0.2281 -1.7489
 5055SOL     OW26623   4.177   1.092   6.381  0.4762 -0.3759  0.3511
 5055SOL    HW126624   4.150   1.041   6.458  0.4891 -0.1913  0.4784
 5055SOL    HW226625   4.226   1.161   6.426 -1.6184  1.3459 -0.0096
 5056SOL     OW26626   3.815   0.952   1.900 -0.6706  0.0688 -1.0880
 5056SOL    HW126627   3.902   0.933   1.936 -1.1522  0.5169  0.3219
 5056SOL    HW226628   3.817   0.905   1.817 -3.9102 -1.5263 -0.2252
 5057SOL     OW26629   1.862   2.713   4.313 -0.2209 -0.7877 -0.5901
 5057SOL    HW126630   1.958   2.714   4.314 -0.2206  0.3910 -1.1231
 5057SOL    HW226631   1.842   2.721   4.220  1.9603 -1.4571 -1.1062
 5058SOL     OW26632   3.519   2.920   1.844 -0.1198 -0.0206  0.0766
 5058SOL    HW126633   3.451   2.913   1.911  0.0863  2.4338  0.5255
 5058SOL    HW226634   3.569   2.840   1.861  0.3624  0.3483  0.3885
 5059SOL     OW26635   4.698   0.268   3.419  0.0506 -0.0655  0.2005
 5059SOL    HW126636   4.656   0.190   3.454  0.9419  1.2410  4.1837
 5059SOL    HW226637   0.054   0.228   3.375  0.0305  0.2047 -0.0798
 5060SOL     OW26638   0.350   4.234   5.816  0.3830 -0.0004  0.1170
 5060SOL    HW126639   0.406   4.159   5.796 -0.1098 -0.2658 -0.2512
 5060SOL    HW226640   0.289   4.198   5.879  1.8231 -2.9788 -0.1813
 5061SOL     OW26641   3.871   4.545   3.745 -0.6955 -0.1497 -0.1372
 5061SOL    HW126642   3.948   4.564   3.691  1.4847 -1.0800  2.6102
 5061SOL    HW226643   3.841   4.632   3.772  0.0719 -0.4833  1.8163
 5062SOL     OW26644   3.696   2.402   8.002 -0.2226  0.5237 -0.1901
 5062SOL    HW126645   3.779   2.422   7.959  0.3616 -0.2807  0.5759
 5062SOL    HW226646   3.704   2.448   8.085 -1.4335  2.4377 -1.1262
 5063SOL     OW26647   2.693   2.023   6.414  0.3350  0.1860 -0.0498
 5063SOL    HW126648   2.694   1.932   6.385  1.4349 -0.3537  1.7099
 5063SOL    HW226649   2.623   2.060   6.361 -0.5507 -0.3400  0.7348
 5064SOL     OW26650   4.306   2.659   1.900 -0.0728 -0.0107  0.2431
 5064SOL    HW126651   4.234   2.635   1.959 -0.7994  0.1456 -0.5771
 5064SOL    HW226652   4.385   2.640   1.950 -0.3407  1.1457  1.0889
 5065SOL     OW26653   4.491   1.033   0.182  0.1179  0.3795 -0.3867
 5065SOL    HW126654   4.403   1.013   0.212  0.5529 -1.7240 -0.4862
 5065SOL    HW226655   4.535   0.952   0.208 -1.6013 -0.6837 -0.7674
 5066SOL     OW26656   4.637   2.996  16.574  0.4131  0.4122 -0.0652
 5066SOL    HW126657   0.002   2.962  16.605  1.5500  2.6074 -0.7634
 5066SOL    HW226658   4.633   2.947  16.492  1.6392 -1.4106  0.9450
 5067SOL     OW26659   3.510   2.173  16.832  0.0690  0.2561  0.1336
 5067SOL    HW126660   3.554   2.170  16.917 -0.9706 -1.8468  0.5977
 5067SOL    HW226661   3.490   2.267  16.831  0.1577  0.2894  1.0352
 5068SOL     OW26662   2.720   3.853  12.092 -0.0147  0.0191 -0.4460
 5068SOL    HW126663   2.730   3.800  12.172 -2.4700 -0.5019 -0.4718
 5068SOL    HW226664   2.624   3.850  12.089  0.0787 -3.2903  0.3810
 5069SOL     OW26665   4.553   2.011   4.186  0.0073 -0.1036 -0.9032
 5069SOL    HW126666   4.529   1.960   4.263 -1.6919 -0.3931 -1.6225
 5069SOL    HW226667   4.468   2.037   4.152  0.1126  1.0915 -0.2735
 5070SOL     OW26668   0.192   4.193   3.550  0.0219 -0.0587  0.0774
 5070SOL    HW126669   0.264   4.133   3.532  0.9338  1.0495  0.0428
 5070SOL    HW226670   0.224   4.270   3.504  0.5532  1.0330  2.2719
 5071SOL     OW26671   1.901   0.177   7.258 -0.0162 -0.4778  0.4746
 5071SOL    HW126672   1.808   0.197   7.244 -0.4262 -2.8210 -0.1373
 5071SOL    HW226673   1.935   0.262   7.230 -0.6080 -0.1747  0.6637
 5072SOL     OW26674   3.004   1.825  15.110  0.0166  0.1334 -0.4728
 5072SOL    HW126675   3.094   1.836  15.078 -0.5182  1.8602 -1.3730
 5072SOL    HW226676   2.986   1.732  15.103 -1.2614  0.4205 -0.9556
 5073SOL     OW26677   3.913   2.929  17.633  0.3302 -0.3124 -0.1800
 5073SOL    HW126678   3.875   2.841  17.628  0.2210 -0.2730 -0.0333
 5073SOL    HW226679   3.955   2.924  17.547 -1.4723  2.3436 -1.2322
 5074SOL     OW26680   4.230   2.125  11.952  0.2481 -0.8879  1.4279
 5074SOL    HW126681   4.201   2.127  12.044 -0.3635  1.7183  1.1643
 5074SOL    HW226682   4.152   2.156  11.905  1.7240  0.1340 -0.3412
 5075SOL     OW26683   4.287   0.498   7.053 -0.1078 -0.7662  0.2210
 5075SOL    HW126684   4.248   0.570   7.004  3.2056 -0.7273 -2.3920
 5075SOL    HW226685   4.322   0.533   7.135  1.8372  0.6691 -1.2304
 5076SOL     OW26686   3.333   2.093  13.449  0.1296  0.0744 -0.1774
 5076SOL    HW126687   3.250   2.068  13.489  0.3384 -0.4758 -0.0861
 5076SOL    HW226688   3.370   2.132  13.528 -2.4308  0.7101  0.7242
 5077SOL     OW26689   0.057   4.003   4.414 -0.3035 -0.1153 -0.3772
 5077SOL    HW126690   0.034   4.061   4.341  0.8350  0.1014 -0.5626
 5077SOL    HW226691   0.039   4.060   4.489 -0.7551  1.3451 -1.5912
 5078SOL     OW26692   0.036   1.994   7.413 -0.5598  0.1507  0.6191
 5078SOL    HW126693   4.662   1.973   7.422 -0.3588  0.3939  3.2398
 5078SOL    HW226694   0.048   2.075   7.462 -0.8518  1.5010 -1.4974
 5079SOL     OW26695   4.394   3.771   5.535  0.4759 -0.3178 -0.2707
 5079SOL    HW126696   4.380   3.763   5.441 -0.3466 -1.5328 -0.0396
 5079SOL    HW226697   4.412   3.865   5.546 -1.5081  0.0794 -0.5059
 5080SOL     OW26698   4.717   3.092   4.671 -0.0834  0.0956  0.3008
 5080SOL    HW126699   4.627   3.073   4.645 -0.7931  1.8167  1.4931
 5080SOL    HW226700   0.025   3.163   4.612 -1.6590  1.4344  1.2203
 5081SOL     OW26701   2.551   1.906   4.511 -0.0151  0.5644 -0.2968
 5081SOL    HW126702   2.554   1.811   4.497  0.6712  0.5876 -0.3309
 5081SOL    HW226703   2.523   1.894   4.602 -1.3191  1.0020 -0.6454
 5082SOL     OW26704   3.938   2.675   6.418  0.5077  0.3200  0.0349
 5082SOL    HW126705   3.965   2.636   6.335  1.8858  2.3693 -0.4562
 5082SOL    HW226706   3.935   2.763   6.381 -0.9742  0.4044  0.3529
 5083SOL     OW26707   0.876   0.057   2.277  0.0748 -0.5046  0.5341
 5083SOL    HW126708   0.840   0.075   2.190  0.1528 -1.2131  0.3486
 5083SOL    HW226709   0.945   4.713   2.254 -1.2373 -2.4588  1.9364
 5084SOL     OW26710   3.943   3.159   6.793 -0.9543  0.2959  0.5605
 5084SOL    HW126711   4.014   3.223   6.805 -0.8347  0.6024 -1.8055
 5084SOL    HW226712   3.867   3.218   6.786 -1.6601 -0.9385 -1.8131
 5085SOL     OW26713   1.040   0.634  16.779  0.4734  0.9151  0.1048
 5085SOL    HW126714   0.988   0.712  16.797  0.4594  1.1464 -0.9561
 5085SOL    HW226715   1.125   0.648  16.820  0.3251 -0.6781  0.9608
 5086SOL     OW26716   0.634   1.787  10.502 -0.1506  0.3338  0.3491
 5086SOL    HW126717   0.717   1.831  10.523  0.2936 -0.4606  0.2726
 5086SOL    HW226718   0.569   1.840  10.549 -0.1457 -0.9913  1.8711
 5087SOL     OW26719   4.465   3.632   2.716  0.4067 -0.1780 -0.5317
 5087SOL    HW126720   4.384   3.581   2.712 -0.2674  0.8803 -0.2627
 5087SOL    HW226721   4.482   3.672   2.631 -0.1302 -2.0655 -1.5283
 5088SOL     OW26722   1.042   1.499   7.140 -0.2691  0.2825 -0.0564
 5088SOL    HW126723   1.057   1.438   7.212 -3.0872 -1.3939 -0.8877
 5088SOL    HW226724   0.947   1.507   7.147 -0.3354 -0.0546 -0.5679
 5089SOL     OW26725   4.576   1.676   8.281 -0.4474 -0.1477  0.4915
 5089SOL    HW126726   4.646   1.741   8.277  0.6190 -1.2562  0.9484
 5089SOL    HW226727   4.627   1.596   8.265 -0.5169 -0.2390  0.7232
 5090SOL     OW26728   0.440   4.086  15.282 -0.3748 -0.6544 -0.5013
 5090SOL    HW126729   0.502   4.158  15.273 -0.2467 -0.7355 -0.2509
 5090SOL    HW226730   0.474   4.044  15.360  0.0426 -0.2087 -0.4396
 5091SOL     OW26731   0.344   4.497   5.821  0.0016  0.4348 -0.4590
 5091SOL    HW126732   0.280   4.503   5.892  0.8473 -0.2690  0.3528
 5091SOL    HW226733   0.327   4.407   5.792 -0.5620  0.3031  0.2669
 5092SOL     OW26734   1.282   3.204   8.566  0.2686  0.6476 -0.2686
 5092SOL    HW126735   1.210   3.266   8.577 -1.5705 -1.3395 -1.1542
 5092SOL    HW226736   1.310   3.197   8.658 -0.9097 -1.5718 -0.0646
 5093SOL     OW26737   1.622   1.331  17.614  0.2640  0.5489  0.5893
 5093SOL    HW126738   1.650   1.322  17.523 -2.4367  2.2675 -0.4228
 5093SOL    HW226739   1.527   1.338  17.602 -0.0324 -1.0352  2.0482
 5094SOL     OW26740   1.091   0.317   4.001  0.5609 -0.3846  0.1978
 5094SOL    HW126741   1.128   0.377   3.936  3.1218 -3.5390 -1.2027
 5094SOL    HW226742   1.001   0.326   3.968  1.0916 -0.2485 -1.2135
 5095SOL     OW26743   1.899   2.764   2.211 -0.2625 -0.6539 -0.5059
 5095SOL    HW126744   1.845   2.843   2.207 -0.6730 -0.8521  1.1025
 5095SOL    HW226745   1.983   2.806   2.190 -0.4449  0.0381  0.1510
 5096SOL     OW26746   0.703   4.374  10.075 -0.0454 -0.2578  0.4542
 5096SOL    HW126747   0.634   4.429  10.113  0.2965 -0.6230  1.5952
 5096SOL    HW226748   0.780   4.421  10.107 -0.5162  0.1900  0.9189
 5097SOL     OW26749   0.377   3.209   6.331 -0.1740  0.2322  0.0037
 5097SOL    HW126750   0.301   3.216   6.273  0.2040  1.8419 -0.3019
 5097SOL    HW226751   0.346   3.279   6.388  1.3545 -0.1403  1.2726
 5098SOL     OW26752   2.310   1.115   3.681 -0.3162  0.1520 -0.4309
 5098SOL    HW126753   2.317   1.210   3.685  0.9399 -0.0043  1.0473
 5098SOL    HW226754   2.328   1.086   3.770  0.9160  0.3249 -0.6280
 5099SOL     OW26755   4.668   1.014   2.350 -0.7285 -0.0418 -0.2722
 5099SOL    HW126756   4.611   1.026   2.274 -1.9895 -1.9318  0.3660
 5099SOL    HW226757   4.640   1.098   2.386 -0.0236  1.0699 -2.3347
 5100SOL     OW26758   1.444   4.411   5.504 -0.1088  0.2794  0.8656
 5100SOL    HW126759   1.386   4.346   5.543 -0.1433  0.6617  1.4518
 5100SOL    HW226760   1.511   4.399   5.572  1.7218  2.0500 -0.6289
 5101SOL     OW26761   2.093   1.953   3.165  0.1075  0.4566 -0.6321
 5101SOL    HW126762   2.047   2.034   3.146  2.2320  1.0060 -3.4245
 5101SOL    HW226763   2.143   1.976   3.244  0.3160  0.2501 -0.7021
 5102SOL     OW26764   4.474   2.030  12.040  0.8810 -0.1590  0.3952
 5102SOL    HW126765   4.394   2.076  12.015  1.8036  1.8873  1.2320
 5102SOL    HW226766   4.452   1.942  12.008 -0.3877  0.0753  0.6369
 5103SOL     OW26767   2.722   2.549  11.651 -0.3125 -0.4214  0.0855
 5103SOL    HW126768   2.668   2.622  11.680  0.3105 -0.4060  1.2147
 5103SOL    HW226769   2.666   2.502  11.589 -1.9963  0.9842  0.5574
 5104SOL     OW26770   4.544   4.060   3.983 -0.5261 -0.4236  1.0835
 5104SOL    HW126771   4.581   4.132   4.033 -3.3396  0.6831  1.6210
 5104SOL    HW226772   4.477   4.100   3.926  1.2376 -0.2241 -0.8416
 5105SOL     OW26773   1.306   0.639   7.080  0.4260 -0.3353  0.1055
 5105SOL    HW126774   1.287   0.550   7.050  1.4122 -0.7254  0.6549
 5105SOL    HW226775   1.399   0.643   7.101  0.6243 -1.3243 -0.6158
 5106SOL     OW26776   1.780   2.227   9.880 -0.1469 -0.0815  0.0532
 5106SOL    HW126777   1.812   2.304   9.926 -1.8458  0.1414  0.8468
 5106SOL    HW226778   1.689   2.254   9.877 -0.5933 -1.5691  0.0563
 5107SOL     OW26779   0.961   3.848   8.388  0.3072  0.3378 -0.4793
 5107SOL    HW126780   0.895   3.895   8.337  1.0829 -0.0661 -1.8619
 5107SOL    HW226781   1.011   3.917   8.432 -0.4158  0.4109  0.2173
 5108SOL     OW26782   1.053   2.359  13.631 -0.0710  0.1131 -0.1990
 5108SOL    HW126783   1.106   2.393  13.558 -1.1717  3.3067  0.4894
 5108SOL    HW226784   0.992   2.300  13.586 -0.0972  0.5512 -0.7525
 5109SOL     OW26785   3.006   4.141   7.689  0.1919  0.3805 -0.1993
 5109SOL    HW126786   3.072   4.118   7.624 -1.0735 -0.7606 -1.0747
 5109SOL    HW226787   2.928   4.087   7.675  1.2842 -1.1765 -0.3334
 5110SOL     OW26788   0.860   3.171  16.319  0.9593  0.4117 -0.5877
 5110SOL    HW126789   0.863   3.161  16.414  2.7389 -0.6267 -0.7577
 5110SOL    HW226790   0.812   3.251  16.299 -0.6200 -0.3840 -0.0131
 5111SOL     OW26791   1.580   4.547   6.048  0.0150 -0.0930 -0.0858
 5111SOL    HW126792   1.571   4.610   6.119 -1.0880 -0.2638 -0.0607
 5111SOL    HW226793   1.491   4.511   6.047  0.3924 -0.9785 -1.5813
 5112SOL     OW26794   2.964   1.353   7.691 -0.0391  0.0382  0.7984
 5112SOL    HW126795   3.024   1.369   7.618 -0.0120  1.2707  1.0930
 5112SOL    HW226796   2.953   1.258   7.684 -0.2399  0.2035 -1.0545
 5113SOL     OW26797   1.322   3.312   3.533  0.3235 -0.6556  1.1218
 5113SOL    HW126798   1.237   3.350   3.556 -0.6611 -1.2618 -1.4874
 5113SOL    HW226799   1.364   3.300   3.618 -1.5509 -0.5282  2.0649
 5114SOL     OW26800   1.472   0.767   5.716 -0.1043  0.2643 -0.0070
 5114SOL    HW126801   1.428   0.685   5.692  1.0459 -0.6895  1.0898
 5114SOL    HW226802   1.482   0.742   5.808  0.1233 -1.4952 -0.5055
 5115SOL     OW26803   3.053   2.659   8.817 -0.0859  0.0876 -0.2350
 5115SOL    HW126804   3.133   2.695   8.781 -0.2333 -0.3273 -0.9783
 5115SOL    HW226805   3.072   2.679   8.909 -3.2793  4.3466 -0.5144
 5116SOL     OW26806   0.727   4.458   5.039 -0.1684  0.2649  0.0867
 5116SOL    HW126807   0.745   4.374   4.999 -0.8852 -0.3150  0.9642
 5116SOL    HW226808   0.722   4.438   5.133 -1.1043  0.5438  0.0967
 5117SOL     OW26809   2.748   0.782   1.365  0.3159 -1.1179 -0.1941
 5117SOL    HW126810   2.750   0.842   1.290 -0.6769 -1.4818 -0.5206
 5117SOL    HW226811   2.718   0.841   1.434 -3.0956  2.0771 -4.3966
 5118SOL     OW26812   2.931   2.615  10.937 -0.3758 -0.1911 -0.6249
 5118SOL    HW126813   2.948   2.623  10.843  2.6705 -0.0238 -0.0793
 5118SOL    HW226814   2.911   2.521  10.943 -1.2500  0.1758  2.1443
 5119SOL     OW26815   4.346   1.463   4.891 -0.0351 -0.1226  0.4726
 5119SOL    HW126816   4.370   1.430   4.804 -0.5844  2.3328 -0.6243
 5119SOL    HW226817   4.377   1.553   4.876 -0.1886 -0.1008  0.2909
 5120SOL     OW26818   3.394   1.811  10.231  0.7398 -0.4907 -0.4142
 5120SOL    HW126819   3.489   1.808  10.235  0.7520  1.3776  0.4321
 5120SOL    HW226820   3.379   1.801  10.325 -3.1084  1.5677 -0.8225
 5121SOL     OW26821   3.972   0.217   9.267 -0.2066  0.1631 -0.1599
 5121SOL    HW126822   3.960   0.153   9.337 -0.8282  1.9551  1.3758
 5121SOL    HW226823   3.879   0.232   9.253 -0.1920  0.3444 -0.0723
 5122SOL     OW26824   3.203   4.524   6.417 -0.0778 -0.0823  0.2746
 5122SOL    HW126825   3.146   4.579   6.364  0.7551  0.3804 -0.1233
 5122SOL    HW226826   3.151   4.443   6.421  0.8662 -0.6779  0.5155
 5123SOL     OW26827   2.852   0.371   0.168 -0.7171  0.0168  0.4028
 5123SOL    HW126828   2.821   0.284   0.142 -1.3934  0.1261  0.8599
 5123SOL    HW226829   2.887   0.397   0.083 -1.3363 -0.5928 -0.0340
 5124SOL     OW26830   1.889   0.028   8.048  0.6357 -0.2565 -0.2068
 5124SOL    HW126831   1.861   4.664   8.088 -1.5823 -0.0272 -1.2721
 5124SOL    HW226832   1.914   0.074   8.128 -0.9548  2.3040 -1.1852
 5125SOL     OW26833   1.995   1.126   7.480  0.0768  0.1070 -0.2338
 5125SOL    HW126834   2.024   1.096   7.566  1.1343  2.7996  0.3413
 5125SOL    HW226835   2.042   1.067   7.422  1.4749 -1.6772  2.7454
 5126SOL     OW26836   3.453   2.299  11.861  0.0911  0.2874  0.1438
 5126SOL    HW126837   3.385   2.366  11.864 -1.0496 -0.8924  0.8197
 5126SOL    HW226838   3.411   2.219  11.893  0.4825  0.9376  2.3337
 5127SOL     OW26839   2.619   4.632   9.928  0.3855  0.1011  0.0726
 5127SOL    HW126840   2.558   4.586   9.986 -0.7077  0.4034 -0.8476
 5127SOL    HW226841   2.606   4.715   9.974 -3.2086 -0.4469  0.0255
 5128SOL     OW26842   3.575   0.353   3.252  0.1811 -0.6423 -0.3464
 5128SOL    HW126843   3.530   0.325   3.331 -0.9609 -0.1468 -0.8255
 5128SOL    HW226844   3.548   0.444   3.243  3.1392  0.3875  1.1210
 5129SOL     OW26845   4.157   2.794   5.359  0.5134 -0.7685  0.1939
 5129SOL    HW126846   4.210   2.747   5.423 -0.0964 -1.6161  0.0775
 5129SOL    HW226847   4.144   2.880   5.400 -3.4678 -1.8578  1.2295
 5130SOL     OW26848   3.406   3.906   6.612 -0.3275 -0.1400 -0.2703
 5130SOL    HW126849   3.377   3.997   6.610 -0.1039 -0.0642  0.0513
 5130SOL    HW226850   3.351   3.873   6.541  0.3487  0.5552 -1.1164
 5131SOL     OW26851   2.128   1.357   7.019  0.2869  0.6853 -0.2370
 5131SOL    HW126852   2.085   1.373   6.935 -0.6546  0.9939  0.2991
 5131SOL    HW226853   2.158   1.446   7.034  0.5170  0.6345 -0.3980
 5132SOL     OW26854   2.848   1.683   8.234 -0.2047  0.6280  0.8760
 5132SOL    HW126855   2.896   1.717   8.309  1.8059  2.2098 -1.1276
 5132SOL    HW226856   2.784   1.753   8.220 -0.0756  0.9303  1.8447
 5133SOL     OW26857   1.536   1.622   0.586  0.0519 -0.0496  0.0451
 5133SOL    HW126858   1.557   1.642   0.495  0.2340 -0.9344 -0.1046
 5133SOL    HW226859   1.470   1.553   0.575  0.1672 -0.4185  1.6910
 5134SOL     OW26860   4.108   3.904   5.473 -0.1242  0.4681 -0.0276
 5134SOL    HW126861   4.020   3.914   5.509 -0.3948 -1.4129 -0.1647
 5134SOL    HW226862   4.100   3.816   5.436 -4.8435  1.3878 -1.2013
 5135SOL     OW26863   2.994   0.769   4.835  0.2075 -0.3184 -0.4438
 5135SOL    HW126864   3.002   0.852   4.881 -1.1332 -0.6522  0.3742
 5135SOL    HW226865   3.008   0.715   4.913 -2.2836 -1.2865 -0.6701
 5136SOL     OW26866   0.880   3.030  11.909 -0.3362  0.0993  0.0308
 5136SOL    HW126867   0.971   3.044  11.936  0.3766  1.2531 -2.9704
 5136SOL    HW226868   0.886   3.005  11.817 -2.1783 -1.1613  0.2543
 5137SOL     OW26869   1.784   3.576   3.493  0.1925 -0.6325 -0.1671
 5137SOL    HW126870   1.700   3.581   3.539 -0.1678 -3.3505 -0.5539
 5137SOL    HW226871   1.768   3.650   3.434  0.4083  0.0472  0.6270
 5138SOL     OW26872   2.146   2.553   6.554  0.6814 -0.2000 -0.2171
 5138SOL    HW126873   2.195   2.635   6.549  0.8604 -0.2076  1.2307
 5138SOL    HW226874   2.155   2.540   6.649  2.3956 -0.6276 -0.4472
 5139SOL     OW26875   3.859   1.807   3.802  0.2229  0.4635 -0.1457
 5139SOL    HW126876   3.914   1.730   3.816  0.1594  0.1735 -1.4822
 5139SOL    HW226877   3.878   1.828   3.711 -0.2200 -0.5152 -0.4615
 5140SOL     OW26878   1.217   4.434   9.320  0.4108 -0.4962  0.1643
 5140SOL    HW126879   1.142   4.413   9.377  2.4386 -1.0741  2.6290
 5140SOL    HW226880   1.237   4.353   9.273  2.4387 -1.0270  1.9572
 5141SOL     OW26881   0.420   1.338  14.988 -0.3708  0.5964  0.2785
 5141SOL    HW126882   0.328   1.360  14.976 -0.7515 -1.1421 -0.0252
 5141SOL    HW226883   0.452   1.346  14.898  0.6597  1.9671  0.7690
 5142SOL     OW26884   4.245   3.618   8.903  0.2085 -0.0646 -0.7423
 5142SOL    HW126885   4.279   3.552   8.843  1.5577 -0.9543  0.9989
 5142SOL    HW226886   4.166   3.568   8.920  0.6044 -0.2278  0.6468
 5143SOL     OW26887   2.098   1.408   1.053  0.0490  0.4183 -0.2208
 5143SOL    HW126888   2.132   1.463   1.124 -0.0891 -0.7470  0.7550
 5143SOL    HW226889   2.029   1.361   1.099  0.3213 -0.7079 -0.9516
 5144SOL     OW26890   3.050   2.517   4.027  0.3308 -0.4741 -0.7738
 5144SOL    HW126891   3.099   2.593   3.993  1.8522 -1.3343 -0.4990
 5144SOL    HW226892   3.044   2.463   3.949  0.1741  1.8156 -2.3582
 5145SOL     OW26893   2.361   1.181   9.117  0.3997 -0.3282  0.1869
 5145SOL    HW126894   2.292   1.152   9.058 -0.2218 -0.2858  0.8961
 5145SOL    HW226895   2.313   1.240   9.174  0.8335 -2.0250  2.3298
 5146SOL     OW26896   1.236   2.303   0.741 -0.3408  0.0949 -0.2252
 5146SOL    HW126897   1.275   2.372   0.796  0.4099 -0.9663  0.5963
 5146SOL    HW226898   1.286   2.231   0.779  1.5642  1.3844 -0.2514
 5147SOL     OW26899   1.196   4.686   7.071  0.0025 -0.2341  0.4922
 5147SOL    HW126900   1.281   4.657   7.038  0.5350  1.7996  0.0555
 5147SOL    HW226901   1.205   4.638   7.153  2.6215 -1.1869 -0.3449
 5148SOL     OW26902   0.553   2.124   6.456  0.3819  0.2099 -0.2679
 5148SOL    HW126903   0.583   2.061   6.390  1.1479 -0.2701  0.5271
 5148SOL    HW226904   0.631   2.122   6.512  0.5469 -0.4727 -0.5268
 5149SOL     OW26905   1.219   3.297  12.400  0.3319  0.2018  0.2040
 5149SOL    HW126906   1.304   3.339  12.411 -0.0573  0.5514  1.8248
 5149SOL    HW226907   1.176   3.353  12.465  1.2984  1.1012  0.0838
 5150SOL     OW26908   0.634   1.616  12.074  0.1681  0.5245  0.2139
 5150SOL    HW126909   0.546   1.585  12.052 -0.1915  0.9401  1.0614
 5150SOL    HW226910   0.628   1.705  12.039 -1.9083 -0.2624 -1.4176
 5151SOL     OW26911   1.879   0.020   5.454  0.1440  0.6469  0.5955
 5151SOL    HW126912   1.810   4.699   5.507 -1.8749 -0.1278 -2.6284
 5151SOL    HW226913   1.858   0.113   5.449 -0.2403  0.6102  1.5201
 5152SOL     OW26914   3.574   0.830   6.538  0.2881 -0.6691  0.1717
 5152SOL    HW126915   3.490   0.867   6.511 -0.6674 -0.9670  2.6936
 5152SOL    HW226916   3.541   0.764   6.599 -1.3134  1.0177  1.1209
 5153SOL     OW26917   0.386   3.817  17.062 -0.4034  0.2369 -1.0283
 5153SOL    HW126918   0.296   3.846  17.080  0.1070  0.2622  1.4788
 5153SOL    HW226919   0.365   3.734  17.018  1.3671 -0.1813 -1.0939
 5154SOL     OW26920   2.140   3.661   3.026  0.0695 -1.0648  0.4736
 5154SOL    HW126921   2.218   3.605   3.031 -1.0974 -2.5308  2.3592
 5154SOL    HW226922   2.099   3.644   3.111  0.5128 -1.4744  0.6091
 5155SOL     OW26923   3.546   4.000   0.188 -0.2474 -0.0416 -0.3347
 5155SOL    HW126924   3.592   3.930   0.142 -0.4087 -0.6566  0.4346
 5155SOL    HW226925   3.590   3.982   0.271 -0.7775  0.3158  0.0270
 5156SOL     OW26926   0.076   1.163   8.480  0.0975  0.5002 -0.4287
 5156SOL    HW126927   0.011   1.148   8.412  1.9257 -1.7151 -1.7395
 5156SOL    HW226928   0.081   1.258   8.478 -0.8434  0.5912  1.9132
 5157SOL     OW26929   2.452   4.042   2.771 -0.5612  0.4094  0.0133
 5157SOL    HW126930   2.512   4.019   2.842 -0.0737 -0.7486 -0.7741
 5157SOL    HW226931   2.455   4.138   2.770  0.1061  0.3846  0.0038
 5158SOL     OW26932   0.065   2.390   0.717  0.3827  0.7397  0.1490
 5158SOL    HW126933   0.038   2.382   0.809  0.3993  0.9534  0.1735
 5158SOL    HW226934   0.150   2.348   0.721 -0.6523 -1.2976  0.6326
 5159SOL     OW26935   1.032   3.431   5.881 -0.3315 -0.1963 -0.0329
 5159SOL    HW126936   1.008   3.385   5.800  0.1209 -1.0526  0.3169
 5159SOL    HW226937   1.127   3.423   5.872 -0.5833 -2.0613 -1.1232
 5160SOL     OW26938   2.298   3.715  16.367  0.1245 -0.2211 -0.0981
 5160SOL    HW126939   2.274   3.768  16.291  0.7362  0.1198 -0.0518
 5160SOL    HW226940   2.334   3.640  16.320 -1.3707 -1.3837  0.6254
 5161SOL     OW26941   3.624   1.881   6.877 -0.2766  0.4823  0.4375
 5161SOL    HW126942   3.590   1.970   6.886  1.4166  0.9970  1.7373
 5161SOL    HW226943   3.599   1.844   6.962 -0.4308  0.1749  0.2594
 5162SOL     OW26944   3.008   3.090   8.354  0.2207  0.3165 -0.8051
 5162SOL    HW126945   2.964   3.058   8.432  0.1911 -3.2219 -2.2492
 5162SOL    HW226946   2.945   3.153   8.320  0.2564  1.5109  1.3540
 5163SOL     OW26947   1.368   4.711  11.015  0.7065 -0.1568 -0.3009
 5163SOL    HW126948   1.369   4.624  10.977  1.5727 -0.5657  0.6542
 5163SOL    HW226949   1.351   4.696  11.108 -1.8067  1.7001 -0.4612
 5164SOL     OW26950   4.223   0.665   2.464  0.0234 -0.1984 -0.3895
 5164SOL    HW126951   4.196   0.640   2.375  1.5446  0.5608 -1.0784
 5164SOL    HW226952   4.226   0.579   2.507  1.0467 -0.3097 -0.6718
 5165SOL     OW26953   1.540   3.016   1.806 -0.3029  0.1172  0.4600
 5165SOL    HW126954   1.617   3.046   1.854  1.4332  0.0781 -2.3555
 5165SOL    HW226955   1.580   2.933   1.780  0.4340  0.4912  0.3998
 5166SOL     OW26956   0.858   0.335   4.904  0.4615 -0.4995 -0.1927
 5166SOL    HW126957   0.876   0.258   4.958  3.5105  1.2865  1.3189
 5166SOL    HW226958   0.904   0.313   4.823 -0.3656  0.6945 -0.9719
 5167SOL     OW26959   0.717   4.653   3.658  0.3022  0.3321  0.0821
 5167SOL    HW126960   0.751   0.023   3.656  2.5533 -0.4957  0.7880
 5167SOL    HW226961   0.658   4.656   3.733  1.8017 -0.7127  1.3091
 5168SOL     OW26962   0.904   1.483   4.235  0.4728 -0.2293  0.8101
 5168SOL    HW126963   0.945   1.535   4.303  1.2232  2.2820 -1.5767
 5168SOL    HW226964   0.968   1.412   4.240  2.4416  1.3818 -1.4790
 5169SOL     OW26965   2.283   2.381  10.196  0.0806 -0.2916 -0.0663
 5169SOL    HW126966   2.244   2.428  10.122  1.3611 -0.3997 -0.8091
 5169SOL    HW226967   2.296   2.300  10.148 -1.7306 -0.4568 -0.3033
 5170SOL     OW26968   0.092   0.017   2.152 -0.3314  0.4907 -0.1746
 5170SOL    HW126969   0.110   4.663   2.093 -0.8414  1.8529 -2.0287
 5170SOL    HW226970   0.178   0.059   2.144 -0.5626  0.8833 -0.5868
 5171SOL     OW26971   1.091   4.015   5.431  0.1768 -0.2498  0.5903
 5171SOL    HW126972   1.097   3.928   5.470 -3.5218 -0.1853  1.2782
 5171SOL    HW226973   1.081   3.986   5.341  0.3892 -0.9823  0.8034
 5172SOL     OW26974   1.946   0.299   4.339 -0.0795  0.4305  0.4406
 5172SOL    HW126975   1.931   0.216   4.384 -0.2279  0.4205  0.3740
 5172SOL    HW226976   2.016   0.339   4.390 -0.3660  0.2594  0.9655
 5173SOL     OW26977   3.810   0.450  10.517  0.7793 -0.8313  0.0737
 5173SOL    HW126978   3.771   0.404  10.442  0.3802  0.5704 -0.5692
 5173SOL    HW226979   3.897   0.452  10.477 -0.2363 -0.2775 -2.0853
 5174SOL     OW26980   0.002   4.294   7.502 -0.0794 -0.6608  0.1492
 5174SOL    HW126981   0.076   4.233   7.506 -0.8817 -1.7498 -1.7532
 5174SOL    HW226982   4.712   4.293   7.406  0.6953  1.3167  0.0605
 5175SOL     OW26983   4.447   2.608   8.099  0.0740  0.0053  0.9496
 5175SOL    HW126984   4.379   2.609   8.031 -0.6912  1.4181  1.7391
 5175SOL    HW226985   4.516   2.660   8.058  0.1580 -0.9282 -0.0913
 5176SOL     OW26986   2.739   1.925  15.103 -0.5874 -0.8923  0.0012
 5176SOL    HW126987   2.683   1.862  15.060 -0.6942 -1.6260  1.2327
 5176SOL    HW226988   2.822   1.877  15.099 -0.6258 -0.7841 -1.9273
 5177SOL     OW26989   1.342   0.228  17.413  0.1603  0.3253 -0.3987
 5177SOL    HW126990   1.420   0.274  17.443 -0.4230 -0.4611  2.2758
 5177SOL    HW226991   1.370   0.140  17.438  0.6459  1.1017  1.7412
 5178SOL     OW26992   1.191   1.162  14.902  0.8435  0.4015  0.1584
 5178SOL    HW126993   1.222   1.074  14.878  1.0528 -0.0646  2.1736
 5178SOL    HW226994   1.188   1.155  14.997 -3.6055 -1.9594 -0.1588
 5179SOL     OW26995   3.961   3.324   2.359  0.3103  0.6925 -0.3505
 5179SOL    HW126996   3.875   3.320   2.400  0.1122  3.1786 -0.5058
 5179SOL    HW226997   3.953   3.409   2.314 -0.1590  0.7163 -0.2209
 5180SOL     OW26998   3.656   0.814   5.867  0.2482  0.3301 -0.1969
 5180SOL    HW126999   3.736   0.811   5.920 -0.4055  1.6906  0.8668
 5180SOL    HW227000   3.589   0.798   5.933  1.5466  0.7441  1.2237
 5181SOL     OW27001   2.722   0.663   7.230 -0.1654  0.4535 -0.2905
 5181SOL    HW127002   2.754   0.743   7.271  1.7629 -0.4115 -0.1165
 5181SOL    HW227003   2.635   0.652   7.268 -0.2239  0.5836 -0.3853
 5182SOL     OW27004   2.209   1.788   4.938 -0.4445  0.0614  0.2233
 5182SOL    HW127005   2.180   1.838   4.862 -0.7722  0.2320  0.4589
 5182SOL    HW227006   2.294   1.827   4.957  0.7669 -2.2685 -0.4371
 5183SOL     OW27007   4.201   0.014   6.862  0.3773 -0.1430 -0.0462
 5183SOL    HW127008   4.132   4.668   6.878  1.2935 -0.9709  0.5653
 5183SOL    HW227009   4.220   0.006   6.768 -3.7461  0.9648 -0.9384
 5184SOL     OW27010   4.155   0.264  14.877 -0.1072  0.1996  0.2374
 5184SOL    HW127011   4.065   0.269  14.908 -0.4027 -0.7613 -0.4378
 5184SOL    HW227012   4.190   0.218  14.953  2.9892  0.1083 -1.2219
 5185SOL     OW27013   0.121   2.309   3.013 -0.5478  0.1716 -0.2182
 5185SOL    HW127014   0.167   2.332   2.932 -0.9126 -0.4616 -0.6082
 5185SOL    HW227015   0.054   2.248   2.983 -1.2917  1.0870 -0.3985
 5186SOL     OW27016   0.327   1.240   6.095  0.0679  0.1029  0.0717
 5186SOL    HW127017   0.305   1.333   6.098  1.2247  0.3819  0.1323
 5186SOL    HW227018   0.243   1.196   6.089 -0.8424  1.9730 -0.9613
 5187SOL     OW27019   2.079   3.123   5.689  0.0605 -0.6244  0.2837
 5187SOL    HW127020   2.043   3.176   5.618  2.6567  1.8415  0.7798
 5187SOL    HW227021   2.147   3.186   5.715 -0.3180 -0.4257  0.7840
 5188SOL     OW27022   0.539   0.403   2.789  0.2196 -0.0975 -0.0120
 5188SOL    HW127023   0.489   0.391   2.708  1.3502 -0.7699 -0.6170
 5188SOL    HW227024   0.585   0.319   2.795  1.6322  0.5913 -1.4315
 5189SOL     OW27025   3.652   0.155  16.881  0.2155 -0.0062 -0.8053
 5189SOL    HW127026   3.740   0.126  16.856  1.0218  1.4457  0.3760
 5189SOL    HW227027   3.607   0.110  16.810 -2.0565  2.2624 -0.8117
 5190SOL     OW27028   1.519   2.838   9.063  0.2776  0.6974 -0.3986
 5190SOL    HW127029   1.583   2.774   9.093 -0.4327 -0.0007 -0.3555
 5190SOL    HW227030   1.466   2.770   9.021 -0.7467  1.3396 -0.1546
 5191SOL     OW27031   2.707   4.234   4.028 -0.4452  0.0716  0.0613
 5191SOL    HW127032   2.746   4.216   4.114 -3.0865 -0.7238  1.0646
 5191SOL    HW227033   2.626   4.272   4.060 -0.8827 -0.5680 -0.2948
 5192SOL     OW27034   3.670   3.758   1.950  0.1403  0.2718 -0.1233
 5192SOL    HW127035   3.690   3.738   1.859 -3.1698 -1.0054 -0.5772
 5192SOL    HW227036   3.656   3.853   1.945  0.0832  0.2979  0.5907
 5193SOL     OW27037   1.872   3.764   8.776 -0.2198 -0.1633 -0.0174
 5193SOL    HW127038   1.848   3.712   8.852  0.6590  0.4115  0.6572
 5193SOL    HW227039   1.943   3.804   8.826  1.8224  0.0433 -3.0601
 5194SOL     OW27040   0.791   0.317   4.184  0.3308 -0.3022  0.3866
 5194SOL    HW127041   0.719   0.280   4.133  2.5552 -0.3009 -2.7289
 5194SOL    HW227042   0.835   0.362   4.112  1.0080 -1.5684  0.0183
 5195SOL     OW27043   2.937   1.042   9.033 -0.0486  0.2693  0.6663
 5195SOL    HW127044   2.934   1.128   8.991 -1.3983  0.5336  1.3047
 5195SOL    HW227045   2.974   1.056   9.121 -2.4217  2.1446  1.3553
 5196SOL     OW27046   2.073   3.088   6.401 -0.2429 -0.0782 -0.3383
 5196SOL    HW127047   2.043   3.069   6.312 -1.0050  1.2027 -0.3602
 5196SOL    HW227048   2.037   3.011   6.447  0.3788  0.4047  0.9565
 5197SOL     OW27049   1.656   0.608   3.270  0.1474  0.1095  0.5077
 5197SOL    HW127050   1.731   0.562   3.308 -1.1629 -0.9916  1.7573
 5197SOL    HW227051   1.682   0.608   3.178 -3.6503 -0.7996 -0.5580
 5198SOL     OW27052   0.980   0.299  14.439  0.5491 -1.1437 -0.0635
 5198SOL    HW127053   0.916   0.326  14.506  2.5716 -1.2349  1.8763
 5198SOL    HW227054   1.029   0.230  14.483  0.3197  0.1964  2.3038
 5199SOL     OW27055   2.071   3.219   8.868 -0.1301 -0.0136  0.5967
 5199SOL    HW127056   2.007   3.218   8.939  1.6547  0.1826  2.2125
 5199SOL    HW227057   2.148   3.206   8.923  0.9666  1.3003 -0.6213
 5200SOL     OW27058   3.488   1.292   4.673  0.1949  0.1885 -0.1135
 5200SOL    HW127059   3.559   1.229   4.666  1.2005  1.5656 -2.2678
 5200SOL    HW227060   3.512   1.324   4.760 -1.5676 -0.0989  0.4732
 5201SOL     OW27061   3.967   4.355   2.964 -0.0588  0.1643  0.5180
 5201SOL    HW127062   3.932   4.390   3.046 -0.5362  1.0866 -0.0772
 5201SOL    HW227063   3.953   4.260   2.965  1.8058 -0.1061 -0.0749
 5202SOL     OW27064   0.364   0.888   5.653  0.2652  0.1183 -0.3385
 5202SOL    HW127065   0.397   0.832   5.724  3.0371  0.5521 -1.2648
 5202SOL    HW227066   0.443   0.892   5.599  2.7950 -0.4198  3.3007
 5203SOL     OW27067   3.112   3.384   8.686  0.1821 -0.5426 -0.2175
 5203SOL    HW127068   3.176   3.347   8.746 -1.4000 -1.4022  0.9146
 5203SOL    HW227069   3.149   3.365   8.599 -1.1709 -0.5585 -0.7906
 5204SOL     OW27070   2.625   1.868   0.172 -0.0382 -0.4389  0.7538
 5204SOL    HW127071   2.663   1.939   0.223  0.2543 -1.1870  1.5749
 5204SOL    HW227072   2.585   1.904   0.093  0.8197  2.3337  1.5963
 5205SOL     OW27073   3.066   3.786   2.780 -0.7275  0.1299  0.0919
 5205SOL    HW127074   3.076   3.736   2.699 -0.7467 -1.8501  1.3154
 5205SOL    HW227075   3.088   3.874   2.752  0.5733  0.2766  1.6034
 5206SOL     OW27076   3.901   1.983   6.198  0.1825 -0.7578  0.1214
 5206SOL    HW127077   3.835   1.931   6.152  1.9402 -2.3983 -0.5012
 5206SOL    HW227078   3.970   1.984   6.131  1.3085  1.8226  1.3206
 5207SOL     OW27079   2.090   2.009  11.315  0.4069 -0.1004 -0.0723
 5207SOL    HW127080   2.170   2.011  11.366 -0.0936 -0.0534  0.7104
 5207SOL    HW227081   2.079   1.918  11.289 -0.0560 -0.0967  0.1190
 5208SOL     OW27082   1.136   1.789   7.616 -0.4086  0.0779 -0.0470
 5208SOL    HW127083   1.070   1.722   7.597 -1.3465  1.4084 -1.4315
 5208SOL    HW227084   1.208   1.741   7.575  0.5618 -1.4752  3.4794
 5209SOL     OW27085   1.116   2.074   2.600 -0.2951 -0.4367  0.2941
 5209SOL    HW127086   1.043   2.131   2.624  0.5263  0.6110  0.2762
 5209SOL    HW227087   1.156   2.126   2.531 -2.0013 -1.1228 -1.2039
 5210SOL     OW27088   1.797   2.655  15.303 -0.4221 -0.3564 -0.3377
 5210SOL    HW127089   1.726   2.591  15.311  0.2126 -0.4795  4.6323
 5210SOL    HW227090   1.793   2.676  15.210  1.3809  2.5006  0.2296
 5211SOL     OW27091   3.653   3.916  10.937 -0.7227 -0.1910  0.5085
 5211SOL    HW127092   3.632   3.963  10.856 -1.0892  0.3787  0.9384
 5211SOL    HW227093   3.573   3.871  10.963  0.1113 -0.3599  2.7227
 5212SOL     OW27094   0.235   4.567  13.945  0.1056  0.3396  0.0545
 5212SOL    HW127095   0.256   4.615  13.864 -0.2552  1.1330  0.4371
 5212SOL    HW227096   0.290   4.489  13.935 -2.5867 -1.5850  0.1724
 5213SOL     OW27097   2.950   1.171  17.613 -0.5540  0.2052 -0.2501
 5213SOL    HW127098   2.859   1.197  17.627 -0.3186  1.2414 -0.6591
 5213SOL    HW227099   2.994   1.181   0.019  0.8178 -1.1009 -0.8015
 5214SOL     OW27100   2.335   3.494  17.409 -0.1695  0.4254 -0.4427
 5214SOL    HW127101   2.316   3.586  17.391 -0.2802  0.4715 -0.0840
 5214SOL    HW227102   2.260   3.455  17.455 -0.8946  1.5097 -0.7064
 5215SOL     OW27103   3.123   3.844   4.688 -0.0020 -0.1016  0.2714
 5215SOL    HW127104   3.161   3.914   4.636  2.2923 -0.5590  1.3385
 5215SOL    HW227105   3.181   3.770   4.671 -0.0937  0.7603 -3.8764
 5216SOL     OW27106   0.104   3.319  14.402  0.6427  0.1915 -0.0491
 5216SOL    HW127107   0.190   3.302  14.363 -0.0960 -1.3827 -0.9887
 5216SOL    HW227108   0.131   3.304  14.492 -0.2396 -3.0623 -0.3246
 5217SOL     OW27109   2.976   4.510   8.648  0.2756  0.0004 -0.0088
 5217SOL    HW127110   3.070   4.492   8.646  0.2894  0.0084  0.6564
 5217SOL    HW227111   2.951   4.498   8.556  2.6958  3.4722 -1.1306
 5218SOL     OW27112   1.901   3.294   5.992 -0.3878  0.1100 -1.0572
 5218SOL    HW127113   1.836   3.346   6.039 -0.8256 -0.3233 -1.1668
 5218SOL    HW227114   1.863   3.311   5.905 -3.0907 -0.5063  0.0100
 5219SOL     OW27115   2.961   1.375   1.111  0.1745 -0.2850  0.4665
 5219SOL    HW127116   2.969   1.285   1.144  1.6480 -0.4980 -0.4272
 5219SOL    HW227117   2.895   1.415   1.166  1.3740 -0.3322  1.9318
 5220SOL     OW27118   3.272   3.600   1.379 -0.5312  0.1395 -0.9299
 5220SOL    HW127119   3.356   3.641   1.395 -1.1409  0.7185  0.8062
 5220SOL    HW227120   3.259   3.546   1.457 -0.6178  1.0873 -0.2854
 5221SOL     OW27121   2.841   0.105   2.085 -0.0421  0.7193 -0.2884
 5221SOL    HW127122   2.856   0.168   2.015 -1.4747 -1.9322 -3.0009
 5221SOL    HW227123   2.842   0.158   2.165  0.1214 -1.0292  0.8861
 5222SOL     OW27124   2.075   0.983  14.324 -0.4519  0.3808  0.0926
 5222SOL    HW127125   1.996   0.986  14.377 -2.1255 -1.5065 -2.2890
 5222SOL    HW227126   2.089   1.076  14.308 -0.8551  0.1318 -1.7556
 5223SOL     OW27127   0.161   4.197   6.496  0.4005 -0.2379  0.3064
 5223SOL    HW127128   0.166   4.260   6.568 -0.5369 -1.5461  1.5089
 5223SOL    HW227129   0.178   4.109   6.530  3.8187  1.1166  2.0216
 5224SOL     OW27130   0.235   3.033  11.089  0.6514 -0.2465 -0.0757
 5224SOL    HW127131   0.253   2.942  11.068 -0.7301 -0.1645 -1.6573
 5224SOL    HW227132   0.317   3.044  11.137  0.1356 -1.0810  0.9981
 5225SOL     OW27133   0.160   2.785   4.630  0.1556  0.5873 -0.7231
 5225SOL    HW127134   0.163   2.839   4.552 -1.4709 -2.0871 -2.6148
 5225SOL    HW227135   0.177   2.855   4.694 -1.0941  0.8098 -0.6467
 5226SOL     OW27136   3.585   0.213   8.905  0.2405 -1.0760 -0.1779
 5226SOL    HW127137   3.529   0.288   8.920  1.6786  0.0758 -0.5300
 5226SOL    HW227138   3.526   0.144   8.937  0.1641 -1.5173 -1.2837
 5227SOL     OW27139   0.796   1.186   6.506 -0.2827  0.2611 -0.5399
 5227SOL    HW127140   0.725   1.130   6.537 -0.1810  1.5713  2.0475
 5227SOL    HW227141   0.837   1.126   6.444 -0.7467 -0.6720  0.0545
 5228SOL     OW27142   4.266   1.452   5.961  0.2103 -0.4325  0.3802
 5228SOL    HW127143   4.305   1.530   6.001 -2.0020  0.0442  1.5979
 5228SOL    HW227144   4.340   1.392   5.974  0.3364  0.0981  2.0798
 5229SOL     OW27145   1.905   1.044  16.027  0.2526  0.6350 -0.0176
 5229SOL    HW127146   1.908   1.082  16.115  0.0226 -0.1057  0.3152
 5229SOL    HW227147   1.974   1.099  15.992  0.1309 -0.0707 -1.3414
 5230SOL     OW27148   1.312   3.589   7.933 -0.3030  0.1234 -0.1361
 5230SOL    HW127149   1.246   3.650   7.967 -1.1535 -2.3212  2.5937
 5230SOL    HW227150   1.378   3.605   8.000  0.0973 -2.4294  0.0712
 5231SOL     OW27151   1.665   3.175   3.187 -0.1093  0.6082  0.1251
 5231SOL    HW127152   1.647   3.235   3.115 -1.6563 -1.0691 -0.8743
 5231SOL    HW227153   1.680   3.232   3.263 -1.0093  0.0600  0.7082
 5232SOL     OW27154   4.593   1.997   9.525 -0.3690 -0.3970 -0.4548
 5232SOL    HW127155   4.681   2.033   9.516  0.5463 -2.1160  1.7120
 5232SOL    HW227156   4.611   1.921   9.581 -0.2803 -0.5217 -0.6502
 5233SOL     OW27157   4.577   1.274   6.518 -0.5939 -0.2055  0.3462
 5233SOL    HW127158   4.493   1.321   6.514 -1.3803 -1.5423  0.9768
 5233SOL    HW227159   4.559   1.210   6.587  1.8013 -3.4030 -2.0721
 5234SOL     OW27160   4.246   4.314   6.258  0.5156 -0.1793  0.6492
 5234SOL    HW127161   4.240   4.256   6.182  0.9190  1.1397 -0.3880
 5234SOL    HW227162   4.180   4.273   6.313 -0.9513  0.9164 -0.3074
 5235SOL     OW27163   1.545   2.921  15.476 -0.2889  0.6836  0.3162
 5235SOL    HW127164   1.611   2.895  15.540 -0.5499  1.2666  0.8240
 5235SOL    HW227165   1.477   2.857  15.494 -0.0792  0.5293  0.5610
 5236SOL     OW27166   3.335   0.699   9.180 -0.1939  0.6243 -0.2787
 5236SOL    HW127167   3.374   0.612   9.192 -0.9304  0.2374 -0.6388
 5236SOL    HW227168   3.396   0.725   9.111  0.7084  2.7705  1.3504
 5237SOL     OW27169   0.007   1.146  10.735 -0.0302 -0.1078 -0.2572
 5237SOL    HW127170   4.718   1.143  10.830  1.6497 -3.0046 -0.2306
 5237SOL    HW227171   0.068   1.214  10.710 -1.3204  1.4373  0.7775
 5238SOL     OW27172   1.689   3.271   9.398 -0.6192 -0.3263 -0.2359
 5238SOL    HW127173   1.605   3.316   9.384  0.4807  1.6301 -0.4810
 5238SOL    HW227174   1.731   3.300   9.318  0.3026  2.0543  1.1254
 5239SOL     OW27175   4.709   3.979   6.335  0.3162  0.3007  0.4013
 5239SOL    HW127176   0.035   4.006   6.414 -0.2732  0.0880  0.8058
 5239SOL    HW227177   4.666   4.059   6.306 -0.5807 -0.5570 -0.6320
 5240SOL     OW27178   1.575   3.913  13.135 -0.6272 -0.0283 -0.1762
 5240SOL    HW127179   1.579   3.887  13.227 -0.4024  2.0782  0.4220
 5240SOL    HW227180   1.667   3.900  13.111 -0.6585 -0.8773  0.1799
 5241SOL     OW27181   1.839   1.278   1.772  0.4763 -0.1828  0.6150
 5241SOL    HW127182   1.777   1.337   1.730  0.8503 -0.9108 -0.9236
 5241SOL    HW227183   1.781   1.261   1.847 -1.1659  2.2623 -0.1114
 5242SOL     OW27184   1.199   3.825   1.472 -0.1470 -0.4278  0.3567
 5242SOL    HW127185   1.118   3.863   1.436  1.1349  1.2815 -0.7741
 5242SOL    HW227186   1.199   3.741   1.427 -2.6688  0.1222 -0.6693
 5243SOL     OW27187   3.805   3.805  10.136 -0.2099  0.2822 -0.1129
 5243SOL    HW127188   3.733   3.779  10.194 -0.6693 -0.4481 -1.0135
 5243SOL    HW227189   3.857   3.855  10.199 -0.6654 -1.6020  1.7765
 5244SOL     OW27190   1.167   2.825  12.500  0.1409 -0.3739  0.4878
 5244SOL    HW127191   1.101   2.798  12.436  0.9838 -0.9217 -0.1503
 5244SOL    HW227192   1.244   2.845  12.447 -0.3566 -2.0058 -0.8354
 5245SOL     OW27193   2.521   3.313   5.184  0.1823  0.2196  0.0837
 5245SOL    HW127194   2.542   3.313   5.091 -0.5826 -1.3105 -0.1031
 5245SOL    HW227195   2.582   3.384   5.203  0.1534 -0.2375  1.8916
 5246SOL     OW27196   0.476   3.037  15.381 -0.3716  0.5842 -0.0368
 5246SOL    HW127197   0.412   2.970  15.406  0.3609 -0.3372 -0.6241
 5246SOL    HW227198   0.453   3.108  15.440  0.9047  0.7040  0.3064
 5247SOL     OW27199   0.684   3.711  16.318 -0.3900 -0.1307 -0.2727
 5247SOL    HW127200   0.640   3.679  16.240 -1.1492 -0.7591  0.4098
 5247SOL    HW227201   0.609   3.764  16.345  0.3534  0.8293 -0.1154
 5248SOL     OW27202   2.741   3.102   6.621 -0.2102  0.1153  0.7602
 5248SOL    HW127203   2.717   3.009   6.615  2.7135 -0.6385  0.6435
 5248SOL    HW227204   2.665   3.143   6.579  1.1353  0.9360 -0.8638
 5249SOL     OW27205   2.119   1.070   4.884  0.3612  0.2236  0.3398
 5249SOL    HW127206   2.188   1.043   4.823  0.0707 -0.9358  0.5300
 5249SOL    HW227207   2.047   1.030   4.836 -0.0235 -0.0762  1.1757
 5250SOL     OW27208   2.667   0.904   8.838  0.4611 -0.2928  0.3336
 5250SOL    HW127209   2.665   0.951   8.921 -1.1933 -0.8426  0.6044
 5250SOL    HW227210   2.656   0.977   8.776  2.3231 -1.0025 -0.8530
 5251SOL     OW27211   0.324   2.574   4.680  0.3785  0.3023  0.1884
 5251SOL    HW127212   0.253   2.638   4.674  1.4872  1.4878 -0.1595
 5251SOL    HW227213   0.383   2.614   4.744  1.7289 -1.4241  0.0398
 5252SOL     OW27214   0.215   0.124   6.794 -0.9387 -0.1579 -0.7421
 5252SOL    HW127215   0.155   0.049   6.789 -0.7019 -0.5568  2.5389
 5252SOL    HW227216   0.224   0.115   6.889  1.3263  3.5297 -0.6050
 5253SOL     OW27217   3.343   3.248   4.209  0.3899  0.4264  0.4724
 5253SOL    HW127218   3.395   3.320   4.243 -1.8240  1.8620  0.7852
 5253SOL    HW227219   3.400   3.205   4.145 -0.7284  0.3662 -0.4689
 5254SOL     OW27220   4.583   0.953   1.631 -0.4042 -0.4718  0.2215
 5254SOL    HW127221   4.600   0.868   1.672  0.6029  0.5158  1.8879
 5254SOL    HW227222   4.660   0.997   1.667  0.1478 -1.8498  0.7335
 5255SOL     OW27223   1.999   2.078   9.920 -0.8124  0.2408  0.2059
 5255SOL    HW127224   1.905   2.073   9.908  0.0114 -4.1696 -4.4094
 5255SOL    HW227225   2.034   2.150   9.867  0.3968 -0.7302 -0.3426
 5256SOL     OW27226   3.864   3.876  16.809  0.1741 -0.1270 -0.2908
 5256SOL    HW127227   3.773   3.884  16.780  1.0231  0.8885 -2.6450
 5256SOL    HW227228   3.849   3.810  16.877  0.9498  1.5023  1.4495
 5257SOL     OW27229   0.659   3.210  17.660 -0.1643  0.4574 -0.1586
 5257SOL    HW127230   0.607   3.280   0.021 -0.7753  0.7245 -1.4196
 5257SOL    HW227231   0.653   3.225  17.566 -0.9089 -1.7688 -0.4655
 5258SOL     OW27232   0.098   2.119   9.783 -0.4863 -0.2842  0.2312
 5258SOL    HW127233   0.025   2.180   9.796  0.8517  0.9261  2.1067
 5258SOL    HW227234   0.127   2.089   9.869  0.0685 -0.9667 -0.1910
 5259SOL     OW27235   1.373   0.135   5.314 -0.6251  0.0231  0.1661
 5259SOL    HW127236   1.340   0.076   5.381  0.1385 -0.8837 -0.2637
 5259SOL    HW227237   1.415   0.082   5.247  1.4129 -1.2007  2.3921
 5260SOL     OW27238   3.348   0.860   4.737  0.0397  0.4219  0.5395
 5260SOL    HW127239   3.329   0.770   4.710  1.2147  0.8621 -1.7349
 5260SOL    HW227240   3.431   0.873   4.691 -0.0604 -0.9376 -0.0499
 5261SOL     OW27241   0.536   0.232  14.440  0.2244  0.5378  0.2897
 5261SOL    HW127242   0.442   0.250  14.441  0.3510  1.2953 -0.7939
 5261SOL    HW227243   0.579   0.260  14.359  2.0004 -0.2633  0.9468
 5262SOL     OW27244   1.633   0.243  17.121 -0.4422  0.2366  0.6266
 5262SOL    HW127245   1.597   0.159  17.148 -2.3366  1.8238  3.0449
 5262SOL    HW227246   1.727   0.232  17.110 -0.9391 -0.4739 -2.8622
 5263SOL     OW27247   3.864   3.508   2.149  0.8105  0.4766  0.0132
 5263SOL    HW127248   3.907   3.591   2.130  0.1939  0.8200  0.0882
 5263SOL    HW227249   3.774   3.534   2.129 -0.3897 -1.1480  3.2323
 5264SOL     OW27250   1.916   4.640   3.350  0.0922  0.4953  0.2589
 5264SOL    HW127251   1.978   4.574   3.319  0.3385  0.2903  1.1990
 5264SOL    HW227252   1.907   4.696   3.273 -0.7027 -0.3609 -0.2682
 5265SOL     OW27253   2.186   0.007   6.705  0.3957  0.5012  0.7419
 5265SOL    HW127254   2.191   4.639   6.745 -1.7192  0.4248  0.8173
 5265SOL    HW227255   2.147   0.067   6.768 -1.6824  0.0285 -0.0801
 5266SOL     OW27256   3.426   3.031   3.654 -0.3222  0.0735 -0.6555
 5266SOL    HW127257   3.436   2.951   3.603  0.1030  0.6676 -1.5060
 5266SOL    HW227258   3.367   3.088   3.605  0.8841  0.3605 -1.7722
 5267SOL     OW27259   4.295   4.060   8.241 -0.0898  0.6421 -0.2232
 5267SOL    HW127260   4.349   3.992   8.281 -1.2126 -0.5021 -0.6664
 5267SOL    HW227261   4.239   4.003   8.189  0.8418 -0.3175 -0.1646
 5268SOL     OW27262   2.801   0.288   7.981 -0.0680 -0.1078  0.2889
 5268SOL    HW127263   2.714   0.283   8.020 -0.0290  1.6518  0.5972
 5268SOL    HW227264   2.861   0.318   8.050  0.5771  1.7803 -1.0914
 5269SOL     OW27265   4.317   1.050  10.726  0.4875 -0.5053  0.0704
 5269SOL    HW127266   4.331   0.959  10.753 -1.6302 -0.9543 -0.2847
 5269SOL    HW227267   4.223   1.056  10.705 -0.2968 -2.2525  3.0295
 5270SOL     OW27268   4.568   0.073   2.277 -0.2332 -0.6310 -0.3993
 5270SOL    HW127269   4.536   0.001   2.331  1.4910 -1.7183 -0.8128
 5270SOL    HW227270   4.641   0.040   2.224  0.1610  0.8342 -0.7566
 5271SOL     OW27271   2.866   1.688   7.375 -0.8625  0.3193  0.1084
 5271SOL    HW127272   2.791   1.740   7.404 -1.0541 -0.4675  1.0690
 5271SOL    HW227273   2.932   1.757   7.371 -1.5847  0.9449 -1.0812
 5272SOL     OW27274   4.685   2.532   9.621 -0.2539  0.0282 -0.2632
 5272SOL    HW127275   4.674   2.500   9.711  1.4624  2.3218  0.7399
 5272SOL    HW227276   4.698   2.626   9.629 -0.5608  0.2112 -1.8953
 5273SOL     OW27277   2.205   0.578  12.475 -0.2291 -0.1267  0.4446
 5273SOL    HW127278   2.139   0.510  12.463  0.5320 -0.3060 -2.5396
 5273SOL    HW227279   2.158   0.653  12.511 -1.9436  0.3691 -2.8848
 5274SOL     OW27280   3.144   1.883   2.802 -0.8163 -0.1325 -0.2439
 5274SOL    HW127281   3.084   1.897   2.875 -0.9443  1.8919 -0.7251
 5274SOL    HW227282   3.100   1.935   2.734  0.3732  0.9662 -0.1735
 5275SOL     OW27283   3.679   1.833   4.369  0.4534  0.0561  0.2453
 5275SOL    HW127284   3.669   1.789   4.285  0.7422  0.9209 -0.2463
 5275SOL    HW227285   3.678   1.759   4.430  0.9958 -1.4448 -1.5728
 5276SOL     OW27286   2.375   0.626   0.396  0.5564 -0.4179  0.4419
 5276SOL    HW127287   2.378   0.666   0.483 -1.1221 -2.1194  1.2669
 5276SOL    HW227288   2.412   0.538   0.407  1.4270 -0.0725  0.3216
 5277SOL     OW27289   4.657   1.078   7.008  0.2132 -0.6777 -0.6411
 5277SOL    HW127290   4.627   0.989   7.023  0.5903 -0.8502 -0.9193
 5277SOL    HW227291   4.704   1.073   6.925 -1.1494 -0.1360 -1.4458
 5278SOL     OW27292   0.823   1.867   7.319  0.1875  0.0829 -0.0287
 5278SOL    HW127293   0.751   1.816   7.281 -0.7986 -0.3207  2.3840
 5278SOL    HW227294   0.865   1.809   7.383 -0.0338 -0.4450 -0.3561
 5279SOL     OW27295   0.870   4.357  16.093 -0.1660 -0.0291 -0.4949
 5279SOL    HW127296   0.783   4.396  16.092 -0.6212 -1.0434 -0.2944
 5279SOL    HW227297   0.912   4.394  16.015  1.3947 -0.3612  0.1956
 5280SOL     OW27298   3.862   1.614   8.471 -0.5446  0.3853 -0.0285
 5280SOL    HW127299   3.789   1.657   8.515  0.6042  0.7243  1.5433
 5280SOL    HW227300   3.869   1.680   8.402 -0.1691  1.4230  1.0025
 5281SOL     OW27301   2.827   0.092   0.079  0.0222  0.4877  0.4174
 5281SOL    HW127302   2.923   0.088   0.074  0.0416  2.6821 -0.7579
 5281SOL    HW227303   2.802   0.009   0.121  0.3243  0.7336  1.0662
 5282SOL     OW27304   0.479   0.499   5.520 -0.1847 -0.0789 -0.0874
 5282SOL    HW127305   0.434   0.556   5.458 -0.3522 -1.3166 -1.1119
 5282SOL    HW227306   0.445   0.418   5.481  1.3306  0.0024 -1.5861
 5283SOL     OW27307   1.531   4.711  17.167 -0.3418  0.1946  0.0201
 5283SOL    HW127308   1.510   4.660  17.245  0.8856 -0.3657  0.0002
 5283SOL    HW227309   1.473   4.665  17.106 -0.2632 -0.3419  0.3497
 5284SOL     OW27310   0.033   3.876  10.032  0.0910 -0.6753  0.2155
 5284SOL    HW127311   0.104   3.888   9.968 -0.3868  1.1340  0.0263
 5284SOL    HW227312   0.089   3.864  10.108  1.2530  0.3413 -0.4838
 5285SOL     OW27313   1.041   1.093   1.017 -0.1994 -0.1254  0.3140
 5285SOL    HW127314   1.095   1.126   1.089 -2.5325  1.0655  1.5452
 5285SOL    HW227315   0.997   1.019   1.059 -1.0693  0.5952  0.6830
 5286SOL     OW27316   4.358   3.703   6.940 -0.4013 -0.1452 -0.4346
 5286SOL    HW127317   4.296   3.643   6.982 -0.5356 -0.0374 -0.4759
 5286SOL    HW227318   4.438   3.650   6.938 -2.1449 -2.8021  0.1112
 5287SOL     OW27319   2.926   0.403   2.851  0.2120  0.0615 -0.3345
 5287SOL    HW127320   2.895   0.492   2.838 -1.5809 -0.4438  0.5662
 5287SOL    HW227321   2.851   0.352   2.821 -0.2685  1.5489 -1.6299
 5288SOL     OW27322   3.615   2.866   5.944  0.2882 -0.3265 -0.3675
 5288SOL    HW127323   3.608   2.806   6.019 -0.0427  0.8999  0.5827
 5288SOL    HW227324   3.596   2.805   5.873 -0.5822 -0.6210  0.1207
 5289SOL     OW27325   2.507   2.118   1.117 -0.1732  0.3300 -0.5507
 5289SOL    HW127326   2.465   2.173   1.051 -0.4056 -0.4085 -1.0291
 5289SOL    HW227327   2.600   2.142   1.109 -0.1654  0.6111  0.4199
 5290SOL     OW27328   3.444   1.137  15.050  0.7074  0.5178 -0.4223
 5290SOL    HW127329   3.420   1.045  15.049  1.1671  0.4041 -1.0607
 5290SOL    HW227330   3.359   1.181  15.058  0.4438  0.4603 -2.7897
 5291SOL     OW27331   2.852   0.429   3.516 -0.4956 -0.0275 -0.4911
 5291SOL    HW127332   2.855   0.486   3.593 -0.5941 -3.4283  2.0633
 5291SOL    HW227333   2.898   0.353   3.551  0.2024  0.5694 -0.1105
 5292SOL     OW27334   1.813   2.529  16.347 -0.2302 -0.0637 -0.1195
 5292SOL    HW127335   1.898   2.495  16.321  1.0429  1.2640  2.3023
 5292SOL    HW227336   1.783   2.448  16.388 -0.7090  0.5510  0.7643
 5293SOL     OW27337   4.634   4.013   4.768 -0.3230 -0.0845  0.1749
 5293SOL    HW127338   4.551   4.028   4.813 -0.9654 -4.2204  0.3584
 5293SOL    HW227339   4.637   3.918   4.784 -0.7689 -0.1523 -0.1518
 5294SOL     OW27340   1.824   1.924   4.203 -0.5190  0.1407  0.1006
 5294SOL    HW127341   1.887   1.984   4.164 -1.0255  0.2009 -0.6298
 5294SOL    HW227342   1.877   1.898   4.279 -1.1261 -1.5968 -0.0785
 5295SOL     OW27343   2.183   4.510   3.949 -0.7159  0.4075 -0.5492
 5295SOL    HW127344   2.098   4.541   3.917 -1.1199 -1.0628 -0.9013
 5295SOL    HW227345   2.220   4.585   3.995 -1.4785  2.0346 -2.5942
 5296SOL     OW27346   3.217   1.807  13.294 -0.2430  0.2755  0.1253
 5296SOL    HW127347   3.217   1.804  13.199  1.4545 -1.5685  0.1657
 5296SOL    HW227348   3.277   1.881  13.304  1.4472 -1.1013  0.2551
 5297SOL     OW27349   0.729   2.238  12.496 -0.7758 -0.3517  0.2385
 5297SOL    HW127350   0.717   2.330  12.522 -0.4758 -0.1042 -0.4941
 5297SOL    HW227351   0.820   2.224  12.522  0.0016  1.3171 -1.5619
 5298SOL     OW27352   4.617   2.418  17.311  0.2946  0.0769  0.4416
 5298SOL    HW127353   4.656   2.493  17.267 -1.5768  0.8330  0.0739
 5298SOL    HW227354   4.693   2.363  17.332  1.0113  0.4917 -1.0654
 5299SOL     OW27355   2.607   2.029  10.062 -0.6003  0.3584 -0.7147
 5299SOL    HW127356   2.590   1.942  10.096 -0.4433  0.5377 -0.1777
 5299SOL    HW227357   2.559   2.019   9.980 -3.5297 -1.7261  1.2658
 5300SOL     OW27358   2.617   0.275   4.834 -0.0242 -0.1079 -0.3376
 5300SOL    HW127359   2.624   0.347   4.771  2.1123 -0.4151 -0.4638
 5300SOL    HW227360   2.699   0.231   4.811  0.2023  0.2506 -0.2042
 5301SOL     OW27361   1.639   2.164  12.006  0.1806  0.0643  0.1494
 5301SOL    HW127362   1.664   2.104  11.935 -0.7667 -0.5022  0.2947
 5301SOL    HW227363   1.714   2.222  12.019  0.3376  0.1988 -1.2822
 5302SOL     OW27364   1.947   0.764   8.118  0.2851  0.0075 -0.2604
 5302SOL    HW127365   1.930   0.850   8.155 -0.6268  0.6230 -2.1155
 5302SOL    HW227366   1.925   0.707   8.192 -0.1546  0.2527 -0.2018
 5303SOL     OW27367   2.380   0.495   3.453  0.2519 -0.3005 -0.4629
 5303SOL    HW127368   2.340   0.423   3.403 -2.0654  0.8119 -0.2091
 5303SOL    HW227369   2.470   0.464   3.440  1.8478  3.8364  0.6508
 5304SOL     OW27370   4.125   0.960   9.229 -0.2427 -0.2335 -0.3345
 5304SOL    HW127371   4.149   1.045   9.267  0.6116 -1.1920  1.2761
 5304SOL    HW227372   4.131   0.985   9.137 -0.8629 -3.4530 -1.2153
 5305SOL     OW27373   2.935   0.393   8.208 -0.0819  0.3341  0.3220
 5305SOL    HW127374   3.028   0.416   8.218 -0.5576  2.5934 -0.3751
 5305SOL    HW227375   2.914   0.344   8.287  1.1155  0.6949  0.8759
 5306SOL     OW27376   3.574   4.588   2.815 -0.4806  0.2528  0.5482
 5306SOL    HW127377   3.516   4.616   2.885 -0.9282 -1.5262  0.9046
 5306SOL    HW227378   3.535   4.636   2.742 -0.2161  0.0700  0.2848
 5307SOL     OW27379   1.527   0.022   3.407  0.3805 -0.7498  0.3558
 5307SOL    HW127380   1.577   0.064   3.337 -0.7378 -1.2678 -0.7714
 5307SOL    HW227381   1.587   4.710   3.474  1.2662 -0.9471 -0.5319
 5308SOL     OW27382   2.360   3.873  16.582 -0.1518 -0.1417 -0.2792
 5308SOL    HW127383   2.326   3.820  16.510  1.1718  0.2365 -1.1862
 5308SOL    HW227384   2.450   3.842  16.581 -0.4380 -0.9377 -1.5175
 5309SOL     OW27385   3.876   3.845   2.323  0.0955 -0.0499  0.4537
 5309SOL    HW127386   3.805   3.784   2.342 -0.3942  0.1607 -0.6515
 5309SOL    HW227387   3.922   3.797   2.254 -0.7758  1.2562 -1.0341
 5310SOL     OW27388   1.988   0.600  10.303 -1.0426 -0.1855 -0.2565
 5310SOL    HW127389   1.912   0.612  10.247 -0.9074  0.0747 -0.3866
 5310SOL    HW227390   1.997   0.505  10.304  2.9451  0.1998  2.6740
 5311SOL     OW27391   0.030   3.850  16.169  0.0575 -0.1453 -0.1548
 5311SOL    HW127392   4.682   3.903  16.212  0.4694 -1.0023  1.5298
 5311SOL    HW227393   4.717   3.760  16.181 -0.6422  0.1716  0.3369
 5312SOL     OW27394   3.033   1.080   9.331  0.4344  0.0120  0.2251
 5312SOL    HW127395   3.116   1.129   9.331  0.9917 -0.9405  1.9021
 5312SOL    HW227396   3.070   0.993   9.318 -0.8210 -0.2753 -1.4211
 5313SOL     OW27397   1.301   1.059   8.791  0.4142  0.0723  0.3439
 5313SOL    HW127398   1.349   1.122   8.737  2.3401 -1.3131  0.4405
 5313SOL    HW227399   1.217   1.053   8.744  0.8854  2.0969 -0.7972
 5314SOL     OW27400   2.776   4.282  13.810 -0.0384  0.1761 -0.1891
 5314SOL    HW127401   2.791   4.188  13.805 -1.1842  0.0730 -1.5304
 5314SOL    HW227402   2.850   4.302  13.752 -0.3386  0.7411 -0.3754
 5315SOL     OW27403   3.834   3.073   0.314 -0.1274 -0.0665 -0.1904
 5315SOL    HW127404   3.786   3.002   0.357  0.7604  0.3523  1.4865
 5315SOL    HW227405   3.914   3.070   0.366  0.0009 -0.6662 -0.4254
 5316SOL     OW27406   0.331   0.451  15.657 -0.5221  0.5227  0.0667
 5316SOL    HW127407   0.275   0.489  15.589 -2.3783 -1.0427  0.7180
 5316SOL    HW227408   0.357   0.527  15.708  0.9364  0.0179  0.0768
 5317SOL     OW27409   0.563   3.122   6.539  0.4975  0.1928  0.1263
 5317SOL    HW127410   0.541   3.034   6.570  0.1106  0.5888  0.9883
 5317SOL    HW227411   0.496   3.127   6.472  0.6044 -1.2788 -0.0968
 5318SOL     OW27412   1.166   2.244  16.115 -0.5422 -0.3117 -0.0114
 5318SOL    HW127413   1.243   2.193  16.141 -1.0400 -0.9458  0.2233
 5318SOL    HW227414   1.132   2.272  16.200  0.4051 -3.1754  1.3160
 5319SOL     OW27415   2.028   4.653   1.230  0.2583  0.7894  0.2706
 5319SOL    HW127416   2.077   4.591   1.175 -0.1501 -0.7535  1.6393
 5319SOL    HW227417   2.094   4.692   1.287  0.0500  0.8563  0.4674
 5320SOL     OW27418   3.158   4.509   7.904  0.1409  0.8420  0.4877
 5320SOL    HW127419   3.089   4.575   7.912  0.9440  1.6924  0.3008
 5320SOL    HW227420   3.102   4.432   7.915 -0.2130  1.2174  1.2920
 5321SOL     OW27421   1.698   0.122   9.572  0.5346  0.3314  0.2997
 5321SOL    HW127422   1.685   0.211   9.606  2.6749  0.5559  0.5143
 5321SOL    HW227423   1.730   0.132   9.482 -0.5458 -1.1323 -0.2448
 5322SOL     OW27424   4.161   3.898   8.077 -0.3391  0.0804 -0.1883
 5322SOL    HW127425   4.235   3.839   8.090 -1.0926 -0.5382  1.3071
 5322SOL    HW227426   4.122   3.865   7.996 -0.1516 -0.5539 -0.0193
 5323SOL     OW27427   0.050   0.287   8.370  0.4382  0.3346  0.5220
 5323SOL    HW127428   0.076   0.267   8.459 -2.4446 -0.3237  1.2206
 5323SOL    HW227429   4.684   0.329   8.386 -0.7129 -1.5340 -0.6565
 5324SOL     OW27430   0.190   4.525   6.642 -0.0198 -0.4361  0.0605
 5324SOL    HW127431   0.098   4.547   6.631  0.6487  1.4162 -1.9970
 5324SOL    HW227432   0.193   4.519   6.737 -2.5992 -1.2207  0.0733
 5325SOL     OW27433   2.149   1.771   2.203  0.2995 -0.3488 -0.2679
 5325SOL    HW127434   2.204   1.809   2.272  1.3111  1.1211 -1.8829
 5325SOL    HW227435   2.065   1.806   2.234  0.4345 -2.0399  2.0416
 5326SOL     OW27436   0.653   2.761   8.345  0.4654  0.1603 -0.0675
 5326SOL    HW127437   0.735   2.750   8.296 -0.6333  0.1571 -1.9246
 5326SOL    HW227438   0.603   2.812   8.281  0.4246 -2.2377 -1.9504
 5327SOL     OW27439   3.416   2.315   8.234  0.4102 -0.3158  0.7542
 5327SOL    HW127440   3.390   2.241   8.178  0.1642  2.3831 -2.6880
 5327SOL    HW227441   3.441   2.379   8.167  0.1036 -0.8967  0.0837
 5328SOL     OW27442   3.634   4.214   3.427 -0.2824 -0.4879 -0.5248
 5328SOL    HW127443   3.579   4.267   3.369  1.0522  1.8630  0.3658
 5328SOL    HW227444   3.670   4.152   3.363  0.8701  0.3796 -0.7305
 5329SOL     OW27445   2.529   0.293   2.525 -0.6856 -0.1895  0.4971
 5329SOL    HW127446   2.474   0.370   2.536  0.8363  1.1539 -1.3355
 5329SOL    HW227447   2.488   0.253   2.448  0.3483  2.1984 -1.3029
 5330SOL     OW27448   2.751   4.019   0.402 -0.1374 -0.1487 -0.1817
 5330SOL    HW127449   2.776   3.948   0.343  2.8697  0.8810 -0.1995
 5330SOL    HW227450   2.780   4.091   0.346  0.5561  0.1196  0.5125
 5331SOL     OW27451   0.426   3.850   6.715 -0.3279  0.2687 -0.3137
 5331SOL    HW127452   0.509   3.888   6.686 -0.8233  1.1761 -0.5146
 5331SOL    HW227453   0.431   3.870   6.808  0.5377  0.7977 -0.4768
 5332SOL     OW27454   2.672   2.950   2.355  0.0249 -0.5204 -0.0592
 5332SOL    HW127455   2.688   3.015   2.286  0.9835 -1.0687 -0.3423
 5332SOL    HW227456   2.584   2.975   2.383  0.8818  0.4921  1.7447
 5333SOL     OW27457   0.122   0.027   9.210  0.0387  0.0208 -0.0160
 5333SOL    HW127458   0.182   0.096   9.236 -1.2313  0.6908  1.1440
 5333SOL    HW227459   0.124   4.687   9.286  2.1935  0.7173  0.4479
 5334SOL     OW27460   1.409   3.617   4.698  0.1457  0.1977  0.3320
 5334SOL    HW127461   1.466   3.684   4.662  1.1457 -1.8583 -1.9404
 5334SOL    HW227462   1.416   3.541   4.639 -0.8732  0.2335  0.1613
 5335SOL     OW27463   2.012   3.976   4.457  0.6078  0.0935 -0.2586
 5335SOL    HW127464   2.046   4.063   4.476  1.6157 -0.7959  1.9956
 5335SOL    HW227465   2.081   3.945   4.397 -0.2407 -2.2923  0.0155
 5336SOL     OW27466   2.174   0.243   2.587 -0.3479 -0.1842  0.2420
 5336SOL    HW127467   2.132   0.328   2.600  0.6385  0.0885  1.5770
 5336SOL    HW227468   2.221   0.227   2.668 -0.5149  1.3293  0.6312
 5337SOL     OW27469   2.075   1.645   5.569  0.2201  0.6579  0.0429
 5337SOL    HW127470   2.042   1.611   5.486 -1.5601  0.6117  0.7649
 5337SOL    HW227471   2.005   1.707   5.590  1.2807  2.8248 -2.7293
 5338SOL     OW27472   3.316   0.880   2.640  0.1177 -0.0665  0.6112
 5338SOL    HW127473   3.304   0.871   2.546  1.3223 -1.1216  0.5626
 5338SOL    HW227474   3.357   0.797   2.666  2.5998  0.5937 -1.2269
 5339SOL     OW27475   4.578   0.551   3.820 -0.3427 -0.1679  0.2087
 5339SOL    HW127476   4.485   0.533   3.829 -0.1737 -1.1542  0.0350
 5339SOL    HW227477   4.563   0.592   3.735 -0.2172 -1.6452 -0.5347
 5340SOL     OW27478   3.171   0.230   4.850 -0.1107  0.4193  0.5125
 5340SOL    HW127479   3.192   0.321   4.827 -0.1555  0.2434 -0.2305
 5340SOL    HW227480   3.263   0.201   4.848  0.1852  1.1651  3.2675
 5341SOL     OW27481   0.877   3.883   6.558  0.7926 -0.0546 -0.5845
 5341SOL    HW127482   0.938   3.829   6.508 -0.7501 -0.3473 -2.1419
 5341SOL    HW227483   0.913   3.869   6.646 -0.5109  0.3426  0.0103
 5342SOL     OW27484   4.673   1.204  11.006 -0.1463 -0.0514  0.3880
 5342SOL    HW127485   4.582   1.231  10.998  0.2114  1.8843  3.1067
 5342SOL    HW227486   0.008   1.281  10.986 -0.0225 -0.0956  0.5526
 5343SOL     OW27487   3.520   2.347   5.315 -0.0170  0.2212 -0.3911
 5343SOL    HW127488   3.530   2.257   5.285 -0.9584  0.8396 -2.6073
 5343SOL    HW227489   3.427   2.357   5.293 -0.2066 -0.8952 -0.0973
 5344SOL     OW27490   4.547   4.008   5.146  0.0876  0.1181  0.1076
 5344SOL    HW127491   4.480   4.005   5.078 -0.3750 -0.9255  0.6088
 5344SOL    HW227492   4.607   3.943   5.112 -0.2331 -0.0389 -0.1575
 5345SOL     OW27493   3.319   2.385   7.221  0.2717  0.2592 -0.5200
 5345SOL    HW127494   3.343   2.478   7.228 -0.7451  0.4245  0.7806
 5345SOL    HW227495   3.342   2.375   7.128 -1.8017  0.0815 -1.0111
 5346SOL     OW27496   0.629   0.072  13.713 -0.2776 -0.2838 -0.1640
 5346SOL    HW127497   0.555   0.047  13.658 -0.1489  1.4237 -1.0786
 5346SOL    HW227498   0.626   4.715  13.771  1.5213 -0.3488 -0.1617
 5347SOL     OW27499   4.329   2.455   1.706  0.5415  0.5147 -0.6256
 5347SOL    HW127500   4.292   2.520   1.766  0.4816  0.1988 -0.3209
 5347SOL    HW227501   4.383   2.508   1.647  0.6826  0.2821 -0.7060
 5348SOL     OW27502   2.392   4.458   5.695 -0.1718  0.0161 -0.0516
 5348SOL    HW127503   2.451   4.472   5.621 -0.8935  3.3789  0.0227
 5348SOL    HW227504   2.317   4.423   5.647 -1.3274  1.8522  0.4308
 5349SOL     OW27505   4.250   4.709   3.819  0.1689 -0.5524  0.4842
 5349SOL    HW127506   4.178   4.656   3.851 -0.3712 -0.6212 -0.8447
 5349SOL    HW227507   4.225   4.715   3.727  1.7596  0.5692  0.1159
 5350SOL     OW27508   0.261   3.900   5.016  0.4705 -0.2193 -0.2438
 5350SOL    HW127509   0.226   3.989   5.009  0.1009 -0.4689 -1.5944
 5350SOL    HW227510   0.256   3.881   5.109 -1.6241  2.9250  0.2819
 5351SOL     OW27511   1.630   4.659  13.265 -0.1731 -0.4208 -0.6750
 5351SOL    HW127512   1.686   4.631  13.192 -1.5323 -0.2754 -1.7720
 5351SOL    HW227513   1.639   0.036  13.263 -0.4594 -0.4030 -1.3164
 5352SOL     OW27514   4.288   3.173  16.591 -0.2683 -0.0952 -0.0900
 5352SOL    HW127515   4.353   3.234  16.626 -0.2067  0.2851 -0.8646
 5352SOL    HW227516   4.286   3.206  16.501  2.5705  1.9595  0.5810
 5353SOL     OW27517   1.124   0.333  13.163  0.2950 -0.7506 -0.5856
 5353SOL    HW127518   1.078   0.371  13.238  1.2043  0.9265 -0.8709
 5353SOL    HW227519   1.096   0.242  13.172 -3.4584  0.1438 -3.3427
 5354SOL     OW27520   3.549   1.276   3.361 -0.1193 -0.0278 -0.2257
 5354SOL    HW127521   3.543   1.369   3.385 -0.9449  0.1634 -1.1877
 5354SOL    HW227522   3.464   1.267   3.318 -2.1990  0.7783  3.6917
 5355SOL     OW27523   1.080   3.222   7.377  0.2578  0.4912  0.2305
 5355SOL    HW127524   0.996   3.238   7.335 -0.7492  0.6235  2.2883
 5355SOL    HW227525   1.145   3.237   7.309  0.6137 -1.2954  0.1842
 5356SOL     OW27526   0.114   3.908  15.599 -0.4213 -0.8009 -0.0980
 5356SOL    HW127527   0.093   3.883  15.689  1.6125  1.8289  1.1042
 5356SOL    HW227528   0.137   4.000  15.607  0.3608 -0.8922 -1.3100
 5357SOL     OW27529   4.433   2.976   6.593  0.2001 -0.3457 -0.4152
 5357SOL    HW127530   4.428   2.893   6.545  0.1864 -0.2951 -0.5010
 5357SOL    HW227531   4.346   3.010   6.573 -0.1989 -1.2806 -0.2725
 5358SOL     OW27532   3.576   1.095   5.872  0.6077 -0.8468  0.2458
 5358SOL    HW127533   3.610   1.009   5.846 -1.0613 -1.6197  0.6317
 5358SOL    HW227534   3.547   1.076   5.961 -1.3955 -0.9691 -0.4300
 5359SOL     OW27535   2.331   2.402   8.093  0.2192 -0.1528 -0.7476
 5359SOL    HW127536   2.363   2.377   8.179 -1.5072 -0.4467 -0.1776
 5359SOL    HW227537   2.330   2.317   8.048 -0.7331  0.3075 -1.6066
 5360SOL     OW27538   3.726   3.839   5.940 -0.2168 -0.7986  0.1240
 5360SOL    HW127539   3.784   3.914   5.925 -1.8560  0.3636 -0.4352
 5360SOL    HW227540   3.749   3.822   6.031 -2.2091  0.2367  0.8149
 5361SOL     OW27541   4.155   2.825   4.604  0.5243  0.0481  0.5711
 5361SOL    HW127542   4.089   2.877   4.648  0.9728 -0.8825  2.3367
 5361SOL    HW227543   4.235   2.854   4.647 -0.2116  1.0331  1.2419
 5362SOL     OW27544   1.810   0.645  17.547 -0.0045  0.0231 -1.2784
 5362SOL    HW127545   1.829   0.567  17.599 -2.0157  1.4211  1.5479
 5362SOL    HW227546   1.769   0.606  17.469 -0.5960 -2.0370  0.0729
 5363SOL     OW27547   2.696   4.032   9.039 -0.2043  0.1854 -0.2929
 5363SOL    HW127548   2.613   4.006   9.079 -0.2289  1.6618  0.5970
 5363SOL    HW227549   2.712   4.113   9.086 -0.9333 -0.4133  0.9829
 5364SOL     OW27550   4.395   3.142   6.918  0.0603  0.0604  0.2713
 5364SOL    HW127551   4.449   3.123   6.841  0.1291  0.4853  0.2184
 5364SOL    HW227552   4.468   3.157   6.978  1.0250 -0.1418 -0.8469
 5365SOL     OW27553   2.478   0.794   7.846 -0.1662 -0.4400 -0.2578
 5365SOL    HW127554   2.534   0.768   7.919  0.4780 -0.9264 -0.9287
 5365SOL    HW227555   2.398   0.817   7.893  0.9370  0.0746  1.3552
 5366SOL     OW27556   4.710   2.959   2.469 -0.0126  0.6979 -0.5089
 5366SOL    HW127557   4.706   2.875   2.423  0.5897  1.6891 -2.4055
 5366SOL    HW227558   0.033   3.004   2.395  1.3584  1.3072  0.6647
 5367SOL     OW27559   1.354   1.351  17.552  0.5133  0.4026 -0.3282
 5367SOL    HW127560   1.313   1.359  17.639 -1.5411 -0.4800 -1.2231
 5367SOL    HW227561   1.284   1.302  17.509  0.6964 -0.0777 -0.0867
 5368SOL     OW27562   0.821   2.870  16.378 -0.1676 -1.0974 -0.2389
 5368SOL    HW127563   0.830   2.965  16.392 -3.1179 -1.1174  1.7913
 5368SOL    HW227564   0.900   2.831  16.416 -0.4555 -0.2779  1.2172
 5369SOL     OW27565   2.316   2.277   8.827  0.2147 -0.2371 -0.4310
 5369SOL    HW127566   2.339   2.211   8.892  0.1133  0.0429 -0.1143
 5369SOL    HW227567   2.372   2.345   8.864  3.6122 -2.1219 -2.1520
 5370SOL     OW27568   0.456   3.404  14.523 -0.7901  0.0145  0.0645
 5370SOL    HW127569   0.368   3.379  14.553 -0.1569  0.3674  2.2214
 5370SOL    HW227570   0.460   3.490  14.480  1.3128 -0.6372 -1.0383
 5371SOL     OW27571   4.101   3.055   5.467  0.0488 -0.0458  0.1243
 5371SOL    HW127572   4.045   3.112   5.414  0.8697  1.3140  0.7132
 5371SOL    HW227573   4.171   3.109   5.505  0.8185 -0.2011 -1.1096
 5372SOL     OW27574   4.049   3.492  15.279  0.0189 -0.3113  0.3226
 5372SOL    HW127575   3.975   3.459  15.331 -0.5099  0.9337  0.3643
 5372SOL    HW227576   4.114   3.423  15.293 -1.5715 -1.6148  1.3031
 5373SOL     OW27577   3.805   3.164   0.023  0.1573  0.4371 -0.1377
 5373SOL    HW127578   3.845   3.077   0.020 -0.7361  0.1107 -2.6599
 5373SOL    HW227579   3.769   3.168   0.111  1.4660  0.4198  0.3954
 5374SOL     OW27580   0.577   1.304   0.290  0.9964 -0.3915 -0.1130
 5374SOL    HW127581   0.626   1.306   0.207 -0.1045 -0.9551 -0.7788
 5374SOL    HW227582   0.541   1.216   0.299  0.3209 -0.1344 -0.2678
 5375SOL     OW27583   2.366   1.350  13.856 -0.4925 -0.2095  0.7956
 5375SOL    HW127584   2.320   1.271  13.887 -0.6587  0.2124  1.6252
 5375SOL    HW227585   2.345   1.419  13.919  1.3971  0.2748  0.8940
 5376SOL     OW27586   1.595   2.262   4.352  0.1580 -0.8828 -0.0219
 5376SOL    HW127587   1.539   2.262   4.429 -0.1843  2.0643 -0.2868
 5376SOL    HW227588   1.650   2.341   4.354  0.2005 -0.9289  0.4760
 5377SOL     OW27589   3.259   1.158   7.284  0.0623  0.1310  0.0496
 5377SOL    HW127590   3.278   1.104   7.360  0.2469  0.3528  0.1628
 5377SOL    HW227591   3.164   1.163   7.286  0.1050  1.2410 -0.1916
 5378SOL     OW27592   3.326   1.612  15.730  0.3687 -0.2504  0.2505
 5378SOL    HW127593   3.273   1.691  15.715 -0.9929 -0.7091  2.6750
 5378SOL    HW227594   3.251   1.551  15.729 -0.0022  0.1902  1.3475
 5379SOL     OW27595   0.206   3.548   3.823  0.0670  0.0584  0.3642
 5379SOL    HW127596   0.254   3.625   3.792 -2.4391  0.2489 -3.0750
 5379SOL    HW227597   0.161   3.588   3.897  1.3347  1.9173  0.1135
 5380SOL     OW27598   2.641   1.377  13.903  0.0952  0.3035  0.2853
 5380SOL    HW127599   2.545   1.376  13.904  0.0957  0.1143 -0.8489
 5380SOL    HW227600   2.669   1.440  13.836 -0.6470  1.3606  0.9707
 5381SOL     OW27601   0.578   0.488   6.523  0.0885  0.2050 -0.0552
 5381SOL    HW127602   0.584   0.437   6.604  0.4010  2.6055  1.4335
 5381SOL    HW227603   0.553   0.573   6.559  1.1728  1.5626 -2.5088
 5382SOL     OW27604   1.012   2.961   7.174  0.3548  0.0136 -0.4206
 5382SOL    HW127605   1.080   2.944   7.240 -0.5690 -0.0975  0.4948
 5382SOL    HW227606   1.013   3.056   7.166  1.3111  0.0007 -0.5127
 5383SOL     OW27607   0.987   2.655   1.803  0.2030  0.2264 -0.4183
 5383SOL    HW127608   1.052   2.692   1.863 -0.1533 -0.4220  0.3550
 5383SOL    HW227609   0.987   2.561   1.817 -0.9251  0.1817 -0.6901
 5384SOL     OW27610   0.153   1.569   1.082 -0.5098  0.2999 -0.1703
 5384SOL    HW127611   0.066   1.533   1.068  0.5090 -2.1739 -0.1111
 5384SOL    HW227612   0.183   1.499   1.139 -0.8558 -0.3826 -0.8314
 5385SOL     OW27613   2.626   3.256   8.578 -0.1765  0.0329  0.2079
 5385SOL    HW127614   2.589   3.184   8.630 -0.6088 -1.3122 -1.9535
 5385SOL    HW227615   2.719   3.237   8.590  0.0277  0.6150 -0.5145
 5386SOL     OW27616   3.883   3.459   5.606  0.2981  0.9171  0.6905
 5386SOL    HW127617   3.804   3.418   5.570  1.3385  0.0269 -0.5716
 5386SOL    HW227618   3.925   3.470   5.521 -0.0257  1.7131  0.6352
 5387SOL     OW27619   3.970   1.431  16.123  0.0089  0.2980  0.0005
 5387SOL    HW127620   3.933   1.344  16.112  1.2938 -0.1721 -0.5425
 5387SOL    HW227621   3.944   1.457  16.035  1.0320 -3.0099 -1.2701
 5388SOL     OW27622   3.884   3.543   2.844  0.6972 -0.7228  0.2573
 5388SOL    HW127623   3.912   3.545   2.752  1.4648  1.2325  0.5424
 5388SOL    HW227624   3.934   3.620   2.868 -1.0096  0.4400  0.0667
 5389SOL     OW27625   1.597   2.298   8.817  0.2963 -0.8356  0.0148
 5389SOL    HW127626   1.544   2.312   8.895 -1.6739  0.4913 -1.5461
 5389SOL    HW227627   1.674   2.353   8.834 -0.6069  0.3134  0.3696
 5390SOL     OW27628   0.281   1.812  17.319  0.3275 -1.1277 -0.2552
 5390SOL    HW127629   0.242   1.725  17.308  0.1108 -1.1991  1.0816
 5390SOL    HW227630   0.373   1.789  17.333  1.4024  2.0842 -2.1404
 5391SOL     OW27631   2.661   4.319  17.306 -0.1004 -0.0353  0.1020
 5391SOL    HW127632   2.580   4.317  17.255  0.9385  2.0217 -1.6408
 5391SOL    HW227633   2.723   4.264  17.258 -0.2361  0.1255 -0.2596
 5392SOL     OW27634   1.662   3.105   7.134 -0.5539  0.4401  0.4820
 5392SOL    HW127635   1.624   3.169   7.074  1.2712  0.7351 -0.3426
 5392SOL    HW227636   1.721   3.065   7.070 -2.1991 -0.0322 -0.7516
 5393SOL     OW27637   3.893   2.718   8.196  0.5381  0.0894  0.4200
 5393SOL    HW127638   3.858   2.807   8.198 -0.2612 -0.1803 -1.3661
 5393SOL    HW227639   3.815   2.661   8.202 -0.0043  0.6615 -1.1683
 5394SOL     OW27640   3.486   4.217   9.289 -0.6504  0.4015  0.6906
 5394SOL    HW127641   3.476   4.311   9.272 -0.1537  0.4433  0.6413
 5394SOL    HW227642   3.398   4.187   9.264  0.0321  0.6808 -2.0579
 5395SOL     OW27643   0.534   1.719  12.762  0.4851  0.3304  0.3952
 5395SOL    HW127644   0.459   1.707  12.819  1.1823 -0.6878  1.1047
 5395SOL    HW227645   0.537   1.815  12.761 -4.5997  0.4866 -2.5633
 5396SOL     OW27646   0.678   4.687   5.462  0.1539  0.1399 -0.2210
 5396SOL    HW127647   0.693   0.048   5.511  0.7418  0.4313 -0.8799
 5396SOL    HW227648   0.636   4.635   5.530  0.2243  1.2433  0.6566
 5397SOL     OW27649   1.316   2.921   8.134 -0.0834  0.2415  0.3026
 5397SOL    HW127650   1.386   2.864   8.165  0.7100  0.9720 -0.1612
 5397SOL    HW227651   1.292   2.964   8.217 -2.4823 -0.9198  0.2196
 5398SOL     OW27652   0.264   2.190  14.587 -0.3626  0.4528  0.2992
 5398SOL    HW127653   0.343   2.136  14.595 -0.6621 -0.1639 -1.1157
 5398SOL    HW227654   0.220   2.163  14.668  1.1192 -0.6236  0.7553
 5399SOL     OW27655   4.389   2.146   5.205 -0.0154  0.4142  0.4273
 5399SOL    HW127656   4.353   2.084   5.141  2.0001  1.1445 -1.4374
 5399SOL    HW227657   4.428   2.205   5.139 -0.5860  0.8093  0.4412
 5400SOL     OW27658   2.368   0.066   1.112  0.4373  0.6655  0.0855
 5400SOL    HW127659   2.327   0.152   1.116 -1.4307 -0.1424 -1.6557
 5400SOL    HW227660   2.365   0.048   1.018 -1.8329  3.2577 -0.3110
 5401SOL     OW27661   1.441   1.113   7.776  0.0549 -0.1373  0.0162
 5401SOL    HW127662   1.468   1.188   7.829 -1.3838  0.9590 -0.8065
 5401SOL    HW227663   1.452   1.035   7.829  4.1700 -0.1038 -0.8250
 5402SOL     OW27664   3.425   3.992   5.520 -0.3840  0.3345  0.3528
 5402SOL    HW127665   3.439   3.998   5.614  0.7916  0.1750  0.1923
 5402SOL    HW227666   3.466   3.907   5.504 -3.8058 -1.4912  1.3178
 5403SOL     OW27667   3.537   1.232   5.573 -0.5122  0.2949 -0.6536
 5403SOL    HW127668   3.582   1.189   5.647  0.0720  0.7623 -0.7348
 5403SOL    HW227669   3.569   1.199   5.489 -0.5305 -3.0733  0.6483
 5404SOL     OW27670   1.345   3.055  12.767  0.0148 -0.1674 -0.1877
 5404SOL    HW127671   1.353   2.970  12.811  3.3287 -0.0136 -0.4570
 5404SOL    HW227672   1.252   3.057  12.745 -0.0072  1.3299  0.0525
 5405SOL     OW27673   3.779   2.359   6.483  0.0927 -0.3045  0.2863
 5405SOL    HW127674   3.751   2.409   6.406 -0.5226 -0.2325  0.5550
 5405SOL    HW227675   3.852   2.415   6.510 -1.3617  0.5673  2.4290
 5406SOL     OW27676   4.061   2.461   6.950  0.1266  0.2980 -0.7457
 5406SOL    HW127677   4.034   2.457   7.042  2.5142 -1.0608 -0.1051
 5406SOL    HW227678   4.148   2.500   6.955  0.2895 -0.3466  1.5937
 5407SOL     OW27679   0.044   3.740   4.753  0.2855  0.0663  0.6040
 5407SOL    HW127680   0.063   3.744   4.659 -1.6440 -2.6802  0.0787
 5407SOL    HW227681   0.102   3.670   4.782  0.5433 -0.9972 -2.4195
 5408SOL     OW27682   2.775   3.024  15.625 -0.1975 -0.2716 -0.5913
 5408SOL    HW127683   2.725   3.106  15.622  0.8622  0.4044 -0.0751
 5408SOL    HW227684   2.751   3.011  15.717  2.9513 -0.9337  0.1486
 5409SOL     OW27685   0.377   1.188   1.796 -0.0585  0.4268 -0.3075
 5409SOL    HW127686   0.304   1.148   1.843  0.4971  0.4337  0.5631
 5409SOL    HW227687   0.410   1.234   1.873 -1.7317 -0.2501  0.7975
 5410SOL     OW27688   0.163   4.547   7.609 -0.8540  0.3243 -0.0944
 5410SOL    HW127689   0.124   4.535   7.695 -1.6514 -1.0703 -0.6541
 5410SOL    HW227690   0.109   4.500   7.546 -0.5006 -1.5605  1.0087
 5411SOL     OW27691   0.452   0.062   4.315 -0.2067 -0.2013  0.0826
 5411SOL    HW127692   0.475   0.030   4.403 -0.8093 -1.0955 -0.0915
 5411SOL    HW227693   0.393   4.711   4.290 -0.7474  0.2060  0.2063
 5412SOL     OW27694   1.744   2.104  15.850  0.7989  0.5464 -0.4597
 5412SOL    HW127695   1.693   2.059  15.782 -0.4501 -2.2912  2.3668
 5412SOL    HW227696   1.678   2.138  15.910  2.2812  0.2457  1.3265
 5413SOL     OW27697   3.341   2.602   1.898  0.1349 -0.3053 -0.0496
 5413SOL    HW127698   3.246   2.597   1.909  0.3337 -0.2746  1.6597
 5413SOL    HW227699   3.334   2.657   1.820 -0.0145 -1.5426 -0.8989
 5414SOL     OW27700   0.503   4.245   7.759  0.0186 -0.1105  0.2660
 5414SOL    HW127701   0.572   4.303   7.728 -0.5243  0.8965  0.9253
 5414SOL    HW227702   0.428   4.302   7.780  0.2103 -0.3930  1.7110
 5415SOL     OW27703   3.828   4.244   0.386  0.5936  0.2692  0.1443
 5415SOL    HW127704   3.853   4.202   0.303  0.7500  0.5094  0.0678
 5415SOL    HW227705   3.912   4.230   0.429 -0.1309 -0.5022  1.2943
 5416SOL     OW27706   0.442   3.259  13.246  0.0064 -0.0849  0.3127
 5416SOL    HW127707   0.535   3.277  13.252 -0.4026  2.0450  0.3156
 5416SOL    HW227708   0.444   3.230  13.154  4.0391 -0.6165  0.5940
 5417SOL     OW27709   0.253   1.822   3.418  0.0576  0.3804  0.1640
 5417SOL    HW127710   0.257   1.893   3.482 -2.0008 -0.3838  1.1464
 5417SOL    HW227711   0.170   1.782   3.443  0.9746 -2.3841 -1.2491
 5418SOL     OW27712   0.317   0.292   7.971 -0.1753  0.3244  0.1988
 5418SOL    HW127713   0.326   0.265   8.062 -1.5108  0.7645  0.4574
 5418SOL    HW227714   0.407   0.296   7.938 -0.5844 -0.3466 -0.9806
 5419SOL     OW27715   4.568   1.569   6.986 -0.3904 -0.3920  0.6469
 5419SOL    HW127716   4.594   1.661   6.986  0.9956 -0.7661 -3.4922
 5419SOL    HW227717   4.579   1.535   7.074  1.3742  2.3009  1.4600
 5420SOL     OW27718   0.768   4.255   8.247  0.3549 -0.8294 -0.5734
 5420SOL    HW127719   0.745   4.345   8.226  0.9867 -0.0327  2.1713
 5420SOL    HW227720   0.684   4.221   8.281  0.0452  0.8850  0.3604
 5421SOL     OW27721   3.421   2.803  11.135 -0.1026 -0.3592 -0.6420
 5421SOL    HW127722   3.450   2.738  11.071  0.0868 -0.5592 -0.3528
 5421SOL    HW227723   3.438   2.891  11.104 -0.0091 -0.2388 -0.2452
 5422SOL     OW27724   1.357   4.356   8.424  0.0011 -0.0986 -0.5332
 5422SOL    HW127725   1.287   4.345   8.488  2.4645 -1.5427  1.8927
 5422SOL    HW227726   1.434   4.353   8.480 -1.2626 -0.0312  1.1801
 5423SOL     OW27727   3.154   3.147   4.401  0.2093 -0.4171 -0.2355
 5423SOL    HW127728   3.223   3.184   4.346  0.6990  0.8993  1.2357
 5423SOL    HW227729   3.108   3.094   4.336  0.8294  0.2554 -1.2246
 5424SOL     OW27730   4.030   3.042   4.739  0.2971  0.1160  0.0953
 5424SOL    HW127731   3.957   3.063   4.681  0.1854  0.7359  0.4608
 5424SOL    HW227732   3.981   3.051   4.821 -3.2685 -1.3952 -1.8380
 5425SOL     OW27733   3.745   2.908  11.126  0.0232  0.4428  0.1227
 5425SOL    HW127734   3.677   2.924  11.191  0.2483 -0.0836  0.4911
 5425SOL    HW227735   3.780   2.994  11.103  0.5799 -0.3216 -1.9126
 5426SOL     OW27736   4.013   3.753   6.145 -0.2466 -0.0387 -0.5176
 5426SOL    HW127737   4.048   3.666   6.126  2.3505  0.8412  0.2550
 5426SOL    HW227738   3.931   3.737   6.193  0.4451 -1.9300  0.0460
 5427SOL     OW27739   0.044   1.348   5.803 -0.5812  0.1803  0.5081
 5427SOL    HW127740   0.137   1.370   5.815 -0.4193 -0.4762  0.4343
 5427SOL    HW227741   0.000   1.425   5.840 -0.7201  0.0950  0.5193
 5428SOL     OW27742   1.350   3.033   4.749 -0.3993 -0.2421  0.2916
 5428SOL    HW127743   1.260   3.024   4.778 -0.6564  0.7447 -0.2032
 5428SOL    HW227744   1.341   3.039   4.654 -0.7897 -0.1981  0.3319
 5429SOL     OW27745   2.447   0.634   4.899 -0.2757  0.0169 -0.3325
 5429SOL    HW127746   2.504   0.569   4.939  0.7417  0.3019 -1.3181
 5429SOL    HW227747   2.414   0.677   4.978 -2.8877  0.0430 -1.4392
 5430SOL     OW27748   3.890   0.531   8.411 -0.0184 -0.0777 -0.0128
 5430SOL    HW127749   3.862   0.621   8.430 -1.9927 -0.4282 -1.2791
 5430SOL    HW227750   3.981   0.533   8.441  1.0005  2.3830 -3.1513
 5431SOL     OW27751   2.538   0.409   3.785  0.2587 -0.1414  0.3126
 5431SOL    HW127752   2.451   0.377   3.807 -0.5267  1.5040 -0.4137
 5431SOL    HW227753   2.539   0.480   3.849 -1.5925  0.1736 -0.0352
 5432SOL     OW27754   3.873   0.371   4.198  0.1959 -0.8100  0.6265
 5432SOL    HW127755   3.922   0.319   4.261  2.0847  0.2362  0.0075
 5432SOL    HW227756   3.856   0.304   4.132 -2.3818  0.0244  0.4391
 5433SOL     OW27757   3.022   1.546   4.299 -0.1405 -0.1043 -0.0168
 5433SOL    HW127758   3.032   1.580   4.388  2.3666 -1.1154  0.0739
 5433SOL    HW227759   3.111   1.541   4.265  0.7566 -1.0854  2.5344
 5434SOL     OW27760   3.165   1.402   4.046  0.7890  0.1509 -0.3753
 5434SOL    HW127761   3.107   1.464   4.001 -1.8200 -1.8433  0.2380
 5434SOL    HW227762   3.219   1.360   3.980  0.3203 -0.1620 -0.5577
 5435SOL     OW27763   0.377   1.391  13.917 -0.7343 -0.2594 -0.1393
 5435SOL    HW127764   0.383   1.476  13.961 -0.8069  0.8167 -2.1784
 5435SOL    HW227765   0.455   1.339  13.935 -1.1602 -0.6130  0.6779
 5436SOL     OW27766   0.898   0.563  14.104  0.0276 -0.3714  0.1063
 5436SOL    HW127767   0.924   0.471  14.107  3.6045  0.6449  0.2173
 5436SOL    HW227768   0.980   0.603  14.076  0.5445 -1.4658  0.0596
 5437SOL     OW27769   4.603   2.776   6.969  0.0351 -0.4348 -0.2372
 5437SOL    HW127770   4.616   2.810   6.880 -3.1108 -1.5047 -1.1006
 5437SOL    HW227771   4.675   2.808   7.023 -0.3027  0.7916 -0.5321
 5438SOL     OW27772   3.807   4.294   4.617  0.4252 -0.1028  0.1328
 5438SOL    HW127773   3.750   4.294   4.540  0.4449 -1.1580  0.1110
 5438SOL    HW227774   3.748   4.326   4.684 -1.0986 -0.7928 -0.8814
 5439SOL     OW27775   3.398   3.296   2.642  0.3523 -0.2479 -0.6474
 5439SOL    HW127776   3.378   3.349   2.565  1.1716  0.1179 -0.6040
 5439SOL    HW227777   3.361   3.211   2.618 -0.1975 -0.5828  1.3915
 5440SOL     OW27778   1.847   2.518   3.402  0.3422 -0.6253 -0.2161
 5440SOL    HW127779   1.786   2.497   3.473 -0.4558 -0.2748 -0.7973
 5440SOL    HW227780   1.798   2.479   3.330 -1.9495 -0.4030  1.2180
 5441SOL     OW27781   1.130   0.693   7.567  0.4081  0.5942 -0.1679
 5441SOL    HW127782   1.211   0.745   7.562  1.4343 -0.5899  4.1329
 5441SOL    HW227783   1.136   0.647   7.484  2.1311  1.7169 -0.6616
 5442SOL     OW27784   1.670   1.015   4.294  0.3013 -0.9384 -0.1695
 5442SOL    HW127785   1.610   0.944   4.270 -1.1322  0.2557 -0.1416
 5442SOL    HW227786   1.710   1.044   4.212 -0.7959 -2.0925 -1.0977
 5443SOL     OW27787   0.230   0.205   1.933  0.0344  0.5180 -0.6259
 5443SOL    HW127788   0.313   0.247   1.911  0.3792  0.1303 -0.0454
 5443SOL    HW227789   0.196   0.183   1.846  1.8764 -2.6575 -0.5390
 5444SOL     OW27790   4.336   0.982  11.074  0.0340 -0.2791  0.0363
 5444SOL    HW127791   4.366   0.991  11.165  1.8677 -1.6100 -0.4240
 5444SOL    HW227792   4.374   0.899  11.046  0.4881 -0.2542  0.5743
 5445SOL     OW27793   0.461   4.162  10.060  0.1614 -0.7435 -0.2677
 5445SOL    HW127794   0.438   4.200   9.975 -2.9478 -2.3559 -0.1499
 5445SOL    HW227795   0.374   4.172  10.101  1.6042  1.0515  2.3505
 5446SOL     OW27796   3.216   2.834   2.351 -0.0958  0.0106 -0.0760
 5446SOL    HW127797   3.244   2.784   2.274 -1.4544 -1.9819  0.7163
 5446SOL    HW227798   3.123   2.851   2.338 -0.7002 -1.9515  1.5657
 5447SOL     OW27799   2.037   2.432   8.148  0.0705  0.1097 -0.4164
 5447SOL    HW127800   2.034   2.354   8.092 -0.0078 -0.4891  0.4335
 5447SOL    HW227801   2.070   2.394   8.229 -0.8886  0.8734  0.3321
 5448SOL     OW27802   1.598   1.310  15.853  0.2594  0.1554 -0.1894
 5448SOL    HW127803   1.509   1.318  15.889  0.7078  0.8321  0.7689
 5448SOL    HW227804   1.639   1.231  15.888 -0.3874 -1.3383 -2.8502
 5449SOL     OW27805   3.645   4.554   4.633  0.1753 -0.0139  0.4395
 5449SOL    HW127806   3.721   4.534   4.578 -0.8843 -1.1375 -0.6125
 5449SOL    HW227807   3.659   4.642   4.668 -0.2192 -0.0416  0.6658
 5450SOL     OW27808   3.399   1.736  11.373  0.1850 -0.1058 -0.2854
 5450SOL    HW127809   3.375   1.828  11.362  1.3934  0.2119 -0.2800
 5450SOL    HW227810   3.342   1.699  11.306  2.0004 -3.7168  0.1830
 5451SOL     OW27811   1.950   4.606  11.581  0.2620 -0.0758  0.1974
 5451SOL    HW127812   1.864   4.648  11.593  0.0942 -0.7199  1.2926
 5451SOL    HW227813   2.002   4.670  11.629 -1.4676  0.3353  1.5446
 5452SOL     OW27814   4.405   0.176   5.784  0.5451  0.3936 -0.5629
 5452SOL    HW127815   4.488   0.168   5.831 -0.1796 -0.8646  0.4862
 5452SOL    HW227816   4.372   0.264   5.804  0.9526  0.5319 -0.5098
 5453SOL     OW27817   0.409   4.535  11.459 -0.4862  0.2049  0.5690
 5453SOL    HW127818   0.348   4.577  11.520 -0.0686 -0.6976  1.6012
 5453SOL    HW227819   0.439   4.462  11.514 -0.9848  1.2091  2.1946
 5454SOL     OW27820   2.252   1.183   1.039 -0.1625 -0.6316  0.1648
 5454SOL    HW127821   2.205   1.170   1.122 -0.1900 -0.1445  0.2219
 5454SOL    HW227822   2.332   1.221   1.073 -0.2110 -1.8616  1.6817
 5455SOL     OW27823   1.252   2.958   9.993 -0.2778  0.0994 -0.4211
 5455SOL    HW127824   1.329   3.003   9.958  0.8326 -2.1577 -0.8348
 5455SOL    HW227825   1.181   3.001   9.945 -0.3951 -0.5762 -0.8533
 5456SOL     OW27826   1.778   4.077   6.329  0.1802 -0.0518  0.2393
 5456SOL    HW127827   1.742   4.159   6.297 -1.5184 -0.6405  0.6779
 5456SOL    HW227828   1.855   4.060   6.274 -0.5666 -0.9454 -0.5326
 5457SOL     OW27829   4.313   0.904   2.482 -0.1282  0.3106  0.3621
 5457SOL    HW127830   4.280   0.817   2.462 -0.9664  0.0205  2.9924
 5457SOL    HW227831   4.251   0.956   2.430  0.1562 -1.3548 -1.6029
 5458SOL     OW27832   2.326   1.103   4.631 -0.1954  0.0895 -0.3284
 5458SOL    HW127833   2.349   1.123   4.722  0.2368  1.3526 -0.7246
 5458SOL    HW227834   2.404   1.130   4.583 -0.8050  0.5718 -1.0417
 5459SOL     OW27835   0.634   1.792   2.565 -0.2561  0.1238  0.2648
 5459SOL    HW127836   0.712   1.848   2.561 -0.8571  0.9937  0.7898
 5459SOL    HW227837   0.562   1.854   2.578 -0.8915 -0.5290 -0.1192
 5460SOL     OW27838   3.421   1.899   2.797 -0.2281  0.5026 -0.0719
 5460SOL    HW127839   3.330   1.875   2.811  0.2979 -1.1525  0.4834
 5460SOL    HW227840   3.441   1.950   2.876  0.4265 -0.8348  0.6240
 5461SOL     OW27841   0.732   2.192   0.222  0.1031 -0.4761  0.0449
 5461SOL    HW127842   0.647   2.221   0.256 -0.2826 -0.9011 -0.5566
 5461SOL    HW227843   0.724   2.214   0.129  0.1598 -0.4656  0.0422
 5462SOL     OW27844   0.275   0.914   4.465  0.1881  0.4870 -0.9590
 5462SOL    HW127845   0.242   0.997   4.433 -0.9099 -0.6680 -2.8167
 5462SOL    HW227846   0.357   0.908   4.415  0.9307  0.1654  0.2899
 5463SOL     OW27847   4.115   4.134   1.729  0.6790 -0.2309 -0.5260
 5463SOL    HW127848   4.146   4.221   1.756  1.6565 -0.6602 -0.2312
 5463SOL    HW227849   4.047   4.161   1.668 -0.1127 -0.8612  0.0873
 5464SOL     OW27850   0.157   3.703  13.064 -0.1375 -0.5701  0.9339
 5464SOL    HW127851   0.070   3.743  13.063 -0.9426 -2.4457 -3.0284
 5464SOL    HW227852   0.208   3.774  13.102 -0.8144  0.7828 -0.6932
 5465SOL     OW27853   3.966   0.664  12.659 -0.2044 -0.1039  0.5851
 5465SOL    HW127854   4.044   0.702  12.700  0.8896 -0.3030 -1.3280
 5465SOL    HW227855   3.974   0.697  12.570 -1.1227 -0.4773  0.3585
 5466SOL     OW27856   1.229   2.611   6.822 -0.3796 -0.0224 -0.2779
 5466SOL    HW127857   1.210   2.641   6.733  1.7257  0.2389 -0.6562
 5466SOL    HW227858   1.169   2.661   6.877  1.4214 -0.8055  2.3519
 5467SOL     OW27859   2.467   1.886   8.815 -0.1182 -0.1237  0.7200
 5467SOL    HW127860   2.517   1.806   8.827 -1.1172 -0.9610 -0.7362
 5467SOL    HW227861   2.497   1.916   8.729  0.5720  1.1917  1.4207
 5468SOL     OW27862   3.385   1.954   3.875  0.2212 -0.1000 -0.8711
 5468SOL    HW127863   3.479   1.939   3.867  0.1204  0.0621 -2.4963
 5468SOL    HW227864   3.366   1.861   3.867  2.3630 -0.6787  1.0012
 5469SOL     OW27865   3.533   0.538   7.892  0.1171 -0.5503 -0.0889
 5469SOL    HW127866   3.493   0.456   7.920 -1.1864 -0.2881 -1.2271
 5469SOL    HW227867   3.496   0.592   7.962  1.0933  1.5987 -1.2636
 5470SOL     OW27868   3.618   2.269   3.971  0.3198  0.5669  0.2140
 5470SOL    HW127869   3.684   2.332   3.944 -0.6723  1.2324 -0.6429
 5470SOL    HW227870   3.683   2.200   3.987 -1.4086 -0.6161  2.1015
 5471SOL     OW27871   3.946   1.139   2.498  0.0256  0.0139 -0.4907
 5471SOL    HW127872   3.976   1.140   2.589 -1.4230 -0.3464 -0.0055
 5471SOL    HW227873   3.860   1.096   2.495  0.5984 -0.9162 -3.5903
 5472SOL     OW27874   4.527   1.968   3.114 -0.1077  0.6503 -0.1208
 5472SOL    HW127875   4.518   2.062   3.097 -1.5439  0.6147  0.3940
 5472SOL    HW227876   4.622   1.957   3.114 -0.0740  0.9397  0.0467
 5473SOL     OW27877   2.395   1.830   0.868 -0.1759 -0.5262  0.3904
 5473SOL    HW127878   2.341   1.753   0.849 -1.0378  0.0969  0.2944
 5473SOL    HW227879   2.435   1.850   0.783 -2.6441  0.7393 -0.4934
 5474SOL     OW27880   0.548   4.354   2.860 -0.2178  0.5841 -0.2917
 5474SOL    HW127881   0.569   4.377   2.950 -5.8208  2.4891  0.5018
 5474SOL    HW227882   0.597   4.272   2.854 -0.8710  0.1906 -0.2691
 5475SOL     OW27883   1.731   2.727  14.089 -0.1051 -0.0451  0.5297
 5475SOL    HW127884   1.799   2.718  14.157  0.0391 -0.9590  0.2596
 5475SOL    HW227885   1.686   2.809  14.109 -0.0676  0.0971  0.0178
 5476SOL     OW27886   2.624   2.512  15.157  0.4449 -0.1567  0.0411
 5476SOL    HW127887   2.528   2.511  15.158  0.4493 -0.2609  0.3990
 5476SOL    HW227888   2.632   2.454  15.233 -1.0319 -2.3437 -1.4671
 5477SOL     OW27889   3.136   1.097  17.428 -0.2651  0.7029 -0.5499
 5477SOL    HW127890   3.190   1.040  17.481 -0.4315 -0.0809 -1.2279
 5477SOL    HW227891   3.066   1.125  17.488  0.6723  3.0631 -0.5432
 5478SOL     OW27892   0.649   4.607  12.988 -0.1857  0.2398 -0.2873
 5478SOL    HW127893   0.592   4.594  12.912 -1.4114 -2.7382  1.1734
 5478SOL    HW227894   0.724   4.648  12.945 -0.0701 -0.6903 -0.9868
 5479SOL     OW27895   1.374   0.837  15.025 -0.2621  0.1323 -0.1222
 5479SOL    HW127896   1.351   0.857  14.934 -1.9181  1.0334  0.4803
 5479SOL    HW227897   1.469   0.837  15.024 -0.2482  0.2576  1.3576
 5480SOL     OW27898   4.013   0.813   2.085 -0.0024  0.3416 -0.6743
 5480SOL    HW127899   3.969   0.776   2.162 -0.2329  3.2616  0.6096
 5480SOL    HW227900   4.083   0.749   2.074 -0.8070 -0.8841  1.3703
 5481SOL     OW27901   3.394   4.008  17.418 -0.1726  1.2201 -0.3214
 5481SOL    HW127902   3.403   4.087  17.365  2.3463 -0.3140 -2.1957
 5481SOL    HW227903   3.417   4.042  17.505 -0.6862  0.8605 -0.0432
 5482SOL     OW27904   2.812   2.552   1.864 -0.5178 -0.3257  0.1665
 5482SOL    HW127905   2.824   2.477   1.806 -0.0366  0.7886 -1.1689
 5482SOL    HW227906   2.814   2.621   1.797 -0.0625 -0.1034  0.4075
 5483SOL     OW27907   2.721   3.474   5.475  0.9422  0.0821 -0.0374
 5483SOL    HW127908   2.671   3.502   5.399 -0.3637 -0.5685  0.5764
 5483SOL    HW227909   2.759   3.556   5.506  0.9638 -0.1893  0.6739
 5484SOL     OW27910   2.731   4.514   7.977 -0.2595 -0.0418 -0.2147
 5484SOL    HW127911   2.706   4.606   7.973  0.1992  0.2072  2.2870
 5484SOL    HW227912   2.781   4.497   7.898  0.0544 -0.9641  0.1730
 5485SOL     OW27913   0.005   4.337   0.682  0.4234 -0.9529  0.1644
 5485SOL    HW127914   4.637   4.300   0.695 -1.6474  3.1434 -1.9332
 5485SOL    HW227915   4.711   4.432   0.683 -1.7855 -1.2470 -0.4292
 5486SOL     OW27916   0.674   1.181   2.650  0.5988  0.3054 -0.6823
 5486SOL    HW127917   0.655   1.142   2.735  1.4922  2.0061  0.2905
 5486SOL    HW227918   0.608   1.147   2.590  1.0190 -0.7280 -0.5711
 5487SOL     OW27919   4.358   1.836   2.940  0.5278 -0.1539 -0.2722
 5487SOL    HW127920   4.273   1.876   2.958  0.6189  0.0752 -0.3568
 5487SOL    HW227921   4.416   1.888   2.996  0.8360  0.9359 -1.6106
 5488SOL     OW27922   3.193   0.430   5.767  0.0237  0.2104 -0.1315
 5488SOL    HW127923   3.255   0.360   5.785 -0.6781 -0.2151  0.6572
 5488SOL    HW227924   3.244   0.510   5.782 -0.4591  0.5409 -0.2304
 5489SOL     OW27925   0.265   0.937   8.338  0.4990  0.4028  0.9644
 5489SOL    HW127926   0.278   0.896   8.253  0.5758  0.9240  0.7235
 5489SOL    HW227927   0.249   1.030   8.322 -0.8920 -0.3294 -1.8560
 5490SOL     OW27928   1.979   3.760  11.364 -0.3725  0.1479 -0.5628
 5490SOL    HW127929   1.911   3.762  11.431  0.4686  0.9946  0.2561
 5490SOL    HW227930   2.050   3.734  11.423 -1.2080 -1.0053 -0.0771
 5491SOL     OW27931   1.171   2.625  12.787  0.4736  0.3605 -0.1950
 5491SOL    HW127932   1.132   2.707  12.756  0.1579  0.8061  1.3995
 5491SOL    HW227933   1.123   2.616  12.869 -0.0010  0.3419 -0.4770
 5492SOL     OW27934   4.399   1.936  14.599 -0.2462  0.4303  0.4089
 5492SOL    HW127935   4.492   1.928  14.577  0.1292  0.8445  1.8958
 5492SOL    HW227936   4.401   1.999  14.670 -1.9108  0.7718  0.1640
 5493SOL     OW27937   2.439   3.629   7.913 -0.3788  0.1042  0.1659
 5493SOL    HW127938   2.387   3.668   7.983  0.0159  1.4978 -0.3051
 5493SOL    HW227939   2.370   3.629   7.847 -1.3043 -1.5928  1.1299
 5494SOL     OW27940   1.574   0.693   7.184  0.4165 -0.1510 -0.1029
 5494SOL    HW127941   1.541   0.681   7.273 -0.4583  0.7164 -0.3069
 5494SOL    HW227942   1.605   0.783   7.197  1.1277 -0.0251 -2.8316
 5495SOL     OW27943   0.948   3.269   8.031  0.2779  0.9965  0.2501
 5495SOL    HW127944   0.954   3.174   8.019 -1.1417  0.9245  0.1519
 5495SOL    HW227945   1.039   3.291   8.007  0.4721  0.0029  0.0745
 5496SOL     OW27946   2.315   2.970  16.780  0.0357 -0.2648  0.1150
 5496SOL    HW127947   2.337   3.000  16.868 -1.4450  0.2487  0.3030
 5496SOL    HW227948   2.222   2.993  16.774  0.0289 -0.0509  1.1328
 5497SOL     OW27949   1.361   1.313   6.145 -0.2351 -0.2699  0.0765
 5497SOL    HW127950   1.334   1.225   6.172 -0.9176  0.2744  1.1883
 5497SOL    HW227951   1.300   1.361   6.201 -1.8743 -0.8738 -1.2288
 5498SOL     OW27952   0.169   3.063  10.756  0.0571 -0.8447 -0.4532
 5498SOL    HW127953   0.178   3.153  10.787 -0.2564 -1.1042  0.4093
 5498SOL    HW227954   0.259   3.034  10.771  0.2023  1.0026  2.2104
 5499SOL     OW27955   0.309   3.306   4.374  0.8063 -0.4247 -0.9922
 5499SOL    HW127956   0.394   3.266   4.394  0.3427 -0.0104  1.8911
 5499SOL    HW227957   0.325   3.393   4.338  3.3436  0.1615  1.4880
 5500SOL     OW27958   3.236   2.802  12.420  0.0932  0.6446  0.6297
 5500SOL    HW127959   3.146   2.831  12.433 -0.3277 -0.6101  0.5239
 5500SOL    HW227960   3.279   2.884  12.395 -1.3861  1.2807  0.1450
 5501SOL     OW27961   2.447   3.411   5.565 -0.2112  0.0419 -0.1078
 5501SOL    HW127962   2.541   3.408   5.547 -0.8207 -0.1825 -3.3074
 5501SOL    HW227963   2.443   3.499   5.603  0.6760  0.6094 -1.3117
 5502SOL     OW27964   1.996   3.409   2.885 -0.1980  0.0896 -0.1699
 5502SOL    HW127965   1.966   3.322   2.912 -0.5592  0.4653  0.6419
 5502SOL    HW227966   1.967   3.457   2.962  0.9714  0.4636  0.0339
 5503SOL     OW27967   0.524   1.647   5.112 -0.2128  0.1969  0.2394
 5503SOL    HW127968   0.466   1.575   5.137 -0.2833  0.2606  0.2576
 5503SOL    HW227969   0.577   1.593   5.053  0.8409 -0.2338  1.5979
 5504SOL     OW27970   0.167   3.439   5.890  0.2414  0.2145 -0.2935
 5504SOL    HW127971   0.151   3.525   5.852 -0.2696 -0.2634 -1.1512
 5504SOL    HW227972   0.255   3.419   5.858  0.8635  1.0355  0.8860
 5505SOL     OW27973   0.421   1.325  10.508 -0.0672 -0.0732 -0.1427
 5505SOL    HW127974   0.455   1.295  10.592 -0.8759 -1.6415 -0.3579
 5505SOL    HW227975   0.492   1.386  10.488  0.5955 -1.0419 -0.7608
 5506SOL     OW27976   1.782   1.135   5.864 -0.1043  0.3162  0.2130
 5506SOL    HW127977   1.703   1.081   5.861  0.5812 -0.7278  0.9541
 5506SOL    HW227978   1.812   1.131   5.955  2.3348 -1.4522 -0.6680
 5507SOL     OW27979   4.379   1.240   5.061  0.6057 -0.1552 -0.0690
 5507SOL    HW127980   4.370   1.304   4.991  0.4395 -0.6526 -0.5069
 5507SOL    HW227981   4.471   1.249   5.083  0.8624 -1.2732 -0.6823
 5508SOL     OW27982   2.108   3.967  14.461 -0.2932  0.0812 -0.2573
 5508SOL    HW127983   2.144   4.051  14.489 -2.3300  0.0931  2.2690
 5508SOL    HW227984   2.023   3.957  14.503  0.0925 -2.5758 -0.1388
 5509SOL     OW27985   0.585   1.175   7.910 -0.0850  0.0564  0.3124
 5509SOL    HW127986   0.673   1.197   7.879  0.1250  0.4426  1.2101
 5509SOL    HW227987   0.599   1.150   8.001 -3.4319 -1.5296  0.4080
 5510SOL     OW27988   1.335   1.003  13.380 -0.8147 -0.0916 -0.8014
 5510SOL    HW127989   1.423   0.975  13.403 -0.3948  1.8813  0.0326
 5510SOL    HW227990   1.345   1.063  13.307 -0.4808 -0.0497 -0.7202
 5511SOL     OW27991   1.541   1.272   5.501 -0.2956 -0.3000  0.0606
 5511SOL    HW127992   1.503   1.284   5.588  0.7842  0.5585  0.4151
 5511SOL    HW227993   1.566   1.360   5.472  2.1066 -0.9103  0.2679
 5512SOL     OW27994   1.231   3.790   3.955  0.0389 -0.5125  0.0627
 5512SOL    HW127995   1.305   3.849   3.971 -1.8442  1.4944  1.4786
 5512SOL    HW227996   1.272   3.710   3.986  0.1148 -0.1595  0.8801
 5513SOL     OW27997   3.304   4.323   3.417 -0.4403 -0.6024  0.6818
 5513SOL    HW127998   3.326   4.278   3.335  1.0897  0.2427  0.6305
 5513SOL    HW227999   3.276   4.243   3.462 -3.0227  0.1645  0.4332
 5514SOL     OW28000   2.302   1.020   8.029 -0.4049  0.4996  0.5196
 5514SOL    HW128001   2.344   1.100   7.999  0.5331 -0.4776 -0.8183
 5514SOL    HW228002   2.317   1.039   8.121 -0.2247 -1.8779  0.9868
 5515SOL     OW28003   0.480   2.997   7.592 -0.1231  0.1707  0.0803
 5515SOL    HW128004   0.398   2.983   7.545 -0.5740 -0.4529  1.0414
 5515SOL    HW228005   0.529   2.970   7.515  2.0435  3.4519  0.2924
 5516SOL     OW28006   3.369   1.022   6.469  0.0365  0.2292 -0.4184
 5516SOL    HW128007   3.274   1.035   6.476  0.1608  1.2421 -0.6970
 5516SOL    HW228008   3.403   1.032   6.558  2.8879  0.7294 -1.5664
 5517SOL     OW28009   2.771   0.197   9.996  0.1324  0.3539  0.1104
 5517SOL    HW128010   2.730   0.185   9.910  2.8304 -0.6124 -1.0407
 5517SOL    HW228011   2.692   0.186  10.050  1.2008 -0.4231  1.5127
 5518SOL     OW28012   0.245   3.238  14.618  0.0435  0.0855 -0.2478
 5518SOL    HW128013   0.253   3.263  14.710  0.4434  1.0962 -0.5523
 5518SOL    HW228014   0.208   3.150  14.628  1.6059 -0.6995 -1.2794
 5519SOL     OW28015   3.642   0.140   0.584  0.4813 -0.7164  0.0972
 5519SOL    HW128016   3.613   0.050   0.600 -0.0711 -0.5141  0.2526
 5519SOL    HW228017   3.558   0.185   0.588 -0.2130 -1.9515 -0.6773
 5520SOL     OW28018   1.007   1.341   4.856 -0.0110 -0.5788  0.2920
 5520SOL    HW128019   0.994   1.433   4.881  0.4835  0.5285 -3.4621
 5520SOL    HW228020   1.046   1.317   4.941  1.3314 -0.5758 -0.3134
 5521SOL     OW28021   3.303   2.776  17.025  0.3434 -0.0809 -0.4013
 5521SOL    HW128022   3.331   2.846  16.966 -0.2679 -0.4099 -1.0832
 5521SOL    HW228023   3.295   2.830  17.104  1.8737  0.8669 -0.8923
 5522SOL     OW28024   3.605   4.099  10.315 -0.1571 -0.2218 -0.0426
 5522SOL    HW128025   3.631   4.169  10.255 -0.2264  0.2021  0.4122
 5522SOL    HW228026   3.666   4.110  10.388  1.0811 -1.9190 -0.8371
 5523SOL     OW28027   4.275   3.504   3.398 -0.3945 -0.0929  0.5156
 5523SOL    HW128028   4.318   3.516   3.313 -0.2659 -0.3547  0.5454
 5523SOL    HW228029   4.207   3.571   3.391  0.2476  0.3896 -1.1746
 5524SOL     OW28030   2.037   3.829   3.906 -0.5952  0.2654 -0.3337
 5524SOL    HW128031   2.060   3.906   3.855 -1.8355  1.3066  0.6979
 5524SOL    HW228032   1.943   3.829   3.891 -0.6308 -1.7028 -0.1643
 5525SOL     OW28033   2.833   2.878  11.293  0.4003  0.3515  0.8830
 5525SOL    HW128034   2.744   2.911  11.306  0.8884  2.1190 -0.2399
 5525SOL    HW228035   2.885   2.932  11.352 -0.4918  3.2742 -1.0137
 5526SOL     OW28036   0.284   3.865   4.122 -0.1031 -0.0003 -0.0057
 5526SOL    HW128037   0.362   3.883   4.175 -0.1679  2.4206 -0.7552
 5526SOL    HW228038   0.311   3.802   4.054  1.1725 -1.4958  1.8823
 5527SOL     OW28039   3.796   0.744   9.405 -0.3313 -0.1330  0.1156
 5527SOL    HW128040   3.795   0.696   9.323 -0.6731 -3.3287  1.9905
 5527SOL    HW228041   3.710   0.785   9.404  0.3957  1.4376  1.3113
 5528SOL     OW28042   0.567   2.298   7.382  0.2038  0.2565 -0.1597
 5528SOL    HW128043   0.623   2.254   7.319 -1.2244 -1.6126 -0.1106
 5528SOL    HW228044   0.607   2.385   7.382  0.7542  0.0057  0.7712
 5529SOL     OW28045   2.767   0.495   9.174  0.4762 -0.5671  0.0936
 5529SOL    HW128046   2.686   0.446   9.179 -0.2997  0.6456 -0.5921
 5529SOL    HW228047   2.807   0.465   9.255  0.2514 -1.5623 -0.1679
 5530SOL     OW28048   2.098   2.415   2.037  0.0778 -0.4366 -0.1610
 5530SOL    HW128049   2.134   2.386   1.954  1.6245 -1.0701  0.7158
 5530SOL    HW228050   2.017   2.365   2.048 -0.5105  0.4668 -0.4136
 5531SOL     OW28051   2.616   4.387   7.170 -0.4457 -0.4498 -0.1647
 5531SOL    HW128052   2.568   4.311   7.205 -1.0097 -0.4322 -0.9013
 5531SOL    HW228053   2.569   4.401   7.088 -0.0886 -1.7941 -0.6075
 5532SOL     OW28054   3.219   2.167   3.746 -0.1731  0.3972 -0.2175
 5532SOL    HW128055   3.164   2.183   3.822 -0.4297 -2.2042  0.1501
 5532SOL    HW228056   3.245   2.075   3.761 -3.4681 -0.5694 -0.4707
 5533SOL     OW28057   3.393   0.641   8.128 -0.5956 -0.4030 -0.0769
 5533SOL    HW128058   3.355   0.646   8.040 -0.6918  0.5486  0.0265
 5533SOL    HW228059   3.348   0.573   8.178 -0.0662 -0.4529  0.3216
 5534SOL     OW28060   1.309   2.034  17.215  0.1136  0.1469  0.1796
 5534SOL    HW128061   1.217   2.056  17.198  0.5531  0.5871 -1.6363
 5534SOL    HW228062   1.352   2.119  17.224  0.5597 -0.0007 -0.5288
 5535SOL     OW28063   4.070   2.539   4.305  0.3150  0.3952  0.3596
 5535SOL    HW128064   4.127   2.551   4.382  1.5121 -0.4369 -0.3969
 5535SOL    HW228065   4.026   2.623   4.315 -0.4131 -0.0311  0.7211
 5536SOL     OW28066   0.915   1.784  15.956  0.5655 -0.0775  0.4702
 5536SOL    HW128067   0.892   1.816  16.043 -1.0225 -1.7137  0.6463
 5536SOL    HW228068   0.963   1.857  15.916 -2.5466  1.2536 -0.8642
 5537SOL     OW28069   0.297   4.647   2.593  0.4606 -0.0457  0.2458
 5537SOL    HW128070   0.295   4.715   2.526  2.1220  0.4917  0.7357
 5537SOL    HW228071   0.214   4.609   2.565  0.5952  0.3079 -0.6408
 5538SOL     OW28072   1.627   1.186  14.950  0.4382 -0.2548 -0.1454
 5538SOL    HW128073   1.678   1.161  14.873 -2.0621 -0.1391 -1.8626
 5538SOL    HW228074   1.606   1.100  14.986  1.9998 -0.6013 -0.0842
 5539SOL     OW28075   4.065   2.984   5.130 -0.0238  0.1994  0.2009
 5539SOL    HW128076   4.120   3.023   5.062 -0.3440  2.2140  1.1021
 5539SOL    HW228077   4.084   2.890   5.129  0.2660  0.2722 -0.7672
 5540SOL     OW28078   0.991   1.066   6.062  0.5797 -0.3640  0.2545
 5540SOL    HW128079   1.017   1.125   5.991 -0.7517  1.3927  1.2062
 5540SOL    HW228080   1.069   1.016   6.082  0.4526 -0.9915 -0.8257
 5541SOL     OW28081   2.489   4.159   3.561  0.5301 -0.1074 -0.7013
 5541SOL    HW128082   2.574   4.117   3.549  0.0849 -0.7139 -1.7933
 5541SOL    HW228083   2.504   4.202   3.645 -0.6243 -0.4824 -0.3075
 5542SOL     OW28084   2.583   3.157   6.989  0.3197  0.2462 -0.2185
 5542SOL    HW128085   2.649   3.214   6.950  1.3104 -0.8320 -0.1463
 5542SOL    HW228086   2.632   3.077   7.011 -1.6262 -0.9412 -0.2346
 5543SOL     OW28087   1.370   1.621  17.471 -0.5643 -0.3078 -0.8066
 5543SOL    HW128088   1.306   1.633  17.541 -1.4781  0.7851 -1.8139
 5543SOL    HW228089   1.402   1.535  17.499 -0.8967 -0.3545 -0.5809
 5544SOL     OW28090   3.531   2.424   8.677  0.5516  0.1299 -0.1274
 5544SOL    HW128091   3.438   2.407   8.693  0.8015 -0.2540  0.9749
 5544SOL    HW228092   3.571   2.348   8.720 -0.3659 -0.1251  0.2757
 5545SOL     OW28093   2.986   1.585   3.941  0.5061  0.5099  0.3538
 5545SOL    HW128094   2.984   1.675   3.909  0.8183  1.0353  1.8296
 5545SOL    HW228095   2.900   1.574   3.982 -0.2456  0.6674 -1.1873
 5546SOL     OW28096   0.427   2.269   8.495  0.6309  0.4488  0.2399
 5546SOL    HW128097   0.453   2.356   8.467 -1.3416  0.0557 -2.8814
 5546SOL    HW228098   0.493   2.232   8.554 -0.5021 -1.4359  0.3359
 5547SOL     OW28099   2.901   2.759  11.550  0.0410 -0.2624  0.4522
 5547SOL    HW128100   2.856   2.682  11.584  1.9528 -0.9464  1.4421
 5547SOL    HW228101   2.874   2.753  11.458  1.9129  0.2321 -0.1348
 5548SOL     OW28102   1.170   3.552  15.882 -0.3201 -0.3674  0.5069
 5548SOL    HW128103   1.086   3.558  15.927  1.0973  1.1218  2.9990
 5548SOL    HW228104   1.167   3.471  15.832 -4.5951 -0.0886  0.3336
 5549SOL     OW28105   3.955   3.934   6.825  0.3760 -0.3207 -0.0913
 5549SOL    HW128106   3.909   3.895   6.900  1.1099 -0.5013  0.2602
 5549SOL    HW228107   4.007   3.858   6.799 -2.0011 -1.6963 -0.9005
 5550SOL     OW28108   4.542   0.155  11.822 -0.1365 -0.3213  0.3127
 5550SOL    HW128109   4.550   0.167  11.917 -1.8593 -1.6100  0.6047
 5550SOL    HW228110   4.575   0.067  11.806  3.3698  0.6690  1.9937
 5551SOL     OW28111   3.187   0.204   1.257  0.0514 -0.2995 -0.5396
 5551SOL    HW128112   3.113   0.189   1.198 -1.0185  0.3006  0.6359
 5551SOL    HW228113   3.249   0.246   1.198 -1.0124  0.9407 -0.7901
 5552SOL     OW28114   0.459   3.011   4.116 -0.1745  0.2580  0.3860
 5552SOL    HW128115   0.471   2.955   4.193 -1.7082 -1.3889 -0.5621
 5552SOL    HW228116   0.464   3.098   4.154 -1.4981 -0.1115  1.4089
 5553SOL     OW28117   3.264   3.456   2.428  0.3055 -0.0353 -0.2189
 5553SOL    HW128118   3.269   3.395   2.354  0.4902  0.0427 -0.2703
 5553SOL    HW228119   3.208   3.522   2.386  1.2994 -0.6313 -2.4934
 5554SOL     OW28120   0.892   0.410   2.612 -0.5137  0.3860  0.5423
 5554SOL    HW128121   0.883   0.442   2.523 -4.7647 -2.5155 -0.0529
 5554SOL    HW228122   0.826   0.456   2.664 -1.3568 -0.1685 -0.0530
 5555SOL     OW28123   3.750   2.296   7.310  0.1224  0.1334 -0.0099
 5555SOL    HW128124   3.720   2.370   7.362  1.1984  0.4450  0.1635
 5555SOL    HW228125   3.684   2.228   7.326 -0.5350 -0.0119 -3.3967
 5556SOL     OW28126   0.073   2.802  11.797  0.1931 -0.0877 -0.1512
 5556SOL    HW128127   0.078   2.897  11.786 -1.8119  0.0658  0.4252
 5556SOL    HW228128   4.705   2.789  11.834  0.2429  0.7878  0.2787
 5557SOL     OW28129   1.936   2.302   8.577  0.3642  0.2339 -0.0378
 5557SOL    HW128130   1.941   2.211   8.606 -0.0133  0.2072 -0.0542
 5557SOL    HW228131   2.025   2.335   8.570 -0.7922  3.1326 -1.2796
 5558SOL     OW28132   0.261   3.520  16.006  0.1730  0.3693  0.7225
 5558SOL    HW128133   0.225   3.466  16.077 -1.9707 -1.0245 -1.4037
 5558SOL    HW228134   0.220   3.604  16.025  0.3447  0.4166  0.8834
 5559SOL     OW28135   2.101   4.632   8.958  0.3569 -0.3376 -0.0085
 5559SOL    HW128136   2.177   4.609   8.906 -1.2459 -3.1281 -1.1275
 5559SOL    HW228137   2.051   4.551   8.965 -0.0904 -0.1495 -1.0209
 5560SOL     OW28138   4.291   2.365   2.192  0.2704 -0.1264  0.0888
 5560SOL    HW128139   4.336   2.448   2.208 -0.6413  0.0937  1.5052
 5560SOL    HW228140   4.350   2.318   2.133  1.7204 -0.0077  1.4349
 5561SOL     OW28141   3.585   3.505   4.727  0.5534  0.4148 -0.4175
 5561SOL    HW128142   3.663   3.450   4.739  0.5098  0.2020 -1.1057
 5561SOL    HW228143   3.624   3.569   4.667  1.3997 -0.6887 -1.0396
 5562SOL     OW28144   3.189   0.865   9.321  0.1917 -0.2783 -0.4632
 5562SOL    HW128145   3.200   0.829   9.409 -1.0069 -2.2078 -1.0813
 5562SOL    HW228146   3.247   0.811   9.267  1.1373 -1.3403  1.6223
 5563SOL     OW28147   1.486   0.831   4.213  0.5990 -0.0452  0.5201
 5563SOL    HW128148   1.442   0.793   4.137  0.7987  0.1682  0.2976
 5563SOL    HW228149   1.472   0.753   4.267  0.4946  0.7826  1.6883
 5564SOL     OW28150   1.750   1.267   4.870 -0.3609 -0.0899 -0.0327
 5564SOL    HW128151   1.840   1.257   4.900 -0.4457 -3.8033 -0.9429
 5564SOL    HW228152   1.715   1.179   4.851 -0.9077  0.3020 -0.8209
 5565SOL     OW28153   3.754   2.746   4.098 -0.0149 -0.4449  0.3434
 5565SOL    HW128154   3.796   2.774   4.180 -3.3273  2.9831  0.8535
 5565SOL    HW228155   3.731   2.655   4.116 -0.3841 -0.7202 -1.5421
 5566SOL     OW28156   4.601   3.611   1.840 -0.4189 -0.2246  0.1390
 5566SOL    HW128157   4.585   3.517   1.838 -0.3443 -0.2795  2.6539
 5566SOL    HW228158   4.626   3.612   1.747 -2.5273 -1.0349 -0.4235
 5567SOL     OW28159   4.251   3.980   6.499  0.0853 -0.0992 -0.3276
 5567SOL    HW128160   4.223   3.889   6.511 -0.0496  0.1674  1.3498
 5567SOL    HW228161   4.243   3.988   6.404  0.0703  1.3385 -0.2037
 5568SOL     OW28162   2.808   0.306   1.637  0.2429 -0.1372 -0.4906
 5568SOL    HW128163   2.836   0.317   1.546  2.5686  0.4478  0.3014
 5568SOL    HW228164   2.763   0.222   1.639  2.1461 -1.0767  3.0453
 5569SOL     OW28165   2.348   2.698   2.393 -0.1412 -0.3154  0.0206
 5569SOL    HW128166   2.309   2.615   2.362  1.3869 -1.3869  0.9793
 5569SOL    HW228167   2.424   2.659   2.435 -2.1896  0.4932  4.4114
 5570SOL     OW28168   2.062   4.491   6.239 -0.1781  0.0414 -0.6084
 5570SOL    HW128169   2.128   4.530   6.182  1.0661  1.4271  1.7740
 5570SOL    HW228170   2.115   4.451   6.308  0.8050  0.2075 -1.2761
 5571SOL     OW28171   0.283   0.692  13.460 -0.0814  0.4671  0.0885
 5571SOL    HW128172   0.282   0.667  13.552  0.5277 -0.3261 -0.1195
 5571SOL    HW228173   0.370   0.661  13.433 -0.5898  0.3293 -1.4274
 5572SOL     OW28174   1.852   4.003  12.540  0.0732 -0.0558 -0.2896
 5572SOL    HW128175   1.837   3.957  12.623 -0.6398  0.0201 -0.3782
 5572SOL    HW228176   1.874   3.925  12.489  3.1803 -1.2788  2.8857
 5573SOL     OW28177   3.823   0.064   8.937  0.4728  0.4314  0.0027
 5573SOL    HW128178   3.733   0.095   8.922  0.1047 -0.2097  0.8940
 5573SOL    HW228179   3.870   0.147   8.928 -0.3404  0.8495 -0.4195
 5574SOL     OW28180   2.112   3.651   9.724 -0.4114  1.1243  0.1354
 5574SOL    HW128181   2.119   3.731   9.777 -0.3988  1.1062  0.1610
 5574SOL    HW228182   2.023   3.623   9.746 -0.3053  0.8960  0.2742
 5575SOL     OW28183   2.926   1.351  13.724 -0.6523  0.1828 -0.0811
 5575SOL    HW128184   3.011   1.351  13.680  0.3775 -1.2197  1.9435
 5575SOL    HW228185   2.874   1.331  13.646 -0.5763 -0.7525  0.1088
 5576SOL     OW28186   2.152   3.058  13.190 -0.1262  0.0280  0.5013
 5576SOL    HW128187   2.067   3.071  13.148  1.3286  2.7002 -1.6136
 5576SOL    HW228188   2.198   3.129  13.145 -0.7518 -0.3924 -0.8106
 5577SOL     OW28189   0.106   2.163   3.290  0.1038  0.6016  0.0146
 5577SOL    HW128190   0.126   2.103   3.361  1.9947  2.9658  1.4386
 5577SOL    HW228191   0.104   2.106   3.213 -1.9015  1.3655 -0.5060
 5578SOL     OW28192   3.521   3.032   9.380  0.3394 -0.1180 -0.6643
 5578SOL    HW128193   3.612   3.027   9.353  0.0681 -0.6514 -1.4693
 5578SOL    HW228194   3.497   2.945   9.414  2.0649  0.4772  2.0653
 5579SOL     OW28195   1.146   3.794   5.599  0.3641 -0.8810  0.3429
 5579SOL    HW128196   1.218   3.752   5.646  0.5300  0.0018  0.8935
 5579SOL    HW228197   1.113   3.847   5.672 -3.1198 -1.0062 -1.1426
 5580SOL     OW28198   2.018   0.365  12.426  0.3713 -0.3198  0.0650
 5580SOL    HW128199   2.010   0.274  12.396 -2.1171  0.2442 -0.9973
 5580SOL    HW228200   1.930   0.391  12.400  0.7589  0.4496 -0.4942
 5581SOL     OW28201   1.631   0.927   0.954  0.5051  0.2346 -0.3983
 5581SOL    HW128202   1.568   0.970   0.896 -0.6192 -1.4739 -0.4693
 5581SOL    HW228203   1.585   0.843   0.956  0.4272  0.2620 -1.1129
 5582SOL     OW28204   0.695   3.795  14.619 -0.0469 -0.4271 -0.4185
 5582SOL    HW128205   0.715   3.706  14.649  0.1051  0.1626  1.2344
 5582SOL    HW228206   0.622   3.817  14.677  1.3724  3.4211 -0.0802
 5583SOL     OW28207   4.493   0.404   6.885 -0.6205 -0.5329 -0.3124
 5583SOL    HW128208   4.534   0.447   6.810  1.3168 -0.8187  0.5796
 5583SOL    HW228209   4.472   0.482   6.937  3.6331 -0.8889  1.9218
 5584SOL     OW28210   3.231   4.282  16.902  0.6641  0.7093 -0.1393
 5584SOL    HW128211   3.199   4.317  16.984  0.1976  0.9911 -0.4431
 5584SOL    HW228212   3.315   4.328  16.896 -0.5542  2.9732  0.3684
 5585SOL     OW28213   3.999   0.565  16.250  0.8546  0.2025  0.0864
 5585SOL    HW128214   4.070   0.523  16.298  1.2691 -0.4625 -1.1371
 5585SOL    HW228215   3.928   0.519  16.296  1.0398 -0.2240 -0.0580
 5586SOL     OW28216   3.307   1.496   5.188  0.4766 -0.0028  0.1028
 5586SOL    HW128217   3.308   1.491   5.092 -3.1700  0.7348  0.0474
 5586SOL    HW228218   3.279   1.409   5.216  0.7351  0.2583  1.1698
 5587SOL     OW28219   0.274   4.386   0.316  0.5234  0.0354 -0.2656
 5587SOL    HW128220   0.191   4.403   0.362 -0.6135 -0.0573 -2.2572
 5587SOL    HW228221   0.271   4.446   0.241  1.7131  0.6872  0.2158
 5588SOL     OW28222   2.679   2.426  17.579  0.9823  0.1372  0.7227
 5588SOL    HW128223   2.611   2.481  17.617  0.5917 -0.1483  0.4360
 5588SOL    HW228224   2.657   2.359  17.644 -2.9875  1.1043  0.3781
 5589SOL     OW28225   1.092   3.115  16.985  0.3234 -0.1858  0.3237
 5589SOL    HW128226   1.102   3.163  16.903  1.0997 -0.1583  0.4386
 5589SOL    HW228227   0.996   3.114  16.994  0.3057 -0.4886  0.1375
 5590SOL     OW28228   1.149   3.065  16.657  0.3976  0.1700 -0.0702
 5590SOL    HW128229   1.243   3.053  16.644  0.1387  0.7393 -2.5018
 5590SOL    HW228230   1.136   3.160  16.647  0.7254  0.4475  2.0955
 5591SOL     OW28231   1.236   4.161   2.349  0.0024  0.4692 -0.3636
 5591SOL    HW128232   1.152   4.139   2.389  0.9340 -1.1477  0.7173
 5591SOL    HW228233   1.202   4.209   2.274 -1.0770  1.1213  0.5456
 5592SOL     OW28234   2.452   3.476  15.108 -0.4376  0.2409 -0.0345
 5592SOL    HW128235   2.544   3.452  15.097 -0.2348  1.1664 -0.3007
 5592SOL    HW228236   2.447   3.500  15.015 -2.2236 -3.2243 -0.8348
 5593SOL     OW28237   4.020   1.644   3.055 -0.1410  0.2248 -0.3765
 5593SOL    HW128238   3.948   1.705   3.073 -0.7517 -0.3839 -0.8044
 5593SOL    HW228239   4.026   1.655   2.960  0.7898  0.7476 -0.2593
 5594SOL     OW28240   1.112   3.053  16.238  0.1964 -0.1541 -0.4917
 5594SOL    HW128241   1.053   3.095  16.300 -0.3159 -2.0199  0.2732
 5594SOL    HW228242   1.088   3.102  16.159  0.3615  0.0517 -0.4159
 5595SOL     OW28243   3.565   0.062   8.599  0.1935  0.0079 -0.9169
 5595SOL    HW128244   3.590   0.129   8.662 -2.4891 -0.2058  0.3861
 5595SOL    HW228245   3.553   0.119   8.523 -3.5537 -0.0653 -0.3848
 5596SOL     OW28246   4.126   3.405   7.753  0.1860  0.4416  0.5266
 5596SOL    HW128247   4.109   3.426   7.844 -0.6091 -1.9252  0.9321
 5596SOL    HW228248   4.104   3.312   7.761 -0.8560  0.6180 -0.3126
 5597SOL     OW28249   1.113   3.044  12.033  0.3797 -0.0325 -0.3666
 5597SOL    HW128250   1.178   3.093  11.983 -0.4050  1.4659  0.0939
 5597SOL    HW228251   1.140   3.071  12.121 -0.1845  0.4313 -0.3357
 5598SOL     OW28252   3.624   4.344   2.980 -0.6964  0.7096 -0.0311
 5598SOL    HW128253   3.632   4.265   3.034  3.5738  1.6043  0.5911
 5598SOL    HW228254   3.592   4.401   3.050  0.0190  2.0677 -0.8240
 5599SOL     OW28255   2.908   2.383   7.226  0.1885 -0.4626 -0.3731
 5599SOL    HW128256   2.931   2.430   7.146  0.3397  1.5736  0.8816
 5599SOL    HW228257   2.815   2.369   7.206 -0.1567 -0.8487  1.4461
 5600SOL     OW28258   4.263   0.554   1.606 -0.1806 -0.3659  0.3715
 5600SOL    HW128259   4.248   0.630   1.662  1.3290  1.6260 -1.9498
 5600SOL    HW228260   4.194   0.499   1.644  0.0276 -0.7752  0.1635
 5601SOL     OW28261   4.598   0.056   3.868  0.0489 -0.1676  0.0989
 5601SOL    HW128262   4.630   4.697   3.913  0.0669  0.2646  0.8324
 5601SOL    HW228263   4.663   0.053   3.798 -0.8376 -1.5753 -0.6610
 5602SOL     OW28264   2.784   2.770   9.132  0.4845  0.2535 -0.3290
 5602SOL    HW128265   2.766   2.749   9.223 -0.6355  2.0675 -0.1406
 5602SOL    HW228266   2.879   2.777   9.132  0.5661 -0.8580  0.5734
 5603SOL     OW28267   2.110   2.888   8.805  0.3246  1.0518 -0.0808
 5603SOL    HW128268   2.109   2.970   8.757 -2.5566  1.5310  0.8092
 5603SOL    HW228269   2.079   2.917   8.891  0.6461  1.3653 -0.0736
 5604SOL     OW28270   1.190   1.898   2.818 -0.0779  0.2761 -0.1256
 5604SOL    HW128271   1.273   1.902   2.771 -0.5481 -1.7572 -1.1334
 5604SOL    HW228272   1.133   1.954   2.764  1.2256  0.6337 -1.1188
 5605SOL     OW28273   2.030   4.116   8.663  0.1136 -0.1632 -0.2773
 5605SOL    HW128274   2.125   4.124   8.672  0.0038  1.5706 -0.5789
 5605SOL    HW228275   2.009   4.208   8.643 -2.1396 -0.5107  0.5627
 5606SOL     OW28276   0.575   0.988   3.298 -0.0793 -0.5442  0.2877
 5606SOL    HW128277   0.607   0.902   3.269 -0.1858  0.1278 -1.8461
 5606SOL    HW228278   0.617   0.994   3.384  2.1818  2.1337 -0.9791
 5607SOL     OW28279   1.119   3.869   3.281  0.1787 -0.1842 -0.0000
 5607SOL    HW128280   1.094   3.888   3.190  1.3357 -0.4995 -0.3758
 5607SOL    HW228281   1.162   3.786   3.260  0.6420  0.7315 -2.7115
 5608SOL     OW28282   3.827   0.649  11.546  0.2384  0.3039 -0.3823
 5608SOL    HW128283   3.852   0.733  11.507 -0.9596  1.2345  0.8294
 5608SOL    HW228284   3.835   0.601  11.464  1.9830 -1.3119  0.7623
 5609SOL     OW28285   2.522   1.093   8.696  0.0221  0.9847 -0.3477
 5609SOL    HW128286   2.496   1.008   8.730  0.5828 -1.1903 -5.4563
 5609SOL    HW228287   2.439   1.137   8.678 -0.5485  0.3643  0.7583
 5610SOL     OW28288   0.455   1.535   6.657 -0.4136  0.2479 -0.0004
 5610SOL    HW128289   0.470   1.499   6.569 -1.0323  1.3052 -0.5338
 5610SOL    HW228290   0.478   1.624   6.631  0.9708  0.1560  0.8837
 5611SOL     OW28291   3.339   2.088  12.667 -0.1146 -0.0479 -0.4930
 5611SOL    HW128292   3.368   2.152  12.603 -0.6295  0.7354  0.0566
 5611SOL    HW228293   3.273   2.146  12.705  1.1239  1.5109 -0.7476
 5612SOL     OW28294   3.100   1.693   8.099 -0.4548  0.4578 -0.2414
 5612SOL    HW128295   3.013   1.655   8.087 -0.9882  1.7596 -0.4409
 5612SOL    HW228296   3.149   1.614   8.074 -1.2577 -0.4510  1.0721
 5613SOL     OW28297   3.371   1.651   2.431 -0.6624  0.2038 -0.1152
 5613SOL    HW128298   3.362   1.619   2.521 -1.2109 -0.9205 -0.5753
 5613SOL    HW228299   3.357   1.572   2.379 -0.0302  0.1327 -0.1816
 5614SOL     OW28300   2.515   2.841   7.444 -0.1154 -0.5354  0.0940
 5614SOL    HW128301   2.495   2.875   7.531 -0.5316  0.4917 -0.4007
 5614SOL    HW228302   2.461   2.764   7.428  0.1129 -0.8994  1.1018
 5615SOL     OW28303   2.191   2.020   3.421  0.1803  0.3910 -0.2630
 5615SOL    HW128304   2.209   1.970   3.501 -1.2966  1.6361  0.8415
 5615SOL    HW228305   2.280   2.049   3.404  1.0443 -1.7500  0.5697
 5616SOL     OW28306   4.430   1.348   7.348  0.5301 -0.1451 -0.0653
 5616SOL    HW128307   4.376   1.346   7.270  0.2020 -0.5327  0.1711
 5616SOL    HW228308   4.508   1.389   7.309  0.7125  0.3669  0.8262
 5617SOL     OW28309   0.207   0.436   7.138  0.0251  0.2263 -0.1557
 5617SOL    HW128310   0.194   0.341   7.138  1.3999  0.0423  0.1194
 5617SOL    HW228311   0.127   0.465   7.183 -2.1195 -1.8583 -2.5867
 5618SOL     OW28312   1.861   0.842   2.838 -0.2249  0.2731  0.1571
 5618SOL    HW128313   1.937   0.863   2.783 -0.2070  2.5668  1.0406
 5618SOL    HW228314   1.862   0.919   2.895 -1.9797  0.5515 -0.1850
 5619SOL     OW28315   0.303   0.239   3.600 -0.3607 -0.0728  0.1232
 5619SOL    HW128316   0.337   0.182   3.531  0.4681  2.4167 -1.5356
 5619SOL    HW228317   0.254   0.291   3.536 -1.2649  1.0805  1.7495
 5620SOL     OW28318   1.667   4.646   5.657 -0.6121 -0.3786  0.9532
 5620SOL    HW128319   1.608   4.573   5.675 -1.0704 -0.0430  0.8157
 5620SOL    HW228320   1.613   0.002   5.632 -1.0002 -0.1759  2.3562
 5621SOL     OW28321   1.200   0.840   0.923 -0.3361  0.2386 -0.2930
 5621SOL    HW128322   1.169   0.775   0.860 -3.1759  1.0850  0.2351
 5621SOL    HW228323   1.124   0.897   0.936  1.7066  2.7835  0.5688
 5622SOL     OW28324   1.390   0.950   3.063 -0.3150 -0.2491 -0.1069
 5622SOL    HW128325   1.333   1.016   3.022 -2.6229 -2.6352 -0.7350
 5622SOL    HW228326   1.367   0.884   2.998 -2.3579  0.9374 -0.5807
 5623SOL     OW28327   3.055   3.081   7.872  0.7087 -0.4790 -0.8061
 5623SOL    HW128328   3.007   3.157   7.904  0.6294 -0.7809 -0.2022
 5623SOL    HW228329   2.993   3.013   7.900  1.5858 -0.6375  0.7357
 5624SOL     OW28330   4.682   4.366   6.166  0.3246  0.6578 -0.2358
 5624SOL    HW128331   4.637   4.318   6.236 -0.4119  1.1334 -0.3786
 5624SOL    HW228332   4.606   4.387   6.112 -0.0409 -1.0876 -0.4174
 5625SOL     OW28333   4.641   4.428   4.210 -0.0059  0.3387 -0.2916
 5625SOL    HW128334   4.616   4.354   4.264 -0.6564  1.8341  1.4732
 5625SOL    HW228335   4.592   4.494   4.259  0.2598  1.6576 -1.8183
 5626SOL     OW28336   1.383   0.005   8.365 -0.3570  0.3007 -1.0726
 5626SOL    HW128337   1.367   4.652   8.304 -0.5515 -0.4782 -0.1062
 5626SOL    HW228338   1.299   0.037   8.398 -1.6006 -1.1698 -2.7972
 5627SOL     OW28339   2.925   3.925   9.998  0.0066  0.6972  0.0197
 5627SOL    HW128340   3.011   3.891  10.023 -1.3797 -3.0467 -0.1719
 5627SOL    HW228341   2.894   3.974  10.074  1.4033  2.0821 -0.3004
 5628SOL     OW28342   3.759   2.946   8.174 -0.3200  0.0050 -0.6974
 5628SOL    HW128343   3.718   3.032   8.180 -1.2905 -0.6044  1.1723
 5628SOL    HW228344   3.699   2.910   8.238  1.4010  1.8933  1.9902
 5629SOL     OW28345   1.797   2.978   8.885  0.6058  0.4524  0.2240
 5629SOL    HW128346   1.797   2.883   8.870 -3.0532  0.5384 -0.1352
 5629SOL    HW228347   1.717   2.994   8.935  0.9868  0.7855  0.7381
 5630SOL     OW28348   0.916   2.719  15.384  0.5333 -0.4795  0.2798
 5630SOL    HW128349   0.906   2.815  15.386  0.7762 -0.4568  0.4469
 5630SOL    HW228350   0.825   2.697  15.404  0.5558  0.6471  1.6343
 5631SOL     OW28351   2.638   0.294  16.477 -0.2137 -0.1939  0.1118
 5631SOL    HW128352   2.649   0.288  16.572  1.1244  0.5322 -0.0045
 5631SOL    HW228353   2.556   0.247  16.462 -0.1528  0.7649 -3.3019
 5632SOL     OW28354   4.597   1.788  10.937 -0.4706 -0.2724 -0.9885
 5632SOL    HW128355   4.598   1.693  10.931  0.0602 -0.3833  0.9480
 5632SOL    HW228356   4.691   1.798  10.952 -0.8264 -0.8397  1.6056
 5633SOL     OW28357   2.869   0.860   8.450  0.1643  0.4061 -0.1646
 5633SOL    HW128358   2.802   0.875   8.517  0.8635 -0.1857  0.6711
 5633SOL    HW228359   2.830   0.790   8.398 -1.9847  1.4127  0.1299
 5634SOL     OW28360   2.041   4.298   3.101 -0.4208  0.0730 -0.3937
 5634SOL    HW128361   2.122   4.252   3.125 -0.1982 -0.0168 -1.3340
 5634SOL    HW228362   2.005   4.318   3.187 -0.1236 -0.0244 -0.2443
 5635SOL     OW28363   0.705   2.060   6.958  0.0241  0.0837 -0.6718
 5635SOL    HW128364   0.639   2.010   6.911 -2.0814  1.4067  0.8861
 5635SOL    HW228365   0.762   1.987   6.979 -0.0366 -0.1565 -1.3476
 5636SOL     OW28366   3.633   4.554   8.172 -0.2911  0.5019  0.6713
 5636SOL    HW128367   3.654   4.539   8.080 -0.7193 -1.8312  0.9504
 5636SOL    HW228368   3.678   4.481   8.216  0.4249  0.9395  0.6663
 5637SOL     OW28369   1.565   0.811   2.597 -0.0488 -0.2006 -0.1569
 5637SOL    HW128370   1.511   0.846   2.667 -0.1273 -2.5876  0.9546
 5637SOL    HW228371   1.612   0.890   2.569 -0.8444 -0.4983 -2.3771
 5638SOL     OW28372   4.151   0.469   8.423  0.1244  0.4113 -0.4589
 5638SOL    HW128373   4.195   0.384   8.424  0.0740  0.3569 -2.8563
 5638SOL    HW228374   4.162   0.506   8.336  2.5142  0.8594  0.0422
 5639SOL     OW28375   3.867   1.745   7.418 -0.2159 -0.3820 -0.0645
 5639SOL    HW128376   3.945   1.697   7.444  0.0968  1.2024  1.9295
 5639SOL    HW228377   3.831   1.746   7.507 -1.1316  1.0663 -0.4396
 5640SOL     OW28378   3.492   3.639   5.111 -0.0022  0.3928 -0.4374
 5640SOL    HW128379   3.456   3.650   5.023  0.5711 -2.0928 -0.9697
 5640SOL    HW228380   3.582   3.614   5.090  0.3934  0.3949  1.2325
 5641SOL     OW28381   4.207   4.057   6.877 -0.3204  0.1873 -0.1797
 5641SOL    HW128382   4.154   3.989   6.835  0.3367  0.0120 -0.7223
 5641SOL    HW228383   4.187   4.038   6.969  1.7007 -1.1750 -0.0325
 5642SOL     OW28384   4.539   0.759   5.424 -0.1831 -0.1121 -0.0009
 5642SOL    HW128385   4.569   0.790   5.338 -1.5981  0.3560 -0.3292
 5642SOL    HW228386   4.443   0.759   5.420 -0.1800  0.1794 -0.0966
 5643SOL     OW28387   1.855   2.248  14.045 -0.5427  0.0406  0.4314
 5643SOL    HW128388   1.774   2.199  14.030 -0.5431  0.9950 -2.5883
 5643SOL    HW228389   1.901   2.214  13.969  0.8669 -0.9378  1.7115
 5644SOL     OW28390   0.001   4.198   5.248  0.0344 -0.3559  0.3707
 5644SOL    HW128391   4.639   4.159   5.213 -0.4015  1.3118 -0.4692
 5644SOL    HW228392   0.070   4.187   5.183 -1.4973 -3.4721 -0.7428
 5645SOL     OW28393   3.308   3.753  17.370  0.2821 -0.0053  0.0187
 5645SOL    HW128394   3.370   3.699  17.419 -0.1417 -0.3303  0.2084
 5645SOL    HW228395   3.359   3.833  17.376 -1.1166  0.6560  3.0176
 5646SOL     OW28396   1.405   1.506   3.709  0.3298 -0.0409  0.0170
 5646SOL    HW128397   1.369   1.508   3.798 -3.0128  0.5764 -1.3347
 5646SOL    HW228398   1.475   1.441   3.715  0.9360  0.6972  0.8219
 5647SOL     OW28399   2.013   1.456   2.841 -0.3519 -0.0497  0.2313
 5647SOL    HW128400   1.965   1.538   2.835 -2.3319 -1.1558  1.1848
 5647SOL    HW228401   2.102   1.490   2.828 -0.5061  0.3378  0.1835
 5648SOL     OW28402   2.405   1.602  10.317 -0.0058  0.4938  0.3546
 5648SOL    HW128403   2.329   1.579  10.263 -0.3571  1.2499  0.5218
 5648SOL    HW228404   2.356   1.623  10.397  0.1365 -0.6853  0.7579
 5649SOL     OW28405   2.880   1.203   6.535  0.4781  0.1965 -0.7008
 5649SOL    HW128406   2.879   1.169   6.624  2.0784  0.0182 -0.7540
 5649SOL    HW228407   2.796   1.189   6.491 -0.0626  0.0977  0.3662
 5650SOL     OW28408   0.328   2.524  12.174  0.3175 -0.6694 -0.4139
 5650SOL    HW128409   0.421   2.502  12.171  0.0986 -1.8026  1.1041
 5650SOL    HW228410   0.327   2.580  12.097 -1.7708  1.2129  0.9870
 5651SOL     OW28411   2.012   2.759   0.274  0.2335  0.3283  0.0618
 5651SOL    HW128412   2.056   2.790   0.353  0.4160  0.3627 -0.0534
 5651SOL    HW228413   1.973   2.840   0.242  0.8042  0.9520  0.9761
 5652SOL     OW28414   3.390   3.198   3.436  0.5381  0.4817  0.1738
 5652SOL    HW128415   3.464   3.167   3.383  0.0886  1.5582 -1.1062
 5652SOL    HW228416   3.321   3.149   3.393  1.0910  0.8537 -1.1528
 5653SOL     OW28417   1.606   4.508  16.861 -0.8050 -0.2488 -0.4622
 5653SOL    HW128418   1.621   4.511  16.767 -0.2607 -0.2058 -0.3749
 5653SOL    HW228419   1.697   4.483  16.877 -1.3798 -0.6325  2.3259
 5654SOL     OW28420   2.087   2.620  14.991  0.0256  0.7323  0.0167
 5654SOL    HW128421   2.001   2.629  15.032  1.0542 -1.3979  2.6326
 5654SOL    HW228422   2.074   2.607  14.897  1.1969  0.2980 -0.0793
 5655SOL     OW28423   0.163   1.946  13.488  0.2957 -0.4238 -0.0121
 5655SOL    HW128424   0.173   1.911  13.577 -0.6585  2.3038  1.1950
 5655SOL    HW228425   0.187   2.038  13.501  3.0295 -0.9243 -1.6054
 5656SOL     OW28426   4.609   2.885  12.592  0.3075 -0.1303  0.1865
 5656SOL    HW128427   4.686   2.843  12.553  1.5082  1.4920  0.7997
 5656SOL    HW228428   4.538   2.844  12.542  0.0939  2.5995 -1.7362
 5657SOL     OW28429   2.605   3.388  11.359 -0.7950 -0.3002  0.0548
 5657SOL    HW128430   2.665   3.337  11.413 -1.9489  0.0063  1.6432
 5657SOL    HW228431   2.618   3.481  11.377  2.1876 -0.4318 -1.4603
 5658SOL     OW28432   2.065   1.864   4.734 -0.1810 -0.3538  0.1328
 5658SOL    HW128433   2.038   1.775   4.711  0.2040 -0.7553  1.2639
 5658SOL    HW228434   1.980   1.904   4.717 -0.4585 -0.4630  1.2733
 5659SOL     OW28435   1.055   3.198  13.316  0.0883 -0.3611  0.2206
 5659SOL    HW128436   0.999   3.210  13.240  0.3281 -1.5136 -0.1418
 5659SOL    HW228437   1.145   3.208  13.286  0.2533  1.4632  1.3432
 5660SOL     OW28438   4.031   4.254  14.347 -0.5090 -0.0211 -0.3791
 5660SOL    HW128439   3.939   4.231  14.344 -0.3614 -0.7130  0.7736
 5660SOL    HW228440   4.052   4.279  14.257  2.9576  0.7739  0.6416
 5661SOL     OW28441   0.871   3.010  15.285  0.4361  0.0080 -0.0911
 5661SOL    HW128442   0.850   3.071  15.355 -0.0472  0.3369 -0.5225
 5661SOL    HW228443   0.965   3.027  15.275 -0.3191  2.9588 -2.1271
 5662SOL     OW28444   0.745   3.105   5.957 -0.0560 -0.2322 -0.0079
 5662SOL    HW128445   0.772   3.142   5.873 -1.2289  1.8356  0.5312
 5662SOL    HW228446   0.668   3.154   5.984 -0.2662 -0.3686 -0.3618
 5663SOL     OW28447   0.715   2.869  12.062  0.6279 -0.1618  0.3538
 5663SOL    HW128448   0.672   2.920  12.130  3.7090 -0.0512  2.2419
 5663SOL    HW228449   0.786   2.926  12.032  0.6682 -0.3986 -0.0024
 5664SOL     OW28450   0.544   1.051   4.061  0.4765  0.3111 -0.4130
 5664SOL    HW128451   0.551   1.000   3.980  1.6600 -0.5720  0.2358
 5664SOL    HW228452   0.636   1.066   4.081  0.6787 -2.0956  0.4195
 5665SOL     OW28453   0.878   0.766   8.864  0.1931  0.4880  0.2535
 5665SOL    HW128454   0.910   0.679   8.841 -2.5040  0.2043 -2.4906
 5665SOL    HW228455   0.900   0.776   8.957 -1.0985  0.9699  0.5136
 5666SOL     OW28456   3.080   0.263   7.596  0.4022  0.3144 -0.2108
 5666SOL    HW128457   3.058   0.338   7.541 -1.0713 -0.3947 -0.5928
 5666SOL    HW228458   2.997   0.244   7.638 -0.7528 -1.1070 -3.0842
 5667SOL     OW28459   1.227   2.417   1.038 -0.0308 -0.2558  0.2640
 5667SOL    HW128460   1.210   2.451   1.126 -0.4468 -0.5907  0.3134
 5667SOL    HW228461   1.238   2.325   1.061 -0.1751 -0.1957  0.5705
 5668SOL     OW28462   4.283   3.949   1.649  0.0526  0.6908  0.2306
 5668SOL    HW128463   4.355   4.010   1.636  0.0424 -0.3412 -4.4311
 5668SOL    HW228464   4.205   4.004   1.653  0.4858  1.2165  1.3494
 5669SOL     OW28465   1.656   1.036  15.362 -0.0865  0.1040  0.5427
 5669SOL    HW128466   1.576   0.986  15.375 -1.1581  1.6514 -0.1506
 5669SOL    HW228467   1.704   0.967  15.316  0.4920 -1.4756  3.4578
 5670SOL     OW28468   2.089   0.495   0.272  0.3221  0.2592  0.0728
 5670SOL    HW128469   2.177   0.468   0.299 -0.5178 -1.2278  1.3148
 5670SOL    HW228470   2.091   0.465   0.181 -0.5913  0.9485 -0.1692
 5671SOL     OW28471   3.144   3.867  13.847  0.0525 -0.6179  0.7108
 5671SOL    HW128472   3.171   3.779  13.821 -0.4307 -0.7046  0.5153
 5671SOL    HW228473   3.225   3.884  13.897  0.8162  1.0939 -1.1265
 5672SOL     OW28474   1.329   4.462  12.792  0.0690 -0.0386  0.2534
 5672SOL    HW128475   1.249   4.513  12.808 -0.7427 -0.9104 -1.0695
 5672SOL    HW228476   1.335   4.402  12.867  0.1281 -2.1753 -1.4769
 5673SOL     OW28477   3.385   3.490   7.221 -0.0263  0.3639 -0.0256
 5673SOL    HW128478   3.429   3.440   7.153  0.2793  2.6578 -1.5012
 5673SOL    HW228479   3.316   3.544   7.182 -1.9656 -2.4285 -0.4936
 5674SOL     OW28480   0.859   3.200   5.405 -0.1869 -0.0458  0.3103
 5674SOL    HW128481   0.848   3.114   5.446 -0.4219 -0.4286 -0.5620
 5674SOL    HW228482   0.774   3.215   5.364  0.1087  0.9821  0.0750
 5675SOL     OW28483   3.233   3.483   5.075  0.0793 -0.0199  0.1390
 5675SOL    HW128484   3.246   3.388   5.074  0.7095  0.1009 -1.8377
 5675SOL    HW228485   3.323   3.510   5.093  0.9003 -1.8213 -1.2912
 5676SOL     OW28486   0.130   4.675   4.048 -0.5051 -0.3124  0.2704
 5676SOL    HW128487   0.138   4.616   4.122 -2.0274 -0.4546  0.3317
 5676SOL    HW228488   0.094   0.035   4.090  0.6979  0.0264  0.6516
 5677SOL     OW28489   2.663   1.133   1.213 -0.3108  0.2292 -0.2128
 5677SOL    HW128490   2.748   1.164   1.243 -0.0960  0.2044 -0.7838
 5677SOL    HW228491   2.599   1.194   1.250 -1.2429 -0.3642 -0.8194
 5678SOL     OW28492   4.094   2.260   1.688 -0.1676 -0.0954 -0.1809
 5678SOL    HW128493   4.087   2.238   1.781 -2.2911  1.7981  0.0951
 5678SOL    HW228494   4.163   2.326   1.693 -0.2267  0.0855 -1.5214
 5679SOL     OW28495   2.686   1.129   7.522 -0.2819  0.3817  0.3640
 5679SOL    HW128496   2.660   1.194   7.458  3.0881 -0.2693 -1.6387
 5679SOL    HW228497   2.595   1.115   7.550  0.7009 -0.7045  3.0630
 5680SOL     OW28498   4.606   1.002   3.507  0.4408 -0.0408  0.6828
 5680SOL    HW128499   4.662   0.953   3.567 -1.2192 -0.5494  1.8121
 5680SOL    HW228500   4.620   1.085   3.552  0.5021  0.9440 -1.1285
 5681SOL     OW28501   0.638   1.487  10.499 -0.6287  0.1174  0.3094
 5681SOL    HW128502   0.623   1.581  10.484  0.3439  0.2251  0.0018
 5681SOL    HW228503   0.724   1.498  10.539  0.2591 -0.5066 -1.4146
 5682SOL     OW28504   2.669   1.872   5.067 -0.4441 -0.5942  0.2841
 5682SOL    HW128505   2.591   1.822   5.044  0.6806 -0.6714 -3.3559
 5682SOL    HW228506   2.730   1.800   5.052  0.9469  0.5717  0.3661
 5683SOL     OW28507   0.642   0.462  10.151 -0.0093 -0.3950  0.7978
 5683SOL    HW128508   0.550   0.487  10.155 -0.2389 -1.2551  0.9202
 5683SOL    HW228509   0.656   0.462  10.057  0.2563 -1.0242  0.8395
 5684SOL     OW28510   0.724   0.731   6.696 -0.4936 -0.9466 -0.1767
 5684SOL    HW128511   0.811   0.762   6.722 -0.0699 -1.9293 -0.3921
 5684SOL    HW228512   0.677   0.738   6.778 -0.7135 -1.6909 -0.2357
 5685SOL     OW28513   1.764   2.845   3.600 -0.1477 -0.0097 -0.0008
 5685SOL    HW128514   1.803   2.859   3.687 -1.1724 -1.6237  0.7145
 5685SOL    HW228515   1.688   2.790   3.614 -0.3340  0.2544  0.0276
 5686SOL     OW28516   3.913   3.304   7.447 -0.4216 -0.6219  0.7293
 5686SOL    HW128517   3.900   3.267   7.535  3.0727 -2.4945  0.4351
 5686SOL    HW228518   3.860   3.249   7.389 -1.3610 -0.2206  1.1897
 5687SOL     OW28519   1.559   2.722   4.782 -0.2644  0.2936  0.1836
 5687SOL    HW128520   1.555   2.710   4.687 -0.3268  2.0218 -0.0336
 5687SOL    HW228521   1.649   2.754   4.793 -0.2144  0.5775 -1.0462
 5688SOL     OW28522   2.438   1.420   5.699 -0.1792 -0.0700 -0.4563
 5688SOL    HW128523   2.531   1.395   5.700 -0.1613  0.0400  0.7193
 5688SOL    HW228524   2.407   1.416   5.790 -0.2986 -1.0322 -0.5373
 5689SOL     OW28525   3.283   3.723   6.422  0.6775 -0.0505  0.2128
 5689SOL    HW128526   3.330   3.779   6.360  0.1907  2.0808  1.7336
 5689SOL    HW228527   3.238   3.656   6.370  2.1040  0.1478 -1.2943
 5690SOL     OW28528   0.694   2.283   5.616  0.3801  0.3593 -0.3704
 5690SOL    HW128529   0.626   2.338   5.576 -0.8551 -2.2029 -1.8150
 5690SOL    HW228530   0.637   2.223   5.665  1.3032  0.7319  1.1423
 5691SOL     OW28531   0.284   3.196   3.083 -0.7264  0.2673  0.2950
 5691SOL    HW128532   0.239   3.111   3.081 -0.4105  0.1588 -2.3687
 5691SOL    HW228533   0.363   3.161   3.125 -0.2820  0.2760 -0.5245
 5692SOL     OW28534   2.164   1.365   8.802  0.8358 -0.2578  0.1011
 5692SOL    HW128535   2.149   1.284   8.851  2.4780 -0.2951  0.5399
 5692SOL    HW228536   2.076   1.403   8.810  1.4315  1.4658 -1.4037
 5693SOL     OW28537   2.021   2.237  11.923  0.2518 -0.5141 -0.3652
 5693SOL    HW128538   1.978   2.263  12.005  3.1187  0.1850  0.9285
 5693SOL    HW228539   2.058   2.151  11.945  1.4651 -0.2029 -1.2219
 5694SOL     OW28540   4.624   4.580  12.022 -0.5117 -0.2695  0.0944
 5694SOL    HW128541   4.667   4.528  11.954  1.2057  0.4531  0.6273
 5694SOL    HW228542   4.647   4.537  12.104 -0.3589  1.0745  0.7557
 5695SOL     OW28543   2.228   0.414   8.307 -0.0718  0.5928 -0.7710
 5695SOL    HW128544   2.291   0.449   8.244 -0.1296 -0.3353 -1.3476
 5695SOL    HW228545   2.189   0.494   8.342  0.1219  0.7602 -0.9377
 5696SOL     OW28546   2.511   4.534   8.675 -0.6277 -0.0041 -0.5249
 5696SOL    HW128547   2.443   4.517   8.609 -1.6261 -0.4130  0.6210
 5696SOL    HW228548   2.526   4.450   8.718  1.0883 -0.1385 -1.4064
 5697SOL     OW28549   0.009   3.945   2.338  0.0925  0.1039 -0.0683
 5697SOL    HW128550   4.676   4.020   2.368  0.6691  0.8750 -0.9730
 5697SOL    HW228551   4.685   3.864   2.367  0.6469 -0.1719 -0.0264
 5698SOL     OW28552   2.451   4.579   2.756  0.3164  0.4149  0.0126
 5698SOL    HW128553   2.543   4.600   2.773  0.3286  1.4989 -1.4862
 5698SOL    HW228554   2.414   4.651   2.807  3.5825  2.1749 -0.1371
 5699SOL     OW28555   4.038   1.725   6.967 -0.3635 -0.3797 -0.2359
 5699SOL    HW128556   4.002   1.762   7.048 -0.7646  1.4984 -1.2838
 5699SOL    HW228557   4.120   1.774   6.976 -2.6937  3.5959 -0.5926
 5700SOL     OW28558   0.557   0.772  13.079 -0.4758  0.1376  0.2383
 5700SOL    HW128559   0.610   0.831  13.026 -1.4845 -0.4468 -1.4192
 5700SOL    HW228560   0.505   0.843  13.117  0.8729  0.4441  1.5078
 5701SOL     OW28561   2.354   4.072   6.063  0.5493  0.1486 -0.2928
 5701SOL    HW128562   2.293   4.033   6.002 -0.0271  1.7960 -0.7605
 5701SOL    HW228563   2.431   4.040   6.016  2.0529  0.2032  2.0977
 5702SOL     OW28564   3.287   2.952   4.125 -0.0525 -0.1929 -0.2538
 5702SOL    HW128565   3.319   3.042   4.130 -1.8648  0.4672 -0.3331
 5702SOL    HW228566   3.298   2.942   4.031  0.4273  0.7378 -0.2970
 5703SOL     OW28567   0.431   2.200   9.172 -0.3096  0.3724  0.1273
 5703SOL    HW128568   0.336   2.214   9.181 -0.7043 -3.2105  1.3909
 5703SOL    HW228569   0.434   2.140   9.097  0.5814 -0.2930  0.6998
 5704SOL     OW28570   2.129   0.353   5.456  0.4066 -0.8040  0.6429
 5704SOL    HW128571   2.054   0.308   5.494 -1.6521 -0.1170 -2.5322
 5704SOL    HW228572   2.100   0.440   5.425  1.3976  0.1635  2.4495
 5705SOL     OW28573   2.662   1.206   0.133  0.3979  0.0902 -0.1581
 5705SOL    HW128574   2.576   1.237   0.105 -0.3895 -0.6095  1.5027
 5705SOL    HW228575   2.718   1.277   0.100 -0.3241  1.1550  0.8929
 5706SOL     OW28576   0.014   1.393   9.058  0.3788  0.0605 -0.7355
 5706SOL    HW128577   4.642   1.371   9.080  0.5876  3.3269  3.2145
 5706SOL    HW228578   0.001   1.475   9.011 -1.9870  1.0708  1.6939
 5707SOL     OW28579   0.148   0.977  10.266  0.3446  0.8547  0.3999
 5707SOL    HW128580   0.064   1.005  10.229  0.0671 -0.7853 -0.1838
 5707SOL    HW228581   0.149   1.030  10.345 -1.7329 -0.2269  1.1591
 5708SOL     OW28582   3.113   0.475   9.707  0.6291 -0.3252 -0.1782
 5708SOL    HW128583   3.079   0.528   9.779  2.3232 -0.4450  0.7203
 5708SOL    HW228584   3.206   0.485   9.728  0.6297  1.5088 -1.0566
 5709SOL     OW28585   0.028   4.289  13.837 -0.4757  0.0816  0.2977
 5709SOL    HW128586   0.009   4.361  13.777  1.1573  0.5250  0.3294
 5709SOL    HW228587   0.036   4.216  13.777 -1.4682  0.5625 -0.4242
 5710SOL     OW28588   4.426   1.537   3.151 -0.6336  0.2503  0.1002
 5710SOL    HW128589   4.494   1.571   3.092  1.3048 -2.9099  0.5105
 5710SOL    HW228590   4.464   1.569   3.233 -0.5800 -0.6491  0.4234
 5711SOL     OW28591   0.958   0.159  11.595 -0.7261  0.2735 -0.3491
 5711SOL    HW128592   0.970   0.226  11.663 -0.7109  0.9851 -1.0556
 5711SOL    HW228593   0.961   0.078  11.645 -2.8466  0.0586 -0.5548
 5712SOL     OW28594   0.106   1.524   2.786 -0.3824 -0.3930 -0.1481
 5712SOL    HW128595   0.139   1.455   2.842  0.2258  0.2430  0.2710
 5712SOL    HW228596   0.163   1.598   2.808 -1.0209  0.2420 -0.6210
 5713SOL     OW28597   4.367   3.116   0.057  0.4488  0.2788  0.4825
 5713SOL    HW128598   4.294   3.066   0.093 -0.4395  0.7429 -0.6833
 5713SOL    HW228599   4.422   3.122   0.135  0.8185  1.2278  0.1512
 5714SOL     OW28600   4.358   3.968  10.053  0.4758 -0.2354 -0.2281
 5714SOL    HW128601   4.309   3.972  10.135  3.0165 -0.1976  1.2855
 5714SOL    HW228602   4.299   4.014   9.994 -2.3011 -2.6994  0.6446
 5715SOL     OW28603   2.640   3.748   9.251 -0.0954  0.0290  0.1318
 5715SOL    HW128604   2.663   3.803   9.325 -1.2723 -0.6510  0.9942
 5715SOL    HW228605   2.546   3.754   9.235 -0.3517 -0.9622  1.2470
 5716SOL     OW28606   2.468   1.489   8.173 -0.1071  0.5592  0.3227
 5716SOL    HW128607   2.492   1.579   8.195  2.2142 -0.2485  1.1291
 5716SOL    HW228608   2.545   1.467   8.122 -1.5849 -0.0040 -1.6700
 5717SOL     OW28609   4.152   2.468  17.584  0.3467 -0.3773  0.3987
 5717SOL    HW128610   4.110   2.552  17.569 -1.7918 -0.9371  3.3078
 5717SOL    HW228611   4.242   2.481  17.614  1.2837 -1.3526 -1.9928
 5718SOL     OW28612   0.942   3.753  14.065 -0.9928  0.2547  0.0761
 5718SOL    HW128613   1.011   3.790  14.009 -1.3412 -0.9096 -1.1236
 5718SOL    HW228614   0.862   3.757  14.013  0.0126  1.6397 -1.3854
 5719SOL     OW28615   3.610   4.203   0.534 -0.5076  0.6667  0.9293
 5719SOL    HW128616   3.639   4.120   0.572  2.0513  1.8882  1.6144
 5719SOL    HW228617   3.687   4.223   0.482 -1.7290  0.0368 -1.1570
 5720SOL     OW28618   4.394   2.116   9.689  0.8148 -0.6716 -0.7642
 5720SOL    HW128619   4.462   2.084   9.629  2.7431 -0.4493  1.3289
 5720SOL    HW228620   4.335   2.134   9.616  0.5425 -0.2210 -0.4335
 5721SOL     OW28621   2.949   0.713   7.815  0.4013 -0.7143  0.1445
 5721SOL    HW128622   2.960   0.731   7.909  0.7013  1.4600 -0.3142
 5721SOL    HW228623   2.858   0.689   7.800 -0.0538  0.3233  1.2028
 5722SOL     OW28624   3.402   1.448  14.665 -0.2522  0.4463  0.5009
 5722SOL    HW128625   3.362   1.484  14.744 -2.7447 -0.7799 -0.2197
 5722SOL    HW228626   3.367   1.504  14.596 -1.5680 -2.3600 -1.0909
 5723SOL     OW28627   1.626   0.615   5.170  0.0866  0.4090 -0.3597
 5723SOL    HW128628   1.577   0.621   5.253  1.2485  1.0573  0.2776
 5723SOL    HW228629   1.682   0.690   5.187 -1.4258  1.3755  0.3600
 5724SOL     OW28630   2.403   3.612   2.080 -0.2506 -0.4656 -0.4493
 5724SOL    HW128631   2.342   3.626   2.007 -1.0651 -2.1339 -0.0859
 5724SOL    HW228632   2.340   3.610   2.152  1.5507  3.5446  1.2701
 5725SOL     OW28633   3.400   3.489   0.300 -0.3212 -0.4521 -0.8015
 5725SOL    HW128634   3.346   3.443   0.364  0.2037  1.2074  0.8431
 5725SOL    HW228635   3.404   3.579   0.331 -0.6902 -0.4463 -0.7769
 5726SOL     OW28636   1.059   4.596   7.732  0.8788  0.0136 -0.7424
 5726SOL    HW128637   0.981   4.583   7.786 -0.5915 -0.0780 -2.8889
 5726SOL    HW228638   1.088   4.507   7.713 -0.0431 -0.2543 -0.9178
 5727SOL     OW28639   2.807   1.594   5.124 -0.0439  0.1021  0.6810
 5727SOL    HW128640   2.784   1.569   5.214  1.1366  0.6218  1.1260
 5727SOL    HW228641   2.819   1.508   5.085 -0.5900  0.4070 -0.1564
 5728SOL     OW28642   3.034   4.351  10.353  0.8554  0.3300 -0.5819
 5728SOL    HW128643   3.013   4.419  10.289  1.3534  2.0056  1.0260
 5728SOL    HW228644   3.088   4.286  10.308  0.6278 -0.3122  0.0734
 5729SOL     OW28645   4.597   0.876   5.927  0.2249 -0.1385 -0.0758
 5729SOL    HW128646   4.617   0.957   5.879 -1.1078 -0.4541 -1.1368
 5729SOL    HW228647   4.575   0.815   5.857 -0.8696  0.8406 -0.5683
 5730SOL     OW28648   2.136   3.386  16.405 -0.1930 -0.3510 -0.2694
 5730SOL    HW128649   2.129   3.291  16.413 -2.8102 -0.2171 -1.2314
 5730SOL    HW228650   2.119   3.402  16.312  2.1611 -2.3270 -1.0562
 5731SOL     OW28651   1.711   4.268   0.507  0.1731  0.2185 -0.7211
 5731SOL    HW128652   1.729   4.185   0.463 -0.1299 -0.1862 -0.0929
 5731SOL    HW228653   1.618   4.279   0.490  0.1261  0.2402 -0.4624
 5732SOL     OW28654   2.630   3.882   2.167  0.2523 -0.3099 -0.0215
 5732SOL    HW128655   2.615   3.967   2.209  0.8665 -1.3502  2.2737
 5732SOL    HW228656   2.605   3.910   2.079  0.6545 -0.9014 -0.3246
 5733SOL     OW28657   2.437   2.700   9.067  0.2562 -0.0597  0.8047
 5733SOL    HW128658   2.346   2.707   9.093 -0.1007  1.8169 -0.9865
 5733SOL    HW228659   2.472   2.736   9.149 -1.2764  2.5312  0.3032
 5734SOL     OW28660   0.339   4.661  11.722 -0.3626  0.2227 -0.4018
 5734SOL    HW128661   0.306   0.011  11.779  0.5466  0.3460 -0.0211
 5734SOL    HW228662   0.419   4.701  11.688 -0.2863  1.7863  1.6415
 5735SOL     OW28663   0.487   1.387  16.515 -0.3414 -0.0299 -0.5519
 5735SOL    HW128664   0.473   1.315  16.453  1.2346 -0.4539 -0.4363
 5735SOL    HW228665   0.565   1.434  16.485  0.1073 -0.4041  0.0242
 5736SOL     OW28666   1.101   2.330   0.113  0.6300 -0.0374  0.1608
 5736SOL    HW128667   1.088   2.240   0.140  1.7229 -0.2454  0.0237
 5736SOL    HW228668   1.013   2.366   0.117  0.5936 -0.0276 -0.8424
 5737SOL     OW28669   0.449   2.087   5.236  0.0850 -0.5264  0.2177
 5737SOL    HW128670   0.401   2.020   5.286  0.7874 -1.9279 -0.9810
 5737SOL    HW228671   0.541   2.079   5.259 -0.1847 -4.1894  0.1199
 5738SOL     OW28672   2.874   4.060   8.048  0.2902 -0.4699 -0.7466
 5738SOL    HW128673   2.933   4.009   7.993  2.3081  0.5571  0.4780
 5738SOL    HW228674   2.794   4.007   8.051 -1.8166  2.7373 -0.5434
 5739SOL     OW28675   4.199   1.967   6.811 -0.3453 -0.1041 -0.3705
 5739SOL    HW128676   4.132   1.976   6.744 -0.9552  1.2599  0.4213
 5739SOL    HW228677   4.268   2.030   6.789 -2.3817  2.2433 -0.0677
 5740SOL     OW28678   3.225   3.267   2.237 -0.2567  0.3340  0.1312
 5740SOL    HW128679   3.134   3.260   2.266 -0.0146 -1.7274  0.3877
 5740SOL    HW228680   3.261   3.179   2.251  1.0096  0.9207  0.5328
 5741SOL     OW28681   4.059   1.347   3.024 -0.3446 -0.0958  0.5462
 5741SOL    HW128682   4.053   1.438   3.054 -2.4761 -0.5284  1.3805
 5741SOL    HW228683   4.057   1.300   3.107 -1.1760 -0.8184  0.1222
 5742SOL     OW28684   4.555   1.141   2.584  0.1088 -0.5676 -0.9572
 5742SOL    HW128685   4.585   1.203   2.651  1.5536 -0.1634 -1.9811
 5742SOL    HW228686   4.486   1.193   2.543 -1.3059 -1.8830 -0.2240
 5743SOL     OW28687   1.050   0.414  12.917  0.1231  0.2552 -0.1615
 5743SOL    HW128688   1.044   0.323  12.890 -1.0113  0.3735 -0.2937
 5743SOL    HW228689   1.082   0.404  13.007 -1.7444  1.6743  0.6670
 5744SOL     OW28690   1.196   1.044   5.515 -0.7676 -0.2202  0.0701
 5744SOL    HW128691   1.136   1.000   5.454  0.3450 -1.7862  0.0877
 5744SOL    HW228692   1.281   1.039   5.471 -2.3481  0.0842 -2.9487
 5745SOL     OW28693   2.456   3.941   0.329 -0.2513 -1.1004  1.0502
 5745SOL    HW128694   2.453   3.895   0.245 -0.0685 -1.0970  1.0431
 5745SOL    HW228695   2.505   4.022   0.319 -0.7595 -1.4260 -4.0272
 5746SOL     OW28696   3.039   2.780  12.707 -0.2276  1.0364  0.0733
 5746SOL    HW128697   3.049   2.853  12.646 -2.2446  0.6516 -0.7428
 5746SOL    HW228698   3.120   2.772  12.757  0.5441 -3.0967 -1.7943
 5747SOL     OW28699   2.463   2.838   6.834 -0.3489 -0.1311 -0.5250
 5747SOL    HW128700   2.466   2.888   6.916 -1.3911 -2.1305  0.7564
 5747SOL    HW228701   2.378   2.796   6.848 -1.2000  1.4905 -0.7963
 5748SOL     OW28702   0.882   0.866   4.841  0.2816  0.4470  0.1502
 5748SOL    HW128703   0.877   0.957   4.814  2.5969  0.3465 -0.5723
 5748SOL    HW228704   0.969   0.839   4.811 -0.2385 -0.2546 -0.7431
 5749SOL     OW28705   0.155   2.721   3.271 -0.2667  0.2363 -0.1392
 5749SOL    HW128706   0.159   2.726   3.366  1.8237 -0.8878 -0.1604
 5749SOL    HW228707   0.150   2.628   3.251 -2.5381  0.3198  0.0443
 5750SOL     OW28708   0.368   2.577   0.773  0.0393 -0.3499  0.4579
 5750SOL    HW128709   0.434   2.638   0.809  0.4479 -1.7483  2.0739
 5750SOL    HW228710   0.325   2.546   0.853 -2.1560 -1.9222 -1.3688
 5751SOL     OW28711   2.499   2.421   3.512  0.2098 -0.1097 -0.0800
 5751SOL    HW128712   2.505   2.326   3.499 -1.9111 -0.0911 -1.2310
 5751SOL    HW228713   2.521   2.470   3.433 -1.0516 -0.2306 -0.5030
 5752SOL     OW28714   2.660   1.383  13.286  0.1280 -0.2751  0.0903
 5752SOL    HW128715   2.610   1.303  13.271 -0.3589  0.4173 -2.0820
 5752SOL    HW228716   2.706   1.387  13.202  2.7982  0.4315  1.5942
 5753SOL     OW28717   2.677   3.816   1.596 -0.3849 -0.3187 -0.6581
 5753SOL    HW128718   2.612   3.770   1.650  0.2033 -0.7175 -0.2961
 5753SOL    HW228719   2.724   3.855   1.669 -0.3172 -0.1942 -0.7682
 5754SOL     OW28720   0.941   0.870  10.537 -0.5431  0.3428 -0.3949
 5754SOL    HW128721   1.014   0.866  10.599 -0.5410 -0.4961 -0.4400
 5754SOL    HW228722   0.919   0.963  10.543  0.0124  0.4751 -0.4932
 5755SOL     OW28723   2.348   2.581  13.316  0.0530  0.0473 -0.0341
 5755SOL    HW128724   2.309   2.601  13.401 -0.3554  3.6995 -1.0983
 5755SOL    HW228725   2.340   2.669  13.279 -3.1465 -0.1139  0.2946
 5756SOL     OW28726   0.069   0.789  15.403 -0.0440  0.3183  0.3037
 5756SOL    HW128727   4.705   0.776  15.359  0.0114  0.6068  0.1127
 5756SOL    HW228728   0.134   0.809  15.335 -1.4476 -0.1687 -1.1710
 5757SOL     OW28729   4.084   1.258   9.052  0.4294  0.0548 -0.2605
 5757SOL    HW128730   4.008   1.210   9.085 -0.2832 -0.2978 -2.3490
 5757SOL    HW228731   4.074   1.340   9.100 -0.4246 -0.3918  0.3291
 5758SOL     OW28732   3.035   0.141   7.113  0.0745 -0.5803 -0.3447
 5758SOL    HW128733   3.061   0.157   7.203 -1.6965  3.5364 -0.5551
 5758SOL    HW228734   2.941   0.129   7.125  0.3487 -0.1169  2.2660
 5759SOL     OW28735   4.481   3.140   9.900  0.0412 -0.3267 -0.3839
 5759SOL    HW128736   4.509   3.048   9.899  2.3209  0.3513  2.1476
 5759SOL    HW228737   4.386   3.126   9.903  0.2644 -1.6056  0.9841
 5760SOL     OW28738   4.487   2.943  16.801 -0.2130  0.1048  0.5380
 5760SOL    HW128739   4.512   3.013  16.862 -0.6564 -1.4078  2.4596
 5760SOL    HW228740   4.558   2.948  16.737 -0.7689  0.6739 -0.0262
 5761SOL     OW28741   1.916   0.403   2.132 -0.2829  0.2604  0.1520
 5761SOL    HW128742   1.885   0.355   2.054  1.0748  1.7725 -1.3176
 5761SOL    HW228743   1.943   0.335   2.194  2.1384 -0.7279 -2.0087
 5762SOL     OW28744   3.383   0.865   9.736 -0.8643  0.1416 -0.1485
 5762SOL    HW128745   3.466   0.871   9.689 -0.0761 -1.0796  1.1042
 5762SOL    HW228746   3.410   0.890   9.824 -0.0146 -1.6064  0.0698
 5763SOL     OW28747   3.542   2.042   7.178 -0.3307  0.2641 -0.3388
 5763SOL    HW128748   3.561   2.095   7.100  1.0590 -1.0588 -0.8980
 5763SOL    HW228749   3.607   2.077   7.239  0.0169 -0.1991 -0.4469
 5764SOL     OW28750   0.650   0.100   2.518 -0.6023  0.1593 -0.1813
 5764SOL    HW128751   0.742   0.121   2.538 -0.5725  0.7821 -0.9592
 5764SOL    HW228752   0.658   0.020   2.467 -1.9843  0.8885 -1.5393
 5765SOL     OW28753   0.651   2.838   5.284  0.5864 -0.1180 -0.1602
 5765SOL    HW128754   0.686   2.909   5.230  0.6195  0.4917  0.6538
 5765SOL    HW228755   0.578   2.801   5.234  1.8432 -1.1929 -1.1736
 5766SOL     OW28756   4.209   0.697   6.878  0.2070 -0.0476 -0.2894
 5766SOL    HW128757   4.279   0.760   6.895  0.9006 -1.6977  3.0458
 5766SOL    HW228758   4.199   0.691   6.783  0.9143  0.1704 -0.3785
 5767SOL     OW28759   1.638   2.378   8.139 -0.2905  0.3207  0.1127
 5767SOL    HW128760   1.582   2.305   8.165  0.0917  0.6462  1.8702
 5767SOL    HW228761   1.709   2.352   8.197 -0.5050 -2.7237 -1.0039
 5768SOL     OW28762   0.614   3.595  11.051  0.3882  0.3392  0.0786
 5768SOL    HW128763   0.585   3.669  11.104 -1.0522  1.1934 -1.8881
 5768SOL    HW228764   0.681   3.640  10.998  0.8497  2.2011  2.2749
 5769SOL     OW28765   4.034   1.724   8.882 -0.7807 -0.1310 -0.0715
 5769SOL    HW128766   4.033   1.687   8.794 -0.3716  1.2410 -0.6567
 5769SOL    HW228767   3.996   1.812   8.876 -0.7444 -0.0446  1.0200
 5770SOL     OW28768   3.466   4.411   0.880 -0.0866 -0.4468 -0.1563
 5770SOL    HW128769   3.438   4.463   0.805  1.3030  1.4767  0.6679
 5770SOL    HW228770   3.412   4.440   0.954 -0.9287  0.7944 -1.2557
 5771SOL     OW28771   4.076   0.719   3.807 -0.6684 -0.3741  0.0066
 5771SOL    HW128772   3.982   0.733   3.801 -0.9602 -2.6697 -0.6447
 5771SOL    HW228773   4.096   0.660   3.734 -0.0370  0.9293 -0.8676
 5772SOL     OW28774   3.354   2.700   2.159  0.1348  0.3837  0.2243
 5772SOL    HW128775   3.444   2.733   2.166  0.4431 -0.0776 -1.6042
 5772SOL    HW228776   3.353   2.688   2.064  2.7966 -1.9187  0.4647
 5773SOL     OW28777   2.807   2.255   3.573 -0.0745  0.1017  0.3467
 5773SOL    HW128778   2.793   2.207   3.491  0.6173 -0.6196  0.6498
 5773SOL    HW228779   2.840   2.182   3.626  0.0363 -1.2641 -1.5989
 5774SOL     OW28780   3.997   3.193   2.967 -0.3250 -0.3144 -0.7482
 5774SOL    HW128781   3.920   3.194   2.909 -1.7951  1.0630  1.2436
 5774SOL    HW228782   3.975   3.146   3.047  2.5742 -2.3145 -1.1030
 5775SOL     OW28783   1.856   4.620   6.346  0.0292 -0.8779 -0.2740
 5775SOL    HW128784   1.933   4.578   6.307  0.7447 -0.9820  1.2603
 5775SOL    HW228785   1.900   4.686   6.400 -3.2867  0.4485  0.8038
 5776SOL     OW28786   0.545   1.396   0.586 -0.8126  0.3942 -0.1852
 5776SOL    HW128787   0.479   1.331   0.607  1.3485 -1.8719 -0.3606
 5776SOL    HW228788   0.532   1.402   0.491  2.9801 -1.3132 -0.8103
 5777SOL     OW28789   3.764   4.059   1.386  0.1296  0.8342  0.0608
 5777SOL    HW128790   3.668   4.060   1.389  0.1451  0.7076  0.6674
 5777SOL    HW228791   3.784   4.044   1.294 -1.4739 -3.8548  0.5115
 5778SOL     OW28792   3.373   2.067   8.103 -0.3682  0.1714  0.4784
 5778SOL    HW128793   3.294   2.059   8.049  0.1581 -2.6404  0.1280
 5778SOL    HW228794   3.398   1.975   8.095  1.5231  0.7103  0.1587
 5779SOL     OW28795   0.537   0.359   7.407 -0.1263 -0.7623 -0.1877
 5779SOL    HW128796   0.444   0.364   7.427  0.6015 -0.6153  3.2347
 5779SOL    HW228797   0.578   0.382   7.491 -3.3364 -1.4097  1.5667
 5780SOL     OW28798   1.977   3.552  12.169  0.2546  0.0388  0.1413
 5780SOL    HW128799   2.021   3.505  12.240  2.1117 -0.3231 -1.2429
 5780SOL    HW228800   1.886   3.553  12.197 -0.2171  2.3305 -1.4724
 5781SOL     OW28801   2.830   4.197   8.695  0.6475  0.3307 -0.0997
 5781SOL    HW128802   2.831   4.257   8.620  1.6457 -1.6318 -1.6577
 5781SOL    HW228803   2.911   4.150   8.674  0.0338 -0.7733  0.0209
 5782SOL     OW28804   0.140   4.267  10.485  0.1600 -0.1143  0.0453
 5782SOL    HW128805   0.088   4.245  10.563 -0.0803  0.9681  0.1879
 5782SOL    HW228806   0.123   4.360  10.496 -2.1377 -0.1907 -2.9124
 5783SOL     OW28807   3.709   0.443   1.970  0.0782  0.0964  0.5205
 5783SOL    HW128808   3.671   0.464   1.884  0.1017 -1.5530  0.1193
 5783SOL    HW228809   3.637   0.429   2.031  0.7282  0.8879  1.4584
 5784SOL     OW28810   0.748   2.240   3.578 -0.3726 -0.4907 -0.5211
 5784SOL    HW128811   0.662   2.250   3.537 -0.0356 -1.3221 -1.4282
 5784SOL    HW228812   0.768   2.333   3.592 -1.3799 -0.1571 -1.2656
 5785SOL     OW28813   1.484   1.858   0.728 -0.1293  0.3788  0.4411
 5785SOL    HW128814   1.473   1.772   0.688  2.0387  0.0568  0.5239
 5785SOL    HW228815   1.520   1.900   0.650  2.0636 -1.8121  0.2845
 5786SOL     OW28816   3.412   0.449   8.817 -0.3907  0.0711 -0.2783
 5786SOL    HW128817   3.324   0.435   8.851 -0.7844  0.4483 -1.1324
 5786SOL    HW228818   3.431   0.542   8.835 -0.8415 -0.1044  1.0959
 5787SOL     OW28819   0.516   4.204  11.837 -0.4936  0.1371 -0.2649
 5787SOL    HW128820   0.604   4.167  11.846 -1.1690 -0.6910  2.7789
 5787SOL    HW228821   0.461   4.130  11.862  0.2231  0.5417  2.4650
 5788SOL     OW28822   0.374   3.478   1.506  0.0240  0.2139  0.1385
 5788SOL    HW128823   0.295   3.511   1.463  0.4140  0.9020 -0.0508
 5788SOL    HW228824   0.395   3.530   1.583 -0.8229 -0.0355  0.5422
 5789SOL     OW28825   4.679   4.473  13.666  0.3014  0.3366 -0.3188
 5789SOL    HW128826   4.668   4.544  13.730 -2.4312 -0.1135 -0.2945
 5789SOL    HW228827   4.687   4.516  13.581  0.4311 -1.0832 -1.0176
 5790SOL     OW28828   3.070   3.657   2.556 -0.2795 -0.0669  0.0567
 5790SOL    HW128829   3.093   3.567   2.531  1.1800 -0.0791  1.4254
 5790SOL    HW228830   3.008   3.686   2.489 -1.6576 -0.9901  0.9244
 5791SOL     OW28831   2.471   1.141   5.188  0.4035  0.3026  0.3749
 5791SOL    HW128832   2.430   1.075   5.243 -1.0928  0.8856 -0.0486
 5791SOL    HW228833   2.465   1.223   5.238 -0.1230 -0.1084  0.9857
 5792SOL     OW28834   2.460   4.418  10.903  0.1885 -0.1067 -0.4721
 5792SOL    HW128835   2.549   4.403  10.871  0.5543 -0.2777  0.6212
 5792SOL    HW228836   2.472   4.496  10.958  0.2335  1.5516 -2.8490
 5793SOL     OW28837   0.837   3.082  11.092 -0.0263 -0.5376 -0.1694
 5793SOL    HW128838   0.779   3.033  11.034  2.5479 -1.6856 -1.7612
 5793SOL    HW228839   0.924   3.059  11.060  0.3281  0.3423  0.1457
 5794SOL     OW28840   3.526   3.443   8.793  0.6450 -0.2582 -0.5379
 5794SOL    HW128841   3.516   3.367   8.736  2.6741 -0.2192 -0.9357
 5794SOL    HW228842   3.613   3.426   8.828  1.0590  5.7411  1.3660
 5795SOL     OW28843   3.690   0.138   4.101 -0.2499  0.5782  0.1228
 5795SOL    HW128844   3.683   0.083   4.179 -0.7768 -0.8868 -0.9686
 5795SOL    HW228845   3.596   0.137   4.084 -0.8555 -2.1524  3.4879
 5796SOL     OW28846   4.546   1.760   5.101  0.3767  0.1577  0.1976
 5796SOL    HW128847   4.531   1.754   5.007  2.6125  1.0963 -0.2057
 5796SOL    HW228848   4.466   1.806   5.126  0.1306 -0.0801 -0.1522
 5797SOL     OW28849   2.065   3.935   8.865 -0.0803 -0.0855 -0.0858
 5797SOL    HW128850   2.039   4.005   8.805  1.7999  2.1432  1.7421
 5797SOL    HW228851   2.142   3.963   8.913  0.7783 -0.5782 -1.1826
 5798SOL     OW28852   0.159   1.753  16.787  0.3124 -0.0276 -0.3766
 5798SOL    HW128853   0.121   1.667  16.807  1.6016 -1.0830 -2.4895
 5798SOL    HW228854   0.251   1.730  16.798 -0.3094 -1.4188  2.0406
 5799SOL     OW28855   2.399   2.334   4.174  0.0522  0.0795 -0.3747
 5799SOL    HW128856   2.434   2.282   4.101  1.0112 -1.0210  0.8760
 5799SOL    HW228857   2.401   2.263   4.239  1.5030 -2.0531 -2.7234
 5800SOL     OW28858   3.526   0.067   7.518  0.0108 -0.2612  0.2129
 5800SOL    HW128859   3.608   0.023   7.538  0.1286 -1.9092 -3.8363
 5800SOL    HW228860   3.473   0.044   7.594  1.8818  0.8078  1.8199
 5801SOL     OW28861   0.414   1.954   5.742  0.0384  0.2148  0.0627
 5801SOL    HW128862   0.342   1.975   5.682 -0.0466  0.7900  0.3643
 5801SOL    HW228863   0.439   2.042   5.770  2.6696 -0.0290 -1.4843
 5802SOL     OW28864   3.381   0.561   2.390  0.4681  0.4576  0.1785
 5802SOL    HW128865   3.300   0.598   2.355 -0.5549 -0.7252  1.2837
 5802SOL    HW228866   3.444   0.600   2.329  0.1585  0.9148  0.1494
 5803SOL     OW28867   2.429   3.705  13.089  0.1285  0.4149 -0.0521
 5803SOL    HW128868   2.502   3.664  13.135  0.5635  1.4681  0.2074
 5803SOL    HW228869   2.462   3.679  13.004  0.4982 -0.6415  0.4127
 5804SOL     OW28870   2.906   4.303   8.202 -0.5075 -0.1095 -0.4544
 5804SOL    HW128871   2.892   4.238   8.133 -0.5223  0.5077 -1.0331
 5804SOL    HW228872   2.906   4.241   8.275 -0.0221 -0.0458 -0.4012
 5805SOL     OW28873   4.115   4.108   9.030 -0.4207  0.1041 -0.1510
 5805SOL    HW128874   4.209   4.094   9.030 -0.2457  1.2779  0.6140
 5805SOL    HW228875   4.085   4.018   9.018  1.0108 -0.1849 -1.6234
 5806SOL     OW28876   4.079   1.629   3.862 -0.3728 -0.4697  0.5560
 5806SOL    HW128877   4.038   1.572   3.797 -0.0819  0.6493 -0.6151
 5806SOL    HW228878   4.171   1.609   3.844 -0.9281 -2.1285 -0.4256
 5807SOL     OW28879   1.585   2.175  14.618  0.1912  0.7615 -0.1703
 5807SOL    HW128880   1.642   2.151  14.544  0.3250 -1.8606  0.7686
 5807SOL    HW228881   1.516   2.226  14.576  1.8197  2.2905 -1.0245
 5808SOL     OW28882   2.279   3.031   3.530 -0.2738 -0.7328 -0.3944
 5808SOL    HW128883   2.245   3.041   3.618 -0.1692 -2.4152 -0.1618
 5808SOL    HW228884   2.346   2.966   3.552  1.2275  0.7923 -0.4245
 5809SOL     OW28885   3.380   3.470   8.450 -0.4444 -0.0012 -0.3154
 5809SOL    HW128886   3.318   3.403   8.477 -0.8528  0.2957 -0.5260
 5809SOL    HW228887   3.365   3.459   8.356  1.0653 -0.4260 -0.5063
 5810SOL     OW28888   3.493   3.970   3.844 -0.3336  0.0732  0.1782
 5810SOL    HW128889   3.526   3.994   3.757 -1.6631 -1.0251 -0.6450
 5810SOL    HW228890   3.570   3.920   3.870  0.7486  0.5789 -2.0562
 5811SOL     OW28891   2.777   4.348  12.415  0.4118  0.8883  0.4343
 5811SOL    HW128892   2.741   4.260  12.403 -1.2850  1.5583  0.6915
 5811SOL    HW228893   2.745   4.366  12.503 -0.0013  1.4493  0.1638
 5812SOL     OW28894   0.852   1.678  11.820 -0.1321  0.8911  0.9671
 5812SOL    HW128895   0.876   1.662  11.911  1.3227 -0.7995  0.2903
 5812SOL    HW228896   0.782   1.615  11.805 -0.8806  2.0926 -0.6547
 5813SOL     OW28897   4.143   3.242  15.328 -0.1652  0.3836 -0.1074
 5813SOL    HW128898   4.237   3.245  15.314 -0.1864  0.4623 -0.2338
 5813SOL    HW228899   4.145   3.181  15.402 -0.9636 -1.8717 -1.9800
 5814SOL     OW28900   3.997   3.010  11.574 -0.0863  0.9364  0.2186
 5814SOL    HW128901   3.944   2.945  11.620 -1.5890  1.1985 -1.1407
 5814SOL    HW228902   3.967   2.992  11.485  0.9495 -0.6383  0.1850
 5815SOL     OW28903   2.540   1.440   6.051  0.7924 -0.2577  0.1211
 5815SOL    HW128904   2.588   1.367   6.012 -0.4571 -0.4634 -1.0424
 5815SOL    HW228905   2.450   1.422   6.024  1.9513 -1.6382 -2.8553
 5816SOL     OW28906   2.792   2.938  14.841 -0.4147  0.0395 -0.1976
 5816SOL    HW128907   2.851   2.865  14.859  3.4181  3.1594 -0.1527
 5816SOL    HW228908   2.754   2.948  14.929  0.9736  0.7307  0.3166
 5817SOL     OW28909   0.088   2.352   6.343  0.3118 -0.4535  0.0042
 5817SOL    HW128910   0.048   2.282   6.394  0.2014  0.6289  1.3982
 5817SOL    HW228911   0.173   2.315   6.318  1.0822 -0.4131  2.5086
 5818SOL     OW28912   3.969   3.811   3.536  0.3310 -0.0353  0.5141
 5818SOL    HW128913   3.997   3.778   3.451 -3.6427 -0.6078 -0.5444
 5818SOL    HW228914   3.900   3.751   3.562 -0.5381  0.7159 -0.0882
 5819SOL     OW28915   0.443   2.502   2.185 -0.3909 -0.3726  0.2082
 5819SOL    HW128916   0.469   2.435   2.249  0.2258  0.7006  1.0809
 5819SOL    HW228917   0.514   2.565   2.198 -0.7787  0.2258 -0.6311
 5820SOL     OW28918   1.479   2.402   3.738 -0.6225  0.0913 -0.3006
 5820SOL    HW128919   1.481   2.308   3.757 -0.1262  0.6347  2.2674
 5820SOL    HW228920   1.387   2.404   3.711 -0.1696  3.0975 -1.6541
 5821SOL     OW28921   2.744   2.227   4.353 -0.1478  0.2330 -0.2655
 5821SOL    HW128922   2.836   2.200   4.357 -0.3399 -0.3219  0.3677
 5821SOL    HW228923   2.748   2.281   4.275 -0.9056 -0.9375 -1.1269
 5822SOL     OW28924   2.005   1.140  17.305 -0.0137 -0.2287 -0.3378
 5822SOL    HW128925   1.948   1.205  17.347 -0.5636 -0.6599 -0.4092
 5822SOL    HW228926   2.070   1.187  17.253 -1.1091  1.0300 -0.5850
 5823SOL     OW28927   3.969   2.774   2.747 -0.4316 -0.0004 -0.5104
 5823SOL    HW128928   4.008   2.848   2.699  0.9113  0.3202  1.0839
 5823SOL    HW228929   3.982   2.701   2.686 -4.1516  0.2001 -1.5279
 5824SOL     OW28930   1.879   3.507   3.916 -0.1537  0.2763 -0.1789
 5824SOL    HW128931   1.790   3.475   3.904 -0.1882  0.4880 -0.4698
 5824SOL    HW228932   1.859   3.583   3.971 -2.1711  0.1994 -0.8357
 5825SOL     OW28933   4.267   2.259  13.224 -0.3813 -0.2461 -0.0138
 5825SOL    HW128934   4.359   2.279  13.242  0.2016 -1.9342 -1.1140
 5825SOL    HW228935   4.242   2.218  13.307 -1.0039  1.6807  0.7337
 5826SOL     OW28936   4.602   1.508  10.987  0.3679  0.5611  0.0024
 5826SOL    HW128937   4.598   1.475  10.897 -1.4826 -3.3241  1.5029
 5826SOL    HW228938   4.697   1.503  10.991  0.3867  0.0688 -1.0511
 5827SOL     OW28939   3.460   2.549  11.018 -0.2718  0.1781  0.5433
 5827SOL    HW128940   3.555   2.558  11.011 -0.4502  1.7092  0.0880
 5827SOL    HW228941   3.445   2.489  10.945 -1.3513  0.5995  0.4149
 5828SOL     OW28942   2.065   4.302   2.827  0.0666 -0.3983 -0.0064
 5828SOL    HW128943   2.068   4.280   2.920 -0.9674 -2.3648 -0.4234
 5828SOL    HW228944   2.077   4.219   2.781 -0.6351 -0.4169 -0.1656
 5829SOL     OW28945   1.263   0.286   3.143  0.6223  0.2565  0.1786
 5829SOL    HW128946   1.273   0.221   3.212 -1.4510 -0.1595  0.0925
 5829SOL    HW228947   1.269   0.359   3.203 -0.5129 -0.1643  0.8132
 5830SOL     OW28948   4.665   1.761   9.631  0.1635 -0.1640 -0.5138
 5830SOL    HW128949   4.615   1.754   9.713  0.5875  0.2401 -0.2208
 5830SOL    HW228950   4.658   1.670   9.601  0.5254  0.6534 -3.0547
 5831SOL     OW28951   2.893   0.975  14.137  0.3572  0.2466  0.1839
 5831SOL    HW128952   2.883   1.063  14.102 -0.9267  0.7591  1.8131
 5831SOL    HW228953   2.837   0.969  14.215 -0.1020 -2.9292 -0.3693
 5832SOL     OW28954   0.214   3.961   3.133 -0.3560  0.0579 -0.3351
 5832SOL    HW128955   0.169   3.896   3.079  0.2346  0.3430 -1.1707
 5832SOL    HW228956   0.244   3.907   3.206 -1.7975  1.8312  1.5667
 5833SOL     OW28957   2.732   1.554   0.961  0.3541  0.2456 -0.1509
 5833SOL    HW128958   2.647   1.592   0.981  1.3145  1.7860  0.9652
 5833SOL    HW228959   2.732   1.496   1.037 -0.1581  1.7493  0.9987
 5834SOL     OW28960   1.745   0.067  16.883  0.1353  0.2961 -0.2967
 5834SOL    HW128961   1.736   4.692  16.865 -1.0853  0.5846 -1.1557
 5834SOL    HW228962   1.658   0.100  16.861 -0.4112 -1.4014 -0.6625
 5835SOL     OW28963   3.821   2.413   3.834 -0.4410  0.5932  0.1494
 5835SOL    HW128964   3.825   2.485   3.771  2.2517 -0.6708 -1.1083
 5835SOL    HW228965   3.895   2.420   3.894 -0.0892  1.0785 -0.3403
 5836SOL     OW28966   3.369   4.128   4.762  0.1854 -0.3286 -0.3442
 5836SOL    HW128967   3.453   4.082   4.754 -0.0428 -1.1655  2.1686
 5836SOL    HW228968   3.340   4.129   4.671  1.7976 -0.7342 -0.8720
 5837SOL     OW28969   0.215   1.146  13.927  0.3453  0.5416  0.0178
 5837SOL    HW128970   0.237   1.235  13.900  1.6366  0.8196  1.9973
 5837SOL    HW228971   0.271   1.140  14.004 -0.8642  0.3842  0.8709
 5838SOL     OW28972   3.457   3.446   3.630  0.3907  0.5656 -0.4117
 5838SOL    HW128973   3.393   3.378   3.648  0.7136  0.0661 -1.1896
 5838SOL    HW228974   3.447   3.499   3.709  1.5515  1.5081 -0.8832
 5839SOL     OW28975   3.079   1.019   6.453 -0.5111 -0.1895 -0.0946
 5839SOL    HW128976   3.058   0.964   6.528 -0.0517  0.8211  0.7846
 5839SOL    HW228977   3.015   1.089   6.467 -0.5605 -0.3621  0.5411
 5840SOL     OW28978   1.270   4.243  16.748  0.6215 -0.2168  0.7141
 5840SOL    HW128979   1.202   4.257  16.682  2.3897 -2.3089 -1.5071
 5840SOL    HW228980   1.249   4.157  16.783  1.5112 -0.6936  0.0638
 5841SOL     OW28981   3.874   4.153   7.316  0.5649  0.1022  0.3641
 5841SOL    HW128982   3.866   4.057   7.320 -1.1107  0.1064 -2.2709
 5841SOL    HW228983   3.836   4.178   7.400  1.1558  1.4283  0.2218
 5842SOL     OW28984   2.252   2.415   4.595  0.2801  0.0691 -0.2238
 5842SOL    HW128985   2.302   2.460   4.527 -0.3173 -0.5574 -1.0728
 5842SOL    HW228986   2.251   2.480   4.665  0.2219 -2.6867  2.3474
 5843SOL     OW28987   0.637   2.295   4.966  0.4165 -0.6077 -0.5311
 5843SOL    HW128988   0.725   2.277   4.998 -0.0530 -2.7814 -0.4950
 5843SOL    HW228989   0.609   2.214   4.924 -0.3289 -0.7778  0.3020
 5844SOL     OW28990   3.708   1.552   3.363  0.0423 -0.2506 -0.1289
 5844SOL    HW128991   3.801   1.536   3.380 -0.3289 -0.7928  1.3364
 5844SOL    HW228992   3.692   1.508   3.280  0.9761 -0.6908 -0.0763
 5845SOL     OW28993   1.789   1.128   1.563  0.3012  0.0852 -0.0889
 5845SOL    HW128994   1.822   1.173   1.640 -1.7416  1.6988 -0.1621
 5845SOL    HW228995   1.751   1.052   1.606 -0.9827  2.2804  2.6555
 5846SOL     OW28996   2.086   1.245   6.700 -0.1338 -0.2631  0.0484
 5846SOL    HW128997   2.052   1.158   6.718 -1.4014  0.4143  0.9951
 5846SOL    HW228998   2.020   1.302   6.740 -2.3308 -1.4194 -1.9373
 5847SOL     OW28999   2.995   0.911   3.902  0.2505  0.0392  0.2392
 5847SOL    HW129000   3.055   0.966   3.953 -0.6317  1.8557 -0.6951
 5847SOL    HW229001   3.059   0.877   3.839 -0.4190 -1.1130  0.1887
 5848SOL     OW29002   2.768   1.591   4.311  0.5512 -0.2305  0.3515
 5848SOL    HW129003   2.858   1.556   4.313  0.6588 -0.0046 -0.5329
 5848SOL    HW229004   2.784   1.675   4.268  0.4572 -0.6513 -0.5051
 5849SOL     OW29005   4.623   4.058  14.683  0.3607  0.2325  0.3022
 5849SOL    HW129006   4.576   3.976  14.669  0.9838  0.1347 -1.1798
 5849SOL    HW229007   4.689   4.052  14.614  0.9853 -0.9776  1.0177
 5850SOL     OW29008   2.945   3.220   7.612 -0.1498 -0.1361 -0.6591
 5850SOL    HW129009   2.965   3.160   7.540  0.6254 -1.5961  0.7907
 5850SOL    HW229010   3.026   3.212   7.662 -1.3925 -1.1960  1.1861
 5851SOL     OW29011   0.650   2.773  15.153 -0.3732  0.0539  0.2852
 5851SOL    HW129012   0.707   2.783  15.077 -0.0111  0.0128  0.5506
 5851SOL    HW229013   0.598   2.853  15.156 -0.9681 -0.4013  2.0769
 5852SOL     OW29014   3.634   3.829   4.794 -0.3973  0.2241  0.2858
 5852SOL    HW129015   3.698   3.769   4.755 -1.7319 -2.2561  1.9454
 5852SOL    HW229016   3.558   3.773   4.808 -0.2254  0.2541  1.3425
 5853SOL     OW29017   0.280   1.645   4.508 -0.6139  0.3674  0.3248
 5853SOL    HW129018   0.326   1.669   4.428  1.2176 -0.6359  1.0762
 5853SOL    HW229019   0.238   1.728   4.530 -0.9416  0.6570 -1.4057
 5854SOL     OW29020   4.320   0.762   4.633  0.7094 -0.4618  0.0282
 5854SOL    HW129021   4.407   0.780   4.599  1.7850 -1.9523  1.9364
 5854SOL    HW229022   4.269   0.777   4.553 -0.2096 -1.0570  0.4902
 5855SOL     OW29023   1.828   4.123   8.473 -0.2718 -0.0986  0.6143
 5855SOL    HW129024   1.745   4.172   8.473 -0.9687 -1.2864  2.2674
 5855SOL    HW229025   1.833   4.097   8.564  2.6578  0.8853  0.7294
 5856SOL     OW29026   1.524   3.948  12.694 -0.5584  0.5328 -0.1114
 5856SOL    HW129027   1.561   4.035  12.711 -0.2661  0.1038  1.4509
 5856SOL    HW229028   1.604   3.899  12.711 -0.4114  0.5408 -0.7926
 5857SOL     OW29029   4.261   0.304   8.972  0.1077 -0.3751  0.1012
 5857SOL    HW129030   4.266   0.351   9.055  2.0979  2.9036 -1.8380
 5857SOL    HW229031   4.212   0.368   8.921 -0.5878 -3.3422 -2.9546
 5858SOL     OW29032   3.931   3.989   7.642  0.3618 -0.0985 -0.1102
 5858SOL    HW129033   3.870   3.985   7.715  1.1891 -1.8307  0.4808
 5858SOL    HW229034   3.887   3.962   7.561  0.1480 -0.8706  0.2728
 5859SOL     OW29035   0.236   1.961  15.530  0.0750  0.0386 -0.8289
 5859SOL    HW129036   0.260   1.993  15.443 -0.2784  1.9428 -0.2398
 5859SOL    HW229037   0.299   1.891  15.542  0.9446  0.7847 -1.0480
 5860SOL     OW29038   1.311   0.055  12.453  0.5540  0.2285 -0.0561
 5860SOL    HW129039   1.401   0.085  12.468  0.5075  0.2116  0.2546
 5860SOL    HW229040   1.327   4.688  12.492  1.6405 -1.1271 -3.5446
 5861SOL     OW29041   3.308   3.105   2.919 -0.0264  0.1679 -0.3530
 5861SOL    HW129042   3.340   3.164   2.850  2.4284 -0.7275  0.0104
 5861SOL    HW229043   3.229   3.077   2.873  1.1078  1.3683 -3.0787
 5862SOL     OW29044   2.711   2.883   7.283  0.0072  0.4775  0.1438
 5862SOL    HW129045   2.764   2.819   7.330  0.3597  1.0043  0.4644
 5862SOL    HW229046   2.636   2.883   7.343 -0.8882  1.3808 -0.9549
 5863SOL     OW29047   3.788   3.568   3.939  0.4908 -0.1001  0.7382
 5863SOL    HW129048   3.872   3.524   3.930  1.8949  2.5445  0.9304
 5863SOL    HW229049   3.752   3.552   3.851 -0.3612  1.6287  0.7724
 5864SOL     OW29050   3.688   4.676   6.144  0.1042  0.2364  0.0986
 5864SOL    HW129051   3.616   0.009   6.179  0.2271 -0.7590  1.8076
 5864SOL    HW229052   3.653   4.635   6.065  3.0597  1.9698 -2.1032
 5865SOL     OW29053   2.265   0.953   4.428  0.3096 -0.1657  0.3581
 5865SOL    HW129054   2.284   1.007   4.504  0.5123  1.1046 -0.6106
 5865SOL    HW229055   2.280   0.860   4.447 -0.8793  0.0382  2.3221
 5866SOL     OW29056   2.544   1.563  17.549 -0.3070  0.1887  0.4033
 5866SOL    HW129057   2.486   1.631  17.585 -0.2347  0.7656 -0.5514
 5866SOL    HW229058   2.533   1.566  17.454 -1.4660 -0.1270  0.5265
 5867SOL     OW29059   1.225   1.071   4.256 -0.1519  0.0794 -0.1062
 5867SOL    HW129060   1.259   1.098   4.171 -0.0979  0.5950  0.0766
 5867SOL    HW229061   1.255   0.980   4.257  0.0851  0.1743  1.0588
 5868SOL     OW29062   0.968   3.786   4.037 -0.3794  1.1458 -0.2032
 5868SOL    HW129063   0.957   3.860   3.977  2.8233  0.6400 -1.4012
 5868SOL    HW229064   1.053   3.747   4.015 -0.2273  1.5934 -0.4127
 5869SOL     OW29065   3.422   1.050   9.141  0.8138  0.3444 -0.4855
 5869SOL    HW129066   3.407   1.020   9.230  0.4119 -0.6196 -0.8801
 5869SOL    HW229067   3.497   1.106   9.159  1.8389 -1.2292  0.1223
 5870SOL     OW29068   0.025   0.467   5.558  0.5056  0.2357 -0.0850
 5870SOL    HW129069   0.103   0.520   5.538  0.1102  0.9015  0.1414
 5870SOL    HW229070   0.073   0.387   5.579  0.1429  0.1065  0.2558
 5871SOL     OW29071   4.672   0.442   7.520 -1.1000  0.4888  0.0262
 5871SOL    HW129072   4.595   0.415   7.569 -0.4776 -0.0055  0.7372
 5871SOL    HW229073   0.027   0.398   7.563  0.4601  1.6638 -1.4478
 5872SOL     OW29074   0.063   1.669  13.558 -0.5882  0.2799 -0.4405
 5872SOL    HW129075   4.712   1.608  13.533 -1.8496  1.6113 -0.1405
 5872SOL    HW229076   0.096   1.627  13.638 -2.1727 -1.3933 -0.6692
 5873SOL     OW29077   1.610   1.275   4.135  0.2333 -0.5919  0.4511
 5873SOL    HW129078   1.659   1.202   4.098 -2.4723 -2.8598  1.3437
 5873SOL    HW229079   1.660   1.345   4.095  1.7087 -1.4233  0.8549
 5874SOL     OW29080   4.113   3.625  15.034 -0.0663 -0.1107 -0.0011
 5874SOL    HW129081   4.083   3.566  15.104 -0.3935  2.3853  1.9527
 5874SOL    HW229082   4.099   3.717  15.055 -2.7855 -0.6663  0.7038
 5875SOL     OW29083   4.360   0.058   4.599 -0.2339 -0.4507  0.7403
 5875SOL    HW129084   4.396   0.081   4.513 -1.1120  0.9097  0.7296
 5875SOL    HW229085   4.294   4.709   4.587  1.4625 -2.2092  1.4857
 5876SOL     OW29086   1.652   3.529   5.859 -0.1333 -0.6638 -0.0816
 5876SOL    HW129087   1.663   3.491   5.772 -0.5756  0.4078 -0.6169
 5876SOL    HW229088   1.562   3.506   5.883 -0.3568  0.9080  0.5947
 5877SOL     OW29089   4.344   3.624   3.698 -0.5191  0.0054 -0.0515
 5877SOL    HW129090   4.411   3.658   3.637 -0.6804 -0.3047 -0.4001
 5877SOL    HW229091   4.340   3.709   3.743  1.7921  1.0666 -1.8092
 5878SOL     OW29092   0.701   2.973  15.573  0.0731 -0.4582 -0.1765
 5878SOL    HW129093   0.665   2.916  15.505 -0.1899 -1.2457  0.6155
 5878SOL    HW229094   0.746   3.042  15.524 -0.5557 -1.0671 -1.6245
 5879SOL     OW29095   2.716   2.582   2.116  0.4302  0.2359 -0.2594
 5879SOL    HW129096   2.749   2.581   2.027 -1.2972 -1.2548 -0.8703
 5879SOL    HW229097   2.626   2.607   2.098  0.1876 -0.8411 -0.5222
 5880SOL     OW29098   1.146   3.394  13.047  0.0584 -0.5534  0.3323
 5880SOL    HW129099   1.086   3.440  13.105 -3.1084 -0.1712 -3.2511
 5880SOL    HW229100   1.200   3.349  13.112 -1.1205  1.2158  2.4942
 5881SOL     OW29101   3.067   1.515   0.473 -0.0305  0.0015 -0.0786
 5881SOL    HW129102   3.109   1.475   0.549 -2.4720 -1.6694  0.3952
 5881SOL    HW229103   3.083   1.609   0.484 -0.7641  0.0021  0.8957
 5882SOL     OW29104   0.438   2.947  17.335 -0.0497  0.1338 -0.1963
 5882SOL    HW129105   0.533   2.959  17.326 -0.0289  0.0664 -0.0622
 5882SOL    HW229106   0.402   3.025  17.293  0.2014 -0.6696 -1.8996
 5883SOL     OW29107   1.472   1.187   4.666  0.4495 -0.0273 -0.3928
 5883SOL    HW129108   1.478   1.266   4.720 -1.3517 -0.7672  0.9123
 5883SOL    HW229109   1.421   1.223   4.594  0.9396  0.0242 -0.7139
 5884SOL     OW29110   3.115   1.230   2.907  0.0275 -0.0132  0.2707
 5884SOL    HW129111   3.128   1.141   2.873 -0.6998  0.0039 -0.0722
 5884SOL    HW229112   3.116   1.205   2.999  0.1050  3.3542  1.1812
 5885SOL     OW29113   1.979   1.098   0.800  0.7705 -0.0561  0.2907
 5885SOL    HW129114   1.975   1.029   0.734 -0.4299 -0.5964  0.9283
 5885SOL    HW229115   2.065   1.136   0.781  2.2151 -3.0748  0.7920
 5886SOL     OW29116   1.920   1.502  14.673 -0.1580 -0.5000 -0.3926
 5886SOL    HW129117   1.869   1.581  14.654 -0.3915 -0.0468  2.0694
 5886SOL    HW229118   2.007   1.542  14.670 -0.8419  1.0437 -0.0330
 5887SOL     OW29119   2.787   4.586   0.249 -1.1386 -0.0013  0.2871
 5887SOL    HW129120   2.717   4.566   0.310 -2.8831  1.2512 -1.3071
 5887SOL    HW229121   2.797   4.505   0.199  0.0115  0.7824 -0.7605
 5888SOL     OW29122   4.590   2.056   0.889  0.2383 -0.7810 -0.3486
 5888SOL    HW129123   4.504   2.080   0.853 -0.1660 -1.7301 -0.0350
 5888SOL    HW229124   4.655   2.094   0.830 -1.0018 -0.4796 -1.5366
 5889SOL     OW29125   4.203   2.694   7.465 -0.9800  0.1634  0.1113
 5889SOL    HW129126   4.298   2.705   7.456 -1.1752  0.6268 -1.3008
 5889SOL    HW229127   4.191   2.698   7.370 -0.2138 -0.1459  0.0062
 5890SOL     OW29128   4.309   4.045   5.556 -0.4821  0.0778 -0.3615
 5890SOL    HW129129   4.235   3.990   5.530  0.3413 -0.1941 -2.1421
 5890SOL    HW229130   4.333   4.079   5.470 -0.2203  0.2242 -0.2300
 5891SOL     OW29131   4.084   1.095   2.093  0.3233  0.1270  0.0870
 5891SOL    HW129132   4.065   1.009   2.055  0.3840  0.2055 -0.1260
 5891SOL    HW229133   4.018   1.153   2.053  0.0318  0.4523  1.0515
 5892SOL     OW29134   1.879   0.460   5.247 -0.3273 -0.0448 -0.2206
 5892SOL    HW129135   1.798   0.505   5.222  0.5102  1.2419 -0.6255
 5892SOL    HW229136   1.937   0.491   5.177 -1.4319  0.9374 -0.7058
 5893SOL     OW29137   2.955   3.302   3.034 -0.1698 -0.3559 -0.5095
 5893SOL    HW129138   2.871   3.346   3.022  0.3179  0.6896 -0.0889
 5893SOL    HW229139   2.925   3.212   3.023  1.2620 -0.9255  0.1400
 5894SOL     OW29140   1.757   0.574   9.280  0.1651 -0.0757 -0.3602
 5894SOL    HW129141   1.695   0.540   9.216 -2.0480  0.3304  1.6108
 5894SOL    HW229142   1.718   0.660   9.296 -1.6016 -0.7678 -1.0461
 5895SOL     OW29143   2.799   3.072   8.873  0.1042  0.8438  0.2047
 5895SOL    HW129144   2.888   3.062   8.839 -0.7860 -1.2295 -1.5387
 5895SOL    HW229145   2.798   3.163   8.901 -1.3905  0.7925  0.3060
 5896SOL     OW29146   3.484   1.653  12.564  0.1194 -0.2834 -0.7250
 5896SOL    HW129147   3.440   1.583  12.515  0.9151 -1.3564  0.0908
 5896SOL    HW229148   3.481   1.720  12.496 -1.8262 -0.6204 -0.9756
 5897SOL     OW29149   3.797   1.132   3.887  0.0169 -0.3062 -0.1937
 5897SOL    HW129150   3.848   1.125   3.806 -0.6602 -0.2169 -0.6295
 5897SOL    HW229151   3.872   1.128   3.947 -0.3096  1.2625  0.3226
 5898SOL     OW29152   3.627   0.822   4.674 -0.1131 -0.3524  0.6759
 5898SOL    HW129153   3.721   0.839   4.672 -0.3801  0.8881 -1.8403
 5898SOL    HW229154   3.618   0.766   4.596 -0.8730  0.3628  0.2451
 5899SOL     OW29155   4.168   1.105   4.676  0.1932  0.0394  0.0858
 5899SOL    HW129156   4.247   1.073   4.719  0.1138  2.0169  1.6799
 5899SOL    HW229157   4.115   1.108   4.755  1.2576 -0.3670  0.8022
 5900SOL     OW29158   1.716   0.857   2.283  0.2420 -0.2496 -0.1491
 5900SOL    HW129159   1.694   0.765   2.298 -0.4185  0.1067  1.0108
 5900SOL    HW229160   1.746   0.861   2.192 -0.7641 -1.1828 -0.5216
 5901SOL     OW29161   0.571   4.123   3.926  0.0871  1.1550 -0.1199
 5901SOL    HW129162   0.486   4.108   3.885  0.4760  2.3177 -1.3522
 5901SOL    HW229163   0.630   4.122   3.850  2.1232 -0.3946  1.4775
 5902SOL     OW29164   2.183   1.923  15.054  0.4088  0.5428 -0.0085
 5902SOL    HW129165   2.210   1.977  14.979 -1.3995 -0.1510 -1.1389
 5902SOL    HW229166   2.266   1.890  15.090 -0.5789 -2.2093 -0.2393
 5903SOL     OW29167   4.524   3.471   7.937 -0.2310  0.3016  0.0984
 5903SOL    HW129168   4.547   3.380   7.920  0.3504  0.4570  0.0707
 5903SOL    HW229169   4.552   3.492   8.026 -1.1224 -2.0398  0.9222
 5904SOL     OW29170   0.853   0.547  10.307  0.0053  0.2839 -0.5167
 5904SOL    HW129171   0.904   0.472  10.277 -1.5830 -1.0246  0.0951
 5904SOL    HW229172   0.777   0.526  10.253  0.1352  0.1712 -0.6547
 5905SOL     OW29173   3.611   1.629   5.704 -0.3597  0.4202  0.2937
 5905SOL    HW129174   3.552   1.555   5.688 -0.5639  0.8194 -0.7456
 5905SOL    HW229175   3.556   1.705   5.687  1.6225  1.7908  0.0896
 5906SOL     OW29176   3.381   0.449   4.786  0.1033 -0.1929 -0.0672
 5906SOL    HW129177   3.452   0.504   4.818 -2.0486  2.2219  0.5741
 5906SOL    HW229178   3.323   0.520   4.759  1.9468  0.9432 -1.0394
 5907SOL     OW29179   0.027   0.164   4.262 -0.2974 -0.1742  0.0351
 5907SOL    HW129180   0.097   0.206   4.310  0.8272 -1.6142 -0.3419
 5907SOL    HW229181   0.029   0.220   4.184 -0.7498 -0.7725 -0.4144
 5908SOL     OW29182   3.034   3.590  13.941  0.4090  0.1836 -0.3488
 5908SOL    HW129183   3.118   3.634  13.923  0.1135  1.7439  2.1047
 5908SOL    HW229184   3.016   3.549  13.856  0.2927  2.4154 -1.4001
 5909SOL     OW29185   1.784   0.618   0.634  0.2715  0.0925 -0.3925
 5909SOL    HW129186   1.857   0.628   0.572  1.5150 -1.5805  0.7888
 5909SOL    HW229187   1.734   0.550   0.588  0.1359  0.1692 -0.3592
 5910SOL     OW29188   1.263   1.451  14.062  0.0813 -0.4783 -0.5179
 5910SOL    HW129189   1.210   1.480  13.987 -2.3152  1.9839  2.1171
 5910SOL    HW229190   1.301   1.533  14.092  0.4467  0.0583 -2.4565
 5911SOL     OW29191   2.546   0.013  10.767  0.1122 -0.4719 -0.1818
 5911SOL    HW129192   2.506   0.077  10.709  0.2230 -0.0421  0.2131
 5911SOL    HW229193   2.604   4.676  10.715 -0.4930 -0.6174 -0.7037
 5912SOL     OW29194   1.198   0.299   9.696 -0.4580 -0.0039 -0.0032
 5912SOL    HW129195   1.184   0.293   9.790  0.2408  2.5804  0.2651
 5912SOL    HW229196   1.227   0.212   9.666 -0.2080  0.4887 -1.1926
 5913SOL     OW29197   4.718   3.124   1.770  0.2094 -0.4059  0.4523
 5913SOL    HW129198   4.711   3.029   1.773  1.7214 -0.5018  0.9742
 5913SOL    HW229199   0.057   3.128   1.694  0.1975 -0.4892  0.4393
 5914SOL     OW29200   4.121   0.108   7.255  0.0263 -0.1986  0.2883
 5914SOL    HW129201   4.119   0.020   7.218  1.1475 -0.4974  0.9563
 5914SOL    HW229202   4.177   0.159   7.196  2.6682 -0.4773  2.5542
 5915SOL     OW29203   1.163   1.290  12.438 -0.5011  0.3271  0.7817
 5915SOL    HW129204   1.069   1.273  12.436  0.0827 -2.2993 -3.2577
 5915SOL    HW229205   1.188   1.198  12.444 -1.1440  0.1616  0.9840
 5916SOL     OW29206   3.881   1.206   4.996 -0.1509 -0.1340 -0.1054
 5916SOL    HW129207   3.866   1.263   4.921  0.1799  0.3565  0.1960
 5916SOL    HW229208   3.792   1.173   5.008 -0.4264  0.9120  0.7523
 5917SOL     OW29209   1.093   0.229   6.713  0.4943  0.1668 -0.6222
 5917SOL    HW129210   1.126   0.275   6.635 -1.0212  1.9524 -0.1915
 5917SOL    HW229211   1.127   0.283   6.783  1.3190  0.0297 -0.9166
 5918SOL     OW29212   1.184   0.632   5.452  0.4567 -0.2636  0.3615
 5918SOL    HW129213   1.110   0.572   5.442 -1.0010  1.6954 -0.4317
 5918SOL    HW229214   1.141   0.717   5.461  0.4671 -0.3000  0.7510
 5919SOL     OW29215   4.007   3.098   8.681  0.9161  0.3381  0.0332
 5919SOL    HW129216   3.985   3.015   8.725  0.0431  0.8541  0.5848
 5919SOL    HW229217   4.080   3.116   8.739  2.1348  1.7970 -1.9738
 5920SOL     OW29218   3.688   2.422   6.187  0.0066 -0.2773 -0.4697
 5920SOL    HW129219   3.732   2.346   6.148  2.2315  0.7924 -0.0301
 5920SOL    HW229220   3.594   2.404   6.188 -0.2723  1.4323  1.4465
 5921SOL     OW29221   2.258   2.463   1.041 -0.9029 -0.4288  0.0690
 5921SOL    HW129222   2.231   2.424   1.124 -1.2164 -1.2037 -0.3957
 5921SOL    HW229223   2.185   2.520   1.018  0.5704  1.4586  0.0772
 5922SOL     OW29224   1.034   3.186  10.322  0.4006 -0.6785  0.0913
 5922SOL    HW129225   1.043   3.277  10.293  0.7644 -0.2555  1.4995
 5922SOL    HW229226   1.123   3.152  10.310  0.5686  0.1961 -1.1215
 5923SOL     OW29227   2.285   3.410   5.335  0.4588  0.4371  0.1744
 5923SOL    HW129228   2.367   3.406   5.285 -1.1311  1.6103 -2.5027
 5923SOL    HW229229   2.323   3.384   5.419 -0.6227  0.0177  0.5310
 5924SOL     OW29230   3.083   4.499   3.921  0.6571  0.4329  0.0305
 5924SOL    HW129231   3.013   4.518   3.858 -0.2131  1.4062  1.2853
 5924SOL    HW229232   3.142   4.437   3.878 -0.2577 -0.8790  0.6655
 5925SOL     OW29233   2.542   0.102  15.227  0.4105  0.3403  0.3911
 5925SOL    HW129234   2.549   0.185  15.274 -0.1779  0.5423  0.1145
 5925SOL    HW229235   2.529   0.033  15.292  3.0742 -2.0834 -1.6117
 5926SOL     OW29236   4.679   1.062   4.420 -0.0266 -0.5949  0.7237
 5926SOL    HW129237   0.051   1.092   4.422  0.2946 -1.7532  2.8838
 5926SOL    HW229238   4.683   1.017   4.336  1.5008  0.7312  0.0642
 5927SOL     OW29239   1.392   1.344  14.472  0.2726  0.4124 -0.2340
 5927SOL    HW129240   1.376   1.313  14.383  0.7822 -0.3862 -0.0479
 5927SOL    HW229241   1.357   1.269  14.519 -1.2235 -0.1303 -2.2398
 5928SOL     OW29242   0.885   0.216   9.726 -0.2077 -0.6895 -0.3669
 5928SOL    HW129243   0.874   0.304   9.689  2.2893  0.2942  1.2309
 5928SOL    HW229244   0.924   0.170   9.651 -1.7655 -0.2873 -1.4299
 5929SOL     OW29245   3.822   3.556   3.230  0.1492  0.0380 -0.1843
 5929SOL    HW129246   3.768   3.551   3.309  0.9363 -2.0526  0.2330
 5929SOL    HW229247   3.817   3.472   3.185  0.1014 -0.7130  1.2260
 5930SOL     OW29248   3.319   0.275   9.560 -1.0050 -0.5132  0.0120
 5930SOL    HW129249   3.247   0.330   9.529 -1.1336 -0.7448 -0.0990
 5930SOL    HW229250   3.341   0.318   9.642  0.8883 -2.1039  0.3230
 5931SOL     OW29251   4.202   1.116   7.424 -0.1286  0.1594 -0.2166
 5931SOL    HW129252   4.286   1.075   7.443 -0.1071  0.3388  0.0637
 5931SOL    HW229253   4.233   1.206   7.425 -2.7261  1.0830 -1.5344
 5932SOL     OW29254   0.659   1.301   3.983 -0.3639  0.2810 -0.3547
 5932SOL    HW129255   0.701   1.385   3.969  0.5315  0.4444  3.1338
 5932SOL    HW229256   0.716   1.262   4.050 -1.4106 -1.1230 -0.2633
 5933SOL     OW29257   1.742   1.105   1.137 -0.1259  0.4195 -0.1852
 5933SOL    HW129258   1.700   1.136   1.056 -0.3130  1.9953  0.5280
 5933SOL    HW229259   1.709   1.015   1.138  1.5041 -0.1600  1.1311
 5934SOL     OW29260   3.421   2.314   9.083  0.3440  0.0144  0.4791
 5934SOL    HW129261   3.399   2.406   9.070  1.0250  0.1129  0.0437
 5934SOL    HW229262   3.369   2.273   9.013  0.5691 -2.5813  1.8177
 5935SOL     OW29263   1.415   2.260   4.562 -0.2234  0.2246 -0.3376
 5935SOL    HW129264   1.355   2.192   4.532  0.2185 -0.7069  0.9351
 5935SOL    HW229265   1.357   2.319   4.611 -1.0906 -0.4632 -0.5331
 5936SOL     OW29266   1.829   2.659  12.472 -0.2025 -0.1475 -0.4213
 5936SOL    HW129267   1.907   2.603  12.480  0.3466  0.4735 -1.4796
 5936SOL    HW229268   1.843   2.715  12.548 -1.4091  2.5761 -2.2116
 5937SOL     OW29269   3.428   3.517   6.566  0.2168 -0.1973 -0.4129
 5937SOL    HW129270   3.501   3.578   6.580  0.0757 -0.1094 -0.0526
 5937SOL    HW229271   3.388   3.567   6.495  1.0532 -1.0589 -1.5089
 5938SOL     OW29272   3.111   0.163   0.182  0.2346  0.1993  0.0403
 5938SOL    HW129273   3.086   0.242   0.133 -1.3972 -0.1409  0.3292
 5938SOL    HW229274   3.064   0.178   0.264  0.0025  1.4360 -0.3144
 5939SOL     OW29275   4.340   4.526   2.580  0.3531  0.5796  0.1182
 5939SOL    HW129276   4.330   4.544   2.673 -0.4718  0.6794  0.0104
 5939SOL    HW229277   4.426   4.567   2.570  1.4692 -2.0169 -0.6793
 5940SOL     OW29278   4.172   4.451  10.794 -0.0960  0.2814  0.7061
 5940SOL    HW129279   4.188   4.363  10.827 -0.7185  0.6254  1.9364
 5940SOL    HW229280   4.107   4.485  10.855  0.6119  0.3866  1.4128
 5941SOL     OW29281   0.657   1.031  16.604 -0.1396  0.4821  0.3705
 5941SOL    HW129282   0.668   1.018  16.698  1.1061  1.0476  0.3033
 5941SOL    HW229283   0.737   0.991  16.569 -1.1604 -2.5975  1.6438
 5942SOL     OW29284   3.770   3.092   8.569 -0.7053  0.0365 -0.3516
 5942SOL    HW129285   3.760   3.171   8.517  0.8289  1.5712  1.6742
 5942SOL    HW229286   3.852   3.091   8.618 -1.0541  1.7655  0.2749
 5943SOL     OW29287   4.648   3.537   0.069  0.2327 -0.2905 -0.5838
 5943SOL    HW129288   4.711   3.526   0.140  0.3596  0.3001 -0.5987
 5943SOL    HW229289   4.594   3.458   0.066 -1.4567  0.7672  1.3350
 5944SOL     OW29290   3.438   2.810   5.464  0.2694 -0.1421  0.0123
 5944SOL    HW129291   3.361   2.839   5.513 -0.1510  0.3189 -0.9054
 5944SOL    HW229292   3.411   2.721   5.443 -2.8513  0.9068 -0.3667
 5945SOL     OW29293   1.083   3.339   5.083  0.3846  0.0049 -0.9417
 5945SOL    HW129294   1.130   3.335   5.000 -1.6847  1.7445 -2.2144
 5945SOL    HW229295   0.998   3.305   5.055  0.2415 -1.1095  0.8380
 5946SOL     OW29296   1.989   3.864   7.249 -0.4347  0.3690  0.0560
 5946SOL    HW129297   2.031   3.828   7.171 -0.9595 -0.2180  0.0514
 5946SOL    HW229298   1.896   3.839   7.250 -0.2589 -0.2218  1.7796
 5947SOL     OW29299   3.450   4.633   0.216  0.4586  0.0457  0.3487
 5947SOL    HW129300   3.468   4.545   0.246  0.6460  0.0451  0.2366
 5947SOL    HW229301   3.540   4.662   0.196  0.4044 -1.5312 -2.1057
 5948SOL     OW29302   0.742   1.713   4.438  0.2297  0.1854 -0.1326
 5948SOL    HW129303   0.828   1.674   4.457 -0.5628 -1.4326  0.0762
 5948SOL    HW229304   0.719   1.749   4.524  1.4036  2.4031 -0.7292
 5949SOL     OW29305   0.128   1.420   8.471 -0.1740  0.3560 -0.6689
 5949SOL    HW129306   0.164   1.491   8.417  0.4976  1.2104  0.8899
 5949SOL    HW229307   0.112   1.464   8.555 -0.2101  1.7116 -1.3721
 5950SOL     OW29308   0.737   1.952   9.016  0.5999  0.2338  0.0463
 5950SOL    HW129309   0.817   1.902   9.032  0.5800  0.1778 -0.0296
 5950SOL    HW229310   0.750   2.024   9.079 -0.1201  0.6702 -0.3139
 5951SOL     OW29311   3.222   2.722   1.650 -0.0848 -0.0190  0.4883
 5951SOL    HW129312   3.157   2.789   1.630  0.2863  0.1892 -0.0217
 5951SOL    HW229313   3.174   2.642   1.626 -1.3913  1.2015 -0.9939
 5952SOL     OW29314   1.947   4.090  13.236  0.7790 -0.1058 -0.0382
 5952SOL    HW129315   1.886   4.056  13.302  0.2667 -1.1084 -1.0361
 5952SOL    HW229316   1.923   4.182  13.233 -0.1358 -0.2670  2.4230
 5953SOL     OW29317   0.365   1.807  11.877 -0.2192 -0.1729 -0.3350
 5953SOL    HW129318   0.451   1.846  11.863  0.0133 -0.7374 -0.4819
 5953SOL    HW229319   0.361   1.827  11.970 -1.2253 -0.3343 -0.3435
 5954SOL     OW29320   2.175   3.985  12.226  0.1773  0.0157 -0.1930
 5954SOL    HW129321   2.195   3.893  12.210  1.0952  0.4278 -1.3618
 5954SOL    HW229322   2.177   3.999  12.320  1.2624  0.5580 -0.3039
 5955SOL     OW29323   3.516   0.847  16.312  0.1439 -0.2834 -0.2647
 5955SOL    HW129324   3.550   0.774  16.364 -1.1885  1.5067  3.0896
 5955SOL    HW229325   3.449   0.800  16.262 -0.2910 -0.6353  0.6569
 5956SOL     OW29326   2.484   1.433   7.479  0.1151 -0.5317 -0.5091
 5956SOL    HW129327   2.418   1.463   7.417 -0.0386  1.1557  0.4757
 5956SOL    HW229328   2.516   1.514   7.519  0.6395 -1.3259  0.6762
 5957SOL     OW29329   2.422   2.855   7.131 -0.4568 -0.0465 -0.6572
 5957SOL    HW129330   2.434   2.924   7.196 -0.2002 -0.2667 -0.4697
 5957SOL    HW229331   2.389   2.781   7.182 -0.1774  0.5130  0.3337
 5958SOL     OW29332   1.890   1.093  14.509 -0.1863  0.7980 -0.3510
 5958SOL    HW129333   1.963   1.155  14.505  1.0622 -0.7904 -2.4041
 5958SOL    HW229334   1.825   1.145  14.556 -0.0850 -1.3860  2.2037
 5959SOL     OW29335   4.578   4.449  16.431 -0.4601 -0.3098 -0.2229
 5959SOL    HW129336   4.486   4.464  16.452 -1.0952 -1.2722 -2.3144
 5959SOL    HW229337   4.574   4.468  16.338  3.2693  1.0854 -0.0845
 5960SOL     OW29338   0.102   0.892  13.292 -0.0114  0.0761 -0.0569
 5960SOL    HW129339   0.125   0.812  13.245 -0.3373  0.3043 -0.6051
 5960SOL    HW229340   0.151   0.878  13.373  1.1202  0.3637 -0.6863
 5961SOL     OW29341   2.731   1.827  12.722  0.0869  0.6701 -0.2572
 5961SOL    HW129342   2.767   1.878  12.649  4.2694 -1.4858  0.2798
 5961SOL    HW229343   2.713   1.902  12.778  1.8902  1.3753 -0.5986
 5962SOL     OW29344   2.475   1.469   5.248 -0.1381  0.5950  0.1173
 5962SOL    HW129345   2.413   1.462   5.321  0.7332  1.6229  0.9579
 5962SOL    HW229346   2.553   1.506   5.289  1.7484 -1.6159 -1.4632
 5963SOL     OW29347   0.597   1.488  11.808  0.2214  0.0974 -0.1269
 5963SOL    HW129348   0.567   1.405  11.846 -1.9453  1.0956  0.3794
 5963SOL    HW229349   0.522   1.515  11.755 -0.2147  1.5523  1.2273
 5964SOL     OW29350   3.174   2.544  16.841 -0.4967 -0.3591 -0.6293
 5964SOL    HW129351   3.189   2.454  16.872 -1.3842 -0.2897 -0.0051
 5964SOL    HW229352   3.181   2.602  16.916 -1.8435  1.0100 -1.5683
 5965SOL     OW29353   1.713   2.818   8.597  0.1798  0.4486 -0.5429
 5965SOL    HW129354   1.738   2.910   8.590  1.4187  0.1169 -0.5350
 5965SOL    HW229355   1.626   2.842   8.628 -1.0774 -0.9773 -3.0192
 5966SOL     OW29356   3.031   3.828   1.539  0.6012  0.6705  0.1923
 5966SOL    HW129357   3.111   3.873   1.512  0.1841  1.3344  0.0411
 5966SOL    HW229358   2.962   3.861   1.481 -2.0132 -3.2087  1.1096
 5967SOL     OW29359   1.537   3.489   6.381  0.2965 -0.0793  0.9224
 5967SOL    HW129360   1.448   3.455   6.385 -0.1207  0.8018 -0.8800
 5967SOL    HW229361   1.529   3.565   6.439  0.6213 -0.9570  2.1186
 5968SOL     OW29362   1.159   0.067   4.040  0.2908 -0.4355  0.1252
 5968SOL    HW129363   1.248   0.095   4.060  0.0953 -0.4324  0.9715
 5968SOL    HW229364   1.120   0.153   4.055  0.1188  0.1877 -3.9051
 5969SOL     OW29365   2.717   1.674  13.178 -0.2256  0.0370  0.0458
 5969SOL    HW129366   2.800   1.680  13.226  1.3361  0.5811 -2.6859
 5969SOL    HW229367   2.754   1.650  13.093 -0.7347  0.9439 -0.4392
 5970SOL     OW29368   1.625   0.902  11.791 -0.3926  0.3391  0.0144
 5970SOL    HW129369   1.684   0.948  11.731 -0.5571  0.9025  0.2887
 5970SOL    HW229370   1.602   0.962  11.862  1.2975  0.3844  0.5267
 5971SOL     OW29371   1.521   2.863   2.060 -0.4170 -0.3451 -0.4329
 5971SOL    HW129372   1.497   2.789   2.005  1.2014 -1.1536 -0.0614
 5971SOL    HW229373   1.505   2.933   1.997  0.8633  0.1130 -0.2523
 5972SOL     OW29374   4.394   3.777   1.891 -0.3675 -0.5100  0.4098
 5972SOL    HW129375   4.388   3.838   1.817  0.3216 -0.8931  0.0413
 5972SOL    HW229376   4.476   3.730   1.877  0.7989  2.0168 -1.2451
 5973SOL     OW29377   4.028   1.075   5.801 -0.2751  0.1187 -0.0460
 5973SOL    HW129378   4.062   1.106   5.717  0.8946  0.8049  0.6843
 5973SOL    HW229379   3.953   1.134   5.809 -0.9214 -0.4189 -2.0107
 5974SOL     OW29380   2.617   3.737   7.695 -0.1612 -0.4819  0.2148
 5974SOL    HW129381   2.587   3.700   7.778  1.9283  0.9857  1.6181
 5974SOL    HW229382   2.624   3.653   7.649 -2.2376  1.1754 -3.1666
 5975SOL     OW29383   3.440   0.217   4.900  0.6475 -0.1361  0.0678
 5975SOL    HW129384   3.508   0.256   4.954  1.9679 -0.4550 -1.3578
 5975SOL    HW229385   3.438   0.277   4.826 -1.5288 -2.1926 -1.5325
 5976SOL     OW29386   1.597   2.076   8.082  0.4006 -0.4850 -0.2647
 5976SOL    HW129387   1.660   2.040   8.145 -0.2850  0.4706  0.9596
 5976SOL    HW229388   1.632   2.054   7.995  3.3200  1.9651  0.2574
 5977SOL     OW29389   4.243   2.460  11.021  0.1601  0.7370  0.1035
 5977SOL    HW129390   4.211   2.375  10.989  1.7454 -0.4342  1.6380
 5977SOL    HW229391   4.189   2.516  10.964 -1.4282 -0.9452 -0.0483
 5978SOL     OW29392   3.386   3.060   2.316  0.7604 -0.1565  0.6772
 5978SOL    HW129393   3.391   3.059   2.412  0.8807  0.0824  0.6728
 5978SOL    HW229394   3.329   2.984   2.313  0.4140  0.1717 -0.9078
 5979SOL     OW29395   0.997   3.923   5.825  0.1101  0.0200  0.2986
 5979SOL    HW129396   0.989   3.918   5.920  0.2512 -2.6736  0.1533
 5979SOL    HW229397   1.045   4.004   5.807 -1.5109  1.3254  1.8748
 5980SOL     OW29398   2.831   3.151   5.108  0.0698 -0.4120  0.5333
 5980SOL    HW129399   2.872   3.149   5.022  1.8649 -0.0376  1.3737
 5980SOL    HW229400   2.837   3.243   5.132  0.3175 -0.2218 -0.2579
 5981SOL     OW29401   0.921   1.209  12.337 -0.3992 -0.0438 -0.6839
 5981SOL    HW129402   0.946   1.145  12.404 -0.7077 -1.1474 -1.6476
 5981SOL    HW229403   0.826   1.199  12.332 -0.4024  0.6656 -1.9325
 5982SOL     OW29404   1.151   4.505   3.599  0.2748 -0.2824 -0.2162
 5982SOL    HW129405   1.070   4.466   3.633  0.5384  0.4349  1.2066
 5982SOL    HW229406   1.162   4.580   3.658  2.3918 -2.4414  2.1557
 5983SOL     OW29407   2.202   2.147   6.399 -0.6453 -0.0201  0.3805
 5983SOL    HW129408   2.194   2.239   6.377  3.4742  0.1173 -0.6171
 5983SOL    HW229409   2.267   2.110   6.338 -3.0458  0.3765 -2.3874
 5984SOL     OW29410   0.576   0.322  14.693  0.6111 -0.1563  0.6485
 5984SOL    HW129411   0.617   0.266  14.759  0.3143 -2.0346 -0.7640
 5984SOL    HW229412   0.568   0.266  14.615 -1.2393 -0.1816  0.8452
 5985SOL     OW29413   0.397   1.455   2.880  0.2439 -0.1804 -0.5993
 5985SOL    HW129414   0.459   1.476   2.810  1.1968  0.0641  0.3385
 5985SOL    HW229415   0.397   1.361   2.862 -0.1234  0.1337 -2.2604
 5986SOL     OW29416   0.639   0.286   6.766 -0.0816  0.1518  0.0093
 5986SOL    HW129417   0.629   0.210   6.823  0.6855 -0.0704 -0.1550
 5986SOL    HW229418   0.650   0.353   6.833  0.4500  1.0699 -0.9857
 5987SOL     OW29419   1.654   2.153   3.097  0.5482 -0.3885  0.2965
 5987SOL    HW129420   1.664   2.090   3.026  0.3675  0.5866 -0.5863
 5987SOL    HW229421   1.562   2.133   3.115  0.2034  1.2520  0.3395
 5988SOL     OW29422   0.387   0.966   3.017 -0.0241 -0.6161  0.1008
 5988SOL    HW129423   0.467   0.918   3.042 -0.2520 -1.6989 -1.2947
 5988SOL    HW229424   0.318   0.932   3.074  1.6729 -2.3499  1.1206
 5989SOL     OW29425   0.902   1.022   6.324 -0.1774  0.2271 -0.1467
 5989SOL    HW129426   0.890   0.932   6.355 -1.0253  0.6579  0.7441
 5989SOL    HW229427   0.870   1.023   6.234  1.6618 -1.7752 -0.8536
 5990SOL     OW29428   1.728   3.806  11.498 -0.4072 -0.3664 -0.2480
 5990SOL    HW129429   1.699   3.895  11.516 -0.3015 -0.5598  0.9384
 5990SOL    HW229430   1.647   3.758  11.477 -0.7275 -0.3334  0.8577
 5991SOL     OW29431   4.457   2.575   0.427  0.2903  0.3247 -0.2663
 5991SOL    HW129432   4.414   2.522   0.360 -2.2848  0.5584  1.1789
 5991SOL    HW229433   4.536   2.524   0.441  0.1998  0.2105 -0.1731
 5992SOL     OW29434   3.378   1.590   3.626  0.3879 -0.0507  0.4035
 5992SOL    HW129435   3.451   1.649   3.612  1.1940 -1.4121 -1.1331
 5992SOL    HW229436   3.372   1.586   3.721  0.0375  1.2743  0.4355
 5993SOL     OW29437   3.988   2.312  11.097 -0.4175  0.2352  0.0911
 5993SOL    HW129438   4.059   2.286  11.037 -0.0802 -0.8345  0.9535
 5993SOL    HW229439   4.017   2.265  11.175  1.7671  0.4298 -0.5982
 5994SOL     OW29440   0.898   1.435  17.580 -0.3729 -0.1670 -0.4014
 5994SOL    HW129441   0.920   1.418  17.488 -1.4763 -1.5311 -0.4263
 5994SOL    HW229442   0.968   1.379  17.614  0.1132 -0.2220 -1.5039
 5995SOL     OW29443   3.024   1.955   7.656 -0.3219  0.0749 -0.5589
 5995SOL    HW129444   2.977   2.020   7.603  0.4569 -0.0116 -1.3465
 5995SOL    HW229445   2.945   1.903   7.675 -0.7390  1.0309  0.3001
 5996SOL     OW29446   1.078   4.598   2.163  0.0981  0.6461  0.3986
 5996SOL    HW129447   1.120   4.658   2.101  1.5210 -0.2536  0.4839
 5996SOL    HW229448   1.125   4.522   2.130 -0.8818 -1.0596  2.9792
 5997SOL     OW29449   0.023   4.630   3.673 -0.2707  0.1648  0.2524
 5997SOL    HW129450   0.032   4.641   3.578 -1.9480  0.5366  0.1412
 5997SOL    HW229451   0.077   4.552   3.690 -0.4797 -0.5168 -2.2910
 5998SOL     OW29452   4.031   2.168   3.376 -0.1818 -0.5598  0.0757
 5998SOL    HW129453   3.954   2.176   3.319  0.6487  3.1333 -0.5243
 5998SOL    HW229454   4.067   2.253   3.400 -1.3378 -0.0891  0.1293
 5999SOL     OW29455   2.330   4.196   8.212  0.4186 -0.0462 -0.3340
 5999SOL    HW129456   2.401   4.132   8.207  0.7694  0.3064  0.0845
 5999SOL    HW229457   2.275   4.163   8.141  1.7229  0.0316 -1.3752
 6000SOL     OW29458   4.706   0.035   0.937  0.2553 -0.1799 -0.2999
 6000SOL    HW129459   0.040   0.060   1.013  2.6000 -3.2453 -0.9406
 6000SOL    HW229460   4.634   4.715   0.988  0.0326 -0.5061 -0.8639
 6001SOL     OW29461   4.402   1.236  10.966 -0.4070 -0.7992  0.2679
 6001SOL    HW129462   4.382   1.182  10.889  0.1684 -2.4523  1.2662
 6001SOL    HW229463   4.377   1.169  11.030  1.9266 -1.4941  0.4560
 6002SOL     OW29464   1.893   2.394   2.924 -0.0011  0.0396  0.6170
 6002SOL    HW129465   1.808   2.436   2.911  0.5485  0.5363 -1.5092
 6002SOL    HW229466   1.915   2.375   2.832  0.8680  2.6194  0.2805
 6003SOL     OW29467   3.805   3.658   0.773  0.0550 -0.1466  0.4616
 6003SOL    HW129468   3.804   3.722   0.845 -1.9893  0.0237  0.2925
 6003SOL    HW229469   3.882   3.684   0.722 -2.0365 -1.4789 -3.3976
 6004SOL     OW29470   0.815   4.688  14.652  0.0296  0.0066  0.2246
 6004SOL    HW129471   0.814   4.705  14.557  1.9994 -2.7231 -0.2972
 6004SOL    HW229472   0.842   4.597  14.661  1.9344  0.3539 -1.8405
 6005SOL     OW29473   4.719   3.265   5.693 -0.2653  0.2659 -0.0633
 6005SOL    HW129474   0.060   3.289   5.763 -3.5631 -1.5234  3.3974
 6005SOL    HW229475   4.636   3.273   5.741 -1.3556  0.7387 -2.0346
 6006SOL     OW29476   2.962   2.970  13.957 -0.2879 -0.4100 -0.5139
 6006SOL    HW129477   2.926   3.056  13.936 -1.8372 -0.5453  1.5284
 6006SOL    HW229478   2.898   2.907  13.923  1.8225 -2.3171 -0.9192
 6007SOL     OW29479   1.713   3.119  15.136 -0.5266 -0.5564 -0.0667
 6007SOL    HW129480   1.793   3.167  15.114  1.4318 -2.1516  3.4876
 6007SOL    HW229481   1.654   3.184  15.175  1.6683  0.5376  1.4118
 6008SOL     OW29482   2.149   2.606  11.362  0.2843  0.2753  0.2274
 6008SOL    HW129483   2.162   2.657  11.282 -2.0780  0.1146 -0.2762
 6008SOL    HW229484   2.060   2.572  11.350  1.0256 -1.0046 -1.4595
 6009SOL     OW29485   4.522   2.049  10.779  0.3080 -0.4161  0.2626
 6009SOL    HW129486   4.578   2.127  10.785  2.5573 -1.9156 -1.2648
 6009SOL    HW229487   4.439   2.081  10.744  0.5843 -1.4648 -1.3747
 6010SOL     OW29488   1.068   3.085  15.863 -0.0225  0.7967  0.6161
 6010SOL    HW129489   1.162   3.072  15.861 -0.1869 -0.0608 -1.6837
 6010SOL    HW229490   1.066   3.147  15.937  0.7673  1.4584  0.0827
 6011SOL     OW29491   1.996   0.818  16.319  0.4128  0.2399  0.9079
 6011SOL    HW129492   2.031   0.871  16.248  0.5225 -1.6818 -0.4582
 6011SOL    HW229493   1.903   0.823  16.296 -0.1199  0.6685  3.1494
 6012SOL     OW29494   0.750   3.158  14.139 -0.2251 -0.5458  0.7334
 6012SOL    HW129495   0.767   3.213  14.063 -1.7428  0.0082  0.7917
 6012SOL    HW229496   0.809   3.193  14.205  0.7109  1.0115 -0.9510
 6013SOL     OW29497   0.194   1.398   2.335 -0.1901  0.5882 -0.2471
 6013SOL    HW129498   0.131   1.466   2.311 -0.7503 -0.6504 -2.2565
 6013SOL    HW229499   0.250   1.434   2.404 -0.2551 -2.1028  1.2012
 6014SOL     OW29500   4.541   2.510   4.420  0.0901 -0.6033  0.0131
 6014SOL    HW129501   4.537   2.605   4.430  0.6512 -0.5110 -0.6145
 6014SOL    HW229502   4.572   2.495   4.331  1.3633 -0.8704  0.5106
 6015SOL     OW29503   3.633   2.070  14.263  0.6880 -0.5319 -0.0852
 6015SOL    HW129504   3.670   1.994  14.308 -0.1690 -1.8283 -1.5915
 6015SOL    HW229505   3.708   2.125  14.286  0.4154  1.1277 -3.1855
 6016SOL     OW29506   0.579   3.603  16.097 -0.4459 -0.1497 -0.1428
 6016SOL    HW129507   0.517   3.546  16.143 -0.3655 -1.5704 -1.7616
 6016SOL    HW229508   0.520   3.655  16.043  0.2213 -0.2061 -0.9405
 6017SOL     OW29509   0.747   0.281   7.178  0.2402 -0.3906 -0.4908
 6017SOL    HW129510   0.679   0.234   7.226  1.4264 -0.6689  0.9340
 6017SOL    HW229511   0.818   0.289   7.242  0.6108  1.4158 -1.1230
 6018SOL     OW29512   0.289   0.710  14.127  0.1086 -0.3719 -0.6196
 6018SOL    HW129513   0.262   0.625  14.162 -0.6606  0.7669  1.5813
 6018SOL    HW229514   0.376   0.735  14.157 -1.0273 -0.3326  2.6361
 6019SOL     OW29515   3.510   1.894  15.154 -0.4962 -0.0698  0.3308
 6019SOL    HW129516   3.520   1.950  15.077  4.0369 -1.0555  0.1901
 6019SOL    HW229517   3.482   1.815  15.106 -1.8063  1.1457 -0.8880
 6020SOL     OW29518   0.421   3.753   3.903 -0.1055 -0.2347 -0.2324
 6020SOL    HW129519   0.488   3.721   3.842 -0.4377 -0.9322 -0.2242
 6020SOL    HW229520   0.418   3.844   3.873  0.0739 -0.1622 -0.0331
 6021SOL     OW29521   2.871   0.356  10.309 -0.0792 -0.0382 -0.1285
 6021SOL    HW129522   2.912   0.399  10.384  0.2136 -0.8004  0.1437
 6021SOL    HW229523   2.796   0.415  10.297 -0.3197 -0.4252 -0.5363
 6022SOL     OW29524   1.850   0.159   8.372 -0.6468  0.5567 -0.5057
 6022SOL    HW129525   1.872   0.249   8.394  0.0956  0.7576 -2.0698
 6022SOL    HW229526   1.754   0.162   8.378 -0.8339 -2.0464 -2.1859
 6023SOL     OW29527   3.571   2.630   5.056 -0.5943 -0.1533 -0.3650
 6023SOL    HW129528   3.483   2.644   5.091 -0.5780 -0.9922  0.0172
 6023SOL    HW229529   3.577   2.698   4.989 -1.3394 -0.4137 -0.6914
 6024SOL     OW29530   1.735   3.625   6.854 -0.1148  0.1765 -0.1056
 6024SOL    HW129531   1.640   3.629   6.857 -0.0826  1.8736 -1.8902
 6024SOL    HW229532   1.742   3.666   6.768  2.2887  1.5212  0.7251
 6025SOL     OW29533   1.232   1.789  14.916  0.0814 -0.5724 -0.3933
 6025SOL    HW129534   1.161   1.754  14.861 -0.4340 -1.0368  0.5679
 6025SOL    HW229535   1.294   1.789  14.843  1.0387 -0.7399  0.4233
 6026SOL     OW29536   2.830   2.157   2.269 -0.4790 -0.1142  0.2253
 6026SOL    HW129537   2.806   2.068   2.243 -0.2941 -0.1407  0.1459
 6026SOL    HW229538   2.847   2.200   2.186 -1.5079  2.5936  1.4251
 6027SOL     OW29539   4.516   0.085   3.563 -0.1368  0.1247  0.2258
 6027SOL    HW129540   4.503   0.004   3.613 -0.9641  0.3323  0.3466
 6027SOL    HW229541   4.422   0.096   3.549  0.2404 -2.4670 -4.5484
 6028SOL     OW29542   4.653   4.099  14.297 -0.1976  0.3516  0.3742
 6028SOL    HW129543   4.705   4.148  14.233 -2.3625 -0.5911 -2.1249
 6028SOL    HW229544   4.703   4.125  14.374  0.2702 -1.5343  0.6964
 6029SOL     OW29545   0.275   3.447  11.435 -0.2680 -0.0086  0.4447
 6029SOL    HW129546   0.250   3.438  11.527 -0.5996  0.6807  0.4212
 6029SOL    HW229547   0.350   3.389  11.419  0.4718  0.8351  0.8343
 6030SOL     OW29548   1.552   3.284   7.775 -0.0475 -0.1056  0.3731
 6030SOL    HW129549   1.618   3.304   7.841  0.8899  4.0152 -1.7686
 6030SOL    HW229550   1.509   3.213   7.822 -1.7622  2.4862  2.7202
 6031SOL     OW29551   1.753   1.436  12.036 -0.1779  0.0588 -0.1429
 6031SOL    HW129552   1.762   1.457  12.129 -1.0431 -0.8104  0.1337
 6031SOL    HW229553   1.725   1.521  12.005  2.5369  0.1824 -2.2607
 6032SOL     OW29554   2.134   3.434  16.121  0.0417 -0.4133 -0.8169
 6032SOL    HW129555   2.047   3.421  16.082  1.1910 -0.3745 -3.3950
 6032SOL    HW229556   2.193   3.439  16.046 -0.6476  1.9919 -1.1956
 6033SOL     OW29557   0.752   4.168   3.726 -0.1994 -0.2839  0.4269
 6033SOL    HW129558   0.722   4.197   3.640 -0.2302 -4.0625 -0.8419
 6033SOL    HW229559   0.816   4.234   3.754 -0.1672 -0.5670  1.0252
 6034SOL     OW29560   0.530   3.856  14.819 -0.1523 -0.4346  0.1885
 6034SOL    HW129561   0.482   3.935  14.845 -0.2279  0.0827 -1.5589
 6034SOL    HW229562   0.578   3.825  14.896  1.3622  0.7264 -0.3003
 6035SOL     OW29563   1.008   0.083   1.850  0.2467  0.0162  0.0703
 6035SOL    HW129564   1.025   0.018   1.783  0.6075  2.6650 -2.3913
 6035SOL    HW229565   1.093   0.093   1.893  0.7781 -0.0693 -0.9858
 6036SOL     OW29566   1.278   3.251   7.196 -0.2201  0.1063 -0.2270
 6036SOL    HW129567   1.366   3.216   7.182  0.3150  1.5725 -0.5288
 6036SOL    HW229568   1.267   3.302   7.116 -2.9594 -1.7094 -1.0036
 6037SOL     OW29569   2.464   1.108  13.014 -0.0395 -0.0849  0.1259
 6037SOL    HW129570   2.549   1.117  12.970 -0.1675 -0.7806 -0.2612
 6037SOL    HW229571   2.495   1.108  13.104 -0.2420  1.2106  0.2020
 6038SOL     OW29572   2.887   3.979  13.883 -0.4287  0.0696  0.1086
 6038SOL    HW129573   2.838   3.923  13.822 -1.4836  0.8891  0.1850
 6038SOL    HW229574   2.974   3.943  13.868 -0.2432 -0.4671  2.5466
 6039SOL     OW29575   2.820   4.573   3.269  0.2296  0.2562 -0.7377
 6039SOL    HW129576   2.781   4.525   3.196 -1.6629  0.7330 -0.0604
 6039SOL    HW229577   2.871   4.644   3.230  1.4200 -0.2201 -0.0461
 6040SOL     OW29578   1.588   4.306  13.164  0.0350  0.1446  0.0852
 6040SOL    HW129579   1.571   4.225  13.212  1.5794 -0.4534 -0.3606
 6040SOL    HW229580   1.664   4.340  13.211 -0.5720  1.4638  0.1063
 6041SOL     OW29581   1.799   3.344   9.136 -0.9157 -0.1302 -0.5191
 6041SOL    HW129582   1.703   3.349   9.134 -1.0387 -2.1618  0.1557
 6041SOL    HW229583   1.816   3.252   9.115  0.5412 -0.3803  1.7451
 6042SOL     OW29584   1.622   0.580   4.556  0.7357 -0.0642 -0.3385
 6042SOL    HW129585   1.687   0.595   4.625 -0.1931 -1.2430  0.7851
 6042SOL    HW229586   1.627   0.485   4.543  0.3417  0.1360 -1.8659
 6043SOL     OW29587   4.222   2.804   0.684  0.1158  0.3569  0.2860
 6043SOL    HW129588   4.290   2.861   0.648 -0.4485 -0.4001 -2.0023
 6043SOL    HW229589   4.148   2.821   0.625 -0.6178  0.3025  1.1973
 6044SOL     OW29590   3.673   2.935   7.086 -0.2133  0.0612  0.6706
 6044SOL    HW129591   3.653   2.857   7.138  0.2266  0.0709  0.8607
 6044SOL    HW229592   3.726   2.897   7.016 -2.8168 -0.3286 -1.0576
 6045SOL     OW29593   2.831   1.464  11.791 -0.0852 -0.7972 -0.3740
 6045SOL    HW129594   2.816   1.557  11.808 -2.4389 -1.1774 -0.3764
 6045SOL    HW229595   2.877   1.471  11.707  1.5840  0.3623  0.6570
 6046SOL     OW29596   1.698   0.426  12.076 -0.8352  0.4158 -0.4622
 6046SOL    HW129597   1.766   0.455  12.015  0.3653 -2.9719 -0.7147
 6046SOL    HW229598   1.718   0.483  12.150 -0.4100  2.6417 -2.2504
 6047SOL     OW29599   1.391   0.216   3.542  0.2257 -0.2759 -0.0237
 6047SOL    HW129600   1.345   0.151   3.489  0.5650  0.7072 -1.5046
 6047SOL    HW229601   1.458   0.156   3.577  1.9333  0.5961 -1.7798
 6048SOL     OW29602   2.629   0.953   5.975 -0.6865  0.5008 -0.3928
 6048SOL    HW129603   2.714   0.911   5.990 -0.4752  0.7286 -0.9652
 6048SOL    HW229604   2.582   0.955   6.059 -1.3639 -2.5581 -0.6849
 6049SOL     OW29605   0.750   2.825  13.855 -0.3668  1.0977 -0.0546
 6049SOL    HW129606   0.841   2.815  13.829 -0.9122 -1.4448 -1.0624
 6049SOL    HW229607   0.724   2.911  13.822 -0.5760  0.7402 -0.8293
 6050SOL     OW29608   4.347   0.674   5.869 -0.1707 -0.8079  0.4523
 6050SOL    HW129609   4.428   0.653   5.824  0.1786  2.0085 -0.2312
 6050SOL    HW229610   4.335   0.767   5.846 -0.2297 -1.0978 -0.6764
 6051SOL     OW29611   3.017   3.357   5.696  0.5945 -0.1330  0.4818
 6051SOL    HW129612   3.028   3.450   5.716  2.0683  0.0173 -1.0668
 6051SOL    HW229613   2.965   3.327   5.771 -1.9730 -1.3778 -1.7964
 6052SOL     OW29614   4.436   3.943   6.864 -0.5472  0.0738 -0.6938
 6052SOL    HW129615   4.406   3.858   6.898  0.8047  0.5062  1.6017
 6052SOL    HW229616   4.359   3.997   6.882 -0.2972  0.6041 -1.2238
 6053SOL     OW29617   3.172   1.441   7.964 -0.6346 -0.1268  0.0097
 6053SOL    HW129618   3.108   1.374   7.990  0.3460 -1.6576 -1.4989
 6053SOL    HW229619   3.159   1.438   7.869 -0.5312  1.0197 -0.0307
 6054SOL     OW29620   2.000   0.521   3.805 -0.7357 -0.1678 -0.2447
 6054SOL    HW129621   2.024   0.542   3.714  0.7439 -1.5449 -0.1656
 6054SOL    HW229622   2.075   0.564   3.846 -0.0333 -0.8132 -0.8658
 6055SOL     OW29623   2.961   0.375  11.853  0.8591 -0.5867  0.2452
 6055SOL    HW129624   2.910   0.301  11.818 -2.6923  2.1531 -0.3159
 6055SOL    HW229625   2.917   0.454  11.822  1.8452 -0.0032  0.3584
 6056SOL     OW29626   2.547   0.913   6.970  0.1681  0.3445 -0.1490
 6056SOL    HW129627   2.550   0.827   6.927 -1.1615 -0.2814  0.9937
 6056SOL    HW229628   2.564   0.960   6.889  1.4324  0.9032  0.4432
 6057SOL     OW29629   3.053   2.507   0.796 -0.5060  0.1633 -0.1361
 6057SOL    HW129630   3.105   2.466   0.865 -0.1864  0.2658 -0.3160
 6057SOL    HW229631   2.962   2.489   0.818 -0.0359 -2.3300 -0.3183
 6058SOL     OW29632   1.094   3.299  11.001 -0.3057 -0.2532 -0.0854
 6058SOL    HW129633   1.104   3.205  11.017 -0.4338 -0.6189 -2.0757
 6058SOL    HW229634   1.059   3.298  10.912  0.7036  1.1901 -0.5057
 6059SOL     OW29635   2.277   1.492   7.808 -0.0285  0.3899 -0.3171
 6059SOL    HW129636   2.244   1.536   7.887  0.4293 -0.5986  0.4320
 6059SOL    HW229637   2.327   1.562   7.767 -1.3546  1.9648  0.7768
 6060SOL     OW29638   3.845   0.780   3.690 -0.5255 -0.3091 -0.3636
 6060SOL    HW129639   3.762   0.825   3.678  0.0286  1.2948  1.6406
 6060SOL    HW229640   3.817   0.693   3.662 -1.2091  0.4276 -1.9411
 6061SOL     OW29641   0.229   2.265   3.540 -0.4477  0.1521 -0.7628
 6061SOL    HW129642   0.235   2.189   3.598  0.2922 -0.6795 -1.9309
 6061SOL    HW229643   0.292   2.247   3.470  0.4060 -0.1246  0.0635
 6062SOL     OW29644   2.349   3.961  14.784  0.1790  0.5888 -0.6759
 6062SOL    HW129645   2.362   4.004  14.868 -1.0148  0.1892 -0.2801
 6062SOL    HW229646   2.265   4.001  14.761  0.1440  0.6842 -0.3805
 6063SOL     OW29647   4.637   2.155   0.515  0.0347  0.4732 -0.3223
 6063SOL    HW129648   0.013   2.160   0.520  0.0360  0.9500 -0.7681
 6063SOL    HW229649   4.625   2.249   0.529  0.1478  0.7297 -1.9442
 6064SOL     OW29650   4.563   2.204   0.164 -0.7161  0.4864  0.4344
 6064SOL    HW129651   4.554   2.131   0.225  1.5557 -0.4681 -0.3528
 6064SOL    HW229652   4.537   2.154   0.086 -0.1806  2.2188 -0.8389
 6065SOL     OW29653   2.834   2.435   2.613  0.0479  0.1357  0.2801
 6065SOL    HW129654   2.906   2.437   2.550  1.8419  1.2902  2.3676
 6065SOL    HW229655   2.871   2.379   2.681 -1.5725  0.4797  1.4467
 6066SOL     OW29656   0.674   3.523  11.781 -0.6535 -0.2200  0.5001
 6066SOL    HW129657   0.640   3.607  11.749  0.4943 -0.0798 -0.3325
 6066SOL    HW229658   0.768   3.540  11.780 -1.0757  2.1019  0.0655
 6067SOL     OW29659   3.607   3.465   1.914 -0.0887  0.2873 -0.4078
 6067SOL    HW129660   3.552   3.423   1.980  3.6828 -0.9881  1.9183
 6067SOL    HW229661   3.617   3.556   1.945  0.4566  0.1534 -0.1896
 6068SOL     OW29662   0.365   2.858   0.682 -0.7098  0.0303  0.3991
 6068SOL    HW129663   0.339   2.851   0.774 -0.3179  1.8114  0.6495
 6068SOL    HW229664   0.381   2.952   0.670 -0.1632 -0.3453 -1.6476
 6069SOL     OW29665   1.964   2.158   6.012  0.8453 -0.6431  0.0101
 6069SOL    HW129666   1.951   2.240   6.058 -0.2566 -0.8957  0.1590
 6069SOL    HW229667   1.878   2.145   5.971  0.4154 -2.0370  1.3532
 6070SOL     OW29668   2.176   0.796  12.191 -0.3822 -0.2842  0.0170
 6070SOL    HW129669   2.205   0.861  12.255 -0.2364 -0.5253  0.1966
 6070SOL    HW229670   2.139   0.852  12.123  1.6010  1.2372  0.2096
 6071SOL     OW29671   4.461   3.089   4.344  0.5534 -0.3670  0.3605
 6071SOL    HW129672   4.459   3.141   4.425 -1.3210 -1.6156  1.1220
 6071SOL    HW229673   4.433   3.145   4.272 -0.0949  0.3237  1.1552
 6072SOL     OW29674   4.533   1.850   5.541 -0.1790  0.1167 -0.1765
 6072SOL    HW129675   4.536   1.937   5.501 -0.6814  1.1040  1.9367
 6072SOL    HW229676   4.444   1.853   5.577 -1.5656 -3.5440 -3.2024
 6073SOL     OW29677   4.385   4.264  11.870 -0.2989  0.2929  0.2841
 6073SOL    HW129678   4.465   4.219  11.900  0.6538  0.2113 -2.3900
 6073SOL    HW229679   4.404   4.278  11.778  0.6374 -1.6484  0.1643
 6074SOL     OW29680   3.595   3.931   4.132 -0.1295 -0.6753 -0.0370
 6074SOL    HW129681   3.526   3.865   4.134 -0.4614 -0.2087  3.3266
 6074SOL    HW229682   3.654   3.902   4.062 -1.3925  0.2476 -1.4857
 6075SOL     OW29683   1.571   3.896  17.518  0.7137 -0.1999 -0.2854
 6075SOL    HW129684   1.524   3.885  17.601  1.5443  1.9155  0.4631
 6075SOL    HW229685   1.493   3.917  17.466  0.0044  2.3259  1.8068
 6076SOL     OW29686   2.663   3.523   3.444 -0.0190  0.1433 -0.3524
 6076SOL    HW129687   2.758   3.531   3.458 -0.2705  0.1896  1.3478
 6076SOL    HW229688   2.648   3.528   3.350 -3.0513 -0.6496  0.1026
 6077SOL     OW29689   3.747   4.579  15.068  0.2118 -0.2498 -0.1033
 6077SOL    HW129690   3.669   4.585  15.013  0.8720  1.5872 -0.8455
 6077SOL    HW229691   3.813   4.586  14.999  1.0867 -1.2569  0.6463
 6078SOL     OW29692   4.131   1.597   6.733  0.0825  0.7231 -0.2918
 6078SOL    HW129693   4.227   1.595   6.723 -0.0300 -0.8434 -1.0691
 6078SOL    HW229694   4.122   1.628   6.823 -1.9416 -1.1306  0.1316
 6079SOL     OW29695   0.396   2.191   9.859  0.5070  0.0617 -0.0666
 6079SOL    HW129696   0.477   2.233   9.888  1.7463 -1.9681 -0.5585
 6079SOL    HW229697   0.335   2.259   9.886  0.8678  1.5688 -3.0902
 6080SOL     OW29698   4.037   3.051   1.557  0.6288 -0.3515  0.0417
 6080SOL    HW129699   4.082   2.969   1.578  0.9942 -0.2867 -0.4989
 6080SOL    HW229700   4.077   3.061   1.471  0.6367 -0.0552  0.0822
 6081SOL     OW29701   2.299   2.699   3.796  0.4833  0.0809  0.1265
 6081SOL    HW129702   2.323   2.792   3.802  0.5018  0.1492 -0.9212
 6081SOL    HW229703   2.305   2.669   3.887  1.8140 -1.6434 -0.5343
 6082SOL     OW29704   1.235   0.517  10.481 -0.4934  0.0634 -0.1355
 6082SOL    HW129705   1.249   0.432  10.523  0.8543 -0.2590 -1.2393
 6082SOL    HW229706   1.156   0.533  10.531  0.2936  0.6069  0.9400
 6083SOL     OW29707   3.541   1.129  11.254  0.0073  0.2343  0.0012
 6083SOL    HW129708   3.521   1.219  11.277  1.6614 -0.0823  2.6690
 6083SOL    HW229709   3.455   1.089  11.249 -0.3071  0.7677  1.1912
 6084SOL     OW29710   3.417   3.797   4.405  0.1341 -0.4220  0.3637
 6084SOL    HW129711   3.398   3.717   4.356 -1.5800 -0.8594  1.7344
 6084SOL    HW229712   3.465   3.762   4.480  1.3839 -1.4011 -0.8786
 6085SOL     OW29713   4.472   0.493   4.151 -0.5672  0.0115 -0.0029
 6085SOL    HW129714   4.538   0.458   4.091 -0.7853 -1.7201  0.7709
 6085SOL    HW229715   4.408   0.423   4.139  0.5370 -0.8174 -1.0491
 6086SOL     OW29716   0.738   2.981  16.085 -0.2789 -0.0868 -0.1054
 6086SOL    HW129717   0.744   3.017  15.996  0.5343  1.2727  0.5050
 6086SOL    HW229718   0.765   3.060  16.133 -0.5337  0.2891 -0.5746
 6087SOL     OW29719   2.627   1.704  13.461 -0.4633 -0.4037  0.1904
 6087SOL    HW129720   2.606   1.796  13.476  2.0032  0.0781  0.7307
 6087SOL    HW229721   2.721   1.700  13.482 -0.5505  2.1160  1.1119
 6088SOL     OW29722   2.719   0.146   8.821 -0.3577 -0.4003 -0.5589
 6088SOL    HW129723   2.686   0.144   8.911  0.7943 -0.9135 -0.1408
 6088SOL    HW229724   2.738   0.052   8.817  1.0288 -0.3539  4.3138
 6089SOL     OW29725   1.404   0.706   0.300 -0.1174  0.1974 -0.0530
 6089SOL    HW129726   1.358   0.750   0.228 -0.5175  1.9058  1.2480
 6089SOL    HW229727   1.488   0.751   0.286  1.0292 -0.8294  3.7595
 6090SOL     OW29728   2.448   2.311   0.669 -0.1194  0.5566 -0.2031
 6090SOL    HW129729   2.424   2.219   0.662  2.5131 -0.1584  0.2257
 6090SOL    HW229730   2.373   2.356   0.630 -0.8742  0.2297  0.8704
 6091SOL     OW29731   2.655   0.252   8.594 -0.1609  0.7668  0.0863
 6091SOL    HW129732   2.577   0.210   8.557 -0.1585  2.1116 -1.4168
 6091SOL    HW229733   2.686   0.202   8.670  1.6806  0.2611 -0.9913
 6092SOL     OW29734   2.722   0.353   7.337 -0.1437  0.0070  0.5480
 6092SOL    HW129735   2.784   0.331   7.267 -1.3621  0.6675 -0.7367
 6092SOL    HW229736   2.675   0.271   7.349  0.1905 -0.1967  0.4510
 6093SOL     OW29737   2.929   0.209   6.355 -0.1058  0.0804  0.0522
 6093SOL    HW129738   2.882   0.135   6.394  1.2054  0.0002  1.4611
 6093SOL    HW229739   2.998   0.206   6.421 -0.3358 -1.0753  0.2336
 6094SOL     OW29740   0.267   3.523   2.170  0.4156  0.5068 -0.0693
 6094SOL    HW129741   0.216   3.569   2.104  0.5131  3.0651  1.6442
 6094SOL    HW229742   0.325   3.594   2.199 -0.1135  0.5657  0.8251
 6095SOL     OW29743   4.004   4.098  10.742  0.1356  0.2544 -0.2394
 6095SOL    HW129744   4.085   4.147  10.755  0.1422 -0.0470  0.9392
 6095SOL    HW229745   3.952   4.149  10.804  0.2520 -1.3410  1.1853
 6096SOL     OW29746   1.646   1.716   5.436 -0.2171  0.6874  0.2925
 6096SOL    HW129747   1.649   1.696   5.530  3.3651 -4.4639 -0.9085
 6096SOL    HW229748   1.735   1.749   5.424  0.8557 -2.1292  0.4475
 6097SOL     OW29749   0.322   2.624  15.396  0.2056  0.1773  0.1314
 6097SOL    HW129750   0.353   2.611  15.306  0.6620 -1.3798  0.5176
 6097SOL    HW229751   0.237   2.666  15.383  0.1480 -0.8029 -2.6613
 6098SOL     OW29752   0.775   4.216   2.272  0.0761  0.1352  0.7448
 6098SOL    HW129753   0.821   4.230   2.355  1.0421 -0.8692  0.3784
 6098SOL    HW229754   0.701   4.276   2.280 -0.7025 -0.7765  0.3442
 6099SOL     OW29755   3.586   0.551   2.997 -0.3305 -0.5016 -0.3560
 6099SOL    HW129756   3.650   0.486   3.024  1.1911  1.2963  0.3366
 6099SOL    HW229757   3.645   0.607   2.947 -1.6676 -0.1765 -1.6071
 6100SOL     OW29758   1.680   3.415  16.024 -0.4956 -0.1782  0.1446
 6100SOL    HW129759   1.613   3.382  15.964 -0.2309 -0.5106  0.0300
 6100SOL    HW229760   1.623   3.438  16.098  0.6299  1.4158  0.5171
 6101SOL     OW29761   1.328   4.064  13.197 -0.2931  0.1338  0.4358
 6101SOL    HW129762   1.405   4.056  13.254 -0.1575  0.5888  0.3173
 6101SOL    HW229763   1.345   3.986  13.145 -2.3010 -0.4829  0.6973
 6102SOL     OW29764   2.933   1.641   3.584  0.7155 -0.0401 -0.1450
 6102SOL    HW129765   3.003   1.704   3.565  0.8590 -0.0340  0.4004
 6102SOL    HW229766   2.880   1.645   3.505 -0.4308  0.9239  0.6734
 6103SOL     OW29767   4.430   1.347  10.242  0.0454  0.2814 -0.5010
 6103SOL    HW129768   4.351   1.298  10.265 -0.3503  1.2201  0.1398
 6103SOL    HW229769   4.397   1.431  10.210  3.0764  1.3210 -0.8807
 6104SOL     OW29770   0.137   1.011   2.852 -0.0179  0.1071 -0.1071
 6104SOL    HW129771   0.078   1.045   2.919 -2.4669 -0.1013 -2.1439
 6104SOL    HW229772   0.201   0.971   2.911 -0.3900 -3.1085 -1.9362
 6105SOL     OW29773   4.259   1.635   0.327  0.7840 -0.3605  0.0028
 6105SOL    HW129774   4.290   1.678   0.407 -1.1130  0.1064  0.4888
 6105SOL    HW229775   4.165   1.652   0.324  1.0238  0.9380 -0.1205
 6106SOL     OW29776   1.148   0.151   4.584 -1.0760  0.4415 -0.7091
 6106SOL    HW129777   1.120   0.170   4.494  0.3858  0.5802 -1.1395
 6106SOL    HW229778   1.067   0.123   4.627  0.1438  0.2223  1.4370
 6107SOL     OW29779   4.288   0.260  10.125  0.2011  0.4676  0.0148
 6107SOL    HW129780   4.269   0.169  10.148  0.8756  0.3063 -0.0895
 6107SOL    HW229781   4.297   0.296  10.213 -1.2161  0.0449  0.3340
 6108SOL     OW29782   2.674   3.624   8.996  0.7267  0.2637  0.3085
 6108SOL    HW129783   2.663   3.672   9.079  3.3943 -1.0905  1.4669
 6108SOL    HW229784   2.734   3.685   8.953 -0.9855  1.5513 -0.2414
 6109SOL     OW29785   4.450   4.398   4.804  0.5026  0.6488  0.0033
 6109SOL    HW129786   4.372   4.353   4.771 -1.4038  2.8519  1.5334
 6109SOL    HW229787   4.502   4.432   4.731 -0.6661  0.4818 -0.9015
 6110SOL     OW29788   3.708   3.562  12.509 -0.8765  0.0577 -0.2174
 6110SOL    HW129789   3.743   3.641  12.468  0.1990  0.1950  0.9464
 6110SOL    HW229790   3.621   3.559  12.471 -0.0138  2.9220 -2.3506
 6111SOL     OW29791   4.131   4.635   4.521  0.2423 -0.2974  0.0444
 6111SOL    HW129792   4.120   4.541   4.511 -0.9752 -0.2229  0.6702
 6111SOL    HW229793   4.045   4.661   4.487  0.0483  1.0306  1.5510
 6112SOL     OW29794   3.490   2.045   0.892  0.1443 -0.4808 -0.0997
 6112SOL    HW129795   3.497   2.099   0.971 -2.8252 -0.1852 -0.0475
 6112SOL    HW229796   3.503   1.958   0.930  1.8947  0.9678  2.5976
 6113SOL     OW29797   1.047   2.269  10.587  0.1149  0.5202  0.6837
 6113SOL    HW129798   0.992   2.289  10.512  1.1858  0.8923 -0.0038
 6113SOL    HW229799   0.988   2.240  10.657  0.6085  0.1490  0.9461
 6114SOL     OW29800   2.823   4.253   1.291  0.2634 -0.4482 -0.7773
 6114SOL    HW129801   2.912   4.272   1.260  1.1172  0.7514  2.4138
 6114SOL    HW229802   2.803   4.335   1.335 -0.7330 -1.1625  0.0850
 6115SOL     OW29803   0.926   3.747   5.295 -0.1964 -0.0980 -0.2820
 6115SOL    HW129804   0.869   3.792   5.358  0.2321  0.0495 -0.0033
 6115SOL    HW229805   0.935   3.665   5.345  1.5584  1.5817  2.1648
 6116SOL     OW29806   0.837   4.307  15.760  0.3966 -0.2450 -0.1497
 6116SOL    HW129807   0.779   4.276  15.830 -0.5320 -1.0103 -1.2751
 6116SOL    HW229808   0.905   4.355  15.808 -0.4855 -0.7861  1.6408
 6117SOL     OW29809   0.105   0.348   5.267  0.3683 -0.1076  0.0391
 6117SOL    HW129810   0.013   0.373   5.253 -0.3636 -2.3187  0.8591
 6117SOL    HW229811   0.152   0.429   5.248  0.3347 -0.4846 -1.5911
 6118SOL     OW29812   0.415   3.556  11.914  0.5886 -0.2462  0.0990
 6118SOL    HW129813   0.509   3.545  11.928  0.4055 -1.0838  0.6491
 6118SOL    HW229814   0.401   3.651  11.914 -1.5485 -0.5442  1.2835
 6119SOL     OW29815   3.270   1.427   9.684 -0.0117 -0.0234 -0.5839
 6119SOL    HW129816   3.258   1.522   9.691 -0.0747 -0.2632  2.8530
 6119SOL    HW229817   3.294   1.398   9.772  0.7129  0.3733 -0.6465
 6120SOL     OW29818   0.893   0.207  11.964  0.3408 -0.2813 -0.3945
 6120SOL    HW129819   0.876   0.178  12.053  0.8321 -1.1640 -0.5859
 6120SOL    HW229820   0.875   0.124  11.920  1.2350  0.0541 -1.4093
 6121SOL     OW29821   1.126   1.081   4.789  0.3517  0.4224 -0.0432
 6121SOL    HW129822   1.099   1.051   4.702 -1.4955  2.0266 -0.0160
 6121SOL    HW229823   1.097   1.171   4.782 -1.3801 -0.0574  0.9036
 6122SOL     OW29824   1.493   2.063   6.193  0.0238 -0.2211 -0.3223
 6122SOL    HW129825   1.526   2.022   6.113 -1.9124 -2.8692  0.2388
 6122SOL    HW229826   1.568   2.120   6.212 -0.8682  0.6397  0.6243
 6123SOL     OW29827   0.783   0.393  15.071  0.1304 -0.0938  0.0170
 6123SOL    HW129828   0.834   0.459  15.024 -0.8207  0.6675  0.0384
 6123SOL    HW229829   0.782   0.321  15.008 -1.7065  1.6994 -2.0196
 6124SOL     OW29830   4.239   4.342  10.108 -0.2561  0.0560 -0.1179
 6124SOL    HW129831   4.181   4.409  10.074 -1.3435 -1.1314 -0.6268
 6124SOL    HW229832   4.192   4.309  10.185  1.9970 -2.3202  0.2553
 6125SOL     OW29833   1.210   0.929   0.469 -0.2578  0.1213 -0.3342
 6125SOL    HW129834   1.115   0.938   0.479 -0.2335  0.8606 -0.7513
 6125SOL    HW229835   1.222   0.951   0.376 -0.7376 -0.9114 -0.6475
 6126SOL     OW29836   2.768   2.510   3.631 -0.2700  0.1683 -0.5686
 6126SOL    HW129837   2.674   2.493   3.628 -0.1870 -0.5427  0.7570
 6126SOL    HW229838   2.795   2.419   3.617  0.4858 -0.0917  2.7044
 6127SOL     OW29839   4.601   0.322   4.001 -0.0522  0.1129  0.5758
 6127SOL    HW129840   4.597   0.245   3.944 -1.5368  0.3333  0.3845
 6127SOL    HW229841   4.626   0.386   3.934  4.0114 -0.4241  1.5744
 6128SOL     OW29842   0.631   0.632   4.894 -0.2118 -0.0447 -0.1374
 6128SOL    HW129843   0.675   0.705   4.850 -4.7644  2.9641  0.3833
 6128SOL    HW229844   0.636   0.568   4.823 -0.5282 -1.3576  1.0250
 6129SOL     OW29845   4.033   1.582  17.671  0.1233  0.4326  0.3666
 6129SOL    HW129846   3.963   1.535   0.039  0.2916 -1.2164 -1.0202
 6129SOL    HW229847   4.077   1.618   0.069  0.4866  0.4610  0.1441
 6130SOL     OW29848   0.110   0.259  14.517 -0.0712  0.3579 -0.0278
 6130SOL    HW129849   0.072   0.250  14.430 -0.4676  0.9976  0.0766
 6130SOL    HW229850   0.194   0.303  14.506 -0.0108  0.7466  1.9766
 6131SOL     OW29851   2.580   2.925   3.067 -0.1706 -0.2921  0.2185
 6131SOL    HW129852   2.486   2.944   3.067 -0.6426 -2.6614 -0.2390
 6131SOL    HW229853   2.586   2.877   2.984 -0.7721 -1.7695  1.0271
 6132SOL     OW29854   4.258   0.810   4.977  0.3520  0.1477 -0.6207
 6132SOL    HW129855   4.188   0.875   4.987 -2.2350 -2.5168 -1.6758
 6132SOL    HW229856   4.337   0.865   4.980 -0.6039  1.5232 -0.7891
 6133SOL     OW29857   2.634   3.467   5.803 -0.1310  0.7435  0.6446
 6133SOL    HW129858   2.706   3.419   5.846  0.9922  1.3534 -0.5425
 6133SOL    HW229859   2.678   3.498   5.724 -0.6985  1.3204  0.5597
 6134SOL     OW29860   2.435   1.194   4.935 -0.0689  0.5113 -0.5934
 6134SOL    HW129861   2.443   1.191   5.031  0.3859 -1.3584 -0.7067
 6134SOL    HW229862   2.450   1.101   4.921  0.4945  0.6556 -0.9259
 6135SOL     OW29863   0.001   2.553  12.133  0.4482 -0.1281  0.0229
 6135SOL    HW129864   4.643   2.602  12.162 -1.2959 -1.5401 -2.2914
 6135SOL    HW229865   0.068   2.598  12.186 -0.7094  2.0027 -0.3118
 6136SOL     OW29866   2.426   1.834  17.007  0.3840 -0.5090  0.4195
 6136SOL    HW129867   2.416   1.809  16.915 -2.0534  0.4748  0.4124
 6136SOL    HW229868   2.336   1.852  17.036  0.0540 -1.0270 -0.2860
 6137SOL     OW29869   3.989   3.753   4.625 -0.5043  0.3761 -0.2300
 6137SOL    HW129870   4.016   3.749   4.717 -3.0264  1.2337  0.5397
 6137SOL    HW229871   3.961   3.844   4.617 -1.3689  0.3641  2.8500
 6138SOL     OW29872   4.573   3.213   7.990 -0.5921 -0.6038 -0.4594
 6138SOL    HW129873   4.519   3.138   8.016  0.7397 -0.9963  1.2150
 6138SOL    HW229874   4.627   3.171   7.923 -0.2604 -2.0902  0.7332
 6139SOL     OW29875   2.546   4.374   9.482  0.0016 -0.0938  0.3412
 6139SOL    HW129876   2.609   4.302   9.482  0.1936  0.0830 -1.6566
 6139SOL    HW229877   2.598   4.450   9.508  1.4765 -0.7938 -0.5514
 6140SOL     OW29878   1.734   4.482  11.348  0.0904 -0.5247  0.4624
 6140SOL    HW129879   1.795   4.538  11.397 -0.6094  0.8263 -0.2167
 6140SOL    HW229880   1.790   4.414  11.311  0.5178 -0.2313  0.5747
 6141SOL     OW29881   0.341   4.256   2.622 -0.0159 -0.1389 -0.0503
 6141SOL    HW129882   0.355   4.308   2.543 -0.5669 -0.7207 -0.5349
 6141SOL    HW229883   0.424   4.269   2.668 -1.5455  0.7708  2.4055
 6142SOL     OW29884   2.160   3.574  16.584  0.0560  0.1494  0.2257
 6142SOL    HW129885   2.142   3.489  16.543 -0.7727  0.2659  0.3416
 6142SOL    HW229886   2.204   3.623  16.515 -0.8241  0.3290 -0.2139
 6143SOL     OW29887   2.331   4.134   6.491  0.1223 -0.4115 -0.3103
 6143SOL    HW129888   2.359   4.200   6.426 -0.0874 -1.0793 -1.0782
 6143SOL    HW229889   2.287   4.184   6.560  1.3123  1.0296 -0.5796
 6144SOL     OW29890   1.815   2.916   7.798  0.0683  0.2247  0.4972
 6144SOL    HW129891   1.742   2.956   7.750  1.3520 -0.1920 -1.8219
 6144SOL    HW229892   1.761   2.857   7.850  0.6089  0.2691  1.1107
 6145SOL     OW29893   0.864   2.170   2.595  0.8149  0.1255  0.0510
 6145SOL    HW129894   0.835   2.259   2.577  1.9987  0.5457  0.2652
 6145SOL    HW229895   0.813   2.126   2.526 -1.6392  2.7419  0.2143
 6146SOL     OW29896   1.076   0.564   8.813  0.3225 -0.2180  0.6215
 6146SOL    HW129897   1.126   0.484   8.829  0.2782 -0.5487 -0.8863
 6146SOL    HW229898   1.139   0.633   8.829  0.5212 -0.4175  0.6971
 6147SOL     OW29899   4.218   2.021   8.790 -0.0568  0.0319  0.0266
 6147SOL    HW129900   4.251   1.937   8.760  2.3750  1.3422 -0.9549
 6147SOL    HW229901   4.253   2.013   8.878 -1.7325  1.2541  0.8091
 6148SOL     OW29902   1.920   2.246   4.966  0.1859 -0.4095  0.0512
 6148SOL    HW129903   1.855   2.181   4.992  0.2406 -0.0981  0.9634
 6148SOL    HW229904   1.980   2.238   5.040 -1.4783 -0.3165  1.4179
 6149SOL     OW29905   2.426   2.111  15.924 -0.0157 -0.5285  0.1059
 6149SOL    HW129906   2.361   2.115  15.994  1.7482  0.5966  1.6726
 6149SOL    HW229907   2.360   2.102  15.854 -0.5854  0.5020  0.4964
 6150SOL     OW29908   3.523   0.173   9.757 -0.2342  0.2173  0.1502
 6150SOL    HW129909   3.478   0.197   9.676  1.5277  2.4815 -0.1498
 6150SOL    HW229910   3.563   0.258   9.776  1.5170 -0.8530  1.2672
 6151SOL     OW29911   2.540   1.073   3.851 -0.1399 -0.1442 -0.0522
 6151SOL    HW129912   2.583   1.096   3.934 -0.6569  0.1505  0.1339
 6151SOL    HW229913   2.609   1.053   3.788 -1.6181  2.0110 -2.3192
 6152SOL     OW29914   3.161   0.375   9.229 -0.0677 -0.4261 -0.1505
 6152SOL    HW129915   3.139   0.459   9.189 -0.5531  0.3814  1.8334
 6152SOL    HW229916   3.076   0.344   9.262 -1.1687  1.7804 -0.9212
 6153SOL     OW29917   2.741   2.705   2.639 -0.7841  0.2444  0.2012
 6153SOL    HW129918   2.695   2.689   2.556 -2.5259  1.4983  0.9264
 6153SOL    HW229919   2.782   2.619   2.647  1.4475  1.8132  5.4064
 6154SOL     OW29920   1.306   2.312   7.898  0.7204  0.2258 -0.0430
 6154SOL    HW129921   1.306   2.330   7.993 -0.1806 -1.0387  0.1869
 6154SOL    HW229922   1.270   2.224   7.892  0.9769  0.1044  0.2000
 6155SOL     OW29923   1.843   1.693   2.602  0.1117  0.1342 -0.0134
 6155SOL    HW129924   1.847   1.738   2.518 -1.6591 -0.3343 -0.3391
 6155SOL    HW229925   1.880   1.608   2.577 -0.4593 -0.1854  0.2347
 6156SOL     OW29926   0.397   3.963   6.299 -0.0441  0.1721  0.3479
 6156SOL    HW129927   0.381   4.055   6.276 -1.7066  0.0912  1.1330
 6156SOL    HW229928   0.492   3.960   6.289 -0.2762 -0.0216 -1.8299
 6157SOL     OW29929   2.845   3.231   5.458  0.5465  0.1556  0.6322
 6157SOL    HW129930   2.788   3.306   5.479 -2.0718 -1.7429  0.3327
 6157SOL    HW229931   2.862   3.186   5.541  0.2698 -0.8979  0.1151
 6158SOL     OW29932   4.661   3.289   2.810  0.8687  0.2363 -0.4148
 6158SOL    HW129933   4.643   3.336   2.892  0.3255 -1.8021  0.6290
 6158SOL    HW229934   0.033   3.311   2.789  1.4267 -0.6498  1.1111
 6159SOL     OW29935   0.504   1.262   3.296  0.5853  0.1100  0.1217
 6159SOL    HW129936   0.568   1.309   3.351  0.0865  2.2744 -1.1489
 6159SOL    HW229937   0.529   1.175   3.327 -0.0920 -0.1223  0.0234
 6160SOL     OW29938   4.523   0.631   2.770 -0.1436 -0.0383  0.0603
 6160SOL    HW129939   4.587   0.592   2.710  1.0711 -1.0685  2.0316
 6160SOL    HW229940   4.573   0.707   2.799 -2.8208  2.2764 -1.3905
 6161SOL     OW29941   0.139   1.987   0.144 -0.1557 -0.2846 -0.1914
 6161SOL    HW129942   0.143   2.081   0.162 -0.0089 -0.4000  0.3985
 6161SOL    HW229943   0.234   1.979   0.141 -0.1957 -1.3641  1.0644
 6162SOL     OW29944   3.114   0.556   3.957 -0.6778  0.6473  0.1655
 6162SOL    HW129945   3.194   0.588   3.997 -0.1083 -1.0143  0.3309
 6162SOL    HW229946   3.096   0.475   4.005 -1.9032  1.4009  0.9765
 6163SOL     OW29947   3.841   3.810   4.342  0.0130 -0.3779  0.2637
 6163SOL    HW129948   3.901   3.859   4.285 -0.3215 -0.9380 -0.5781
 6163SOL    HW229949   3.794   3.754   4.281 -0.3864 -0.7488  0.9193
 6164SOL     OW29950   1.850   2.725   7.593  0.1666 -0.0516  0.4346
 6164SOL    HW129951   1.853   2.763   7.681  1.5203 -1.2073  0.8865
 6164SOL    HW229952   1.794   2.648   7.604 -0.4173  0.3307  0.1195
 6165SOL     OW29953   0.547   3.886   4.963  0.2022  0.1762  0.5306
 6165SOL    HW129954   0.541   3.794   4.937 -1.7023  0.6779 -0.7815
 6165SOL    HW229955   0.455   3.907   4.978  0.9757  1.9106  2.8129
 6166SOL     OW29956   0.698   0.464   6.982  0.2739 -0.0897 -0.4537
 6166SOL    HW129957   0.793   0.462   6.974  0.2504  1.1968 -1.0761
 6166SOL    HW229958   0.699   0.411   7.062 -1.1245  0.3463 -0.1457
 6167SOL     OW29959   4.629   3.435   6.621 -0.5603  0.3892  0.0787
 6167SOL    HW129960   4.677   3.507   6.580 -0.8110  0.5686  0.1047
 6167SOL    HW229961   4.638   3.372   6.550 -0.2975  0.3589  0.1354
 6168SOL     OW29962   3.380   4.398   4.309 -0.1627  0.1544  0.0333
 6168SOL    HW129963   3.398   4.310   4.277 -0.5172  0.1064 -0.0349
 6168SOL    HW229964   3.354   4.389   4.400  0.3207  2.2328  0.3848
 6169SOL     OW29965   0.353   2.409   4.469 -0.3732 -0.5013 -0.1881
 6169SOL    HW129966   0.318   2.453   4.391  0.4672 -1.1814 -0.9478
 6169SOL    HW229967   0.365   2.482   4.531 -1.1148 -1.0058  0.5370
 6170SOL     OW29968   0.470   1.645   3.357 -0.6790 -0.6388 -0.4329
 6170SOL    HW129969   0.410   1.719   3.346 -1.2222 -0.5864  2.8271
 6170SOL    HW229970   0.468   1.605   3.271  0.1554  0.4076 -0.9357
 6171SOL     OW29971   3.262   1.274  16.394  0.1157  0.1209 -0.2513
 6171SOL    HW129972   3.335   1.213  16.387 -2.0716 -2.5273  0.3854
 6171SOL    HW229973   3.258   1.266  16.489 -0.5370 -0.8996 -0.3741
 6172SOL     OW29974   3.967   2.178   2.983 -0.0841 -0.2697  0.1494
 6172SOL    HW129975   3.919   2.174   2.901  2.5039  1.7659 -1.4632
 6172SOL    HW229976   4.033   2.243   2.958  0.4905 -0.4320  1.2435
 6173SOL     OW29977   1.116   4.422   1.645  0.4368 -0.0203 -0.1197
 6173SOL    HW129978   1.062   4.343   1.650 -0.6995  0.7092 -0.7945
 6173SOL    HW229979   1.194   4.381   1.608  1.7843  1.7856  0.7153
 6174SOL     OW29980   3.863   1.414  13.888 -0.0561  0.0881 -0.1073
 6174SOL    HW129981   3.792   1.351  13.903  0.9385 -0.8444  0.6954
 6174SOL    HW229982   3.937   1.363  13.921 -1.2772 -2.6244 -1.5066
 6175SOL     OW29983   2.139   2.274   7.236 -0.0289 -0.5926 -0.3253
 6175SOL    HW129984   2.141   2.182   7.262 -1.4188 -1.2626 -2.6382
 6175SOL    HW229985   2.118   2.309   7.323  0.6581  1.2088 -0.8783
 6176SOL     OW29986   0.307   3.960  14.364  0.2403 -0.2897 -0.0896
 6176SOL    HW129987   0.394   3.982  14.397  0.2160 -0.1338 -0.1293
 6176SOL    HW229988   0.308   4.000  14.277  2.2006  1.1062  0.5661
 6177SOL     OW29989   2.931   1.211  14.895  0.2669  0.2165  0.5851
 6177SOL    HW129990   2.910   1.192  14.803 -1.7143  0.2125  1.0423
 6177SOL    HW229991   2.860   1.267  14.925 -1.4271 -1.1337 -0.9211
 6178SOL     OW29992   4.171   2.105  12.220  0.3280 -0.4882  0.2299
 6178SOL    HW129993   4.116   2.125  12.295 -2.0613  0.7525 -1.8497
 6178SOL    HW229994   4.180   2.010  12.227  0.8442 -0.5064 -0.6602
 6179SOL     OW29995   3.159   1.087  17.160 -0.3181  0.0439 -0.2098
 6179SOL    HW129996   3.149   1.068  17.254 -1.1184 -0.4393 -0.3995
 6179SOL    HW229997   3.075   1.051  17.132  0.2453 -0.9129 -0.6801
 6180SOL     OW29998   3.359   1.567  13.287 -0.1060 -0.4828 -0.1967
 6180SOL    HW129999   3.305   1.495  13.319 -0.0352  0.0797  1.2050
 6180SOL    HW230000   3.323   1.645  13.330  2.3261  0.1614  0.6966
 6181SOL     OW30001   0.987   3.080  13.761 -0.5361  0.4574  0.5752
 6181SOL    HW130002   1.001   3.164  13.717 -1.4040  0.0241 -0.5409
 6181SOL    HW230003   0.907   3.046  13.721 -0.0052  0.8331 -0.8129
 6182SOL     OW30004   2.165   0.494  16.117 -0.5860  0.7583 -0.6659
 6182SOL    HW130005   2.116   0.463  16.040 -1.4993 -2.1865  1.0950
 6182SOL    HW230006   2.189   0.584  16.097 -0.2936  1.0787  1.1193
 6183SOL     OW30007   1.177   3.728   6.811 -0.7437 -0.5441  0.4776
 6183SOL    HW130008   1.143   3.812   6.779  0.6916 -0.0043  0.3709
 6183SOL    HW230009   1.110   3.711   6.877 -0.1278 -1.2986  0.9104
 6184SOL     OW30010   4.152   0.309  13.262  0.3089  0.3003  0.1634
 6184SOL    HW130011   4.243   0.320  13.287 -0.1861  0.9933  1.7201
 6184SOL    HW230012   4.133   0.228  13.311 -1.2553 -0.0498 -1.0129
 6185SOL     OW30013   3.803   0.664   2.867 -0.7719 -0.0752  0.1340
 6185SOL    HW130014   3.779   0.747   2.828  0.8267  0.8792  1.1607
 6185SOL    HW230015   3.867   0.638   2.800 -3.0459 -2.2942 -1.1718
 6186SOL     OW30016   3.340   4.363  10.355  0.6089  0.1331  0.4174
 6186SOL    HW130017   3.318   4.429  10.290  0.7400  1.0912  1.3479
 6186SOL    HW230018   3.340   4.422  10.430 -3.0541 -0.0377  0.5227
 6187SOL     OW30019   4.437   0.313   7.692 -0.2116  0.8390  0.5218
 6187SOL    HW130020   4.432   0.243   7.756 -0.3314  1.2278  0.9370
 6187SOL    HW230021   4.424   0.391   7.746 -0.8893  1.1958 -0.1573
 6188SOL     OW30022   3.418   2.535   5.490 -0.1641 -0.4439  0.6754
 6188SOL    HW130023   3.327   2.521   5.517 -0.2906 -1.3288 -0.2230
 6188SOL    HW230024   3.430   2.478   5.414  0.3057  0.4265  0.1071
 6189SOL     OW30025   2.979   4.636   1.614  0.1443 -0.1652 -0.1952
 6189SOL    HW130026   3.045   4.660   1.679  1.5144 -2.3053 -0.8030
 6189SOL    HW230027   3.034   4.650   1.537 -0.2768 -2.8758 -0.9711
 6190SOL     OW30028   0.129   2.651   2.968  0.5371  0.1629  0.4765
 6190SOL    HW130029   0.106   2.559   2.955  0.3691  0.2403  0.2181
 6190SOL    HW230030   0.043   2.683   2.995 -0.0313 -0.3828 -0.6758
 6191SOL     OW30031   3.498   4.120   1.321  0.5169 -0.1671 -0.0908
 6191SOL    HW130032   3.522   4.209   1.349 -2.8354 -0.4662  3.7114
 6191SOL    HW230033   3.454   4.140   1.238 -1.1155 -2.6179  0.2078
 6192SOL     OW30034   0.138   2.962   3.111  0.9904  0.1832  0.4361
 6192SOL    HW130035   0.083   2.967   3.033 -0.1228 -0.1912  1.2031
 6192SOL    HW230036   0.138   2.871   3.139 -0.4416  0.3138  0.8484
 6193SOL     OW30037   4.520   2.012   2.410 -0.0444 -0.2112  0.0979
 6193SOL    HW130038   4.526   1.953   2.335  1.5697  0.1424 -0.0411
 6193SOL    HW230039   4.532   1.954   2.485 -3.5121 -0.8992  0.1342
 6194SOL     OW30040   4.560   2.573   0.915 -0.1240 -0.7217  0.2562
 6194SOL    HW130041   4.480   2.568   0.862 -0.6053  0.5349  0.8719
 6194SOL    HW230042   4.528   2.626   0.988  0.4755  0.0627 -0.0502
 6195SOL     OW30043   2.762   2.429   3.159 -1.0357 -0.3229  0.2751
 6195SOL    HW130044   2.798   2.446   3.246  0.7898 -0.7126 -0.4068
 6195SOL    HW230045   2.741   2.521   3.145 -1.9076 -0.5470  0.0655
 6196SOL     OW30046   2.907   0.030   0.831  0.1169 -0.3406 -0.2065
 6196SOL    HW130047   2.852   4.719   0.759  0.8467  1.2146 -1.4296
 6196SOL    HW230048   2.956   4.669   0.846  0.8883 -0.0884 -1.3925
 6197SOL     OW30049   4.542   1.982   0.318  0.1355 -0.0925 -0.1325
 6197SOL    HW130050   4.469   1.921   0.319  0.4832 -0.4918  1.5385
 6197SOL    HW230051   4.560   2.009   0.408  0.5529 -2.9078  0.6289
 6198SOL     OW30052   1.321   1.953   2.381  0.2229  0.4700 -0.3924
 6198SOL    HW130053   1.234   1.947   2.343  0.4089  0.8303 -0.8784
 6198SOL    HW230054   1.367   1.906   2.310  3.4789  0.4998  1.6949
 6199SOL     OW30055   2.164   3.346   0.264  0.0617  0.3620 -0.3548
 6199SOL    HW130056   2.162   3.278   0.331  1.5275 -0.6437 -1.3077
 6199SOL    HW230057   2.098   3.320   0.199  0.3734  1.3152 -1.0535
 6200SOL     OW30058   0.760   0.994  12.670 -0.1282  0.5291 -0.0420
 6200SOL    HW130059   0.752   0.901  12.646  0.7595  0.3210  0.5085
 6200SOL    HW230060   0.735   0.995  12.762 -2.3673 -0.2893 -0.6282
 6201SOL     OW30061   1.499   0.638  15.279 -0.5792 -0.6346  1.0784
 6201SOL    HW130062   1.511   0.603  15.191 -0.4877 -0.6616  1.1026
 6201SOL    HW230063   1.427   0.583  15.311 -1.6159  0.8856  1.3447
 6202SOL     OW30064   4.159   1.963   7.866  0.1565 -0.0419  1.0259
 6202SOL    HW130065   4.252   1.951   7.847 -0.2849 -1.2765 -0.4018
 6202SOL    HW230066   4.169   2.017   7.944 -2.8143  1.9672  0.0390
 6203SOL     OW30067   2.765   4.600   8.285  0.1852 -0.9432  0.2583
 6203SOL    HW130068   2.769   4.598   8.189 -1.1852 -2.1513  0.2372
 6203SOL    HW230069   2.776   4.508   8.306  0.4396 -0.4177  2.4293
 6204SOL     OW30070   4.471   2.065  10.045 -0.0262 -0.0830  0.6310
 6204SOL    HW130071   4.532   2.128  10.006  0.7953 -1.5807 -0.5134
 6204SOL    HW230072   4.436   2.115  10.119 -0.8428  0.6888 -0.2694
 6205SOL     OW30073   4.288   3.902  14.933  0.1407  0.0332 -0.4512
 6205SOL    HW130074   4.201   3.887  14.972 -1.2982  2.2445 -2.8438
 6205SOL    HW230075   4.337   3.926  15.012 -1.5793 -1.4972  1.1128
 6206SOL     OW30076   1.489   0.746  15.531  0.5444 -0.5623  0.3897
 6206SOL    HW130077   1.512   0.693  15.454  1.2655  1.4761 -0.7902
 6206SOL    HW230078   1.422   0.804  15.495  2.1358  1.2102  0.3112
 6207SOL     OW30079   0.208   1.768   5.967  0.0917  0.1359 -0.5535
 6207SOL    HW130080   0.120   1.790   5.937  0.3347  3.4453  1.1015
 6207SOL    HW230081   0.246   1.856   5.971 -0.3366  0.2828  0.2490
 6208SOL     OW30082   0.789   0.894  13.984 -0.4716 -0.2026  0.0622
 6208SOL    HW130083   0.822   0.983  13.997 -0.0304 -0.2525 -0.7384
 6208SOL    HW230084   0.865   0.840  14.007 -2.7039 -2.4660  2.1558
 6209SOL     OW30085   0.941   1.740   2.825 -0.3972  0.0832  0.2182
 6209SOL    HW130086   0.898   1.728   2.740  0.2273  0.2112 -0.1153
 6209SOL    HW230087   0.926   1.832   2.848  0.7432 -0.0099  1.3540
 6210SOL     OW30088   2.880   2.941   2.528  0.3280  0.2422 -0.2260
 6210SOL    HW130089   2.807   2.949   2.466 -1.9280  0.9172  2.5150
 6210SOL    HW230090   2.849   2.869   2.582 -0.6966  0.1700 -0.9164
 6211SOL     OW30091   4.466   2.207   2.038 -0.1890  0.3344  0.4917
 6211SOL    HW130092   4.548   2.246   2.009 -0.5278  0.6827  0.0005
 6211SOL    HW230093   4.461   2.128   1.985  0.3978  0.3483  0.4217
 6212SOL     OW30094   3.010   2.120   8.173  0.0342  0.1026 -0.0099
 6212SOL    HW130095   3.038   2.045   8.226 -1.7169 -1.7435 -1.7161
 6212SOL    HW230096   2.924   2.148   8.204 -1.2926 -1.4489 -2.2213
 6213SOL     OW30097   3.871   0.703   1.789  0.2384  0.0224 -0.5808
 6213SOL    HW130098   3.860   0.651   1.709  0.4875  0.3220 -0.8102
 6213SOL    HW230099   3.898   0.642   1.857  0.1069  1.3075  0.6301
 6214SOL     OW30100   1.395   0.328   0.339 -0.3623 -0.4748  0.1744
 6214SOL    HW130101   1.342   0.248   0.343  0.4822 -0.9865  0.9072
 6214SOL    HW230102   1.349   0.377   0.407  1.1965  1.7366 -0.3637
 6215SOL     OW30103   1.155   4.443   6.336 -0.1991 -0.5912 -0.3227
 6215SOL    HW130104   1.154   4.532   6.371 -0.7989 -1.6574  2.4198
 6215SOL    HW230105   1.200   4.403   6.410  2.1773  2.6399 -0.0155
 6216SOL     OW30106   2.446   0.678   5.328  0.1499 -0.2434 -0.0936
 6216SOL    HW130107   2.467   0.729   5.406 -1.7288  2.4162 -1.3221
 6216SOL    HW230108   2.444   0.591   5.368  0.2497 -0.9612 -1.6584
 6217SOL     OW30109   3.131   0.653   2.326  0.8165  0.7616 -0.3427
 6217SOL    HW130110   3.067   0.604   2.275  2.1648  0.3188 -1.5862
 6217SOL    HW230111   3.066   0.705   2.374  0.1351 -0.2555 -0.1770
 6218SOL     OW30112   4.289   3.729   6.425 -0.2049  0.2820  0.0095
 6218SOL    HW130113   4.383   3.717   6.438 -0.3941 -0.4118  0.7209
 6218SOL    HW230114   4.283   3.789   6.350  0.6947 -0.4952 -0.6936
 6219SOL     OW30115   3.659   3.883   0.444 -0.6490 -0.6233 -0.5742
 6219SOL    HW130116   3.674   3.893   0.538 -1.1746 -2.5223 -0.2767
 6219SOL    HW230117   3.738   3.833   0.420  1.6075  2.4492  0.4870
 6220SOL     OW30118   3.880   3.890   7.409  0.3011 -0.0797  0.3963
 6220SOL    HW130119   3.949   3.824   7.419  0.6504 -0.1132 -2.0596
 6220SOL    HW230120   3.800   3.838   7.411  1.1922 -1.5232 -0.7705
 6221SOL     OW30121   1.493   3.336   9.114 -0.0612  0.3303 -0.1831
 6221SOL    HW130122   1.515   3.423   9.147 -0.4471  0.8798 -1.3809
 6221SOL    HW230123   1.420   3.303   9.165  2.3451 -0.9398  2.4197
 6222SOL     OW30124   1.157   0.066   0.667  0.0839  0.2166  0.0529
 6222SOL    HW130125   1.074   0.064   0.619 -1.7972 -1.5792  3.3628
 6222SOL    HW230126   1.198   0.151   0.651 -0.2789  0.8417  2.4338
 6223SOL     OW30127   3.241   3.284   3.710  0.1377  0.4853  1.0245
 6223SOL    HW130128   3.172   3.259   3.649  1.5741 -0.8157 -0.0951
 6223SOL    HW230129   3.202   3.361   3.751 -0.3558  0.7697  0.0028
 6224SOL     OW30130   2.898   1.885   2.210  0.4390  0.0375 -0.6304
 6224SOL    HW130131   2.820   1.837   2.240 -1.5491  4.0150  0.5066
 6224SOL    HW230132   2.961   1.849   2.273  0.9340  0.1545 -1.0601
 6225SOL     OW30133   0.318   2.602   6.006 -0.2979  0.1560 -0.5230
 6225SOL    HW130134   0.309   2.675   5.944 -1.6909  0.6604  0.2527
 6225SOL    HW230135   0.412   2.603   6.024 -0.1037 -0.3001 -1.5454
 6226SOL     OW30136   3.619   4.578   2.172 -0.1521 -0.2843 -0.5948
 6226SOL    HW130137   3.711   4.594   2.150  0.2193 -0.0887  1.1147
 6226SOL    HW230138   3.612   4.484   2.192 -1.4151 -0.1036 -0.2441
 6227SOL     OW30139   3.796   0.612   2.465  0.2537  0.1901  0.3747
 6227SOL    HW130140   3.809   0.613   2.370  2.2908  0.6978  0.6579
 6227SOL    HW230141   3.706   0.646   2.469 -0.1584 -1.0850  2.1986
 6228SOL     OW30142   0.928   2.097   3.716 -0.0259 -0.0800  0.0671
 6228SOL    HW130143   0.895   2.020   3.763  1.4055  0.0985  1.3686
 6228SOL    HW230144   0.848   2.125   3.671 -0.8791 -3.9235 -0.8401
 6229SOL     OW30145   0.129   1.271   6.490 -0.1404  0.2140 -0.2430
 6229SOL    HW130146   0.036   1.253   6.505  0.3185 -2.0453 -0.0174
 6229SOL    HW230147   0.138   1.342   6.554  1.8660  0.2495 -0.5700
 6230SOL     OW30148   0.874   0.804   4.434 -0.1513 -0.7751 -0.2009
 6230SOL    HW130149   0.905   0.713   4.439 -1.8306 -1.2814  1.0038
 6230SOL    HW230150   0.864   0.816   4.340 -1.6855 -0.1449  0.0491
 6231SOL     OW30151   3.635   2.514   9.224 -0.2558  0.4249  0.3929
 6231SOL    HW130152   3.574   2.518   9.298  1.6261  0.6968  1.9334
 6231SOL    HW230153   3.616   2.430   9.182 -0.4689  0.5723  0.1959
 6232SOL     OW30154   0.810   1.699   0.708  0.3692 -0.3219 -0.1390
 6232SOL    HW130155   0.821   1.689   0.614 -1.2340  0.0774 -0.3615
 6232SOL    HW230156   0.837   1.612   0.736  1.2187  0.1727  0.5922
 6233SOL     OW30157   0.889   4.023  13.202  0.2357  0.0215  0.4597
 6233SOL    HW130158   0.804   4.067  13.210 -0.2370 -1.0370  1.3203
 6233SOL    HW230159   0.950   4.094  13.224  0.2081  0.1931 -0.0149
 6234SOL     OW30160   2.317   3.921   5.637 -0.3341 -0.1967 -0.0221
 6234SOL    HW130161   2.304   3.939   5.544  0.6263 -0.6612 -0.2521
 6234SOL    HW230162   2.245   3.971   5.675 -0.8265 -0.0699 -1.1068
 6235SOL     OW30163   4.065   3.810  12.358  0.2076  0.1984  0.0658
 6235SOL    HW130164   4.114   3.818  12.276 -0.4267 -0.5160 -0.3821
 6235SOL    HW230165   4.082   3.893  12.403 -1.6140  1.4343 -1.5092
 6236SOL     OW30166   3.940   3.536   2.571  0.4029  0.4127 -0.1132
 6236SOL    HW130167   3.981   3.538   2.485 -1.6318  2.0667 -1.0450
 6236SOL    HW230168   3.851   3.572   2.561 -0.4409 -1.8963 -0.7834
 6237SOL     OW30169   2.086   4.700   7.283 -0.4341  0.2044  0.2371
 6237SOL    HW130170   2.157   0.022   7.332 -0.4058  0.9748 -0.4495
 6237SOL    HW230171   2.027   0.056   7.270 -1.0032 -0.7843 -2.8529
 6238SOL     OW30172   2.088   2.072   9.348  0.2195 -0.2036  0.2318
 6238SOL    HW130173   2.108   2.149   9.294  0.4164 -1.4013 -1.4128
 6238SOL    HW230174   2.005   2.106   9.379 -1.1270  0.5732 -4.1475
 6239SOL     OW30175   4.476   2.167   1.710  0.1227  0.3944 -0.0926
 6239SOL    HW130176   4.424   2.245   1.731  0.3103  0.7030 -0.8140
 6239SOL    HW230177   4.404   2.125   1.663 -1.7816  1.1487  2.1202
 6240SOL     OW30178   2.194   3.570  12.987  0.3665 -0.1793  0.3456
 6240SOL    HW130179   2.238   3.497  12.944  0.1873 -1.0488  1.6530
 6240SOL    HW230180   2.257   3.583  13.058  1.3462  1.1045 -0.7575
 6241SOL     OW30181   0.378   1.674   5.674 -0.3444  0.2683  0.0541
 6241SOL    HW130182   0.383   1.762   5.710  1.5891  0.1417  0.1192
 6241SOL    HW230183   0.381   1.614   5.749  0.2321  0.4828  0.2008
 6242SOL     OW30184   2.438   2.451   5.994 -0.3664  0.1883 -0.0569
 6242SOL    HW130185   2.386   2.521   6.034 -0.1367  0.3406 -0.0270
 6242SOL    HW230186   2.465   2.494   5.913 -0.5437  1.4822  0.5670
 6243SOL     OW30187   1.077   3.851  13.856  0.7018  0.0056  0.5606
 6243SOL    HW130188   1.062   3.927  13.799 -1.6507 -1.2450 -0.4760
 6243SOL    HW230189   1.171   3.836  13.864  0.7964 -0.3519 -1.3123
 6244SOL     OW30190   2.876   1.041   7.908  0.1433 -0.5291 -0.0098
 6244SOL    HW130191   2.901   1.063   7.818  1.3352 -0.9682  0.2244
 6244SOL    HW230192   2.784   1.060   7.889 -0.5697 -1.6333  2.3538
 6245SOL     OW30193   1.771   1.233   2.065 -0.1064  0.3951 -0.2388
 6245SOL    HW130194   1.748   1.286   2.142  0.0481 -2.3925  1.7660
 6245SOL    HW230195   1.696   1.173   2.069 -1.2872  1.8927  0.2231
 6246SOL     OW30196   4.403   1.261   3.081 -0.8426 -0.3123  0.7806
 6246SOL    HW130197   4.402   1.345   3.126 -1.4550  0.7057 -1.1175
 6246SOL    HW230198   4.390   1.202   3.155 -0.5080  0.9892  1.8727
 6247SOL     OW30199   2.780   1.769   3.750  0.1525 -0.4170  0.4720
 6247SOL    HW130200   2.843   1.708   3.714 -0.6433 -0.9930  0.0741
 6247SOL    HW230201   2.706   1.713   3.772  0.0082 -0.8747 -1.2183
 6248SOL     OW30202   4.090   4.582   4.012 -0.7514 -0.8284  0.3305
 6248SOL    HW130203   4.139   4.560   4.091  0.1953 -1.1605 -0.3521
 6248SOL    HW230204   4.096   4.503   3.958 -1.5268 -0.6123 -0.0708
 6249SOL     OW30205   2.640   3.665   3.864 -0.1655 -0.4886  0.9755
 6249SOL    HW130206   2.592   3.583   3.879  1.2234 -1.5122 -0.1304
 6249SOL    HW230207   2.619   3.697   3.776  0.7422  0.3939  1.0770
 6250SOL     OW30208   0.101   1.619  10.350  0.4057 -0.5876 -0.2680
 6250SOL    HW130209   0.168   1.611  10.282  0.3463  0.1743 -0.4155
 6250SOL    HW230210   0.036   1.556  10.319  1.7821 -0.6933 -2.9847
 6251SOL     OW30211   4.482   3.710   9.914  0.3754 -0.0531  0.0197
 6251SOL    HW130212   4.544   3.643   9.884  1.7935  0.6503  1.4079
 6251SOL    HW230213   4.403   3.668   9.880  1.2592 -1.6066 -0.1219
 6252SOL     OW30214   3.455   1.416   4.408  0.3252 -1.1132 -0.6317
 6252SOL    HW130215   3.403   1.337   4.396 -0.9094 -0.5744  1.1586
 6252SOL    HW230216   3.524   1.393   4.470 -1.6584 -0.0952  1.9442
 6253SOL     OW30217   0.770   1.590  12.791 -0.4613  0.3260 -0.0578
 6253SOL    HW130218   0.750   1.571  12.883  0.4198 -1.4984 -0.2348
 6253SOL    HW230219   0.685   1.625  12.768 -1.5212 -0.9643  1.8287
 6254SOL     OW30220   1.126   2.862   8.521  0.2399  0.0592  0.0935
 6254SOL    HW130221   1.112   2.940   8.467 -0.1335  0.2880  0.5163
 6254SOL    HW230222   1.208   2.825   8.488 -1.7113 -2.7819 -1.5334
 6255SOL     OW30223   3.949   0.802   5.763 -0.3697  0.0842 -0.1151
 6255SOL    HW130224   3.999   0.880   5.785  1.2876 -0.6553 -1.2296
 6255SOL    HW230225   3.942   0.805   5.668  0.3833  0.0716 -0.1668
 6256SOL     OW30226   0.812   3.482   7.205  0.1144  0.0814  0.0808
 6256SOL    HW130227   0.857   3.541   7.266 -0.0446 -1.5053  1.7135
 6256SOL    HW230228   0.721   3.504   7.223  0.2787  1.7376 -1.0745
 6257SOL     OW30229   0.359   4.656  13.716 -0.0697 -0.1942  0.2676
 6257SOL    HW130230   0.342   4.616  13.631 -0.6529 -4.6001  2.4770
 6257SOL    HW230231   0.330   0.028  13.708  1.3439  0.3365  1.0913
 6258SOL     OW30232   2.126   4.396   0.166  0.6649  0.2885 -0.3585
 6258SOL    HW130233   2.107   4.320   0.110  2.3882 -0.6666  0.3752
 6258SOL    HW230234   2.071   4.391   0.244  0.8685  1.4864 -0.1496
 6259SOL     OW30235   1.165   2.076   7.634 -0.4391 -0.5858 -0.6871
 6259SOL    HW130236   1.123   1.994   7.662 -0.6656 -0.2293  0.0065
 6259SOL    HW230237   1.228   2.097   7.703 -1.1535  2.8396 -1.0935
 6260SOL     OW30238   2.739   1.783   2.603  0.0160  0.0682 -0.1757
 6260SOL    HW130239   2.713   1.765   2.513  1.3807 -2.3578 -0.0755
 6260SOL    HW230240   2.702   1.871   2.606 -1.2474 -0.4593 -0.2712
 6261SOL     OW30241   2.904   3.434  17.179 -0.1618 -0.3779  0.2057
 6261SOL    HW130242   2.968   3.386  17.232  1.1907 -0.4071 -1.4221
 6261SOL    HW230243   2.869   3.495  17.243 -1.2355 -2.1686  1.3104
 6262SOL     OW30244   4.414   2.849   7.173  0.1722 -0.2395 -0.0026
 6262SOL    HW130245   4.334   2.872   7.125  0.4499  1.3984  0.2941
 6262SOL    HW230246   4.484   2.847   7.108  1.3829  1.1610  1.2407
 6263SOL     OW30247   2.202   2.729   6.867 -0.0410 -0.7831 -0.5135
 6263SOL    HW130248   2.168   2.640   6.870  0.0924 -0.8151  0.0794
 6263SOL    HW230249   2.159   2.771   6.941  1.7748 -3.3889  2.0082
 6264SOL     OW30250   2.428   2.491   8.439 -0.4471 -0.2403 -0.1881
 6264SOL    HW130251   2.464   2.402   8.438  0.0158 -0.0401 -1.2751
 6264SOL    HW230252   2.359   2.483   8.505 -1.6259  1.5207 -1.2208
 6265SOL     OW30253   1.273   4.678   4.340  0.2064 -0.3301  0.0395
 6265SOL    HW130254   1.273   4.637   4.426 -0.6188  0.7168  0.5294
 6265SOL    HW230255   1.195   4.639   4.301  0.5186 -0.3409 -0.5733
 6266SOL     OW30256   4.671   3.644   4.326  0.0464  0.0430  0.0500
 6266SOL    HW130257   4.634   3.732   4.316  1.7911  0.7758  0.1317
 6266SOL    HW230258   4.614   3.588   4.272  1.0416  0.5840 -1.5660
 6267SOL     OW30259   0.854   1.546   3.068 -0.5137 -0.3357  0.3500
 6267SOL    HW130260   0.863   1.594   3.150  2.2977  1.9317 -1.3162
 6267SOL    HW230261   0.875   1.617   3.007  0.4257  0.1188  1.2115
 6268SOL     OW30262   3.093   0.317   1.551  0.2148  0.2362  0.0247
 6268SOL    HW130263   3.073   0.408   1.528  2.2264  0.5706 -0.4527
 6268SOL    HW230264   3.034   0.267   1.496  2.7687 -2.5317 -0.2224
 6269SOL     OW30265   0.128   1.423  13.718 -0.4358  0.5003 -0.4865
 6269SOL    HW130266   0.219   1.415  13.745 -0.8753  0.6121  1.0254
 6269SOL    HW230267   0.086   1.422  13.804 -2.0201 -0.8765 -1.2702
 6270SOL     OW30268   4.129   2.301   2.572 -0.1875 -0.3068 -0.1716
 6270SOL    HW130269   4.081   2.244   2.632 -0.7427 -1.5559 -1.8098
 6270SOL    HW230270   4.081   2.299   2.489  1.1399 -0.0477 -0.9604
 6271SOL     OW30271   2.745   1.085  14.433  0.2553  0.1952 -0.3091
 6271SOL    HW130272   2.822   1.142  14.430 -0.0675  0.6877  1.1103
 6271SOL    HW230273   2.763   1.036  14.513 -0.7343  3.6353  2.0164
 6272SOL     OW30274   2.907   1.234   1.356 -0.6508 -0.6198  0.2416
 6272SOL    HW130275   2.872   1.307   1.407  1.2849  0.1156  0.5169
 6272SOL    HW230276   2.925   1.163   1.418 -2.4582 -0.1108  1.3603
 6273SOL     OW30277   3.428   3.004   2.574  0.4731 -0.3200  0.2163
 6273SOL    HW130278   3.524   3.000   2.574  0.5192  1.0368  0.1568
 6273SOL    HW230279   3.416   2.926   2.628 -0.6470 -1.1975 -1.3090
 6274SOL     OW30280   3.669   2.510   4.154  0.0926 -0.2542 -0.4125
 6274SOL    HW130281   3.722   2.441   4.193  0.1978  0.8295  1.3309
 6274SOL    HW230282   3.599   2.457   4.114 -0.4594 -0.5799  0.9827
 6275SOL     OW30283   2.404   0.211   2.257 -0.1147 -0.1781 -0.3630
 6275SOL    HW130284   2.349   0.162   2.318  2.9343  1.4105  3.6967
 6275SOL    HW230285   2.375   0.167   2.178 -0.5318 -1.3122  0.4313
 6276SOL     OW30286   1.860   0.062   3.123 -0.0476 -0.3729  0.0025
 6276SOL    HW130287   1.875   0.125   3.053  0.1995 -0.6448 -0.1890
 6276SOL    HW230288   1.874   4.696   3.081 -1.4037 -0.3439 -0.5056
 6277SOL     OW30289   3.732   4.434  11.232 -0.2741  0.6873 -0.1459
 6277SOL    HW130290   3.771   4.433  11.145  0.0292  1.2946 -0.0119
 6277SOL    HW230291   3.682   4.352  11.243  1.4211 -0.2304  0.6942
 6278SOL     OW30292   2.871   0.013   7.421 -0.6252 -0.8597  0.5653
 6278SOL    HW130293   2.963   0.032   7.437 -0.2964 -2.1911  0.2611
 6278SOL    HW230294   2.875   4.644   7.383  1.6161 -1.3822  2.0301
 6279SOL     OW30295   2.881   1.827   5.463  0.0651 -0.0166  0.0744
 6279SOL    HW130296   2.905   1.833   5.555 -0.3560 -0.9093  0.2502
 6279SOL    HW230297   2.970   1.826   5.429  0.3968 -0.4911  0.9446
 6280SOL     OW30298   0.608   1.083   6.660  0.9049  0.3183  0.4437
 6280SOL    HW130299   0.546   1.104   6.590  1.5285 -0.7430 -0.4189
 6280SOL    HW230300   0.544   1.045   6.720  0.0598  0.7458 -0.1797
 6281SOL     OW30301   4.349   4.664  16.881  0.0376  0.5477  0.0259
 6281SOL    HW130302   4.349   0.040  16.870 -1.7849  0.3010 -2.1615
 6281SOL    HW230303   4.372   4.644  16.972 -0.2765  0.4838  0.0913
 6282SOL     OW30304   2.917   3.103   4.848  0.6571 -0.2403  1.0046
 6282SOL    HW130305   2.994   3.138   4.804 -1.6913  0.7096 -2.2652
 6282SOL    HW230306   2.857   3.103   4.774 -0.8044 -1.2240  2.1784
 6283SOL     OW30307   0.732   2.180   5.352  0.2426  0.5715  0.3970
 6283SOL    HW130308   0.734   2.210   5.443  1.8085  1.0902  0.1986
 6283SOL    HW230309   0.762   2.252   5.297  0.5146 -0.2965 -0.5829
 6284SOL     OW30310   1.882   3.967  14.606 -0.1665 -0.5144 -1.1186
 6284SOL    HW130311   1.863   3.960  14.699 -2.5568  0.9734 -1.4816
 6284SOL    HW230312   1.804   3.916  14.583  0.2054 -1.6891  0.2133
 6285SOL     OW30313   4.353   2.737   2.628 -0.1925 -0.0029  0.1345
 6285SOL    HW130314   4.355   2.828   2.600  1.0145  0.0922  0.5199
 6285SOL    HW230315   4.441   2.720   2.660 -0.3011 -1.1359 -0.1736
 6286SOL     OW30316   3.398   4.022   9.070 -0.2784  0.3667  0.5578
 6286SOL    HW130317   3.405   4.002   8.976 -0.2972  1.4790  0.3150
 6286SOL    HW230318   3.411   4.117   9.063  0.4868  0.3737  2.3121
 6287SOL     OW30319   0.584   3.583   6.513 -0.2060  0.2562 -0.3063
 6287SOL    HW130320   0.534   3.656   6.551 -1.5704 -1.0291  0.3475
 6287SOL    HW230321   0.551   3.515   6.571  1.2675 -0.2401 -0.0465
 6288SOL     OW30322   3.248   0.311  10.046 -0.1515  0.6416 -0.7025
 6288SOL    HW130323   3.204   0.285   9.965  1.9857 -3.4179 -0.5560
 6288SOL    HW230324   3.172   0.352  10.089  0.3060 -0.7555  1.4083
 6289SOL     OW30325   4.438   0.793   4.215 -0.3127 -0.3330 -0.1647
 6289SOL    HW130326   4.417   0.712   4.168 -1.1267  0.9332 -2.0057
 6289SOL    HW230327   4.450   0.769   4.307  1.1182 -0.1310 -0.2955
 6290SOL     OW30328   3.240   3.838   8.621  0.3921  0.0355 -0.4083
 6290SOL    HW130329   3.212   3.831   8.713 -0.2990  1.4592 -0.5113
 6290SOL    HW230330   3.283   3.753   8.614 -0.9264 -0.3586 -3.7029
 6291SOL     OW30331   2.992   4.264   8.997  0.3598 -0.3310 -0.1481
 6291SOL    HW130332   2.961   4.203   9.064 -0.8373 -1.1704 -1.4681
 6291SOL    HW230333   3.008   4.201   8.926  0.1188 -0.0789 -0.4220
 6292SOL     OW30334   0.141   4.100  14.521 -0.5055 -0.0583  0.2931
 6292SOL    HW130335   0.209   4.048  14.478  2.0764  3.1851  0.4816
 6292SOL    HW230336   0.179   4.188  14.516  1.4066 -0.9833 -1.6438
 6293SOL     OW30337   3.622   2.501   1.633 -0.2457 -0.2879 -0.0327
 6293SOL    HW130338   3.708   2.460   1.623  0.2411  0.4155  1.2947
 6293SOL    HW230339   3.564   2.426   1.621 -2.2544  0.9753  1.8858
 6294SOL     OW30340   1.078   3.273   3.675 -0.2413  0.2786 -0.6083
 6294SOL    HW130341   1.020   3.339   3.714 -0.2113 -0.2653  0.3779
 6294SOL    HW230342   1.042   3.263   3.587 -1.9603  1.7163 -0.0580
 6295SOL     OW30343   3.698   0.380   9.775  0.3703 -0.4526 -0.5406
 6295SOL    HW130344   3.726   0.407   9.863  3.2032  0.0605 -1.6107
 6295SOL    HW230345   3.669   0.468   9.751 -0.0888 -0.7667 -1.1373
 6296SOL     OW30346   0.819   2.544   1.142 -0.0466  0.1189  0.3737
 6296SOL    HW130347   0.795   2.554   1.234 -0.2832  5.6480 -0.2514
 6296SOL    HW230348   0.901   2.593   1.144 -0.5724  0.9210  2.0691
 6297SOL     OW30349   4.564   4.330  15.569 -0.3054  0.1711 -0.0941
 6297SOL    HW130350   4.617   4.289  15.500 -0.1292  0.1580  0.0494
 6297SOL    HW230351   4.502   4.261  15.590  0.9386 -1.3113 -1.3000
 6298SOL     OW30352   1.399   2.634   8.647 -0.5945 -0.1625  0.1187
 6298SOL    HW130353   1.327   2.614   8.588 -1.4772 -0.9380  1.4541
 6298SOL    HW230354   1.480   2.616   8.599  0.8793 -0.2619  2.6539
 6299SOL     OW30355   4.122   1.090   4.983  0.0850  0.4190  0.3303
 6299SOL    HW130356   4.180   1.163   5.006 -0.6603  1.3315 -0.7376
 6299SOL    HW230357   4.037   1.133   4.984  0.6592  1.5334  2.8354
 6300SOL     OW30358   0.476   3.694   3.453 -0.5743 -0.1474  0.0389
 6300SOL    HW130359   0.547   3.648   3.409 -0.3757  0.0821  0.1177
 6300SOL    HW230360   0.511   3.783   3.446 -0.2806 -0.4574 -2.1893
 6301SOL     OW30361   1.408   1.498   2.822 -0.5000  0.2927 -0.3118
 6301SOL    HW130362   1.342   1.559   2.854  0.3934  0.5304  1.0505
 6301SOL    HW230363   1.481   1.560   2.811 -0.7151  0.4988 -0.5832
 6302SOL     OW30364   2.073   3.090  11.892  0.0200  0.5907  0.1691
 6302SOL    HW130365   2.020   3.089  11.812 -1.9362 -0.1587  1.4616
 6302SOL    HW230366   2.102   3.000  11.875  0.3686  0.3867  1.9063
 6303SOL     OW30367   4.659   2.079   7.153  0.4117  0.2567 -0.2758
 6303SOL    HW130368   4.595   2.132   7.199  1.0850  1.4092 -0.6665
 6303SOL    HW230369   4.699   2.037   7.229  0.3006  2.0979  0.7896
 6304SOL     OW30370   0.862   0.868   8.194 -0.0439  0.0727  0.0303
 6304SOL    HW130371   0.769   0.861   8.215  0.5711  2.5755  3.5537
 6304SOL    HW230372   0.891   0.777   8.207  0.9791 -0.1887 -3.9824
 6305SOL     OW30373   0.402   1.372   6.888  0.4327 -0.0241 -0.2218
 6305SOL    HW130374   0.495   1.352   6.885  0.7248  1.1751  1.1087
 6305SOL    HW230375   0.391   1.418   6.805  1.7406  1.3537  0.3733
 6306SOL     OW30376   3.541   1.614   8.247 -0.0717  0.3990  0.1967
 6306SOL    HW130377   3.609   1.617   8.314  0.8130  2.5645 -0.7864
 6306SOL    HW230378   3.532   1.521   8.226  0.8394  0.0771  1.2622
 6307SOL     OW30379   3.715   0.710  14.343 -0.0587 -0.3944  0.1452
 6307SOL    HW130380   3.756   0.784  14.298  2.1400 -1.0640  1.0761
 6307SOL    HW230381   3.623   0.737  14.351 -0.5852 -2.3329  0.6151
 6308SOL     OW30382   0.205   3.966   2.705  0.6089  0.3781  0.3431
 6308SOL    HW130383   0.192   3.880   2.665 -2.1956  0.7903  0.4207
 6308SOL    HW230384   0.293   3.989   2.673  0.0320  2.1991  0.0430
 6309SOL     OW30385   4.176   1.179  14.450 -0.4233 -0.1741  0.3224
 6309SOL    HW130386   4.084   1.180  14.424 -0.1401  0.4571 -0.6773
 6309SOL    HW230387   4.175   1.146  14.540  1.4831  0.3872  0.5419
 6310SOL     OW30388   4.500   0.085   7.877  0.0911  0.2442  0.1687
 6310SOL    HW130389   4.539   0.141   7.945  0.0016 -0.2823  0.6537
 6310SOL    HW230390   4.408   0.082   7.904 -0.2787  1.9883 -0.8845
 6311SOL     OW30391   4.277   4.262   3.079  0.5156  0.5376 -0.2462
 6311SOL    HW130392   4.365   4.298   3.063 -0.2363  2.2640 -0.5107
 6311SOL    HW230393   4.305   4.182   3.122 -0.3566  0.3899  0.0397
 6312SOL     OW30394   0.926   0.055   4.728 -0.0594 -0.6998 -0.0415
 6312SOL    HW130395   0.854   0.115   4.709  0.5194  0.5104  1.6323
 6312SOL    HW230396   0.915   0.037   4.821 -0.0768 -0.9919 -0.0999
 6313SOL     OW30397   1.216   2.826   8.837  0.2804  0.1028  0.1864
 6313SOL    HW130398   1.167   2.890   8.785 -0.1085 -0.6830 -0.4284
 6313SOL    HW230399   1.155   2.753   8.847  0.9957 -0.6639 -0.9413
 6314SOL     OW30400   1.392   4.008   7.530 -0.7032  0.0381  0.0422
 6314SOL    HW130401   1.361   4.036   7.617 -2.3445 -1.5959 -0.0260
 6314SOL    HW230402   1.385   3.913   7.533  0.3576 -0.1196 -2.4849
 6315SOL     OW30403   2.725   0.770  13.584  0.0687  0.0302  0.4650
 6315SOL    HW130404   2.785   0.735  13.650  0.9123 -1.5350 -1.1436
 6315SOL    HW230405   2.784   0.761  13.510 -0.2755  0.2824  0.1616
 6316SOL     OW30406   4.078   2.516   3.627 -0.1123 -0.7670 -0.3332
 6316SOL    HW130407   3.985   2.539   3.634  0.2746  1.3778 -2.1673
 6316SOL    HW230408   4.117   2.592   3.672 -2.9423  1.5865 -1.8535
 6317SOL     OW30409   4.019   1.158   4.455  0.0739  0.5316  0.0021
 6317SOL    HW130410   3.995   1.066   4.440 -0.4223  0.6047  0.3326
 6317SOL    HW230411   4.075   1.147   4.532 -1.3260 -0.9076  0.8367
 6318SOL     OW30412   4.427   2.363  15.044 -0.2445  0.4554 -0.6664
 6318SOL    HW130413   4.497   2.428  15.042  0.5003 -0.2209  3.0426
 6318SOL    HW230414   4.468   2.296  15.100  1.2573 -0.3836 -2.7472
 6319SOL     OW30415   1.137   3.376   4.176 -0.6369  0.1748 -0.0614
 6319SOL    HW130416   1.075   3.315   4.214  1.0957 -1.6703 -0.2162
 6319SOL    HW230417   1.126   3.459   4.223 -2.2101 -0.6801  1.0847
 6320SOL     OW30418   1.728   0.669   7.963 -0.5745  0.2629  0.2461
 6320SOL    HW130419   1.808   0.719   7.975 -0.1179 -0.5080  0.3897
 6320SOL    HW230420   1.764   0.603   7.903  0.5795 -1.0837  2.4148
 6321SOL     OW30421   0.796   2.244   6.777 -0.1746 -0.4301  0.1591
 6321SOL    HW130422   0.750   2.191   6.841 -2.4564  1.2666 -0.0573
 6321SOL    HW230423   0.870   2.271   6.832 -0.1043 -0.5796  0.1385
 6322SOL     OW30424   3.574   0.637   4.877  0.2076  0.0131  0.5060
 6322SOL    HW130425   3.663   0.639   4.909  0.9600  1.9647 -1.6878
 6322SOL    HW230426   3.589   0.701   4.807  3.0964 -0.9556  0.2535
 6323SOL     OW30427   0.553   4.245  14.273 -0.1457 -0.1976 -0.0944
 6323SOL    HW130428   0.631   4.191  14.263 -1.8538 -2.9582  1.5241
 6323SOL    HW230429   0.567   4.286  14.359  0.9337  0.2110 -0.4671
 6324SOL     OW30430   1.569   2.724  12.550  0.4527  0.1457  0.4335
 6324SOL    HW130431   1.655   2.703  12.514 -0.7567 -0.5473 -2.0662
 6324SOL    HW230432   1.524   2.641  12.537 -0.2078  0.4057  1.0382
 6325SOL     OW30433   0.252   3.307   5.571 -0.2083 -0.4891 -0.1950
 6325SOL    HW130434   0.311   3.355   5.630  0.3362 -1.3484 -0.0459
 6325SOL    HW230435   0.238   3.229   5.625 -1.3367  0.3128  0.6752
 6326SOL     OW30436   1.096   1.435   8.139 -1.1389  0.5247 -0.0538
 6326SOL    HW130437   1.041   1.364   8.108  1.4622 -1.5084 -0.0248
 6326SOL    HW230438   1.137   1.448   8.054 -0.8324 -0.6990 -0.0859
 6327SOL     OW30439   3.540   2.560  12.661  0.5794  0.2282  0.3018
 6327SOL    HW130440   3.576   2.481  12.701  0.4645  1.7226  3.3300
 6327SOL    HW230441   3.584   2.617  12.723 -1.0823  2.0170 -0.1806
 6328SOL     OW30442   2.117   4.121   2.435  0.6075 -0.1727  0.8446
 6328SOL    HW130443   2.130   4.215   2.425 -0.8827  0.0935  1.4812
 6328SOL    HW230444   2.125   4.093   2.343 -1.9632  1.2473  0.1863
 6329SOL     OW30445   0.748   4.216   6.990  0.3886 -0.3372  0.3135
 6329SOL    HW130446   0.747   4.311   6.991 -1.2051 -0.3502  0.1297
 6329SOL    HW230447   0.724   4.199   6.899 -1.6500  0.1955  0.7561
 6330SOL     OW30448   3.517   1.464   4.017 -0.4591 -0.2249  0.1584
 6330SOL    HW130449   3.583   1.437   3.953 -0.2874 -2.9756  1.5047
 6330SOL    HW230450   3.536   1.397   4.082 -0.2569 -0.5204 -0.2013
 6331SOL     OW30451   1.897   1.344   9.592 -1.0486  0.0602 -0.1702
 6331SOL    HW130452   1.875   1.388   9.510  1.2123 -0.0615 -0.8229
 6331SOL    HW230453   1.942   1.413   9.640  1.2526 -0.6758 -1.2738
 6332SOL     OW30454   2.785   4.235   9.502 -0.3835  0.3006  0.0742
 6332SOL    HW130455   2.819   4.238   9.591 -0.3184 -0.5289  0.0782
 6332SOL    HW230456   2.841   4.299   9.459 -0.9081  0.5224 -0.2813
 6333SOL     OW30457   3.500   2.051   2.993 -0.0025 -0.4965 -0.0890
 6333SOL    HW130458   3.494   2.098   3.076 -0.6661 -0.9107  0.0995
 6333SOL    HW230459   3.534   2.114   2.929 -0.0814  0.5902  0.9390
 6334SOL     OW30460   2.749   0.015   2.848  0.0016  0.1484 -0.1512
 6334SOL    HW130461   2.727   0.100   2.812  0.2252  0.3106  0.1004
 6334SOL    HW230462   2.737   4.677   2.772 -0.0557 -0.9899  0.7079
 6335SOL     OW30463   0.282   1.259   7.337  0.0986  0.2557  0.2851
 6335SOL    HW130464   0.217   1.247   7.267  1.2814  0.7654 -0.8961
 6335SOL    HW230465   0.343   1.316   7.291 -1.5229  2.6810  1.1143
 6336SOL     OW30466   4.691   3.417  11.478  0.1231  0.6139  0.5128
 6336SOL    HW130467   0.044   3.477  11.462 -0.3799  1.2428  0.5974
 6336SOL    HW230468   4.664   3.438  11.568 -1.0011 -0.8423  0.5347
 6337SOL     OW30469   1.864   1.240  11.133 -0.0227 -0.1684 -0.2550
 6337SOL    HW130470   1.935   1.176  11.136  4.2818  4.6255  0.5832
 6337SOL    HW230471   1.822   1.216  11.050 -1.4320 -0.0267  0.4073
 6338SOL     OW30472   0.513   1.389   7.237  0.2790 -0.3402 -0.2159
 6338SOL    HW130473   0.581   1.377   7.171  0.1757  0.0137 -0.3855
 6338SOL    HW230474   0.448   1.441   7.190  1.3862  0.6301 -0.6789
 6339SOL     OW30475   0.689   1.539  13.035 -0.1474 -0.2348 -0.0469
 6339SOL    HW130476   0.748   1.567  13.105  0.5855 -1.3357 -0.2228
 6339SOL    HW230477   0.600   1.557  13.067  0.4334 -1.9971  2.5245
 6340SOL     OW30478   1.006   0.045   0.020  0.2078  0.1413 -0.3104
 6340SOL    HW130479   1.060   0.119  17.670 -2.0310  2.3845  1.2377
 6340SOL    HW230480   0.937   0.040  17.632  0.9520 -0.5788 -1.0321
 6341SOL     OW30481   3.684   3.538  16.784  0.2232  0.0586 -0.1960
 6341SOL    HW130482   3.610   3.558  16.841 -0.3873  0.7618 -1.2119
 6341SOL    HW230483   3.701   3.619  16.734  0.4977 -0.2034 -0.5276
 6342SOL     OW30484   1.923   0.960   4.748 -0.1942 -0.6019 -0.7451
 6342SOL    HW130485   1.836   0.960   4.789  0.2688  0.1991  0.2206
 6342SOL    HW230486   1.907   0.911   4.667 -1.1594  0.7783 -1.3893
 6343SOL     OW30487   0.311   2.689  11.929  0.1530  0.1761 -0.3869
 6343SOL    HW130488   0.229   2.726  11.896  0.7537  1.2114 -0.7115
 6343SOL    HW230489   0.374   2.714  11.861 -0.4154  1.2526 -0.5081
 6344SOL     OW30490   2.046   1.473   1.805 -0.0618  0.8170 -0.1001
 6344SOL    HW130491   1.967   1.433   1.768  0.8795  0.9453 -2.2418
 6344SOL    HW230492   2.004   1.524   1.875 -0.8413  0.4199 -0.2772
 6345SOL     OW30493   3.014   0.593   6.008  0.4371  0.1133  0.1186
 6345SOL    HW130494   3.038   0.520   6.066 -0.3255 -1.0170 -0.9871
 6345SOL    HW230495   3.052   0.575   5.922 -0.2334  2.5544 -0.6952
 6346SOL     OW30496   1.185   3.289   2.896 -0.0221  0.1221  0.4273
 6346SOL    HW130497   1.204   3.253   2.982 -0.9791  0.5242  0.8037
 6346SOL    HW230498   1.120   3.238   2.848  0.8010  0.3999 -0.9907
 6347SOL     OW30499   0.438   4.071   3.494  0.2674 -0.0488  0.0569
 6347SOL    HW130500   0.507   4.137   3.499  1.3275 -1.3770  3.0992
 6347SOL    HW230501   0.484   4.013   3.433  0.8691 -0.3576  0.7976
 6348SOL     OW30502   2.517   0.105   1.477  0.0626 -0.0261  0.0164
 6348SOL    HW130503   2.548   0.149   1.398 -0.3872  0.9255  0.3677
 6348SOL    HW230504   2.589   0.048   1.504  0.2214 -0.8404 -2.1282
 6349SOL     OW30505   1.679   4.049  11.607 -0.5567 -0.5767  0.1730
 6349SOL    HW130506   1.656   4.011  11.691  0.1517 -3.1239 -0.7526
 6349SOL    HW230507   1.616   4.120  11.607  1.3832  1.1455 -0.7632
 6350SOL     OW30508   2.537   1.832   1.095 -0.3661 -0.1730 -0.8839
 6350SOL    HW130509   2.509   1.828   1.004  0.3251 -0.2605 -1.0888
 6350SOL    HW230510   2.550   1.926   1.100 -2.6607  0.0003  2.7130
 6351SOL     OW30511   4.642   3.852   2.749 -0.4531 -0.3298  0.3732
 6351SOL    HW130512   4.700   3.807   2.688 -0.7541  0.7145 -0.6686
 6351SOL    HW230513   4.572   3.787   2.742 -0.0810 -0.5643 -1.2239
 6352SOL     OW30514   3.888   3.793  17.254 -0.0086 -0.3122  1.0764
 6352SOL    HW130515   3.853   3.849  17.323 -2.4403  0.5419 -0.8025
 6352SOL    HW230516   3.979   3.791  17.282  0.6570  0.4442 -1.0125
 6353SOL     OW30517   1.302   1.290   1.844  0.1766  0.0376 -0.7540
 6353SOL    HW130518   1.395   1.300   1.825  0.2058 -0.9306 -1.0851
 6353SOL    HW230519   1.258   1.264   1.763 -0.2637  0.5983 -0.6967
 6354SOL     OW30520   3.848   0.598   7.102 -0.1737  0.2552 -0.6119
 6354SOL    HW130521   3.859   0.651   7.181  1.8260 -0.0547 -0.6962
 6354SOL    HW230522   3.867   0.668   7.040  1.2483 -0.1221 -0.5904
 6355SOL     OW30523   1.349   0.545   1.829  0.4223 -0.2615  0.3264
 6355SOL    HW130524   1.441   0.566   1.812  0.4015 -0.1053  0.4043
 6355SOL    HW230525   1.327   0.601   1.903 -1.5764  1.0780 -1.2583
 6356SOL     OW30526   0.830   2.991  15.005 -0.4660  0.1053  0.0688
 6356SOL    HW130527   0.859   3.075  14.968  0.3609 -0.7025 -1.1569
 6356SOL    HW230528   0.842   3.006  15.099 -0.9158  1.5763 -0.1107
 6357SOL     OW30529   3.626   0.461   7.418 -0.4784  0.1737  0.0905
 6357SOL    HW130530   3.691   0.434   7.482  0.9241  0.9272 -1.0048
 6357SOL    HW230531   3.591   0.537   7.464 -0.4256 -0.3189  0.9388
 6358SOL     OW30532   1.086   3.894  17.636  0.1785 -0.5234  0.2273
 6358SOL    HW130533   1.062   3.926   0.044  1.8608  0.8490  0.2008
 6358SOL    HW230534   1.180   3.910  17.646  0.0063  1.0356 -0.6818
 6359SOL     OW30535   1.953   1.803   2.850  0.2345 -0.2680 -0.1753
 6359SOL    HW130536   1.907   1.884   2.873  0.2925 -0.5379  0.8888
 6359SOL    HW230537   1.924   1.778   2.762  0.0029  2.0331 -0.7366
 6360SOL     OW30538   3.922   1.221   6.484  0.0385 -0.1656  0.4870
 6360SOL    HW130539   3.847   1.276   6.504  0.9641  1.4454 -0.4772
 6360SOL    HW230540   3.974   1.301   6.488 -1.0372  0.5669 -0.3001
 6361SOL     OW30541   3.968   1.069   4.131 -0.4467  0.5173  0.1613
 6361SOL    HW130542   4.044   1.024   4.094 -0.0221  1.5115 -0.1738
 6361SOL    HW230543   3.995   1.158   4.151  0.0947  0.9377 -2.4728
 6362SOL     OW30544   3.863   0.564   4.592  0.0980  0.0997  0.3836
 6362SOL    HW130545   3.847   0.470   4.586  1.3633 -0.0754 -0.2684
 6362SOL    HW230546   3.782   0.592   4.550 -0.3536 -1.5665  0.1490
 6363SOL     OW30547   4.050   4.309   9.514  0.3253 -0.1043 -0.0369
 6363SOL    HW130548   4.117   4.292   9.581  1.6872  0.2872 -1.3129
 6363SOL    HW230549   4.065   4.400   9.491 -1.7602  0.4408  0.7654
 6364SOL     OW30550   3.386   2.388   6.226  0.6859  0.1312 -0.1459
 6364SOL    HW130551   3.303   2.350   6.198  0.6244 -0.2356  0.5277
 6364SOL    HW230552   3.356   2.479   6.225  1.0932  0.2363 -1.9152
 6365SOL     OW30553   2.985   2.058   6.259  0.5799  0.7766  0.3828
 6365SOL    HW130554   3.041   2.003   6.314 -0.7201 -0.6187  0.3211
 6365SOL    HW230555   2.901   2.021   6.286  1.0843 -0.1277  0.7195
 6366SOL     OW30556   2.213   3.002  13.471  0.2819 -0.1445  0.4363
 6366SOL    HW130557   2.177   3.042  13.392 -0.6345 -2.6052 -0.3611
 6366SOL    HW230558   2.305   3.029  13.461  0.6093 -1.2668  0.4703
 6367SOL     OW30559   2.720   4.574  10.594 -0.1979 -0.3702 -1.2158
 6367SOL    HW130560   2.708   4.487  10.631  0.3930  0.2784  0.5150
 6367SOL    HW230561   2.807   4.566  10.555  0.5912  1.9104  0.0693
 6368SOL     OW30562   3.296   1.514   7.640 -0.1185  0.0817  0.4866
 6368SOL    HW130563   3.267   1.605   7.638 -0.2064  0.0546  0.5028
 6368SOL    HW230564   3.336   1.500   7.554 -0.3974 -2.2750  0.7195
 6369SOL     OW30565   0.718   1.760   3.682 -0.6485  0.0424 -0.0122
 6369SOL    HW130566   0.721   1.809   3.600 -0.0407 -0.0605 -0.0518
 6369SOL    HW230567   0.776   1.690   3.654 -0.9235 -0.3040  0.2832
 6370SOL     OW30568   3.567   2.656   8.829  0.4657  0.6820  0.2955
 6370SOL    HW130569   3.568   2.584   8.766 -0.1655  1.8623 -1.0771
 6370SOL    HW230570   3.656   2.689   8.817  0.7784  0.2391  1.4104
 6371SOL     OW30571   1.778   0.243  13.489 -0.3070 -0.0010 -0.1948
 6371SOL    HW130572   1.716   0.226  13.418 -0.0111 -0.0831 -0.4351
 6371SOL    HW230573   1.817   0.326  13.463 -0.1822  0.3114  1.0085
 6372SOL     OW30574   1.581   0.047   4.855 -0.8649  0.0878 -0.4450
 6372SOL    HW130575   1.523   4.692   4.838 -2.9386  1.6366 -0.0867
 6372SOL    HW230576   1.602   0.018   4.943 -0.7289  0.0830 -0.4782
 6373SOL     OW30577   4.160   1.715  15.724  0.1686  0.5751 -0.0633
 6373SOL    HW130578   4.166   1.746  15.634 -1.0869 -1.0388 -0.6918
 6373SOL    HW230579   4.251   1.727  15.751  0.2495 -0.6371  0.2237
 6374SOL     OW30580   0.361   3.648   5.392  0.1707  0.9263  0.0467
 6374SOL    HW130581   0.368   3.733   5.349 -0.8777  1.0720  0.1695
 6374SOL    HW230582   0.311   3.655   5.473 -0.5407  1.2447 -0.4121
 6375SOL     OW30583   2.240   3.189  14.297 -0.6650 -0.2692 -0.3649
 6375SOL    HW130584   2.266   3.124  14.363 -0.8579 -2.1792 -2.1860
 6375SOL    HW230585   2.149   3.190  14.325 -0.8378  2.4565 -0.9755
 6376SOL     OW30586   1.163   0.849   6.032  0.2481  0.2315  0.1624
 6376SOL    HW130587   1.111   0.770   6.048  0.3769  0.4147  1.4400
 6376SOL    HW230588   1.169   0.861   5.937  0.1384  0.7937  0.2294
 6377SOL     OW30589   1.993   0.174   3.401  0.6552  0.4828 -0.5449
 6377SOL    HW130590   1.963   0.084   3.386  1.9465  0.2921 -1.9378
 6377SOL    HW230591   2.083   0.175   3.370  0.6729 -1.3329 -0.5688
 6378SOL     OW30592   0.935   2.833   2.378  0.0376 -0.1500 -0.3328
 6378SOL    HW130593   1.028   2.846   2.395 -0.2451  0.6253  0.6314
 6378SOL    HW230594   0.927   2.739   2.397  2.6536  0.1083  2.0563
 6379SOL     OW30595   2.322   1.015   7.366 -0.4668  0.3309 -0.1539
 6379SOL    HW130596   2.406   1.025   7.322  0.2043  1.7554  1.4578
 6379SOL    HW230597   2.347   1.062   7.446 -0.9816  1.4552 -0.6458
 6380SOL     OW30598   1.135   0.424   6.928  0.2655  1.2346 -0.0569
 6380SOL    HW130599   1.123   0.352   6.990  2.7006  2.2945  1.6052
 6380SOL    HW230600   1.070   0.492   6.947  1.5505  1.9257  1.9015
 6381SOL     OW30601   1.597   2.100   4.715  0.5922  0.3309 -0.6907
 6381SOL    HW130602   1.517   2.073   4.762  1.1641  0.6531  0.4784
 6381SOL    HW230603   1.556   2.171   4.667 -1.9377 -1.3284 -1.0164
 6382SOL     OW30604   0.524   2.497   7.125 -0.5699  0.2467  0.3171
 6382SOL    HW130605   0.500   2.579   7.169  0.7046  0.5650  0.3960
 6382SOL    HW230606   0.609   2.520   7.089 -1.0221 -0.8567 -1.4772
 6383SOL     OW30607   0.959   0.540   5.931 -0.1133 -0.3905 -0.2413
 6383SOL    HW130608   0.996   0.477   5.870 -0.3592 -1.0192  0.2632
 6383SOL    HW230609   0.973   0.485   6.008  0.2311  2.6816  1.9171
 6384SOL     OW30610   3.331   1.178   3.248  0.2982 -0.2885  0.0163
 6384SOL    HW130611   3.385   1.102   3.223  0.1493  0.7341 -3.4442
 6384SOL    HW230612   3.250   1.141   3.212  0.4224  1.5259 -2.1059
 6385SOL     OW30613   3.614   2.394  13.456  0.3111  0.3115 -0.0661
 6385SOL    HW130614   3.660   2.322  13.499 -1.6139 -0.2282  1.0467
 6385SOL    HW230615   3.611   2.370  13.363  1.9434  0.6482 -0.2102
 6386SOL     OW30616   0.255   0.899   1.485 -0.4655 -0.3289 -0.5546
 6386SOL    HW130617   0.321   0.909   1.417 -0.9474  2.6109 -0.6027
 6386SOL    HW230618   0.195   0.965   1.451  1.6478  1.0128 -1.6991
 6387SOL     OW30619   1.426   3.330   1.996  0.1720 -0.1473  0.4047
 6387SOL    HW130620   1.487   3.338   1.923  1.1082  0.7895  1.2937
 6387SOL    HW230621   1.461   3.248   2.033  1.0705 -0.1456 -0.4392
 6388SOL     OW30622   2.104   2.041   7.804  0.4285 -0.3282 -0.5445
 6388SOL    HW130623   2.115   1.958   7.758  3.5179 -1.1303  1.6715
 6388SOL    HW230624   2.073   2.011   7.890  1.4837  1.4304  0.4368
 6389SOL     OW30625   3.303   1.774   8.713  0.1116  0.0218  0.3018
 6389SOL    HW130626   3.350   1.853   8.738 -2.0051  1.1091  0.8427
 6389SOL    HW230627   3.219   1.785   8.759  0.3442  0.6446  0.5710
 6390SOL     OW30628   2.675   3.610   2.166  0.1826 -0.4002  0.2987
 6390SOL    HW130629   2.585   3.610   2.132  0.3444  0.2769 -0.1208
 6390SOL    HW230630   2.706   3.688   2.121 -1.5724  0.9090  1.3843
 6391SOL     OW30631   2.679   2.767  12.554  0.4782  0.3914 -0.6592
 6391SOL    HW130632   2.635   2.732  12.477  0.2587 -0.9968  0.0957
 6391SOL    HW230633   2.684   2.862  12.538  1.1706  0.3431 -0.7406
 6392SOL     OW30634   0.941   0.242   7.361  0.0652  0.4301  0.2395
 6392SOL    HW130635   0.972   0.297   7.434 -1.2328  1.6552 -0.1470
 6392SOL    HW230636   0.974   0.157   7.391  1.5273  1.0302  0.3771
 6393SOL     OW30637   3.273   2.829   6.794 -0.3496  0.6372  0.1862
 6393SOL    HW130638   3.311   2.778   6.722 -1.9071  1.6252 -1.3375
 6393SOL    HW230639   3.265   2.914   6.751  0.3141  0.8481  0.4709
 6394SOL     OW30640   4.157   2.915   6.498  0.6655  0.0659  0.2402
 6394SOL    HW130641   4.095   2.899   6.428  0.2685 -0.8827  0.8040
 6394SOL    HW230642   4.100   2.924   6.575  0.9763 -0.1676  0.4993
 6395SOL     OW30643   3.411   4.071   2.790 -0.5407 -0.0664 -0.5641
 6395SOL    HW130644   3.320   4.081   2.761 -0.6052  2.3703  0.4537
 6395SOL    HW230645   3.433   4.020   2.712 -0.1569 -0.8148  0.0345
 6396SOL     OW30646   0.279   1.887   9.095 -0.0171 -0.6502  0.3304
 6396SOL    HW130647   0.195   1.908   9.135  0.3083  0.3218  0.4970
 6396SOL    HW230648   0.326   1.855   9.172 -0.6021  0.3083  1.0745
 6397SOL     OW30649   4.605   3.600   1.540 -0.0282 -0.7658  0.0330
 6397SOL    HW130650   4.630   3.670   1.480  0.0604 -0.8412 -0.0179
 6397SOL    HW230651   4.674   3.535   1.526  0.4455  0.1902 -2.0441
 6398SOL     OW30652   0.244   2.590  14.642 -0.3597  0.3934 -0.7579
 6398SOL    HW130653   0.323   2.630  14.607 -0.9342  1.7740 -0.4985
 6398SOL    HW230654   0.241   2.518  14.579  2.8936  0.2615 -0.7418
 6399SOL     OW30655   2.220   4.660   1.662 -0.1791 -0.0010  0.5377
 6399SOL    HW130656   2.283   4.589   1.650 -0.7315 -0.5345  0.8206
 6399SOL    HW230657   2.225   4.700   1.575 -0.1933 -0.8082  0.1642
 6400SOL     OW30658   3.729   0.094  11.885 -0.3429  0.5936 -0.5352
 6400SOL    HW130659   3.649   0.147  11.883 -1.0357 -0.4282 -0.3231
 6400SOL    HW230660   3.746   0.083  11.792  2.6645  1.9305 -0.1323
 6401SOL     OW30661   3.753   4.594   4.231 -0.5556 -0.4690  0.5336
 6401SOL    HW130662   3.814   4.520   4.227  0.2527  0.3876 -2.6751
 6401SOL    HW230663   3.684   4.566   4.170  0.0898  1.3018 -0.9791
 6402SOL     OW30664   1.165   2.098   3.859 -0.2812  0.8509 -0.0851
 6402SOL    HW130665   1.193   2.007   3.844 -0.1578  0.6422  1.4688
 6402SOL    HW230666   1.092   2.094   3.798 -2.6747  1.9619  2.7409
 6403SOL     OW30667   4.683   1.309   1.844 -0.3353 -0.1924  0.4520
 6403SOL    HW130668   0.018   1.303   1.765 -1.0522  1.3740 -0.1438
 6403SOL    HW230669   4.700   1.222   1.880 -0.1221 -0.3324  0.0157
 6404SOL     OW30670   0.740   0.014   1.935  0.4990 -0.2294 -0.6693
 6404SOL    HW130671   0.826   0.020   1.894  0.5149  1.7961 -0.3451
 6404SOL    HW230672   0.715   4.643   1.913  1.4749 -0.3101 -1.4346
 6405SOL     OW30673   0.994   4.041   2.451  0.1651  0.0386  0.8138
 6405SOL    HW130674   1.051   3.986   2.505  1.8129 -0.5214 -1.5032
 6405SOL    HW230675   0.928   3.983   2.412 -0.7638  2.1075 -0.6623
 6406SOL     OW30676   0.563   3.630  16.919 -0.3683 -0.2756 -0.9187
 6406SOL    HW130677   0.619   3.630  16.841 -2.2140 -1.0567 -2.2677
 6406SOL    HW230678   0.598   3.568  16.983 -0.7155  1.5304  1.0110
 6407SOL     OW30679   1.839   1.403   5.541 -0.9109 -0.1944  0.2706
 6407SOL    HW130680   1.873   1.313   5.536 -0.2953  0.0757 -0.2792
 6407SOL    HW230681   1.875   1.441   5.462  1.1308 -0.1371  1.2091
 6408SOL     OW30682   2.819   4.584   0.583 -0.0090  0.5063  0.0027
 6408SOL    HW130683   2.894   4.525   0.576 -1.0985 -1.2776  3.3038
 6408SOL    HW230684   2.761   4.520   0.626 -0.9478  0.0305 -1.9585
 6409SOL     OW30685   3.575   2.699   3.880 -0.0546 -0.6227 -0.7577
 6409SOL    HW130686   3.647   2.733   3.826 -0.3825  0.3461 -0.5873
 6409SOL    HW230687   3.615   2.670   3.962  1.2047  2.3308 -0.3111
 6410SOL     OW30688   0.347   1.929   3.973 -0.0500 -0.5153  0.1521
 6410SOL    HW130689   0.395   1.951   4.053 -0.7676  0.8893  0.1903
 6410SOL    HW230690   0.310   1.841   3.980 -1.3250  0.2875  3.5970
 6411SOL     OW30691   3.753   1.500   5.476  0.0776  0.5839 -0.1751
 6411SOL    HW130692   3.745   1.566   5.545 -1.9598  1.1426 -0.9632
 6411SOL    HW230693   3.670   1.453   5.478  1.3321 -1.6318 -0.4042
 6412SOL     OW30694   0.388   4.166  14.789 -0.1483 -0.5924 -0.1327
 6412SOL    HW130695   0.321   4.227  14.820  0.6345  0.0633  0.2741
 6412SOL    HW230696   0.381   4.107  14.864  0.0027 -0.2692  0.1330
 6413SOL     OW30697   3.574   2.940   6.780 -0.0093 -0.0963 -0.2619
 6413SOL    HW130698   3.634   2.871   6.806  2.0518  1.9167  0.3855
 6413SOL    HW230699   3.487   2.902   6.792 -0.4851  1.5046  1.3433
 6414SOL     OW30700   2.995   0.123  10.346 -0.0797 -0.1024  0.0770
 6414SOL    HW130701   2.959   0.212  10.347  0.1391  0.0039 -1.2963
 6414SOL    HW230702   2.960   0.073  10.273 -3.5300  2.4403  0.0153
 6415SOL     OW30703   1.876   1.420   7.405 -0.3280  0.1806 -0.2043
 6415SOL    HW130704   1.782   1.411   7.394 -0.3284  0.0650 -0.1128
 6415SOL    HW230705   1.903   1.328   7.416 -0.1224  0.3890  1.1383
 6416SOL     OW30706   3.516   3.649  15.777  0.0204 -0.3532  0.6274
 6416SOL    HW130707   3.553   3.717  15.832  0.1146  1.8223 -2.1164
 6416SOL    HW230708   3.469   3.700  15.711 -2.3067 -2.3510  0.7327
 6417SOL     OW30709   2.818   4.402   2.787  0.4774  0.3295  0.1756
 6417SOL    HW130710   2.868   4.461   2.730  0.9756 -1.1125 -0.8888
 6417SOL    HW230711   2.790   4.338   2.722 -1.6744  1.0615  0.4045
 6418SOL     OW30712   0.616   3.440   2.951  0.3096 -0.5843  0.3755
 6418SOL    HW130713   0.625   3.472   2.862 -1.0190  2.0524  1.2178
 6418SOL    HW230714   0.664   3.357   2.948  2.7931  0.7582  2.5460
 6419SOL     OW30715   0.392   2.069  10.767  0.0400  0.8963  0.1820
 6419SOL    HW130716   0.305   2.076  10.728 -0.0328  2.4819  0.6136
 6419SOL    HW230717   0.434   2.041  10.686  1.5401 -0.6929  1.5034
 6420SOL     OW30718   2.640   1.147   8.404 -0.1157 -0.2500 -0.2040
 6420SOL    HW130719   2.576   1.081   8.379 -0.1168 -0.2504 -0.2001
 6420SOL    HW230720   2.624   1.155   8.498  0.3072  2.6569 -0.3772
 6421SOL     OW30721   0.936   2.362   0.357 -0.0039 -0.0020 -0.1469
 6421SOL    HW130722   0.903   2.379   0.269  1.8930  2.5282 -0.3777
 6421SOL    HW230723   0.864   2.319   0.403  0.9625 -1.5105 -0.0300
 6422SOL     OW30724   4.466   4.330   3.517  0.0447  0.1311 -0.0844
 6422SOL    HW130725   4.446   4.333   3.611 -0.5714 -0.9847 -0.1849
 6422SOL    HW230726   4.554   4.295   3.528  0.4022  0.7668 -0.9404
 6423SOL     OW30727   3.703   3.198   2.261  0.6773 -0.3688  0.9029
 6423SOL    HW130728   3.776   3.138   2.276  2.1364  1.9327  2.7857
 6423SOL    HW230729   3.667   3.183   2.348  1.7923 -0.7725  1.2936
 6424SOL     OW30730   1.610   3.027   4.817  0.9737  0.1213 -0.4034
 6424SOL    HW130731   1.637   3.019   4.725  2.4131 -0.8888  0.1064
 6424SOL    HW230732   1.515   3.038   4.808  1.0145  0.5595 -0.2787
 6425SOL     OW30733   0.135   2.073  13.795  0.1055  0.6594  0.6078
 6425SOL    HW130734   0.083   2.152  13.780  0.3605  0.6223 -0.4460
 6425SOL    HW230735   0.204   2.100  13.855 -1.0718 -0.2462  2.3987
 6426SOL     OW30736   1.302   0.550   0.523 -0.0028 -0.1791  0.8510
 6426SOL    HW130737   1.288   0.616   0.591 -0.4358  0.5939  0.0119
 6426SOL    HW230738   1.370   0.596   0.475  0.8648  0.1523  2.4172
 6427SOL     OW30739   3.028   3.425   5.344  0.5689  0.4596 -0.0695
 6427SOL    HW130740   2.958   3.377   5.387 -0.9890  2.6946 -0.1084
 6427SOL    HW230741   3.014   3.396   5.254  1.7537 -0.6810  0.1034
 6428SOL     OW30742   3.611   2.553  12.364  0.2043  0.3733 -0.2506
 6428SOL    HW130743   3.680   2.586  12.421 -0.0086 -0.6639  0.6044
 6428SOL    HW230744   3.530   2.585  12.405  1.1243  0.8833  1.1605
 6429SOL     OW30745   4.690   3.508  11.189 -0.3712  0.0067  0.4710
 6429SOL    HW130746   4.716   3.456  11.265  1.9105  1.9003  0.9983
 6429SOL    HW230747   0.064   3.524  11.168  0.1965 -1.2963  1.9596
 6430SOL     OW30748   3.682   0.036   0.195 -0.2486  0.2679 -0.4452
 6430SOL    HW130749   3.725   0.120   0.178 -1.2661  1.1425  1.3765
 6430SOL    HW230750   3.748   4.705   0.243 -0.4050  0.1276 -0.3765
 6431SOL     OW30751   3.388   0.625  11.793  0.4705  0.6046 -0.1682
 6431SOL    HW130752   3.376   0.661  11.881  0.0369 -1.7632  0.7227
 6431SOL    HW230753   3.468   0.660  11.753  1.9704  0.0631  2.3691
 6432SOL     OW30754   1.144   2.817   3.832  0.1841 -0.7332 -0.0397
 6432SOL    HW130755   1.133   2.867   3.751  0.6275 -2.1842 -0.9990
 6432SOL    HW230756   1.050   2.799   3.837 -0.1624  0.7372 -1.1079
 6433SOL     OW30757   1.142   0.671   0.717 -0.3676 -0.1757  0.5083
 6433SOL    HW130758   1.102   0.584   0.710 -2.2885  0.8939 -1.9534
 6433SOL    HW230759   1.081   0.720   0.662 -0.7350 -4.2206 -2.6722
 6434SOL     OW30760   2.164   3.524  15.834  0.2946  0.0651  0.5991
 6434SOL    HW130761   2.186   3.499  15.744  0.3448  2.4786 -0.0501
 6434SOL    HW230762   2.070   3.537  15.833  0.4109  0.5572 -3.5828
 6435SOL     OW30763   2.626   0.042   7.927  0.4467  0.3351  0.4549
 6435SOL    HW130764   2.676   0.113   7.966  0.9800  0.9760 -1.3745
 6435SOL    HW230765   2.611   0.073   7.837  1.1042 -1.4700 -0.2735
 6436SOL     OW30766   2.645   2.483  13.411 -0.2224  0.3888  0.6010
 6436SOL    HW130767   2.620   2.426  13.484 -0.2449  2.9452  2.6101
 6436SOL    HW230768   2.613   2.446  13.329  2.8874 -0.8464 -0.0680
 6437SOL     OW30769   3.177   2.239   6.038 -0.3348 -0.3032 -0.1853
 6437SOL    HW130770   3.214   2.151   6.043 -0.2975 -0.1993  1.3499
 6437SOL    HW230771   3.084   2.227   6.059 -0.3873 -0.1799 -0.3522
 6438SOL     OW30772   2.200   3.763  10.460  0.9430 -0.3215 -0.5311
 6438SOL    HW130773   2.148   3.815  10.522  0.7408 -0.0109 -0.9560
 6438SOL    HW230774   2.278   3.773  10.515  1.4434 -0.5019 -1.2155
 6439SOL     OW30775   4.140   1.973   3.902  0.0823 -0.0927  0.2588
 6439SOL    HW130776   4.117   1.896   3.851  0.3452  0.9129 -1.4025
 6439SOL    HW230777   4.118   2.041   3.838 -1.8999  0.3073  1.3781
 6440SOL     OW30778   2.387   1.845   7.478  0.4377 -0.2612 -0.2130
 6440SOL    HW130779   2.448   1.773   7.496 -1.9817 -2.5525 -1.1077
 6440SOL    HW230780   2.414   1.909   7.544  0.7605  1.4402 -1.9953
 6441SOL     OW30781   3.988   3.105   7.067  0.2833 -0.0390 -0.1919
 6441SOL    HW130782   3.976   3.134   6.977  0.2369 -0.6110 -0.3734
 6441SOL    HW230783   3.908   3.140   7.105 -0.1522 -1.9309  0.6902
 6442SOL     OW30784   1.186   1.035   8.061  0.2111  0.9908  0.1094
 6442SOL    HW130785   1.109   1.092   8.066 -1.4082 -1.0468 -1.3825
 6442SOL    HW230786   1.155   0.981   7.988  3.3139 -0.1122 -0.3660
 6443SOL     OW30787   0.321   3.473   3.461 -0.8983  0.4231  0.2997
 6443SOL    HW130788   0.249   3.490   3.400  0.4201  2.5283 -0.6753
 6443SOL    HW230789   0.373   3.553   3.452 -0.1903  0.1927  2.2891
 6444SOL     OW30790   4.340   3.014   8.357 -0.5383 -0.1816 -0.0484
 6444SOL    HW130791   4.385   2.999   8.440  0.4172  1.5261 -0.2606
 6444SOL    HW230792   4.358   3.108   8.353  0.7771 -0.3735  1.6108
 6445SOL     OW30793   4.100   2.144   9.243 -0.3146 -0.7591 -0.1587
 6445SOL    HW130794   4.134   2.231   9.263 -2.0077 -0.4189  1.2067
 6445SOL    HW230795   4.126   2.109   9.328  0.5049 -3.0725 -1.3460
 6446SOL     OW30796   4.357   2.720   6.768 -0.4246 -0.0649 -0.0204
 6446SOL    HW130797   4.313   2.805   6.768 -0.6977 -0.2098  0.4052
 6446SOL    HW230798   4.388   2.718   6.677  0.3868  1.2407  0.2248
 6447SOL     OW30799   3.750   0.330   4.525 -0.1712 -0.5037 -0.0221
 6447SOL    HW130800   3.656   0.335   4.545  0.0477 -1.2033  1.1960
 6447SOL    HW230801   3.750   0.316   4.431 -1.0633  1.2234 -0.2868
 6448SOL     OW30802   0.943   2.844  13.010  0.1115  0.1146  0.1489
 6448SOL    HW130803   0.986   2.851  12.925 -0.2552 -2.6959 -0.2504
 6448SOL    HW230804   0.954   2.752  13.030 -0.9632 -0.4799 -1.9331
 6449SOL     OW30805   0.202   3.459   8.142 -0.4399 -0.3989 -0.0145
 6449SOL    HW130806   0.275   3.453   8.203 -0.2733 -0.7234 -0.2451
 6449SOL    HW230807   0.132   3.411   8.184  0.7216 -1.2718  0.9154
 6450SOL     OW30808   0.209   2.697   1.645  0.7930  0.3172 -0.0325
 6450SOL    HW130809   0.137   2.634   1.640  0.8518  0.3211 -0.9067
 6450SOL    HW230810   0.254   2.667   1.724  2.2842  0.3225 -0.8598
 6451SOL     OW30811   3.416   1.915   5.407 -0.1541  0.4042 -0.3111
 6451SOL    HW130812   3.443   1.834   5.364 -2.7942 -1.7872  2.1686
 6451SOL    HW230813   3.424   1.981   5.338 -0.8663 -1.9986 -2.6908
 6452SOL     OW30814   1.058   2.416  13.251  0.1983 -0.0757 -0.3045
 6452SOL    HW130815   1.080   2.461  13.332 -0.7038 -0.7316  0.2993
 6452SOL    HW230816   1.019   2.337  13.288 -0.3088  0.5417  0.4594
 6453SOL     OW30817   4.190   0.745   4.389  0.2470 -0.2874  0.5942
 6453SOL    HW130818   4.120   0.696   4.344 -0.2700 -0.2624  1.3821
 6453SOL    HW230819   4.236   0.763   4.307  1.1211 -0.3976  1.0693
 6454SOL     OW30820   2.219   2.818   6.595 -0.4050 -0.0711  0.2391
 6454SOL    HW130821   2.134   2.810   6.552  0.4468  0.0819 -1.4543
 6454SOL    HW230822   2.197   2.798   6.686 -1.5129 -0.6002 -0.1483
 6455SOL     OW30823   4.052   4.359   3.879  0.0859  0.0860 -0.1726
 6455SOL    HW130824   4.091   4.349   3.792 -0.5003  0.3443 -0.4650
 6455SOL    HW230825   3.971   4.404   3.855 -0.1835 -0.8939 -1.0784
 6456SOL     OW30826   3.601   0.261   3.716  0.4462 -0.4471  0.0543
 6456SOL    HW130827   3.580   0.178   3.759 -1.1978 -0.3469 -0.5500
 6456SOL    HW230828   3.568   0.258   3.626 -2.1116  5.0959  0.8313
 6457SOL     OW30829   0.152   4.547  17.525  0.4792  0.0433  0.7979
 6457SOL    HW130830   0.131   4.633  17.489  1.0255 -0.1971 -0.0936
 6457SOL    HW230831   0.205   4.509  17.454  1.3738  0.8638  1.0348
 6458SOL     OW30832   2.174   0.552   9.090  0.2824 -0.2209 -0.0346
 6458SOL    HW130833   2.230   0.626   9.068 -0.0977 -0.4143 -1.6947
 6458SOL    HW230834   2.131   0.581   9.170 -1.3004 -0.8257 -0.6670
 6459SOL     OW30835   4.071   1.579   8.621 -0.2021 -0.1981  0.2018
 6459SOL    HW130836   3.989   1.591   8.572  0.8084 -0.1960 -1.4900
 6459SOL    HW230837   4.120   1.519   8.564 -1.5386 -1.5727  0.4929
 6460SOL     OW30838   2.341   3.637   3.464 -0.7853  0.0837 -0.0377
 6460SOL    HW130839   2.300   3.720   3.489 -0.1583 -0.2304  2.0062
 6460SOL    HW230840   2.302   3.623   3.378 -1.2341  0.4827  0.1002
 6461SOL     OW30841   4.651   2.842   8.165  0.0170 -0.3585  0.1620
 6461SOL    HW130842   4.712   2.805   8.229  0.0349 -0.4846  0.0722
 6461SOL    HW230843   4.712   2.856   8.093  1.1464 -3.2355  0.5567
 6462SOL     OW30844   1.116   3.060   5.668  0.0879 -0.0807  0.2136
 6462SOL    HW130845   1.199   3.047   5.714  0.0209  2.1201  0.9157
 6462SOL    HW230846   1.145   3.031   5.581  2.5635 -2.0285  1.6948
 6463SOL     OW30847   0.579   4.316  15.220  0.6573 -0.1251  0.4400
 6463SOL    HW130848   0.629   4.395  15.242 -4.2886  3.0398  0.3591
 6463SOL    HW230849   0.580   4.304  15.125  3.6454 -2.1970  0.7385
 6464SOL     OW30850   2.801   3.222  16.054 -0.0194  0.0940  0.5110
 6464SOL    HW130851   2.729   3.242  16.114 -0.0854 -0.0561  0.4826
 6464SOL    HW230852   2.869   3.274  16.097 -0.9803  0.7750  1.2023
 6465SOL     OW30853   4.236   3.703   7.243  0.5184 -0.0616 -0.5474
 6465SOL    HW130854   4.178   3.662   7.309 -0.5677 -1.4822 -2.3853
 6465SOL    HW230855   4.192   3.668   7.166  0.0899  1.0833 -0.8153
 6466SOL     OW30856   2.202   2.453   6.809 -0.4191 -0.6005  0.0561
 6466SOL    HW130857   2.283   2.409   6.833  0.9236  2.5738  1.3686
 6466SOL    HW230858   2.131   2.412   6.858 -1.5310 -0.6196 -1.5806
 6467SOL     OW30859   4.703   2.333   1.956  0.0107 -0.0113  0.4113
 6467SOL    HW130860   0.043   2.349   2.029  0.6103 -0.0431 -0.0708
 6467SOL    HW230861   0.047   2.341   1.884  0.8997 -0.1584  1.1799
 6468SOL     OW30862   3.628   4.260   2.295 -0.0232 -0.5620 -0.0649
 6468SOL    HW130863   3.563   4.193   2.275 -0.7024  0.0245  0.1530
 6468SOL    HW230864   3.705   4.218   2.258  0.5163 -0.9660  1.5090
 6469SOL     OW30865   0.259   0.677   9.931  0.2707 -0.0649  0.4826
 6469SOL    HW130866   0.248   0.685  10.026  0.7238 -3.2307  0.7909
 6469SOL    HW230867   0.277   0.767   9.903 -2.5799  0.6063  0.8037
 6470SOL     OW30868   3.511   1.408   6.633  0.1542 -0.4717 -0.4527
 6470SOL    HW130869   3.421   1.400   6.602 -0.3234  3.3973  0.0216
 6470SOL    HW230870   3.503   1.440   6.722 -2.4063 -0.3776 -0.7182
 6471SOL     OW30871   2.806   3.593   2.387 -0.0971  0.5484  0.0487
 6471SOL    HW130872   2.739   3.571   2.323 -0.3723 -2.0201  1.2123
 6471SOL    HW230873   2.794   3.688   2.391 -0.3792  0.5346 -0.4428
 6472SOL     OW30874   4.331   0.457   3.869 -0.2429  0.5362  0.1324
 6472SOL    HW130875   4.346   0.389   3.935 -1.8544  0.2508  0.2125
 6472SOL    HW230876   4.293   0.399   3.803  3.1215 -0.6407 -0.7470
 6473SOL     OW30877   0.839   0.108   7.931 -0.2046  0.5475  0.1051
 6473SOL    HW130878   0.917   0.062   7.962 -0.5861 -0.8509 -1.0134
 6473SOL    HW230879   0.813   0.151   8.013  2.0862  3.7631 -0.8425
 6474SOL     OW30880   1.654   1.677  10.430  0.0434  0.1610  0.3103
 6474SOL    HW130881   1.739   1.695  10.470 -0.0011 -1.5248  1.1658
 6474SOL    HW230882   1.618   1.763  10.409  1.1033  0.3855 -0.5714
 6475SOL     OW30883   4.579   1.626   1.975  0.3715 -0.0729 -0.3071
 6475SOL    HW130884   4.485   1.623   1.955  0.8352  0.7355 -2.6008
 6475SOL    HW230885   4.608   1.655   1.889 -1.6174 -1.6860 -1.5298
 6476SOL     OW30886   3.785   2.006   1.852 -0.0030 -0.5496  0.3720
 6476SOL    HW130887   3.716   1.953   1.892  0.7697 -0.2443  2.1042
 6476SOL    HW230888   3.807   2.057   1.930 -1.6924  0.7306 -0.0006
 6477SOL     OW30889   1.586   1.934   7.244  0.5571  0.4420 -0.0816
 6477SOL    HW130890   1.581   2.028   7.226 -2.5761  0.5487  1.3027
 6477SOL    HW230891   1.515   1.907   7.303  0.7581  1.2479  0.5380
 6478SOL     OW30892   2.078   3.531   5.664 -0.0388 -0.0538  0.3002
 6478SOL    HW130893   2.043   3.475   5.595 -1.9852 -0.0602  1.3206
 6478SOL    HW230894   2.076   3.616   5.619  0.5977  0.5167  1.3368
 6479SOL     OW30895   3.083   1.339  13.006 -0.0693  0.0900  0.1687
 6479SOL    HW130896   3.130   1.407  12.958  2.4174 -1.3200  0.6142
 6479SOL    HW230897   3.098   1.260  12.954  0.7356  1.0993 -1.1388
 6480SOL     OW30898   4.093   0.961  13.628 -1.0861  0.3679  0.3269
 6480SOL    HW130899   4.131   0.987  13.545 -2.1882  0.6204 -0.0986
 6480SOL    HW230900   4.065   0.872  13.607  0.4633 -0.1785  0.5734
 6481SOL     OW30901   3.004   2.396  10.576 -0.8547  0.0358  0.5441
 6481SOL    HW130902   2.996   2.490  10.592  1.3096  0.5890 -1.7116
 6481SOL    HW230903   2.928   2.385  10.519  0.6544  0.7178 -1.6133
 6482SOL     OW30904   4.314   4.554   7.927 -0.0879 -0.1733 -0.3640
 6482SOL    HW130905   4.282   4.569   7.839 -0.0766  1.8905 -0.0099
 6482SOL    HW230906   4.334   4.461   7.918  2.8941  0.7036 -2.7865
 6483SOL     OW30907   3.753   1.212   9.667 -0.2874  0.1713 -0.3744
 6483SOL    HW130908   3.797   1.268   9.731 -0.8128 -0.2151  0.3275
 6483SOL    HW230909   3.797   1.128   9.680  1.7110  1.0884 -1.3337
 6484SOL     OW30910   3.514   3.904   7.259 -0.2918 -0.2329 -0.3066
 6484SOL    HW130911   3.522   3.918   7.353  3.2641 -0.6969 -0.5432
 6484SOL    HW230912   3.595   3.872   7.220 -0.7162 -1.4204 -0.2242
 6485SOL     OW30913   0.515   1.625   9.474  0.3821 -0.3136  0.1538
 6485SOL    HW130914   0.511   1.631   9.569 -0.1712  1.5328  0.0195
 6485SOL    HW230915   0.449   1.689   9.448  0.4038 -0.3511  0.0075
 6486SOL     OW30916   1.552   0.885   7.896 -0.4691  0.1882 -0.1696
 6486SOL    HW130917   1.540   0.934   7.977 -2.1259 -0.3096 -0.1178
 6486SOL    HW230918   1.619   0.821   7.922 -0.3910  0.6204  0.7053
 6487SOL     OW30919   3.224   1.186   6.112 -0.5000 -0.3566  0.1185
 6487SOL    HW130920   3.286   1.113   6.107  0.6692  0.5972  0.6684
 6487SOL    HW230921   3.231   1.220   6.023 -3.5951  3.4724  1.3406
 6488SOL     OW30922   2.152   3.940   5.936 -0.6192 -0.7103  0.4200
 6488SOL    HW130923   2.066   3.945   5.895 -0.1575 -1.1039 -0.6006
 6488SOL    HW230924   2.163   3.845   5.941 -0.2061 -0.6900 -0.1048
 6489SOL     OW30925   2.687   1.362   3.645  0.4584 -0.1397 -0.3964
 6489SOL    HW130926   2.735   1.379   3.564  0.0950  0.1132 -0.5545
 6489SOL    HW230927   2.758   1.314   3.689 -0.3360  0.6149  1.7014
 6490SOL     OW30928   0.022   2.208  10.079 -0.1515 -0.3366 -0.2429
 6490SOL    HW130929   4.676   2.213  10.150 -0.5547 -1.1855 -0.5572
 6490SOL    HW230930   0.040   2.300  10.060  0.5177 -0.2482  0.8081
 6491SOL     OW30931   0.648   2.455   4.008 -0.3231 -0.2282  0.1458
 6491SOL    HW130932   0.706   2.403   3.953 -0.1120  1.7490 -1.5169
 6491SOL    HW230933   0.589   2.384   4.034 -0.5311 -0.0685  0.1115
 6492SOL     OW30934   2.592   3.296  15.350  0.1820  0.5980 -0.7624
 6492SOL    HW130935   2.605   3.370  15.292 -0.9850 -1.1890 -3.2921
 6492SOL    HW230936   2.611   3.333  15.436  0.7490  0.2608 -0.7363
 6493SOL     OW30937   3.621   0.013   2.568  0.0005  0.1172  0.0820
 6493SOL    HW130938   3.578   0.017   2.482  0.4731  0.6327 -0.1370
 6493SOL    HW230939   3.620   0.106   2.590 -2.3050  0.2696 -0.6976
 6494SOL     OW30940   3.992   1.175   2.826  0.2029 -0.1068 -0.4266
 6494SOL    HW130941   4.022   1.233   2.896  1.1092  0.4564 -1.2786
 6494SOL    HW230942   3.904   1.211   2.820  1.2548  2.6950  1.0266
 6495SOL     OW30943   2.295   1.713   5.909  0.0584  0.2166 -0.0417
 6495SOL    HW130944   2.229   1.644   5.912  0.2629  0.0350  0.3533
 6495SOL    HW230945   2.300   1.740   6.001 -0.5912 -1.1004  0.3715
 6496SOL     OW30946   1.410   2.035   3.101  0.3192  0.3710  0.2667
 6496SOL    HW130947   1.389   2.118   3.058 -0.2155 -0.5400 -1.2494
 6496SOL    HW230948   1.350   1.970   3.064  1.0717 -0.1130 -0.1106
 6497SOL     OW30949   1.069   0.678   1.575  0.6200 -0.3095  0.4868
 6497SOL    HW130950   1.023   0.739   1.518  1.1238  0.1875  0.6127
 6497SOL    HW230951   1.083   0.738   1.649 -2.9639  1.1060  0.0278
 6498SOL     OW30952   2.190   0.304   1.873 -0.0054 -0.5692  0.0004
 6498SOL    HW130953   2.239   0.374   1.916  1.9393 -3.0496  1.7931
 6498SOL    HW230954   2.248   0.274   1.804  1.6105  0.4135  0.9449
 6499SOL     OW30955   2.717   3.895   3.235 -0.3758  0.1020 -0.1086
 6499SOL    HW130956   2.685   3.807   3.218  0.0689 -0.2852  1.0041
 6499SOL    HW230957   2.804   3.883   3.275 -0.0270  0.5620 -0.7362
 6500SOL     OW30958   4.227   2.577   9.877  0.3892 -0.4657 -0.0751
 6500SOL    HW130959   4.150   2.634   9.887  0.4083 -1.1887  4.0986
 6500SOL    HW230960   4.223   2.563   9.782 -1.8892  1.1156 -0.2075
 6501SOL     OW30961   3.053   0.267   5.373  0.4773  0.1101 -0.7342
 6501SOL    HW130962   3.104   0.336   5.330 -1.2365  1.2015 -0.9851
 6501SOL    HW230963   2.970   0.312   5.384  0.0729 -0.3681 -1.8450
 6502SOL     OW30964   1.231   1.099   2.899  0.4650 -0.2721 -0.1689
 6502SOL    HW130965   1.166   1.169   2.895  0.0911 -0.5167  1.5006
 6502SOL    HW230966   1.186   1.019   2.873 -0.1581  0.2554 -0.7300
 6503SOL     OW30967   0.518   2.027  10.545 -0.1132  0.1127  0.4627
 6503SOL    HW130968   0.463   2.073  10.481 -1.5100 -0.9441  0.9011
 6503SOL    HW230969   0.598   2.072  10.519  0.4107 -3.5695 -4.1394
 6504SOL     OW30970   2.902   0.744   2.459  0.2036  0.0162  0.2844
 6504SOL    HW130971   2.815   0.708   2.443  0.1435  1.0087 -1.6571
 6504SOL    HW230972   2.926   0.708   2.544 -0.8842 -1.1219  0.1082
 6505SOL     OW30973   2.156   4.144   7.993  0.1157  0.4129 -0.0289
 6505SOL    HW130974   2.071   4.186   7.979  0.4476  0.4940 -1.7387
 6505SOL    HW230975   2.204   4.134   7.911 -0.8663 -0.3401 -0.5108
 6506SOL     OW30976   2.085   2.565   7.211 -0.4416  0.3520  0.6000
 6506SOL    HW130977   1.990   2.553   7.214 -0.5604  0.9300 -1.0587
 6506SOL    HW230978   2.119   2.482   7.176  1.8082  1.4370  0.1774
 6507SOL     OW30979   3.643   3.211   6.803  0.3897 -0.1277 -0.2250
 6507SOL    HW130980   3.619   3.239   6.714  2.1647  4.2134  0.6391
 6507SOL    HW230981   3.607   3.123   6.795 -1.3233  0.6651 -1.3150
 6508SOL     OW30982   0.845   1.828   4.143  0.2968  0.5082 -0.2831
 6508SOL    HW130983   0.939   1.807   4.143 -0.3110 -2.2051 -0.9323
 6508SOL    HW230984   0.818   1.787   4.225  1.3791 -0.6312 -0.5012
 6509SOL     OW30985   3.104   3.293  11.298 -0.1119 -0.7130 -0.1255
 6509SOL    HW130986   3.115   3.219  11.357 -1.0620  0.6503  1.7822
 6509SOL    HW230987   3.168   3.357  11.330 -0.1206 -0.6620 -0.2103
 6510SOL     OW30988   4.023   2.319   8.092  0.4133 -0.3494 -0.0041
 6510SOL    HW130989   4.086   2.391   8.102 -0.5298  0.1183  2.5267
 6510SOL    HW230990   3.962   2.364   8.034 -1.3666 -0.3154  1.9101
 6511SOL     OW30991   2.573   0.381  11.260  0.1444 -0.4705 -0.3271
 6511SOL    HW130992   2.647   0.325  11.285  1.5737  0.6216 -2.1090
 6511SOL    HW230993   2.520   0.326  11.202 -0.8448 -0.0816  0.2118
 6512SOL     OW30994   1.887   0.050   4.405 -0.1421  0.4872  0.1984
 6512SOL    HW130995   1.868   0.023   4.495  2.8180 -0.6627  0.4728
 6512SOL    HW230996   1.801   0.030   4.366  0.0579  1.1835 -0.5924
 6513SOL     OW30997   1.083   0.707   8.478  0.0794 -0.1391  0.1916
 6513SOL    HW130998   1.041   0.771   8.536 -1.0814 -0.9551  0.2583
 6513SOL    HW230999   1.161   0.749   8.443 -2.9630  4.2806 -1.1893
 6514SOL     OW31000   3.872   0.693   9.656 -0.2634  0.7761  0.0797
 6514SOL    HW131001   3.941   0.636   9.623  0.0088  2.4740 -2.3095
 6514SOL    HW231002   3.844   0.732   9.573  0.5685 -2.1015 -1.5327
 6515SOL     OW31003   3.444   3.868   6.258 -0.4668  0.0974 -0.6538
 6515SOL    HW131004   3.517   3.926   6.281  1.2755 -2.2322 -0.2568
 6515SOL    HW231005   3.406   3.912   6.182 -1.3546 -0.6004 -0.6076
 6516SOL     OW31006   3.355   1.688   4.591 -0.3693  0.3031  0.3511
 6516SOL    HW131007   3.366   1.623   4.522 -3.6360  0.3272 -0.2205
 6516SOL    HW231008   3.335   1.767   4.541  0.2340 -1.0749 -2.0306
 6517SOL     OW31009   4.121   3.683   4.203  0.0155 -0.1822  0.1594
 6517SOL    HW131010   4.062   3.609   4.191  0.6040 -0.9719  2.1931
 6517SOL    HW231011   4.067   3.762   4.189  0.0965 -0.7182 -3.0723
 6518SOL     OW31012   0.640   2.566   1.656 -0.4568  0.1233  0.9302
 6518SOL    HW131013   0.635   2.654   1.692  1.1541 -0.3333  2.2530
 6518SOL    HW231014   0.670   2.499   1.718 -0.3081 -1.5890 -0.9627
 6519SOL     OW31015   2.645   3.747   1.104  0.7744 -0.0657 -0.1368
 6519SOL    HW131016   2.599   3.800   1.039 -1.8232 -1.0458  0.8970
 6519SOL    HW231017   2.609   3.769   1.189 -1.8418 -0.4844 -1.1293
 6520SOL     OW31018   4.073   3.989  11.549 -0.0426  0.3235  0.8300
 6520SOL    HW131019   4.090   4.078  11.520 -2.1425  0.3245 -0.4127
 6520SOL    HW231020   4.152   3.970  11.600  0.8250 -0.2181 -0.7220
 6521SOL     OW31021   4.641   0.736   3.994  0.1332  0.1846 -0.3849
 6521SOL    HW131022   4.574   0.714   4.059  1.9199  0.3419  1.5299
 6521SOL    HW231023   4.620   0.672   3.926  2.6847  0.3287 -1.3136
 6522SOL     OW31024   2.507   0.632   6.285 -0.3693 -0.0530 -0.3408
 6522SOL    HW131025   2.462   0.643   6.368  0.8850 -1.8449  0.5646
 6522SOL    HW231026   2.446   0.570   6.245 -1.7523 -0.0795  1.8166
 6523SOL     OW31027   2.240   4.349   3.738  0.6458 -0.4513 -0.2084
 6523SOL    HW131028   2.227   4.409   3.812  0.1354 -3.1288  1.8613
 6523SOL    HW231029   2.295   4.279   3.774  1.3510  1.0676  1.6869
 6524SOL     OW31030   2.475   3.742   4.103  0.2444 -0.4879  0.6155
 6524SOL    HW131031   2.389   3.717   4.071  0.7266 -1.1890 -0.1191
 6524SOL    HW231032   2.526   3.730   4.023  1.3603  0.5275  1.1724
 6525SOL     OW31033   2.440   1.529  13.081  0.0647  0.0342 -0.5523
 6525SOL    HW131034   2.484   1.566  13.005  2.7005 -0.3062  0.7871
 6525SOL    HW231035   2.349   1.510  13.057  0.1907 -1.2591 -0.0242
 6526SOL     OW31036   0.396   2.618   7.672 -0.0574  0.6398 -0.2001
 6526SOL    HW131037   0.394   2.608   7.577 -0.2402  0.0089 -0.1330
 6526SOL    HW231038   0.356   2.703   7.688 -0.9546  0.0683  0.6037
 6527SOL     OW31039   4.379   3.236   4.133 -0.1019  0.2566 -0.1594
 6527SOL    HW131040   4.348   3.312   4.083 -2.0195  0.6015  1.5167
 6527SOL    HW231041   4.352   3.167   4.073 -0.4794 -0.8255  1.2540
 6528SOL     OW31042   2.942   3.221  16.988 -0.1795  0.5953 -0.8088
 6528SOL    HW131043   2.896   3.289  17.039 -2.8371 -0.8489 -1.3184
 6528SOL    HW231044   3.029   3.235  17.025 -0.8495  0.1272  0.9755
 6529SOL     OW31045   3.814   4.695   7.349  0.1697 -0.5049 -0.2801
 6529SOL    HW131046   3.821   4.712   7.443  0.4181 -0.2972 -0.3382
 6529SOL    HW231047   3.829   0.064   7.315  0.5819  0.3459  2.1146
 6530SOL     OW31048   3.972   3.116   4.281  1.0702 -0.2903  0.9173
 6530SOL    HW131049   3.996   3.120   4.188 -2.3426  1.7753  0.1171
 6530SOL    HW231050   4.057   3.091   4.317  2.6257  0.5381 -2.1799
 6531SOL     OW31051   0.838   3.725   5.720  0.5906  0.1516  0.1583
 6531SOL    HW131052   0.906   3.791   5.732  0.7366  0.2885 -1.4868
 6531SOL    HW231053   0.841   3.678   5.803  0.2509  1.4069  0.8850
 6532SOL     OW31054   3.943   3.906  10.349  0.7731  0.1567  0.4331
 6532SOL    HW131055   3.958   3.864  10.434 -1.4214  1.1869  1.3597
 6532SOL    HW231056   3.895   3.986  10.373  3.3771  0.9686  2.8998
 6533SOL     OW31057   3.437   4.132   4.228 -0.7753  0.4069  0.4331
 6533SOL    HW131058   3.366   4.117   4.165  0.6238  2.1337 -1.5805
 6533SOL    HW231059   3.505   4.081   4.184  0.2120 -0.3434  2.8262
 6534SOL     OW31060   4.259   2.208   6.296 -0.7182  0.4429 -0.7748
 6534SOL    HW131061   4.195   2.264   6.252 -2.0712 -0.5165 -0.0070
 6534SOL    HW231062   4.245   2.121   6.259 -0.2602  0.4436 -0.9566
 6535SOL     OW31063   3.912   2.322   0.984  0.2052 -0.7669  0.1080
 6535SOL    HW131064   4.005   2.347   0.978  0.7023 -2.5480  0.5303
 6535SOL    HW231065   3.901   2.326   1.079  3.1700 -1.8900  0.5186
 6536SOL     OW31066   3.873   0.467   6.040  0.2539  0.4919 -0.5092
 6536SOL    HW131067   3.896   0.381   6.076  2.8351  1.0821 -0.7119
 6536SOL    HW231068   3.956   0.514   6.051 -0.4308  1.8354 -1.1386
 6537SOL     OW31069   1.177   0.678   3.512 -0.1406  0.0935 -0.2770
 6537SOL    HW131070   1.189   0.746   3.578 -0.3289  1.0271 -1.2072
 6537SOL    HW231071   1.142   0.721   3.434  2.4121 -0.4519 -1.7428
 6538SOL     OW31072   2.843   3.917   4.700 -0.0982  0.6159  0.1810
 6538SOL    HW131073   2.938   3.906   4.696 -0.4436 -2.1175 -0.8822
 6538SOL    HW231074   2.828   3.954   4.613  1.3125  1.8275  0.4453
 6539SOL     OW31075   3.858   2.772   1.894 -0.0115 -0.2274  0.7669
 6539SOL    HW131076   3.908   2.695   1.923 -0.6766 -0.4726  1.2573
 6539SOL    HW231077   3.768   2.751   1.916 -0.2776  0.0727 -0.0527
 6540SOL     OW31078   0.987   1.031   8.334 -0.0372  0.1469 -0.7458
 6540SOL    HW131079   0.930   0.967   8.291 -0.1141 -0.4964  0.3017
 6540SOL    HW231080   1.034   1.060   8.256 -0.5184 -1.0733 -1.4944
 6541SOL     OW31081   0.264   2.641   6.583  0.1582 -0.4831  0.1571
 6541SOL    HW131082   0.289   2.572   6.644  0.7113 -0.1972  0.2529
 6541SOL    HW231083   0.179   2.606   6.557 -0.1298 -0.1290  0.6338
 6542SOL     OW31084   4.696   2.594   4.652  1.2088 -0.3615  0.3246
 6542SOL    HW131085   0.032   2.671   4.640  1.4188 -0.2346  2.1251
 6542SOL    HW231086   4.699   2.541   4.572 -0.9002  0.1438 -0.0972
 6543SOL     OW31087   1.898   4.196   2.208  0.0376 -0.0585 -0.0676
 6543SOL    HW131088   1.806   4.223   2.198 -0.9155 -3.1667  0.2921
 6543SOL    HW231089   1.914   4.202   2.302 -1.1089 -0.9022  0.1788
 6544SOL     OW31090   2.180   1.609   0.471  0.0150 -0.2493 -0.4179
 6544SOL    HW131091   2.087   1.595   0.452 -0.6537  1.7063  1.3228
 6544SOL    HW231092   2.216   1.531   0.430  2.1739  0.5935 -0.1500
 6545SOL     OW31093   0.013   0.699  10.769 -0.1533  0.1651  0.0497
 6545SOL    HW131094   0.103   0.729  10.785 -0.6566  1.6160  0.2179
 6545SOL    HW231095   4.680   0.763  10.819 -0.7313  0.3538 -0.7915
 6546SOL     OW31096   4.665   1.825  11.625  0.3188  0.2209  0.5072
 6546SOL    HW131097   4.574   1.833  11.655 -0.0878 -1.9418 -0.1329
 6546SOL    HW231098   4.697   1.740  11.654 -2.9749 -1.3661 -0.4874
 6547SOL     OW31099   4.599   4.439   8.440  0.0502 -0.4144 -0.3292
 6547SOL    HW131100   4.577   4.362   8.492 -0.8559  1.7960  2.5648
 6547SOL    HW231101   4.593   4.504   8.510  0.5127 -0.5188 -0.1910
 6548SOL     OW31102   1.924   1.672   3.808 -0.5940 -0.1249  0.2987
 6548SOL    HW131103   1.901   1.752   3.761  2.2067  1.2016  1.1890
 6548SOL    HW231104   1.839   1.628   3.812 -0.1071 -1.0540  0.3827
 6549SOL     OW31105   1.864   1.831   5.578  0.0019  0.3326  0.5674
 6549SOL    HW131106   1.855   1.884   5.657  1.4154  1.7848 -0.2468
 6549SOL    HW231107   1.818   1.890   5.518 -0.2610  1.1004  1.5292
 6550SOL     OW31108   1.867   1.497   3.380 -0.6722  0.1314 -0.1403
 6550SOL    HW131109   1.927   1.565   3.408  0.8239 -1.3333  0.1975
 6550SOL    HW231110   1.921   1.424   3.410  0.8578  1.6598  0.8271
 6551SOL     OW31111   1.388   1.375  13.435 -0.1801  0.4268 -0.1461
 6551SOL    HW131112   1.418   1.320  13.507  0.3647  2.7172  1.3815
 6551SOL    HW231113   1.385   1.313  13.363  1.0036  2.0615 -1.5862
 6552SOL     OW31114   2.405   1.838  13.023  0.0611  0.1173  0.0876
 6552SOL    HW131115   2.477   1.895  12.995 -0.5707  0.5928 -0.5367
 6552SOL    HW231116   2.418   1.764  12.965 -0.7775  0.8596 -1.0300
 6553SOL     OW31117   1.610   1.463   3.448 -0.1305  0.1603  0.3134
 6553SOL    HW131118   1.698   1.489   3.419  1.2079 -3.1894  1.4115
 6553SOL    HW231119   1.634   1.425   3.532 -0.6082 -4.3204 -1.5715
 6554SOL     OW31120   4.201   3.192   2.300  1.0833 -0.0407 -0.2285
 6554SOL    HW131121   4.177   3.213   2.209 -0.5827 -1.7370 -0.1762
 6554SOL    HW231122   4.211   3.281   2.335 -0.5172 -0.3948  1.1120
 6555SOL     OW31123   3.365   1.281   7.773 -0.5174  0.5841 -0.3713
 6555SOL    HW131124   3.354   1.354   7.712  0.9915  0.8639 -0.3212
 6555SOL    HW231125   3.403   1.325   7.849 -0.6924  2.1372 -1.1840
 6556SOL     OW31126   2.910   2.880   7.971  0.4310 -0.1388 -0.3147
 6556SOL    HW131127   2.886   2.855   8.060 -2.7405  0.8429 -0.8742
 6556SOL    HW231128   2.829   2.919   7.936 -0.1684 -0.4712  0.7177
 6557SOL     OW31129   4.714   3.282   4.456 -0.0598 -0.1240  0.5549
 6557SOL    HW131130   0.029   3.362   4.416 -0.8957  0.1589  0.4007
 6557SOL    HW231131   4.684   3.245   4.373  1.5513 -0.4098  0.1072
 6558SOL     OW31132   3.807   4.318   6.389 -0.2943 -0.0788  0.0179
 6558SOL    HW131133   3.854   4.401   6.390 -0.2923 -0.0804  0.1844
 6558SOL    HW231134   3.792   4.318   6.484 -1.4569 -1.5826 -0.1634
 6559SOL     OW31135   4.393   4.240   5.752 -0.0349 -0.0853  0.1453
 6559SOL    HW131136   4.357   4.165   5.704  0.2019 -0.9188  1.2618
 6559SOL    HW231137   4.485   4.219   5.738 -0.1793  0.5209 -1.7259
 6560SOL     OW31138   3.447   2.202  13.694 -0.1114  0.6075 -0.6018
 6560SOL    HW131139   3.419   2.291  13.672  0.4206  0.5848 -1.3787
 6560SOL    HW231140   3.519   2.218  13.756 -1.2273 -2.2044  1.4095
 6561SOL     OW31141   4.401   3.686  11.192 -0.7540 -0.1714 -0.4381
 6561SOL    HW131142   4.334   3.617  11.192 -0.2394 -0.6931  1.0427
 6561SOL    HW231143   4.480   3.638  11.166 -0.0961 -0.0573  1.3405
 6562SOL     OW31144   1.293   3.754   5.341 -0.0387 -0.0635  0.3582
 6562SOL    HW131145   1.252   3.741   5.427 -0.3905 -0.5175  0.1239
 6562SOL    HW231146   1.353   3.680   5.347 -0.9443 -0.9242 -1.2176
 6563SOL     OW31147   4.706   3.271   8.237 -0.1536 -0.0360 -0.2648
 6563SOL    HW131148   0.036   3.201   8.194  1.8796  0.1938  1.6826
 6563SOL    HW231149   4.621   3.245   8.203 -0.0620 -0.0057 -0.5146
 6564SOL     OW31150   0.918   4.476   3.724 -0.0722  0.0794  0.4323
 6564SOL    HW131151   0.855   4.540   3.691  2.2022  0.9809 -2.1447
 6564SOL    HW231152   0.896   4.501   3.814  0.5813  1.4843  0.1996
 6565SOL     OW31153   2.551   2.144  17.294  0.0360 -0.6470 -0.2163
 6565SOL    HW131154   2.554   2.057  17.333 -0.4871 -0.6067 -0.0765
 6565SOL    HW231155   2.613   2.190  17.350 -0.2740 -2.3107  1.5077
 6566SOL     OW31156   3.885   3.341   1.888 -0.4129  0.7412 -0.2463
 6566SOL    HW131157   3.791   3.353   1.877 -0.5405  0.9680  1.1049
 6566SOL    HW231158   3.897   3.349   1.983 -2.2948 -2.0264  0.1975
 6567SOL     OW31159   3.937   1.206  10.877  0.0848 -0.2029  0.1928
 6567SOL    HW131160   3.931   1.182  10.970  2.9355 -1.0575  0.1642
 6567SOL    HW231161   4.005   1.273  10.866 -1.5008  1.3090 -0.3027
 6568SOL     OW31162   3.610   0.631   9.748  0.5924  0.6954  0.3722
 6568SOL    HW131163   3.599   0.708   9.806 -0.6685  1.3581 -0.7364
 6568SOL    HW231164   3.694   0.655   9.709  0.2905 -0.2780 -0.8710
 6569SOL     OW31165   2.388   1.194   4.095  0.2969  0.2012  0.4817
 6569SOL    HW131166   2.370   1.229   4.182 -1.9714 -2.7675  1.2413
 6569SOL    HW231167   2.465   1.245   4.072 -0.5582  1.4940  0.5023
 6570SOL     OW31168   1.266   4.481  15.853 -0.0490  0.3421  0.2359
 6570SOL    HW131169   1.249   4.538  15.778 -0.6502 -0.0207  0.1003
 6570SOL    HW231170   1.337   4.427  15.817 -0.5486 -0.8866  1.1087
 6571SOL     OW31171   1.306   4.342  14.903  0.0040 -0.1107 -0.9286
 6571SOL    HW131172   1.281   4.251  14.917  2.8273 -0.8050 -0.5282
 6571SOL    HW231173   1.343   4.331  14.816 -0.3394 -0.3972 -1.0397
 6572SOL     OW31174   1.755   0.594  10.162 -0.1944  0.8702 -0.0399
 6572SOL    HW131175   1.663   0.615  10.146 -0.6382 -1.7658 -0.9709
 6572SOL    HW231176   1.784   0.544  10.086  1.3728  0.4178  0.8541
 6573SOL     OW31177   1.852   4.371  13.221 -0.5418 -0.4568 -0.1357
 6573SOL    HW131178   1.867   4.428  13.296 -0.0228  0.4199 -0.9080
 6573SOL    HW231179   1.894   4.422  13.152  1.1940  1.9110  2.6407
 6574SOL     OW31180   4.365   3.424   6.106 -0.4777  0.3785 -0.2760
 6574SOL    HW131181   4.298   3.484   6.073 -0.3688  1.4994  1.5853
 6574SOL    HW231182   4.304   3.362   6.147  1.4196 -0.2016  1.6238
 6575SOL     OW31183   2.641   1.020   3.291  0.5491 -0.0009 -0.5318
 6575SOL    HW131184   2.597   0.991   3.371 -1.4533  1.7303 -0.9925
 6575SOL    HW231185   2.563   1.071   3.270  0.4952 -0.1473 -0.6859
 6576SOL     OW31186   1.394   0.172   1.681 -0.1269 -0.3842  0.3986
 6576SOL    HW131187   1.411   0.224   1.603  0.2847 -0.7366  0.2525
 6576SOL    HW231188   1.330   0.224   1.729 -1.2071 -1.0406 -0.3146
 6577SOL     OW31189   3.037   4.212  15.118  0.3619 -0.1773 -0.2591
 6577SOL    HW131190   3.124   4.229  15.082  1.2043  0.7645  2.1694
 6577SOL    HW231191   3.024   4.286  15.178  3.4989 -0.2517  0.5624
 6578SOL     OW31192   0.785   1.554   4.020 -0.2183 -0.3051  0.1157
 6578SOL    HW131193   0.851   1.545   4.089 -2.3122 -2.3283  1.8299
 6578SOL    HW231194   0.831   1.615   3.962  0.5690  0.5000  1.5700
 6579SOL     OW31195   3.235   2.629   7.815 -0.0639 -0.3022  0.3714
 6579SOL    HW131196   3.304   2.622   7.881 -0.4798 -2.1552  0.6281
 6579SOL    HW231197   3.175   2.569   7.860  0.6695 -0.4908  1.1128
 6580SOL     OW31198   4.717   3.098   5.449  0.3425  0.0568 -0.1397
 6580SOL    HW131199   4.640   3.045   5.470  0.5577 -1.2202 -2.6003
 6580SOL    HW231200   0.019   3.128   5.537  3.1111 -0.1273 -0.7387
 6581SOL     OW31201   0.026   3.131   6.865  0.7253  0.5176  0.4423
 6581SOL    HW131202   0.063   3.215   6.836  1.6289 -0.8431 -2.3587
 6581SOL    HW231203   0.102   3.094   6.909  1.0243 -0.2607 -0.7178
 6582SOL     OW31204   1.877   1.321  14.294 -0.4960  0.0286  0.2828
 6582SOL    HW131205   1.945   1.323  14.362 -0.4033  1.9545  0.1260
 6582SOL    HW231206   1.799   1.344  14.344 -0.9926 -2.0186  0.4667
 6583SOL     OW31207   3.709   0.630   0.489 -0.0038  0.1291  0.2572
 6583SOL    HW131208   3.699   0.554   0.433 -0.3322  0.2509  0.1516
 6583SOL    HW231209   3.621   0.667   0.497 -0.0986  0.2132 -1.1566
 6584SOL     OW31210   0.407   0.718   0.047 -0.1529  0.3329 -0.0478
 6584SOL    HW131211   0.333   0.771   0.018 -0.6108 -0.7678 -0.8788
 6584SOL    HW231212   0.360   0.639   0.074  0.9783  0.6098  2.7354
 6585SOL     OW31213   3.422   3.747   8.023  0.7010 -0.2490 -0.6329
 6585SOL    HW131214   3.466   3.830   8.038  0.8926 -0.1853 -1.5656
 6585SOL    HW231215   3.355   3.760   8.091  1.8350  1.8361  0.0994
 6586SOL     OW31216   2.459   0.636   2.239  0.1056  0.2788 -0.3097
 6586SOL    HW131217   2.446   0.731   2.231  0.5986  0.3698 -0.0453
 6586SOL    HW231218   2.552   0.631   2.219  0.2054  2.3437 -0.3599
 6587SOL     OW31219   4.184   0.574  16.810 -0.7665  0.1259 -0.0825
 6587SOL    HW131220   4.193   0.493  16.760 -0.8006 -0.8064  1.4233
 6587SOL    HW231221   4.089   0.587  16.810 -0.7596  0.2127  2.1380
 6588SOL     OW31222   4.006   0.538   9.887 -0.0535 -0.6071 -0.1477
 6588SOL    HW131223   4.004   0.443   9.873 -0.0696 -0.2880 -2.3294
 6588SOL    HW231224   3.924   0.559   9.843  0.3768 -0.7443 -1.0106
 6589SOL     OW31225   1.479   0.245   7.207 -0.1053  0.2233 -0.0215
 6589SOL    HW131226   1.390   0.280   7.212 -0.5886 -0.8190 -1.2081
 6589SOL    HW231227   1.457   0.160   7.245 -0.9313  0.4350 -0.0214
 6590SOL     OW31228   3.037   3.023   3.542  0.4329 -0.4739  0.5146
 6590SOL    HW131229   3.005   3.031   3.632  4.6242 -1.1973  2.0858
 6590SOL    HW231230   2.972   3.077   3.496  0.1832 -2.1518 -1.1316
 6591SOL     OW31231   3.554   4.517   5.967  0.2702  0.7763 -0.5185
 6591SOL    HW131232   3.458   4.518   5.971  0.3731 -0.3582  2.0527
 6591SOL    HW231233   3.567   4.518   5.872 -1.7949 -0.1304 -0.8192
 6592SOL     OW31234   1.894   2.348  17.645  0.2565 -0.4374 -0.2669
 6592SOL    HW131235   1.958   2.415  17.620 -2.0920  1.3895 -1.4033
 6592SOL    HW231236   1.854   2.393   0.041  1.1862  0.0723 -0.0855
 6593SOL     OW31237   0.981   0.939   3.328 -0.1940  0.4209 -0.6728
 6593SOL    HW131238   0.971   0.997   3.253  0.7676 -0.0206 -1.1389
 6593SOL    HW231239   1.076   0.925   3.326 -0.0679  1.4470 -1.6717
 6594SOL     OW31240   4.396   4.004   7.503 -0.4862 -0.2259 -0.0708
 6594SOL    HW131241   4.399   3.915   7.467 -1.9407  0.1401 -1.1012
 6594SOL    HW231242   4.312   4.011   7.549 -0.2530  0.0490  0.3150
 6595SOL     OW31243   0.619   1.279   5.898  0.1228  0.7055  0.3587
 6595SOL    HW131244   0.613   1.195   5.944 -0.8983  1.0944  0.9352
 6595SOL    HW231245   0.682   1.267   5.828 -0.9711  0.4836 -0.5841
 6596SOL     OW31246   4.455   0.303   4.818  0.9439 -0.1152 -0.3342
 6596SOL    HW131247   4.408   0.226   4.784 -0.2039  0.3462  0.1929
 6596SOL    HW231248   4.388   0.368   4.795 -0.2202 -1.5283 -0.9722
 6597SOL     OW31249   3.999   4.631   9.614  0.1370 -0.0196 -0.1835
 6597SOL    HW131250   4.008   4.638   9.518 -0.5207 -1.7061 -0.3652
 6597SOL    HW231251   4.071   4.685   9.647  0.0038  0.2458 -0.3201
 6598SOL     OW31252   0.026   4.664   6.875  0.1053 -0.5053  0.1534
 6598SOL    HW131253   4.651   4.665   6.889  0.0313  1.9450 -0.6263
 6598SOL    HW231254   0.050   4.592   6.934 -0.9751  0.2958  1.5555
 6599SOL     OW31255   3.608   4.299   9.834  0.0760  0.0208  0.7275
 6599SOL    HW131256   3.699   4.330   9.834  0.5807 -1.4633  0.6055
 6599SOL    HW231257   3.590   4.348   9.754 -1.9129 -0.0795  1.1242
 6600SOL     OW31258   4.156   1.935   4.388 -0.7375 -0.3733  0.3751
 6600SOL    HW131259   4.240   1.931   4.434 -0.7470  0.3038  0.4511
 6600SOL    HW231260   4.162   1.877   4.312  1.1389  0.8611 -0.4437
 6601SOL     OW31261   2.922   2.203   9.300  0.1135  0.0997 -0.7890
 6601SOL    HW131262   2.850   2.201   9.363 -1.3042 -1.3444 -2.4436
 6601SOL    HW231263   2.880   2.199   9.214  1.1251 -2.9307 -1.1581
 6602SOL     OW31264   3.792   2.793  16.198 -0.0066 -0.1510  0.0576
 6602SOL    HW131265   3.883   2.823  16.194 -0.1175  0.4777  1.8916
 6602SOL    HW231266   3.772   2.762  16.110  1.7055 -1.7107  0.2191
 6603SOL     OW31267   2.162   1.336  17.583 -0.1225 -0.3935 -0.2187
 6603SOL    HW131268   2.123   1.412  17.626 -1.9097 -1.4361  0.0038
 6603SOL    HW231269   2.110   1.267  17.623 -0.9836  0.6459  0.4708
 6604SOL     OW31270   0.800   3.162   9.604 -0.1704  0.1482 -0.2711
 6604SOL    HW131271   0.817   3.160   9.698  1.4198  5.2892 -0.4642
 6604SOL    HW231272   0.707   3.139   9.604 -0.1494  0.0763  0.5593
 6605SOL     OW31273   2.331   1.377   4.323 -0.1852 -0.1212  0.3000
 6605SOL    HW131274   2.391   1.339   4.387 -2.0181 -1.0757  1.4373
 6605SOL    HW231275   2.252   1.382   4.376 -1.0401  1.0603 -1.1093
 6606SOL     OW31276   3.381   2.933   6.350 -0.5137  0.2563  0.0792
 6606SOL    HW131277   3.463   2.896   6.317 -0.5596  1.3536 -1.2422
 6606SOL    HW231278   3.388   3.021   6.313  1.0252 -0.7093 -1.9122
 6607SOL     OW31279   0.063   0.617   4.950  0.3289  0.2220 -0.4596
 6607SOL    HW131280   0.108   0.583   5.027  0.2752  0.7418 -0.1989
 6607SOL    HW231281   0.101   0.704   4.936 -0.5307  0.3483 -1.9918
 6608SOL     OW31282   0.050   3.720   6.589 -0.1844 -0.0954  0.8493
 6608SOL    HW131283   0.127   3.777   6.577  0.6953 -0.6604  3.8834
 6608SOL    HW231284   0.092   3.661   6.652 -1.2695 -3.8617 -2.0109
 6609SOL     OW31285   1.255   2.057  13.799  0.1364 -0.0061  0.0066
 6609SOL    HW131286   1.276   1.998  13.727  0.0854 -0.1861  0.1370
 6609SOL    HW231287   1.310   2.030  13.874 -2.5260  2.1287  2.7275
 6610SOL     OW31288   1.025   3.017   5.256 -0.5836 -0.1144  0.5401
 6610SOL    HW131289   1.003   3.091   5.312  0.7761 -1.1685  2.4792
 6610SOL    HW231290   1.109   3.038   5.215  0.8147 -1.8129  2.5217
 6611SOL     OW31291   4.128   2.586   2.623  0.0892  0.4017 -0.2027
 6611SOL    HW131292   4.159   2.496   2.620 -0.6967  0.1582 -1.3391
 6611SOL    HW231293   4.196   2.631   2.672  0.4657 -2.2004  1.6763
 6612SOL     OW31294   3.059   1.318   5.653 -0.6935  0.1077  0.2794
 6612SOL    HW131295   3.084   1.411   5.661 -0.0742  0.1222 -1.9751
 6612SOL    HW231296   3.136   1.275   5.691 -0.4220 -1.2780 -1.8962
 6613SOL     OW31297   1.083   4.530   5.092 -0.2527 -0.1139  0.6499
 6613SOL    HW131298   0.997   4.505   5.125  0.0852 -0.6577  1.1106
 6613SOL    HW231299   1.136   4.530   5.171  0.4637  3.6378  0.1905
 6614SOL     OW31300   0.023   4.511   5.196  0.1620  0.3683  0.1605
 6614SOL    HW131301   4.695   4.578   5.146 -0.8475 -1.2149 -1.0317
 6614SOL    HW231302   0.092   4.473   5.142 -0.4248  1.5811 -1.4300
 6615SOL     OW31303   4.168   4.626   7.664  0.4996  0.0212  0.2887
 6615SOL    HW131304   4.117   4.666   7.594 -2.2622  0.1042  2.3452
 6615SOL    HW231305   4.210   4.553   7.619  0.7520  1.2228 -1.4284
 6616SOL     OW31306   0.520   2.017   2.175  0.4855 -0.2994  0.2291
 6616SOL    HW131307   0.532   1.945   2.114 -0.5867 -0.4473  0.1823
 6616SOL    HW231308   0.560   2.095   2.137  1.1411 -0.3380  0.8381
 6617SOL     OW31309   0.722   0.780   5.254  0.3528  0.8793  0.3793
 6617SOL    HW131310   0.802   0.791   5.204 -0.8420 -0.0983 -1.7522
 6617SOL    HW231311   0.738   0.689   5.278  0.5214  0.6171 -0.7469
 6618SOL     OW31312   1.022   1.002   3.974 -0.2713 -0.1539 -0.2693
 6618SOL    HW131313   1.112   1.017   4.001 -0.4651 -0.2696  0.4536
 6618SOL    HW231314   1.038   1.004   3.880 -1.6188  0.0621 -0.4921
 6619SOL     OW31315   3.371   4.442  15.378  0.6750  0.8443  0.8445
 6619SOL    HW131316   3.282   4.419  15.403  0.6340  0.1940  0.0785
 6619SOL    HW231317   3.417   4.361  15.358  0.6502  0.5207  2.1173
 6620SOL     OW31318   2.168   2.083   9.067 -0.3836 -0.0917 -0.0321
 6620SOL    HW131319   2.161   1.988   9.063 -1.8666 -0.1255  3.0221
 6620SOL    HW231320   2.074   2.100   9.053 -0.5607 -1.2661 -0.2657
 6621SOL     OW31321   2.725   3.771   5.113 -0.5390  0.3512 -0.1005
 6621SOL    HW131322   2.665   3.825   5.061 -0.7874  0.3045  0.1407
 6621SOL    HW231323   2.798   3.759   5.052 -0.1435  0.1899  0.4077
 6622SOL     OW31324   2.777   1.276   8.728 -0.5871  0.1166  0.3492
 6622SOL    HW131325   2.808   1.275   8.819 -2.1667  2.3008  0.9112
 6622SOL    HW231326   2.693   1.231   8.733 -0.2918 -0.2766  1.7628
 6623SOL     OW31327   1.929   1.477   0.364 -0.4747  0.2186  0.2485
 6623SOL    HW131328   1.873   1.473   0.286 -1.0167 -1.3179  0.7269
 6623SOL    HW231329   1.899   1.401   0.413  1.5538 -0.7093  0.0014
 6624SOL     OW31330   2.326   2.690   8.166  0.0041  0.2098  0.1841
 6624SOL    HW131331   2.246   2.683   8.218 -1.8229  2.0579 -2.3881
 6624SOL    HW231332   2.356   2.600   8.171  2.1393  0.9473  0.8277
 6625SOL     OW31333   3.602   3.811  17.397  0.0350 -0.4231  0.6175
 6625SOL    HW131334   3.539   3.879  17.374  1.7673  1.7262  2.2564
 6625SOL    HW231335   3.681   3.857  17.425 -1.1818  1.2380  1.3138
 6626SOL     OW31336   3.257   3.324   6.673  0.0829  0.2855 -0.2216
 6626SOL    HW131337   3.312   3.395   6.639  1.6706 -0.7430  0.2319
 6626SOL    HW231338   3.232   3.300   6.583 -1.5772  2.0116 -0.2217
 6627SOL     OW31339   4.674   1.176   7.815 -0.5019 -0.2256  0.2751
 6627SOL    HW131340   0.037   1.153   7.770 -1.0716 -0.4775 -0.6329
 6627SOL    HW231341   4.627   1.220   7.745  0.6823  1.1945  0.3841
 6628SOL     OW31342   1.822   4.427   5.134 -0.3412 -0.4510  0.3529
 6628SOL    HW131343   1.805   4.513   5.174 -1.3491 -0.3010 -0.3796
 6628SOL    HW231344   1.731   4.404   5.112  0.3725 -0.8291 -2.1706
 6629SOL     OW31345   1.475   0.405  12.667 -0.3210 -0.2748 -0.4997
 6629SOL    HW131346   1.457   0.351  12.745 -0.1634 -0.2249 -0.4291
 6629SOL    HW231347   1.484   0.341  12.597  0.1800 -0.5692 -0.1697
 6630SOL     OW31348   2.424   3.132  12.087 -0.1061 -0.4163 -0.0361
 6630SOL    HW131349   2.484   3.194  12.128 -0.3192  0.1131 -0.5322
 6630SOL    HW231350   2.348   3.185  12.064 -1.1722 -0.5056  3.2391
 6631SOL     OW31351   0.318   2.580   0.283  0.3358 -1.0410  0.0328
 6631SOL    HW131352   0.333   2.522   0.357  1.8439 -0.5075  0.1441
 6631SOL    HW231353   0.279   2.656   0.327  0.0936 -0.4528 -1.1950
 6632SOL     OW31354   1.428   1.817  16.062  0.3814  0.2265 -0.2368
 6632SOL    HW131355   1.516   1.806  16.026  2.4155  2.7794  3.9635
 6632SOL    HW231356   1.392   1.878  15.997 -1.2683 -1.7312 -1.1492
 6633SOL     OW31357   2.264   3.831   6.738  0.0876 -0.2347 -0.1645
 6633SOL    HW131358   2.184   3.879   6.716 -0.5400 -1.9137 -1.5887
 6633SOL    HW231359   2.245   3.743   6.706 -0.6779  0.7591 -2.4453
 6634SOL     OW31360   0.274   0.918   1.755 -0.8815  0.4313  0.0834
 6634SOL    HW131361   0.270   0.921   1.660 -0.0399 -0.5934  0.0129
 6634SOL    HW231362   0.334   0.845   1.774  0.1991  0.8219 -1.8055
 6635SOL     OW31363   1.233   3.736   2.151 -0.7696  0.2902 -0.4283
 6635SOL    HW131364   1.148   3.777   2.138 -0.0763  1.3621 -1.5804
 6635SOL    HW231365   1.280   3.811   2.189 -1.9385  1.0040 -0.4073
 6636SOL     OW31366   4.288   3.940   3.442  0.2125  0.1369  0.1960
 6636SOL    HW131367   4.250   3.861   3.478  0.7201 -0.3718 -0.3664
 6636SOL    HW231368   4.353   3.972   3.504 -0.7338 -1.8203  2.1867
 6637SOL     OW31369   3.762   0.563  15.753  0.5886 -0.2540 -0.1798
 6637SOL    HW131370   3.750   0.607  15.669 -0.7165  1.4831  0.9234
 6637SOL    HW231371   3.747   0.469  15.740 -0.8771 -0.0490  0.0722
 6638SOL     OW31372   1.265   0.973   2.165  0.5570 -0.0615 -0.6331
 6638SOL    HW131373   1.209   1.029   2.111  0.4180  1.3262  0.9261
 6638SOL    HW231374   1.270   0.899   2.105  3.0068  0.7050 -1.3788
 6639SOL     OW31375   4.458   3.052   9.582 -0.0800 -0.3150  0.6309
 6639SOL    HW131376   4.454   2.959   9.561  1.5061  0.3590 -2.7993
 6639SOL    HW231377   4.412   3.052   9.666  2.3197 -0.0429  1.9426
 6640SOL     OW31378   0.758   1.110   4.785  0.4984  0.3527  0.0869
 6640SOL    HW131379   0.705   1.141   4.859  0.9074 -2.1517  1.4475
 6640SOL    HW231380   0.813   1.187   4.770  1.6851 -0.3630  0.7809
 6641SOL     OW31381   0.453   1.680   0.032  0.8408 -0.1069 -0.1032
 6641SOL    HW131382   0.397   1.626  17.655 -0.6805  0.2037  1.1246
 6641SOL    HW231383   0.540   1.650   0.004  0.7217  1.4002 -2.0269
 6642SOL     OW31384   0.921   2.458   5.674 -0.3170  0.1782  0.0958
 6642SOL    HW131385   0.869   2.377   5.672 -0.4623  0.2352  2.6017
 6642SOL    HW231386   1.001   2.432   5.628  0.2736  1.1779  0.5590
 6643SOL     OW31387   2.944   1.510  10.945  0.1907 -0.1672  0.3155
 6643SOL    HW131388   2.932   1.468  10.860  2.3093  1.6362 -0.8713
 6643SOL    HW231389   2.862   1.558  10.955 -0.7526 -1.7643  0.2580
 6644SOL     OW31390   0.852   3.096  13.473 -0.3424 -0.4371 -0.1278
 6644SOL    HW131391   0.942   3.106  13.441  0.5043  0.2806  2.4671
 6644SOL    HW231392   0.801   3.136  13.402 -1.5133 -1.7643 -0.0265
 6645SOL     OW31393   3.965   0.029   5.486 -0.6318  0.1433 -0.0613
 6645SOL    HW131394   3.960   0.124   5.492  0.6535  0.0237  3.3074
 6645SOL    HW231395   3.995   0.001   5.573 -0.7529 -1.2862 -0.4699
 6646SOL     OW31396   2.298   1.041   2.468  0.3947 -0.9450 -0.2882
 6646SOL    HW131397   2.216   1.030   2.420 -0.3865  0.9984  0.5735
 6646SOL    HW231398   2.359   1.045   2.394  0.7019  0.0798  0.0236
 6647SOL     OW31399   2.397   1.177   7.565  0.0044  0.3853  0.3556
 6647SOL    HW131400   2.411   1.201   7.656  1.7134 -1.9384  0.7214
 6647SOL    HW231401   2.391   1.263   7.524 -1.5352  1.2046  2.3116
 6648SOL     OW31402   1.597   2.067   3.906 -0.2947  0.0764  0.1593
 6648SOL    HW131403   1.569   2.128   3.973  3.6990  1.0136  0.9698
 6648SOL    HW231404   1.692   2.063   3.920 -0.4179 -1.5344  0.5282
 6649SOL     OW31405   0.055   2.847  10.629  0.0003  0.1502 -0.1174
 6649SOL    HW131406   0.018   2.905  10.563 -0.4932  1.3518  1.2007
 6649SOL    HW231407   0.115   2.913  10.664  0.8208 -0.8353  0.3458
 6650SOL     OW31408   0.665   0.490   3.430 -0.2906  0.7301  0.1109
 6650SOL    HW131409   0.589   0.502   3.487  0.3224  1.8841  0.6819
 6650SOL    HW231410   0.665   0.576   3.389  4.1604  0.9480  0.5609
 6651SOL     OW31411   4.393   4.385   6.767  0.0285  0.3706 -0.6338
 6651SOL    HW131412   4.388   4.308   6.710 -0.8381  0.0736 -0.1704
 6651SOL    HW231413   4.303   4.416   6.771 -0.1400 -0.1875 -0.1203
 6652SOL     OW31414   3.414   0.158   0.350  0.7249 -0.2281  0.2321
 6652SOL    HW131415   3.354   0.116   0.411  1.4329 -2.0954 -0.3470
 6652SOL    HW231416   3.434   0.078   0.301 -1.0215 -0.3316 -0.3114
 6653SOL     OW31417   1.126   0.644  12.813 -0.3417  0.0969  0.2698
 6653SOL    HW131418   1.135   0.679  12.902  2.5536  0.0783 -0.0327
 6653SOL    HW231419   1.101   0.553  12.830  0.8724  0.4123  3.8319
 6654SOL     OW31420   2.133   2.176   3.796  0.2453  0.0449 -0.5192
 6654SOL    HW131421   2.180   2.096   3.821  0.7246  1.0468  1.7393
 6654SOL    HW231422   2.180   2.242   3.846 -2.0261  0.1319  1.4582
 6655SOL     OW31423   1.719   1.672   3.216  0.2129  0.5687 -0.0842
 6655SOL    HW131424   1.734   1.612   3.143  0.4008 -0.6735  0.9908
 6655SOL    HW231425   1.779   1.622   3.271 -2.2230 -0.1419  1.9199
 6656SOL     OW31426   0.702   1.865   0.123  0.3347 -0.1487 -0.2365
 6656SOL    HW131427   0.621   1.915   0.122  0.5813  0.2490 -0.2492
 6656SOL    HW231428   0.721   1.881   0.215 -1.2919 -2.6184  0.5370
 6657SOL     OW31429   3.848   3.905   0.915  0.1773 -0.5340 -0.0094
 6657SOL    HW131430   3.942   3.908   0.934  0.0561 -2.2886  0.9124
 6657SOL    HW231431   3.817   3.973   0.974 -0.6566  1.9673 -3.2985
 6658SOL     OW31432   1.525   4.039   4.511  0.0290 -0.1979  0.1790
 6658SOL    HW131433   1.485   4.106   4.567  1.5722 -0.4844  1.6066
 6658SOL    HW231434   1.532   4.095   4.433  1.0767 -0.6270 -0.0338
 6659SOL     OW31435   4.255   0.301   3.651 -0.6296  0.5477 -0.4726
 6659SOL    HW131436   4.263   0.228   3.589 -1.0042 -0.0678  0.2002
 6659SOL    HW231437   4.161   0.319   3.646 -0.9292 -1.0779 -0.9109
 6660SOL     OW31438   3.072   1.026   5.693  0.1184 -0.3556  0.2134
 6660SOL    HW131439   3.073   1.055   5.602 -0.1385  0.0827  0.3508
 6660SOL    HW231440   3.006   0.957   5.685  0.3665 -0.6619  0.7366
 6661SOL     OW31441   1.663   1.902   2.966 -0.2104 -0.3309 -0.4725
 6661SOL    HW131442   1.662   1.822   2.914  1.9870  0.0127 -1.0665
 6661SOL    HW231443   1.598   1.890   3.035  2.5780  1.3052  2.4136
 6662SOL     OW31444   2.954   2.756   4.506 -0.6907  0.2326 -0.1023
 6662SOL    HW131445   3.001   2.722   4.430  1.4715  1.4210  0.7014
 6662SOL    HW231446   3.024   2.758   4.572 -0.4768 -0.0633 -0.3222
 6663SOL     OW31447   2.302   0.163   5.378 -0.0153 -0.2007 -0.6425
 6663SOL    HW131448   2.229   0.102   5.372 -2.1059  2.2382  0.3602
 6663SOL    HW231449   2.256   0.242   5.406 -0.1851  0.3444 -2.4498
 6664SOL     OW31450   3.088   4.508   8.224 -0.0699 -0.4785  0.2870
 6664SOL    HW131451   3.010   4.454   8.208 -1.1097  0.0605  3.6735
 6664SOL    HW231452   3.122   4.461   8.300  1.9922 -0.5978 -0.7115
 6665SOL     OW31453   0.043   0.743   6.525  0.3875 -0.1799  0.3201
 6665SOL    HW131454   0.130   0.706   6.540  0.2459 -0.3665  0.6755
 6665SOL    HW231455   0.053   0.762   6.432  1.6475 -2.4055 -0.0075
 6666SOL     OW31456   0.982   1.824   5.383 -0.4369 -0.2499  0.2731
 6666SOL    HW131457   0.992   1.876   5.463  1.4917 -0.1211 -0.0571
 6666SOL    HW231458   0.889   1.837   5.363 -0.4769 -0.3333  0.4017
 6667SOL     OW31459   3.758   2.344   1.271 -0.0019  0.1983  0.2696
 6667SOL    HW131460   3.771   2.380   1.359  0.0965  1.3091 -0.1942
 6667SOL    HW231461   3.704   2.268   1.293 -0.7349  0.9711  1.0919
 6668SOL     OW31462   0.646   0.354   1.695 -0.3276 -0.3516 -0.5355
 6668SOL    HW131463   0.674   0.305   1.617 -0.7450 -1.6221  0.1179
 6668SOL    HW231464   0.716   0.333   1.755  0.0545  1.6096 -0.2738
 6669SOL     OW31465   0.570   2.593   8.833  0.2693 -0.2305 -0.7292
 6669SOL    HW131466   0.509   2.663   8.812  1.4077  0.3933 -1.9982
 6669SOL    HW231467   0.525   2.533   8.893 -0.1357 -0.2034 -1.0075
 6670SOL     OW31468   1.533   2.403   6.417 -0.6270  0.3041  0.0957
 6670SOL    HW131469   1.583   2.484   6.426 -0.5763  0.4036 -1.1643
 6670SOL    HW231470   1.502   2.401   6.508  2.5984 -1.5659  1.1818
 6671SOL     OW31471   3.422   2.681   3.427 -0.3452 -0.1208 -0.2994
 6671SOL    HW131472   3.419   2.644   3.515 -1.8482 -1.5784 -0.9767
 6671SOL    HW231473   3.492   2.746   3.429  1.2596 -1.9375  1.7837
 6672SOL     OW31474   0.015   0.830   8.445  0.2897 -0.6835 -0.2251
 6672SOL    HW131475   0.085   0.889   8.417  1.2161 -1.0802  1.2943
 6672SOL    HW231476   4.658   0.881   8.475 -0.4644 -1.6165 -0.5673
 6673SOL     OW31477   4.071   2.475  10.318  0.4240 -0.4524  0.0336
 6673SOL    HW131478   3.998   2.537  10.311  1.3362  0.9447  2.5246
 6673SOL    HW231479   4.094   2.441  10.232 -0.0987  0.3102 -0.4147
 6674SOL     OW31480   2.022   0.851   7.163 -0.3610 -0.2233 -0.1515
 6674SOL    HW131481   2.041   0.939   7.129  0.7249 -0.3948  0.0300
 6674SOL    HW231482   1.926   0.847   7.168 -0.4924  3.3608  0.8749
 6675SOL     OW31483   2.534   0.540   3.134 -0.0848 -0.2191 -0.5293
 6675SOL    HW131484   2.467   0.589   3.182 -0.9645 -0.0671 -1.8871
 6675SOL    HW231485   2.564   0.482   3.204 -0.5467  0.3700  0.1627
 6676SOL     OW31486   2.738   2.107   4.948  0.1882  0.3773  0.0406
 6676SOL    HW131487   2.693   2.026   4.971 -1.2025  1.0155 -0.4669
 6676SOL    HW231488   2.667   2.166   4.974 -1.1672 -1.3763  0.2861
 6677SOL     OW31489   0.262   3.576  11.201  0.0978 -0.3435  0.1988
 6677SOL    HW131490   0.284   3.556  11.292 -0.6533 -1.0789  0.2215
 6677SOL    HW231491   0.228   3.664  11.217 -1.0446 -0.5314 -1.2663
 6678SOL     OW31492   1.398   0.169   4.067 -0.0408  0.1521  0.5380
 6678SOL    HW131493   1.432   0.247   4.024 -0.8854 -1.1535 -2.5007
 6678SOL    HW231494   1.473   0.138   4.118  0.6357  0.0619 -0.5263
 6679SOL     OW31495   3.726   3.715   5.592  0.9223  0.0323  0.7303
 6679SOL    HW131496   3.702   3.622   5.589  0.6282  0.1869 -1.5961
 6679SOL    HW231497   3.648   3.753   5.633  1.1917  1.0465  0.3001
 6680SOL     OW31498   0.584   4.292   8.035  0.4192 -0.4521  0.1933
 6680SOL    HW131499   0.676   4.317   8.026  0.7988 -1.8014  0.3392
 6680SOL    HW231500   0.582   4.204   8.073  0.3219 -0.4091  0.2868
 6681SOL     OW31501   1.580   4.612   3.913 -0.1182 -0.2954 -0.2633
 6681SOL    HW131502   1.623   4.688   3.952 -0.7904  0.6334 -1.3354
 6681SOL    HW231503   1.618   4.545   3.969 -0.9736  1.0529  1.9445
 6682SOL     OW31504   1.364   1.071   9.276 -0.4121 -0.1069 -0.1862
 6682SOL    HW131505   1.325   1.032   9.198  1.1086 -2.0685  0.0287
 6682SOL    HW231506   1.370   0.995   9.335  0.0092 -0.2536 -0.4165
 6683SOL     OW31507   0.001   4.663  14.039 -0.3592  0.1688 -0.3343
 6683SOL    HW131508   0.062   4.594  14.014 -0.1420 -0.2286  1.2793
 6683SOL    HW231509   4.686   4.687  13.953  0.1155  1.1294 -0.2493
 6684SOL     OW31510   2.089   3.387   2.367  0.2598  0.0514  0.9270
 6684SOL    HW131511   2.008   3.425   2.330  0.3689 -1.0595 -0.4781
 6684SOL    HW231512   2.152   3.431   2.310 -1.0861  1.5319  0.5727
 6685SOL     OW31513   2.821   2.779   8.256  0.0460 -0.2028  0.0300
 6685SOL    HW131514   2.728   2.790   8.233 -0.2957  1.1319  2.1088
 6685SOL    HW231515   2.818   2.762   8.350 -0.3410 -0.5380 -0.0417
 6686SOL     OW31516   0.847   0.567   7.387 -0.5877  0.9583  0.1450
 6686SOL    HW131517   0.815   0.478   7.398 -0.9211  0.8562 -1.7266
 6686SOL    HW231518   0.942   0.556   7.381 -0.5521  0.6900  1.1567
 6687SOL     OW31519   0.104   4.569  11.466  0.1511 -0.3843  0.6066
 6687SOL    HW131520   0.132   4.477  11.470  1.9334  0.0423 -1.9639
 6687SOL    HW231521   0.027   4.574  11.523  2.2103 -0.2395  3.3893
 6688SOL     OW31522   1.567   4.575   6.545  0.0298  0.4729 -0.3495
 6688SOL    HW131523   1.543   4.611   6.631 -0.6364 -2.3559  0.6582
 6688SOL    HW231524   1.589   4.487   6.575  1.0796 -0.2966 -3.3938
 6689SOL     OW31525   1.776   1.455   5.803 -0.0874 -0.2221 -0.3625
 6689SOL    HW131526   1.699   1.411   5.840  1.7673 -2.6071  0.6371
 6689SOL    HW231527   1.770   1.438   5.709 -2.1657  0.3189 -0.3321
 6690SOL     OW31528   1.189   0.608   2.310 -0.3212  0.8049  0.2727
 6690SOL    HW131529   1.233   0.524   2.322  1.9653  1.5138 -2.9895
 6690SOL    HW231530   1.268   0.662   2.304 -0.1573  0.7291  1.7458
 6691SOL     OW31531   0.473   0.506   3.694 -0.0975 -0.2403  0.3204
 6691SOL    HW131532   0.385   0.491   3.658 -0.4003 -0.1763  1.0387
 6691SOL    HW231533   0.488   0.417   3.724 -0.4644  0.5720  2.9027
 6692SOL     OW31534   4.172   1.353   1.710 -0.4929 -0.6305 -0.1530
 6692SOL    HW131535   4.258   1.356   1.752 -0.3842  0.4840 -0.4608
 6692SOL    HW231536   4.121   1.415   1.762 -1.0179  0.9203 -2.5126
 6693SOL     OW31537   3.449   1.483   5.524  0.0896  0.5834 -0.4717
 6693SOL    HW131538   3.476   1.392   5.541 -0.8991 -0.0045 -2.0784
 6693SOL    HW231539   3.358   1.481   5.553 -0.3396 -0.1757 -1.8673
 6694SOL     OW31540   0.648   4.447   7.359 -0.1551 -0.3530 -0.0741
 6694SOL    HW131541   0.651   4.540   7.336 -3.7250 -0.2234 -0.1505
 6694SOL    HW231542   0.555   4.423   7.360 -0.3282  0.4369  3.3670
 6695SOL     OW31543   3.087   0.729   8.549 -0.3138 -0.3661  0.2750
 6695SOL    HW131544   2.993   0.741   8.540 -0.6615 -3.9491 -0.7497
 6695SOL    HW231545   3.096   0.732   8.644  0.9467  0.9073  0.1178
 6696SOL     OW31546   2.267   2.515  15.789 -1.1094 -0.2921  0.2421
 6696SOL    HW131547   2.251   2.442  15.849 -0.3903 -0.3694  0.3356
 6696SOL    HW231548   2.243   2.594  15.838 -1.4064 -0.8278  0.9459
 6697SOL     OW31549   3.292   4.593   4.091 -0.2718  0.7088  0.7104
 6697SOL    HW131550   3.297   4.545   4.174 -1.0278 -0.0043  0.3419
 6697SOL    HW231551   3.210   4.557   4.057  1.2924 -1.6611 -0.5646
 6698SOL     OW31552   2.052   0.963   7.956  0.0450  0.0131 -0.4743
 6698SOL    HW131553   2.034   0.869   7.950 -1.6811  0.3226 -0.3561
 6698SOL    HW231554   2.147   0.971   7.961  0.0831 -0.0075 -1.2187
 6699SOL     OW31555   2.532   4.382   2.370  0.6153  0.3533  0.3505
 6699SOL    HW131556   2.616   4.424   2.387  1.1942 -0.5767 -0.2652
 6699SOL    HW231557   2.473   4.457   2.360  1.0213  0.5723 -0.4045
 6700SOL     OW31558   2.493   4.620   6.591 -0.3108 -0.1435  0.1011
 6700SOL    HW131559   2.399   4.604   6.604 -0.4538  0.7435  0.1805
 6700SOL    HW231560   2.488   4.715   6.603 -2.1246 -0.0663 -1.1261
 6701SOL     OW31561   2.223   1.100   1.304 -0.0895  0.6968 -0.1741
 6701SOL    HW131562   2.228   1.011   1.339 -0.7942 -0.0082 -1.8319
 6701SOL    HW231563   2.128   1.110   1.305 -0.3642 -2.0293  1.3508
 6702SOL     OW31564   1.351   1.601   7.552  0.4943 -0.0423 -0.2767
 6702SOL    HW131565   1.409   1.542   7.599  0.9228  0.4767 -0.1623
 6702SOL    HW231566   1.288   1.544   7.507 -0.5642  0.7311  0.2259
 6703SOL     OW31567   4.269   0.442   4.663 -0.1019  0.6409  0.1623
 6703SOL    HW131568   4.329   0.433   4.589  1.1068 -1.2956  1.3683
 6703SOL    HW231569   4.193   0.393   4.629 -1.5508  1.0110  2.8283
 6704SOL     OW31570   0.192   1.159  10.460  0.6344 -0.4471  0.6647
 6704SOL    HW131571   0.148   1.132  10.541 -1.6561  0.9512 -0.1264
 6704SOL    HW231572   0.264   1.214  10.492 -0.8567  0.9706  1.5746
 6705SOL     OW31573   2.523   1.808   2.180  0.3166 -0.7743  0.3534
 6705SOL    HW131574   2.471   1.748   2.126  1.2982  0.6896 -2.2426
 6705SOL    HW231575   2.499   1.895   2.148 -2.2139 -1.7749 -0.4671
 6706SOL     OW31576   2.921   0.414   5.797 -0.3789  0.1528 -0.1848
 6706SOL    HW131577   2.920   0.330   5.843  1.8514  0.8020  1.0334
 6706SOL    HW231578   3.015   0.431   5.790 -0.3681  0.1338 -0.0850
 6707SOL     OW31579   1.989   1.296   4.152  0.4236 -0.6187 -0.2545
 6707SOL    HW131580   1.985   1.381   4.107  2.3497 -0.7114 -0.6107
 6707SOL    HW231581   1.935   1.315   4.229 -1.3249 -1.9855 -1.1718
 6708SOL     OW31582   3.345   3.747   0.378  0.1320 -0.4227  0.1892
 6708SOL    HW131583   3.316   3.742   0.287 -1.5838  0.2375  0.7020
 6708SOL    HW231584   3.404   3.823   0.378  4.2815 -3.6780  0.3012
 6709SOL     OW31585   1.016   3.448   6.941 -0.3259  0.4294 -0.0879
 6709SOL    HW131586   0.974   3.388   6.879  0.2822 -0.6764  0.5686
 6709SOL    HW231587   0.956   3.523   6.941 -0.9245 -0.0493  0.2905
 6710SOL     OW31588   3.694   1.089   3.477 -0.1830  0.1688 -0.0283
 6710SOL    HW131589   3.708   1.031   3.402  1.7220 -0.7927  1.0731
 6710SOL    HW231590   3.643   1.162   3.444 -0.1115  0.0277 -0.4542
 6711SOL     OW31591   3.821   3.651   7.784  0.2324  0.4143 -1.0246
 6711SOL    HW131592   3.895   3.650   7.723  0.5362  0.5907 -0.6562
 6711SOL    HW231593   3.762   3.590   7.740  2.0911 -2.6940  0.8149
 6712SOL     OW31594   2.454   4.579   8.340 -0.1276  0.0160 -0.1196
 6712SOL    HW131595   2.431   4.552   8.252  0.0546 -2.0626  0.4556
 6712SOL    HW231596   2.543   4.612   8.327  0.6539 -1.9504  0.1023
 6713SOL     OW31597   3.007   0.514   4.531 -0.2807  0.2418  0.2505
 6713SOL    HW131598   2.923   0.472   4.516 -0.3338  0.4277  0.0243
 6713SOL    HW231599   3.007   0.570   4.453 -0.2966  2.2337  1.6597
 6714SOL     OW31600   3.310   3.425   8.199  0.2384  0.1457  0.3030
 6714SOL    HW131601   3.215   3.436   8.209  0.2002  0.5213 -0.4181
 6714SOL    HW231602   3.323   3.365   8.126 -1.7637  0.3175 -0.2112
 6715SOL     OW31603   0.203   4.629  12.073 -0.2346 -0.2351  0.2697
 6715SOL    HW131604   0.228   4.698  12.012  1.6227 -2.8112 -1.8704
 6715SOL    HW231605   0.167   4.566  12.011 -3.7031  1.2290  0.8084
 6716SOL     OW31606   0.005   0.993   8.038 -0.3300 -0.0618 -0.2322
 6716SOL    HW131607   0.004   1.049   7.960 -1.8596  0.8038  0.3999
 6716SOL    HW231608   4.676   0.920   7.999 -2.1909  1.2059 -0.3096
 6717SOL     OW31609   3.319   3.238   8.808  0.0280  0.9236 -0.6361
 6717SOL    HW131610   3.401   3.194   8.785 -0.7148 -0.7907  0.0064
 6717SOL    HW231611   3.351   3.279   8.888 -0.5446 -0.0362  0.1004
 6718SOL     OW31612   0.796   2.244  10.682  0.3080 -0.1118 -0.0624
 6718SOL    HW131613   0.773   2.337  10.692 -1.3647 -0.4516 -0.7342
 6718SOL    HW231614   0.770   2.220  10.593 -1.0924 -0.2587  0.3877
 6719SOL     OW31615   1.814   2.725   8.821  0.6432 -0.5249  0.1839
 6719SOL    HW131616   1.775   2.754   8.738  1.9217  1.6743  0.3624
 6719SOL    HW231617   1.810   2.629   8.812  0.1974 -0.5825  0.9678
 6720SOL     OW31618   4.552   2.870   3.851  0.5042 -0.0575  0.0031
 6720SOL    HW131619   4.569   2.782   3.883  0.6713 -0.4850 -1.2832
 6720SOL    HW231620   4.541   2.921   3.931 -0.5792 -1.9427  1.0361
 6721SOL     OW31621   2.578   3.904  17.349  0.1038 -0.2561  0.0401
 6721SOL    HW131622   2.629   3.952  17.284 -0.7965  0.6925  0.0191
 6721SOL    HW231623   2.576   3.814  17.317  1.4791  0.6474 -2.5102
 6722SOL     OW31624   2.605   3.932   0.849  0.7093  0.2329 -0.1086
 6722SOL    HW131625   2.566   3.847   0.825 -1.1081  1.5818 -1.9078
 6722SOL    HW231626   2.585   3.987   0.773 -0.5046  2.0083  1.4989
 6723SOL     OW31627   3.557   0.364   1.721  0.5507 -0.0165 -1.2585
 6723SOL    HW131628   3.648   0.370   1.693  0.5885  2.4788 -0.6167
 6723SOL    HW231629   3.544   0.298   1.653  1.2724  1.6256 -2.9823
 6724SOL     OW31630   2.110   1.245  15.993  0.1920 -0.5022  0.0843
 6724SOL    HW131631   2.117   1.333  15.957 -0.3329  0.3799  2.2037
 6724SOL    HW231632   2.092   1.270  16.083 -2.9592 -0.4540 -0.5693
 6725SOL     OW31633   4.581   2.790   4.433  0.0590 -0.4197  0.0270
 6725SOL    HW131634   4.615   2.760   4.349 -0.4454  0.6578 -0.5594
 6725SOL    HW231635   4.591   2.885   4.423 -2.4558 -0.0066  1.4227
 6726SOL     OW31636   4.602   0.564  12.531 -0.0673 -0.1146  0.4144
 6726SOL    HW131637   4.509   0.553  12.550 -0.2784 -1.4286 -1.3872
 6726SOL    HW231638   4.622   0.636  12.590  3.5485 -0.6051 -0.2216
 6727SOL     OW31639   0.485   1.345   9.616 -0.3458  0.1313 -0.0263
 6727SOL    HW131640   0.569   1.378   9.585  1.0756 -1.4309  2.2148
 6727SOL    HW231641   0.439   1.350   9.532  2.4308 -0.2659 -1.5664
 6728SOL     OW31642   0.549   2.324   2.380  0.1815 -0.4496  0.7320
 6728SOL    HW131643   0.593   2.247   2.417 -1.2695 -2.4218 -1.6072
 6728SOL    HW231644   0.628   2.367   2.347 -0.4640 -0.9426 -1.4150
 6729SOL     OW31645   3.473   4.366  16.877 -0.0693 -0.1990  0.0755
 6729SOL    HW131646   3.528   4.441  16.855  1.1581 -0.3757  2.6072
 6729SOL    HW231647   3.527   4.297  16.841  0.8359  1.1260 -1.1251
 6730SOL     OW31648   4.677   0.378   4.561  0.0215 -0.1373 -0.6863
 6730SOL    HW131649   4.590   0.370   4.521 -1.1543  0.2040  1.8260
 6730SOL    HW231650   4.685   0.295   4.608  0.3475  0.2098 -0.1319
 6731SOL     OW31651   1.873   3.418   6.985 -0.5275 -0.3890 -0.2024
 6731SOL    HW131652   1.832   3.489   6.936  1.0995  1.0441  0.4995
 6731SOL    HW231653   1.804   3.391   7.045 -2.0991  1.6548 -1.0900
 6732SOL     OW31654   2.468   0.815   2.520 -0.2224 -0.0197 -0.0702
 6732SOL    HW131655   2.532   0.885   2.504 -0.2302  0.1873  0.7872
 6732SOL    HW231656   2.404   0.858   2.462 -0.3805  0.5864  0.5559
 6733SOL     OW31657   0.577   1.740  17.110 -0.6040  0.6476 -0.4343
 6733SOL    HW131658   0.550   1.713  17.198 -0.5209  2.4457  0.1514
 6733SOL    HW231659   0.623   1.658  17.090 -1.4254 -0.2798  1.4799
 6734SOL     OW31660   3.701   3.554   5.921 -0.1126  0.0402 -0.0505
 6734SOL    HW131661   3.690   3.646   5.896  0.9242 -0.0446 -0.7770
 6734SOL    HW231662   3.654   3.520   5.845 -1.2251  0.4892  0.4359
 6735SOL     OW31663   3.773   2.301  12.441  0.0890  0.2304 -0.2339
 6735SOL    HW131664   3.725   2.374  12.402  1.0156  0.4462 -0.9656
 6735SOL    HW231665   3.713   2.228  12.423 -1.5905  1.3755  0.8427
 6736SOL     OW31666   3.594   0.507   7.143 -0.0987  0.2287  0.1740
 6736SOL    HW131667   3.675   0.545   7.109 -1.4706  0.9189 -2.2135
 6736SOL    HW231668   3.613   0.490   7.236  1.6189  0.6775 -0.0849
 6737SOL     OW31669   0.031   3.326  13.644 -0.3961 -0.2537 -0.2137
 6737SOL    HW131670   0.125   3.337  13.625 -0.4177 -0.9917 -0.7504
 6737SOL    HW231671   0.016   3.266  13.571  1.5499 -0.9624 -0.0345
 6738SOL     OW31672   0.333   2.858   5.550  0.2283 -0.1880 -0.6331
 6738SOL    HW131673   0.284   2.788   5.505 -0.4032  0.2155 -0.5627
 6738SOL    HW231674   0.401   2.815   5.602 -1.1251 -1.6866 -0.1129
 6739SOL     OW31675   0.660   3.215   5.703 -0.1877 -0.0960  0.0610
 6739SOL    HW131676   0.700   3.271   5.635  0.1255 -0.8761 -0.4014
 6739SOL    HW231677   0.658   3.131   5.657  0.0421 -0.2592  0.3505
 6740SOL     OW31678   4.477   3.147   3.251 -0.1744 -0.3925  0.1000
 6740SOL    HW131679   4.411   3.118   3.314 -1.0125 -0.7290 -0.9239
 6740SOL    HW231680   4.546   3.173   3.312  0.6070 -0.1851 -0.8791
 6741SOL     OW31681   2.553   3.582   4.368 -0.1613 -0.1561  0.3747
 6741SOL    HW131682   2.601   3.665   4.362 -2.5197  1.2745  1.0237
 6741SOL    HW231683   2.530   3.565   4.277 -2.4329  0.1116  0.8830
 6742SOL     OW31684   2.058   0.096   9.568  0.6261 -0.8916  0.7523
 6742SOL    HW131685   2.126   0.031   9.551 -0.5574 -2.2086  1.0923
 6742SOL    HW231686   2.014   0.108   9.484  1.8492  0.6448  0.3121
 6743SOL     OW31687   2.618   4.066   8.452  0.3733 -0.1859 -0.1483
 6743SOL    HW131688   2.586   4.056   8.362 -3.0422  0.2771  1.0058
 6743SOL    HW231689   2.597   3.985   8.498  2.3496 -1.6553 -1.8437
 6744SOL     OW31690   0.219   2.188   0.289  0.1155  0.2350  0.0104
 6744SOL    HW131691   0.177   2.176   0.374 -1.6172 -0.7017 -0.9787
 6744SOL    HW231692   0.290   2.248   0.311  1.3640 -0.2953 -2.5629
 6745SOL     OW31693   3.874   0.306   0.529 -0.0184 -0.5334 -0.2549
 6745SOL    HW131694   3.802   0.259   0.570 -1.4163  0.0384 -2.0757
 6745SOL    HW231695   3.868   0.392   0.570 -0.1601 -0.0115 -1.3601
 6746SOL     OW31696   3.699   0.500   6.420 -0.3101 -0.1501 -0.0905
 6746SOL    HW131697   3.748   0.418   6.434  1.3469  0.7180 -0.7830
 6746SOL    HW231698   3.710   0.529   6.511 -0.5793  0.4018 -0.2336
 6747SOL     OW31699   1.944   1.343   3.649  0.0459 -0.5227 -0.1720
 6747SOL    HW131700   1.965   1.322   3.740 -2.0538  1.2194  0.6967
 6747SOL    HW231701   2.014   1.408   3.640  0.2449 -0.4805  1.6788
 6748SOL     OW31702   2.868   4.571   4.991 -0.0188 -0.1938  0.6016
 6748SOL    HW131703   2.804   4.580   5.061  1.5574  0.0803  2.0053
 6748SOL    HW231704   2.831   4.493   4.949  1.3608 -0.7439  0.4254
 6749SOL     OW31705   2.258   1.104   8.566 -0.1663 -0.0214  0.2425
 6749SOL    HW131706   2.237   1.187   8.522  1.0712 -0.1917 -0.6704
 6749SOL    HW231707   2.176   1.095   8.614 -0.1983 -0.9045  0.0257
 6750SOL     OW31708   2.116   0.842   6.136 -0.0281  0.0040 -0.0878
 6750SOL    HW131709   2.101   0.805   6.223 -0.6476 -0.3867 -0.3561
 6750SOL    HW231710   2.110   0.761   6.085  1.3941  0.1293 -0.4458
 6751SOL     OW31711   2.932   0.945  13.870 -0.2943  0.7600 -0.3682
 6751SOL    HW131712   2.927   0.931  13.965 -0.9907 -2.0429 -0.8340
 6751SOL    HW231713   2.902   0.859  13.841  0.4969 -1.1347  4.4084
 6752SOL     OW31714   0.705   0.740   1.764  0.1175  0.3472  0.1925
 6752SOL    HW131715   0.760   0.817   1.752  3.1600 -2.0504 -1.0937
 6752SOL    HW231716   0.748   0.700   1.839  0.1149 -0.5832 -0.2969
 6753SOL     OW31717   3.494   3.729   5.370  0.2285 -0.0224 -0.0218
 6753SOL    HW131718   3.505   3.702   5.278  0.0443  2.8108 -0.8654
 6753SOL    HW231719   3.412   3.693   5.403  0.0783 -1.5624 -2.0761
 6754SOL     OW31720   1.122   2.320   5.449 -0.4547 -0.1375 -0.2536
 6754SOL    HW131721   1.108   2.278   5.534 -0.3674  1.1464  0.3884
 6754SOL    HW231722   1.201   2.270   5.426 -1.7283 -1.7568 -1.1035
 6755SOL     OW31723   4.511   2.528   2.050 -0.2654  0.3629  0.1987
 6755SOL    HW131724   4.560   2.455   2.015 -1.6312 -0.4841  0.0409
 6755SOL    HW231725   4.535   2.533   2.142 -0.8075 -2.0110  0.4721
 6756SOL     OW31726   0.194   3.316  11.062 -0.4992  0.1258  0.0361
 6756SOL    HW131727   0.099   3.314  11.051 -0.3386  0.0651 -1.2846
 6756SOL    HW231728   0.201   3.224  11.089  0.0098 -0.3814 -1.8135
 6757SOL     OW31729   4.702   1.881   2.801  0.1698 -0.8189  0.7127
 6757SOL    HW131730   4.653   1.950   2.845  1.1356  0.7373 -0.6428
 6757SOL    HW231731   4.655   1.869   2.719  0.4380 -0.7159  0.5436
 6758SOL     OW31732   4.097   3.788  14.611 -0.2166  0.7111  0.6224
 6758SOL    HW131733   4.055   3.720  14.558  0.7469  0.3509  0.3106
 6758SOL    HW231734   4.155   3.730  14.661 -0.2377  0.6880  0.6200
 6759SOL     OW31735   3.627   0.237   1.413 -0.1007 -1.0172 -0.2862
 6759SOL    HW131736   3.657   0.260   1.325 -0.6451 -2.1868 -0.7724
 6759SOL    HW231737   3.551   0.293   1.423  0.6649  0.1146 -0.8410
 6760SOL     OW31738   2.129   3.066   1.892  0.4222 -0.4234  0.5491
 6760SOL    HW131739   2.223   3.063   1.911  0.5188 -1.2260 -0.0367
 6760SOL    HW231740   2.108   3.152   1.929 -1.1164 -0.3121 -0.6165
 6761SOL     OW31741   2.768   2.213   8.251 -0.0183 -0.3940  0.3535
 6761SOL    HW131742   2.781   2.282   8.315 -0.9747 -2.9562  3.2909
 6761SOL    HW231743   2.715   2.244   8.178  0.3635 -1.3490 -0.3348
 6762SOL     OW31744   3.649   3.456   5.418  0.3448 -0.1836  0.0549
 6762SOL    HW131745   3.573   3.507   5.391  0.5290  0.3402  0.5446
 6762SOL    HW231746   3.658   3.383   5.356 -2.8142 -1.9519  1.7185
 6763SOL     OW31747   4.274   3.602   4.988  0.6231 -0.9633 -0.1346
 6763SOL    HW131748   4.231   3.653   5.057 -0.9469 -0.6027 -1.3813
 6763SOL    HW231749   4.226   3.520   4.998 -1.8870  0.5256  0.0462
 6764SOL     OW31750   1.814   2.345   7.395 -0.2104 -0.0965  0.2402
 6764SOL    HW131751   1.895   2.391   7.420 -2.1204  3.5563 -0.3010
 6764SOL    HW231752   1.798   2.372   7.305  1.4036  1.6880  0.4835
 6765SOL     OW31753   3.514   0.473   6.178 -0.5116 -0.2100  0.2341
 6765SOL    HW131754   3.592   0.472   6.234 -1.2590 -5.0957  1.1683
 6765SOL    HW231755   3.440   0.503   6.230 -1.3939 -1.1593 -0.4876
 6766SOL     OW31756   1.695   3.301  14.735  0.3680  0.3513 -0.1818
 6766SOL    HW131757   1.614   3.279  14.689  0.7716 -0.0239 -0.7118
 6766SOL    HW231758   1.673   3.357  14.809 -0.7322 -2.0662  1.3283
 6767SOL     OW31759   0.280   2.829   0.412  0.3085 -0.2948  0.2357
 6767SOL    HW131760   0.289   2.832   0.507 -0.6483 -0.6749  0.3414
 6767SOL    HW231761   0.347   2.894   0.391 -1.2052  2.1552  2.9988
 6768SOL     OW31762   3.224   3.977   2.351  0.3098  0.1065  0.2089
 6768SOL    HW131763   3.152   3.936   2.399 -1.3281 -0.0656 -2.4270
 6768SOL    HW231764   3.180   3.983   2.267 -1.5905 -0.8391  1.1520
 6769SOL     OW31765   1.218   0.479   8.567 -0.5336 -0.2293  0.3187
 6769SOL    HW131766   1.177   0.566   8.572 -1.6966 -0.8216  1.1299
 6769SOL    HW231767   1.200   0.443   8.654  4.5543 -0.7447  1.1097
 6770SOL     OW31768   2.442   0.334   7.427  0.0927 -0.0513 -0.1550
 6770SOL    HW131769   2.406   0.413   7.385 -0.9741 -0.0462  0.7666
 6770SOL    HW231770   2.532   0.350   7.399  0.2608  1.2847  1.1796
 6771SOL     OW31771   4.534   4.143   2.414  0.3292  0.1466 -0.0902
 6771SOL    HW131772   4.452   4.190   2.397  0.9166  0.3145 -2.4742
 6771SOL    HW231773   4.523   4.144   2.509  2.8411  2.6633  0.1590
 6772SOL     OW31774   1.359   0.158   6.270 -0.2280  0.5521 -0.1212
 6772SOL    HW131775   1.341   0.159   6.176  1.5220 -2.7214 -0.5042
 6772SOL    HW231776   1.434   0.099   6.274  0.4919  1.5556  1.2726
 6773SOL     OW31777   1.102   1.850   3.706 -0.1597 -0.0769  0.2497
 6773SOL    HW131778   1.114   1.773   3.651 -2.2916 -1.1142  1.2694
 6773SOL    HW231779   1.102   1.921   3.642 -1.9318 -0.4209 -0.1308
 6774SOL     OW31780   2.296   0.653  14.234 -0.3876 -0.1449  0.3977
 6774SOL    HW131781   2.356   0.580  14.219  2.7610  2.2751  1.2867
 6774SOL    HW231782   2.281   0.683  14.144 -2.1584 -1.0984  0.3773
 6775SOL     OW31783   1.596   2.059   8.472 -0.7258 -0.8324 -0.2392
 6775SOL    HW131784   1.523   2.084   8.530  1.1176  0.2738  1.6010
 6775SOL    HW231785   1.619   2.147   8.442 -0.3289 -1.0177 -0.4802
 6776SOL     OW31786   0.982   1.769   8.957  0.5659  0.1568  0.1729
 6776SOL    HW131787   0.981   1.719   9.038 -0.1521  0.5828  0.4265
 6776SOL    HW231788   0.923   1.715   8.904  1.7206  0.3227 -1.2625
 6777SOL     OW31789   3.722   2.103   6.378 -0.3284  0.2488 -0.7048
 6777SOL    HW131790   3.805   2.066   6.349 -0.5134 -1.2659  0.7543
 6777SOL    HW231791   3.750   2.191   6.405  0.5457  0.2479 -1.6215
 6778SOL     OW31792   2.711   3.043   6.028  0.0755  0.5024  0.0641
 6778SOL    HW131793   2.741   2.960   6.065  0.3797 -0.4691 -2.3585
 6778SOL    HW231794   2.621   3.026   6.000 -0.0109  0.7602  0.1846
 6779SOL     OW31795   0.962   2.272   8.789  0.0884  0.0281 -0.3661
 6779SOL    HW131796   0.902   2.342   8.815 -1.0689 -0.9729 -0.3185
 6779SOL    HW231797   1.035   2.313   8.743 -0.6394  0.4427 -1.1582
 6780SOL     OW31798   0.507   3.065  13.877  0.3524 -0.4912  0.4494
 6780SOL    HW131799   0.454   3.121  13.820  0.6149  0.9454  1.6444
 6780SOL    HW231800   0.589   3.059  13.828 -1.5474 -1.4775 -2.6214
 6781SOL     OW31801   0.331   0.416  14.453  0.1932 -0.4444 -0.0474
 6781SOL    HW131802   0.317   0.409  14.359 -2.0852 -0.5832  0.3142
 6781SOL    HW231803   0.403   0.479  14.452  0.5707 -0.8392  1.7905
 6782SOL     OW31804   4.454   2.450  17.587 -0.5422  0.8136 -0.1270
 6782SOL    HW131805   4.475   2.541  17.606  0.4288 -0.1633  3.5160
 6782SOL    HW231806   4.491   2.450  17.499 -0.4005  0.4913 -0.0678
 6783SOL     OW31807   3.613   2.669   1.912  0.0861 -0.1868  0.1183
 6783SOL    HW131808   3.637   2.618   1.834 -2.1420  0.8935 -1.2604
 6783SOL    HW231809   3.522   2.643   1.925  0.8028 -2.6404  0.2057
 6784SOL     OW31810   1.789   2.717   4.051  0.7518 -0.0109 -0.1167
 6784SOL    HW131811   1.718   2.747   3.994  1.2008 -1.1274 -1.3000
 6784SOL    HW231812   1.848   2.702   3.976  0.3752 -1.7285 -0.0775
 6785SOL     OW31813   0.098   1.828  11.364 -0.6423 -0.1773  0.2968
 6785SOL    HW131814   0.174   1.880  11.338 -2.7788  2.7163 -0.2072
 6785SOL    HW231815   0.070   1.869  11.445  0.3104  0.0592  0.5119
 6786SOL     OW31816   0.460   0.318   4.162  0.0120 -0.0139  0.4524
 6786SOL    HW131817   0.375   0.277   4.144  0.1366 -0.3919  0.7141
 6786SOL    HW231818   0.492   0.265   4.236  0.2485 -0.5829 -0.0572
 6787SOL     OW31819   2.945   2.795   6.833  0.1451 -0.4153  0.3891
 6787SOL    HW131820   3.039   2.797   6.849  0.8349  0.3182 -3.5728
 6787SOL    HW231821   2.951   2.740   6.754  0.2274  0.1600 -0.0077
 6788SOL     OW31822   3.628   0.235   7.079  0.0588  0.0686  0.0390
 6788SOL    HW131823   3.625   0.182   7.159  2.9367 -0.2018 -0.0413
 6788SOL    HW231824   3.605   0.322   7.113  0.7559 -0.0029  0.7180
 6789SOL     OW31825   4.093   2.578   0.956  0.2503  0.4184 -0.3995
 6789SOL    HW131826   4.083   2.609   1.046 -0.3052 -0.2390 -0.2327
 6789SOL    HW231827   4.007   2.600   0.922 -0.3990 -1.1148  0.2290
 6790SOL     OW31828   1.380   2.774   0.144 -0.3448 -0.0586 -0.0993
 6790SOL    HW131829   1.430   2.813   0.216 -0.0822  0.5880 -0.6384
 6790SOL    HW231830   1.329   2.705   0.186 -0.1036  0.3833  0.9158
 6791SOL     OW31831   2.742   4.500   3.512  0.7188  0.0945  0.0495
 6791SOL    HW131832   2.774   4.564   3.447  0.1048  1.1545  0.7871
 6791SOL    HW231833   2.660   4.537   3.544  1.8231  1.3498  1.4521
 6792SOL     OW31834   0.710   2.513  14.488 -0.1688  0.2884  0.5904
 6792SOL    HW131835   0.718   2.603  14.458 -1.1981  0.0761 -0.3289
 6792SOL    HW231836   0.653   2.484  14.416 -1.3993  0.7513  1.3736
 6793SOL     OW31837   1.586   2.205  16.060  1.0008  0.0433  0.3915
 6793SOL    HW131838   1.491   2.213  16.066  0.9775  0.8985 -0.9999
 6793SOL    HW231839   1.596   2.198  16.155 -0.3486 -0.7196  0.4692
 6794SOL     OW31840   1.711   2.446   2.324  0.1658  0.3008  0.2728
 6794SOL    HW131841   1.695   2.364   2.276  0.9106  0.9469 -1.0827
 6794SOL    HW231842   1.640   2.455   2.388  0.9002  1.3052  0.9333
 6795SOL     OW31843   3.472   1.254   6.343 -0.3561 -0.4117  0.1875
 6795SOL    HW131844   3.452   1.173   6.391  0.5658 -0.0265  1.2244
 6795SOL    HW231845   3.422   1.315   6.396  0.2017  0.2594 -0.0645
 6796SOL     OW31846   2.851   4.119   3.198 -0.3082 -0.2852 -0.0510
 6796SOL    HW131847   2.783   4.054   3.213  2.9041 -3.5675  0.3180
 6796SOL    HW231848   2.799   4.195   3.223  2.4384  1.2719  0.9297
 6797SOL     OW31849   1.481   1.696   3.372  0.3725 -0.3697 -0.1432
 6797SOL    HW131850   1.514   1.618   3.417  2.1584 -0.7613 -2.1728
 6797SOL    HW231851   1.555   1.717   3.316  0.8390 -0.1703  0.5437
 6798SOL     OW31852   2.475   4.669  11.020 -0.2283 -0.0795 -0.1536
 6798SOL    HW131853   2.506   4.683  10.930  1.2517 -2.7071 -0.0430
 6798SOL    HW231854   2.417   0.025  11.035  0.8650  0.8820 -0.7242
 6799SOL     OW31855   4.140   4.189   1.344 -0.0491 -0.7503 -0.3558
 6799SOL    HW131856   4.233   4.213   1.348  0.4213 -2.3345 -1.8688
 6799SOL    HW231857   4.153   4.097   1.321 -1.1621 -1.4624  1.8400
 6800SOL     OW31858   2.956   1.021   1.560  0.4945 -0.2966  0.4244
 6800SOL    HW131859   2.960   1.008   1.655  1.1315 -1.6808  0.2037
 6800SOL    HW231860   2.935   0.931   1.534 -0.0225 -0.2386  0.6308
 6801SOL     OW31861   0.365   1.522  12.116 -0.3668  0.5024 -0.2339
 6801SOL    HW131862   0.392   1.503  12.206  0.3000 -1.6197 -0.8631
 6801SOL    HW231863   0.295   1.587  12.115 -0.9091 -0.0995 -1.0819
 6802SOL     OW31864   0.821   4.587   7.843  0.2467  0.6511 -0.3238
 6802SOL    HW131865   0.792   4.673   7.872  1.5735  0.2939  2.0418
 6802SOL    HW231866   0.756   4.566   7.777  0.7520 -0.9543 -0.3053
 6803SOL     OW31867   3.279   4.108  14.762 -0.7765 -1.0569 -0.5154
 6803SOL    HW131868   3.246   4.193  14.790 -0.9096 -0.7060 -1.7218
 6803SOL    HW231869   3.291   4.129  14.670  0.7691  2.0472  0.4153
 6804SOL     OW31870   3.088   3.965   4.455 -0.2700  0.0402 -0.4717
 6804SOL    HW131871   3.084   3.878   4.415 -4.4413 -0.0774  0.1956
 6804SOL    HW231872   2.996   3.980   4.436 -1.0654 -2.1799  1.7412
 6805SOL     OW31873   0.373   1.935   2.594 -0.5380  0.0316  0.0700
 6805SOL    HW131874   0.326   1.996   2.536 -0.6522 -0.4190 -0.3122
 6805SOL    HW231875   0.324   1.855   2.577  0.7270 -0.6653 -0.3292
 6806SOL     OW31876   1.798   1.903   8.454  0.2333 -0.3722 -0.3809
 6806SOL    HW131877   1.749   1.823   8.473  0.8712 -0.0751  2.5166
 6806SOL    HW231878   1.736   1.972   8.480 -1.7208 -2.3579  0.1941
 6807SOL     OW31879   3.839   3.409  10.600 -0.1598  0.0011  0.4077
 6807SOL    HW131880   3.760   3.451  10.632 -0.6551  0.1848 -1.0407
 6807SOL    HW231881   3.810   3.373  10.516 -0.7615 -0.0316  0.6289
 6808SOL     OW31882   2.134   2.229  10.387 -0.1600  0.0025 -0.6009
 6808SOL    HW131883   2.201   2.279  10.340  0.1786 -0.4975 -0.6634
 6808SOL    HW231884   2.089   2.182  10.317  0.5467  0.5549 -1.4224
 6809SOL     OW31885   2.528   1.441  11.760  0.1548  0.3854 -0.5049
 6809SOL    HW131886   2.613   1.433  11.803  0.2830  0.1151 -0.8119
 6809SOL    HW231887   2.517   1.535  11.747 -1.2136  0.2061 -0.6052
 6810SOL     OW31888   0.023   4.222   4.652  0.3771 -0.0532 -0.1131
 6810SOL    HW131889   4.670   4.276   4.685 -0.7672 -2.1389  0.7673
 6810SOL    HW231890   0.012   4.143   4.705 -2.0911 -3.0672 -5.1156
 6811SOL     OW31891   0.871   1.274  16.346  0.2499  0.0082 -0.0849
 6811SOL    HW131892   0.857   1.189  16.387  0.1769 -0.8338 -1.8687
 6811SOL    HW231893   0.923   1.265  16.266  0.8991  1.0503  0.2258
 6812SOL     OW31894   3.479   4.681   6.989 -0.2093  0.3792 -0.5183
 6812SOL    HW131895   3.480   0.025   7.060  0.8220  2.3471 -2.2685
 6812SOL    HW231896   3.391   4.645   6.991  0.0858 -0.2677  1.1063
 6813SOL     OW31897   4.158   3.748   2.528  0.5994 -0.5438  0.0048
 6813SOL    HW131898   4.114   3.721   2.447  2.4795 -0.5950 -0.9979
 6813SOL    HW231899   4.091   3.713   2.587  1.2876 -1.5880  0.1775
 6814SOL     OW31900   3.377   0.796   3.884 -0.3337 -0.2349 -0.4472
 6814SOL    HW131901   3.415   0.710   3.867 -0.3673 -0.7993  2.3456
 6814SOL    HW231902   3.310   0.801   3.816  0.5723 -1.3143 -1.3989
 6815SOL     OW31903   1.683   1.375   3.698  0.1375  1.0060 -0.4473
 6815SOL    HW131904   1.771   1.372   3.661 -0.1779  2.2835 -1.3073
 6815SOL    HW231905   1.694   1.410   3.786 -0.4235  0.9523 -0.3527
 6816SOL     OW31906   0.742   0.689   2.386  0.2896  0.0507 -0.2724
 6816SOL    HW131907   0.707   0.655   2.469  1.9772 -0.9908  0.0376
 6816SOL    HW231908   0.808   0.622   2.366  0.5704 -0.3987  2.1159
 6817SOL     OW31909   2.009   2.145   4.167  0.0740  0.0171 -0.0818
 6817SOL    HW131910   2.082   2.116   4.223 -1.2827  0.6499  2.0349
 6817SOL    HW231911   2.003   2.237   4.196  0.0928  0.0412 -0.1545
 6818SOL     OW31912   3.760   0.444  10.012 -0.6347  0.5746 -0.2703
 6818SOL    HW131913   3.670   0.433  10.042 -0.8128  2.7886 -0.0084
 6818SOL    HW231914   3.808   0.369  10.048 -1.7395  0.2756  0.5809
 6819SOL     OW31915   3.932   1.157   5.333  0.3027  0.1474  0.4221
 6819SOL    HW131916   3.896   1.199   5.254  2.2802  0.5453 -0.2595
 6819SOL    HW231917   3.866   1.091   5.355  0.3618 -0.0988 -0.1346
 6820SOL     OW31918   3.757   2.933   9.082  0.1156 -0.0997 -0.2282
 6820SOL    HW131919   3.705   2.853   9.083  1.9464 -1.2892  1.2104
 6820SOL    HW231920   3.808   2.922   9.162 -0.0345  1.3749  0.0641
 6821SOL     OW31921   0.800   3.576   2.675  0.6778 -0.3257 -0.2046
 6821SOL    HW131922   0.862   3.649   2.685  1.1931 -0.9736  1.4062
 6821SOL    HW231923   0.715   3.615   2.695  1.4026  1.3534 -0.3335
 6822SOL     OW31924   1.471   3.084   9.878  0.5328  0.2392  0.7430
 6822SOL    HW131925   1.476   3.019   9.808  1.4050 -0.8112  1.7753
 6822SOL    HW231926   1.512   3.162   9.839  0.1244 -0.2175 -0.5950
 6823SOL     OW31927   3.906   1.139   8.649  0.0540  0.4151  1.0709
 6823SOL    HW131928   3.967   1.175   8.585  1.6102 -2.6059  0.8356
 6823SOL    HW231929   3.932   1.192   8.725  0.0391 -0.8950  1.9868
 6824SOL     OW31930   3.636   4.533   5.010  0.1695  0.4769 -0.5108
 6824SOL    HW131931   3.638   4.475   4.934 -1.9187  0.0208 -0.2255
 6824SOL    HW231932   3.606   4.471   5.077 -0.7129  1.0985 -0.3415
 6825SOL     OW31933   1.992   1.920   8.015 -0.5130  0.3623 -0.1335
 6825SOL    HW131934   1.940   1.840   8.006 -0.4367  0.2306  0.5971
 6825SOL    HW231935   1.925   1.960   8.071 -0.8465 -1.1295  0.5248
 6826SOL     OW31936   3.103   0.296   6.563  0.3770 -0.1873 -0.4053
 6826SOL    HW131937   3.174   0.232   6.575 -1.9747 -3.0322 -1.9164
 6826SOL    HW231938   3.054   0.287   6.645  1.5957 -0.3412  0.3123
 6827SOL     OW31939   2.375   3.949  15.611  0.3715  0.1699  0.0095
 6827SOL    HW131940   2.469   3.949  15.626 -0.0181  1.1857  2.4946
 6827SOL    HW231941   2.341   3.873  15.658  1.1104  0.4773  1.0236
 6828SOL     OW31942   1.168   3.800  14.988  0.1490 -0.0661 -0.1406
 6828SOL    HW131943   1.170   3.812  15.083  2.8257 -0.1724 -0.1718
 6828SOL    HW231944   1.240   3.739  14.969  1.2530  1.1721  0.0343
 6829SOL     OW31945   4.680   0.700   7.591 -0.0926  0.1539 -0.3998
 6829SOL    HW131946   4.681   0.612   7.553 -0.2366 -0.8429  1.9122
 6829SOL    HW231947   0.013   0.753   7.531  0.7116 -0.4064 -0.1974
 6830SOL     OW31948   3.707   1.768  13.380 -0.2505  0.8973 -0.4092
 6830SOL    HW131949   3.800   1.786  13.390  0.0443 -0.3541 -0.9760
 6830SOL    HW231950   3.694   1.791  13.288  0.1972 -0.9845 -0.9331
 6831SOL     OW31951   0.559   2.277   6.029 -0.3439 -0.1940 -0.2623
 6831SOL    HW131952   0.633   2.232   6.070 -1.8720 -1.2438  1.3400
 6831SOL    HW231953   0.517   2.313   6.107  1.7992  2.4284 -0.3246
 6832SOL     OW31954   3.418   2.412   3.003  0.3160 -0.5975 -0.2645
 6832SOL    HW131955   3.497   2.358   3.006 -0.4076 -1.5244  1.8372
 6832SOL    HW231956   3.385   2.398   3.092  2.2304  0.0158  0.5360
 6833SOL     OW31957   0.827   1.293  11.743  0.8157  0.5450  0.1064
 6833SOL    HW131958   0.779   1.238  11.680  1.1623 -0.1876  0.4858
 6833SOL    HW231959   0.754   1.348  11.771  0.7964  0.6921 -0.2268
 6834SOL     OW31960   1.437   0.654  12.560 -0.5588 -0.0672  0.0443
 6834SOL    HW131961   1.490   0.693  12.630  0.0379 -2.6614  1.0179
 6834SOL    HW231962   1.466   0.569  12.593 -2.6724 -0.4655  0.9063
 6835SOL     OW31963   0.971   3.096   2.592 -0.0826 -0.0031  0.1831
 6835SOL    HW131964   0.936   3.181   2.622  2.4653  1.0631  0.0947
 6835SOL    HW231965   0.951   3.040   2.667  0.7230 -1.4388 -0.7024
 6836SOL     OW31966   0.662   3.074   7.921 -0.6400 -0.5661 -0.0975
 6836SOL    HW131967   0.750   3.049   7.892 -0.6946 -1.4779  0.5257
 6836SOL    HW231968   0.653   3.153   7.867  0.2367 -1.1069 -1.0525
 6837SOL     OW31969   4.376   4.153   5.292  0.3929 -0.4558 -0.0541
 6837SOL    HW131970   4.440   4.102   5.243  1.1665 -0.0664  0.5498
 6837SOL    HW231971   4.408   4.243   5.285 -0.1330 -0.2513  0.1654
 6838SOL     OW31972   4.524   4.004   3.572  0.0468 -0.2414  0.4927
 6838SOL    HW131973   4.557   4.093   3.586  1.7477 -1.2060  2.5991
 6838SOL    HW231974   4.578   3.954   3.633  2.0092 -1.6477 -2.4137
 6839SOL     OW31975   0.307   4.617   1.639  0.0919 -0.0786  0.2135
 6839SOL    HW131976   0.388   4.580   1.605  1.7542  3.1946  0.5442
 6839SOL    HW231977   0.319   4.712   1.636 -0.3238 -0.0061  0.7437
 6840SOL     OW31978   3.811   0.316   2.508  0.5416  0.1215  0.0579
 6840SOL    HW131979   3.832   0.409   2.506 -1.6064  0.5971 -0.2208
 6840SOL    HW231980   3.728   0.313   2.554  0.5349 -0.7183 -0.0080
 6841SOL     OW31981   3.386   4.682   9.974  0.2691 -0.4654 -0.0663
 6841SOL    HW131982   3.368   4.638   9.891 -0.3913 -3.2616  1.5550
 6841SOL    HW231983   3.385   0.051   9.937 -0.0288 -1.5925 -2.7082
 6842SOL     OW31984   2.611   1.555  13.710  0.5677 -0.0119  0.2065
 6842SOL    HW131985   2.610   1.610  13.632 -0.7185  0.0356  0.2479
 6842SOL    HW231986   2.522   1.519  13.709  1.4302 -2.0967 -1.7868
 6843SOL     OW31987   1.300   2.389   6.286 -0.0031 -0.1747 -0.1624
 6843SOL    HW131988   1.385   2.390   6.330  0.6798  0.2495 -1.4987
 6843SOL    HW231989   1.235   2.402   6.354 -1.3055  0.3788 -1.5112
 6844SOL     OW31990   4.487   1.111   4.609 -0.4892 -0.1514 -0.2672
 6844SOL    HW131991   4.431   1.089   4.534 -1.8335  0.8262  0.4592
 6844SOL    HW231992   4.570   1.098   4.563 -0.6198  0.1180 -0.5851
 6845SOL     OW31993   4.637   1.474   7.235  0.0566  0.2186  0.3464
 6845SOL    HW131994   4.711   1.414   7.244 -0.9181 -0.6151  2.6288
 6845SOL    HW231995   4.669   1.549   7.286 -0.7267  0.6797  0.1573
 6846SOL     OW31996   0.136   0.997  11.241 -0.5891 -0.5096  0.0469
 6846SOL    HW131997   0.182   0.979  11.159  1.1491  0.2772  0.8281
 6846SOL    HW231998   0.067   0.931  11.241 -1.8336  0.7884 -0.2736
 6847SOL     OW31999   4.111   2.369  14.329  0.1405  0.0320 -0.1124
 6847SOL    HW132000   4.085   2.434  14.394 -1.1291 -1.3802  0.7910
 6847SOL    HW232001   4.059   2.414  14.262  0.5923 -0.5225 -0.8436
 6848SOL     OW32002   1.357   2.029  15.859 -0.2923  0.1779  0.2601
 6848SOL    HW132003   1.363   1.945  15.815 -4.3627 -0.4064  0.7874
 6848SOL    HW232004   1.354   2.099  15.794  0.1616  1.5578  1.7057
 6849SOL     OW32005   4.381   1.172  17.511  0.1169  0.4663  0.0866
 6849SOL    HW132006   4.323   1.096  17.504 -0.5426  0.9802 -0.1027
 6849SOL    HW232007   4.349   1.220  17.587  2.1213 -0.0333  1.2113
 6850SOL     OW32008   2.938   0.926  15.870 -0.2865  0.2845 -0.5086
 6850SOL    HW132009   2.987   0.849  15.901  0.4176  0.8186 -0.2885
 6850SOL    HW232010   2.968   0.929  15.779 -0.2308 -2.5538 -0.5808
 6851SOL     OW32011   3.728   4.633   5.317  0.4164  0.3972  0.1739
 6851SOL    HW132012   3.777   4.554   5.342 -1.4862 -1.2236 -1.2028
 6851SOL    HW232013   3.779   4.704   5.355  2.9872 -1.0651 -0.5005
 6852SOL     OW32014   2.805   1.917   9.096  0.1594 -0.0659  0.8745
 6852SOL    HW132015   2.857   1.880   9.168  0.7830 -0.1427  0.3889
 6852SOL    HW232016   2.715   1.886   9.108 -0.0440 -0.3305 -1.2673
 6853SOL     OW32017   2.529   1.181   1.522  0.5222  0.1402 -0.3829
 6853SOL    HW132018   2.555   1.088   1.521 -1.0915 -0.3545  3.2338
 6853SOL    HW232019   2.471   1.191   1.597  1.2694 -1.1492  0.3820
 6854SOL     OW32020   3.305   3.329  13.888 -0.1767  0.0576  0.3170
 6854SOL    HW132021   3.390   3.317  13.847 -0.8280  1.2013 -1.3797
 6854SOL    HW232022   3.325   3.315  13.981 -0.7317 -1.2945  0.2343
 6855SOL     OW32023   4.639   1.467   8.084  0.3968 -0.4391 -0.8600
 6855SOL    HW132024   4.626   1.373   8.069  1.1489 -0.3863 -1.8467
 6855SOL    HW232025   4.673   1.482   7.995  1.1497  1.5923 -0.2327
 6856SOL     OW32026   2.019   1.373   7.988 -1.0005  0.6169  0.0565
 6856SOL    HW132027   1.998   1.440   7.922  0.8134  1.6694  0.5409
 6856SOL    HW232028   2.100   1.415   8.017 -1.7755  1.7468  0.5967
 6857SOL     OW32029   4.432   2.289   2.598  0.1477 -0.4238  0.1148
 6857SOL    HW132030   4.349   2.295   2.551 -0.6069  0.2707  1.5338
 6857SOL    HW232031   4.506   2.285   2.537 -0.2900  1.6525 -0.5470
 6858SOL     OW32032   4.257   0.989   2.904  0.5326  0.0321  0.0215
 6858SOL    HW132033   4.220   1.064   2.857  0.8042 -0.0770 -0.3652
 6858SOL    HW232034   4.222   0.993   2.993 -1.5620 -0.3221 -0.7994
 6859SOL     OW32035   1.865   4.504  16.935 -0.3003  0.6956  0.0738
 6859SOL    HW132036   1.946   4.553  16.954  0.7475 -1.2983  0.7096
 6859SOL    HW232037   1.889   4.412  16.929 -0.4017  0.5868  1.2964
 6860SOL     OW32038   1.149   0.535   3.804  0.0325 -0.6651 -0.4626
 6860SOL    HW132039   1.235   0.509   3.772  1.1048 -0.0689  1.9281
 6860SOL    HW232040   1.100   0.536   3.722 -0.4867 -2.0115 -0.1848
 6861SOL     OW32041   2.988   1.745   1.418 -0.0961 -0.5896 -0.1744
 6861SOL    HW132042   2.998   1.703   1.504  1.3728 -1.8146 -0.9435
 6861SOL    HW232043   2.894   1.756   1.429 -0.3914 -2.0000 -1.2895
 6862SOL     OW32044   4.615   3.312   6.197  0.2526 -0.2644  0.2167
 6862SOL    HW132045   4.534   3.330   6.150  0.5978  1.1478  0.1613
 6862SOL    HW232046   4.601   3.218   6.191  0.9399 -0.4934  2.3005
 6863SOL     OW32047   2.743   4.567   2.380 -0.2995 -0.2393  0.2109
 6863SOL    HW132048   2.733   4.655   2.416  3.1669 -0.3138  1.3228
 6863SOL    HW232049   2.701   4.600   2.301  0.7675  0.5565 -0.0312
 6864SOL     OW32050   3.646   2.966   6.255  0.0981  0.0780 -0.3489
 6864SOL    HW132051   3.674   3.041   6.307  0.2272 -1.3054  1.5735
 6864SOL    HW232052   3.731   2.934   6.223 -0.5162 -1.2525 -0.6632
 6865SOL     OW32053   1.134   0.678  14.348  0.2539 -0.1350 -0.3683
 6865SOL    HW132054   1.168   0.589  14.355  3.9442  1.2215 -0.7107
 6865SOL    HW232055   1.189   0.703  14.274  1.4205 -1.8065 -0.0625
 6866SOL     OW32056   2.715   0.228  10.893 -0.7033 -0.0402  0.1277
 6866SOL    HW132057   2.679   0.202  10.809  0.0344 -1.5267  0.2580
 6866SOL    HW232058   2.632   0.257  10.929 -1.4676 -1.9039 -0.1261
 6867SOL     OW32059   3.715   1.706   9.129 -0.5387 -0.4157  0.2758
 6867SOL    HW132060   3.683   1.628   9.084  0.3530 -0.7485  0.2381
 6867SOL    HW232061   3.737   1.675   9.217  1.3161 -0.5985 -0.2523
 6868SOL     OW32062   2.645   2.630   7.629  0.0189  0.1905  0.0131
 6868SOL    HW132063   2.672   2.711   7.586 -2.2194  0.5092 -0.7676
 6868SOL    HW232064   2.728   2.598   7.664 -0.5055  0.3860  1.4434
 6869SOL     OW32065   3.820   2.237   2.476 -0.0283  0.1675  0.4872
 6869SOL    HW132066   3.733   2.264   2.448 -0.9690 -1.8725  1.3941
 6869SOL    HW232067   3.864   2.230   2.391  1.2564 -1.4283  1.2818
 6870SOL     OW32068   1.459   1.071   8.087 -0.0767  0.6206 -0.1710
 6870SOL    HW132069   1.465   1.102   8.177 -0.4306  0.0535  0.0496
 6870SOL    HW232070   1.367   1.067   8.062  0.3186  0.3296 -1.6022
 6871SOL     OW32071   0.205   4.672   5.668  0.1400  0.1996  0.8553
 6871SOL    HW132072   0.264   4.612   5.714 -0.2048 -0.5966  0.2551
 6871SOL    HW232073   0.225   4.647   5.578  1.2870 -1.4305  1.5716
 6872SOL     OW32074   3.453   1.544   6.873 -0.5697  0.1874 -0.0073
 6872SOL    HW132075   3.399   1.619   6.896  2.0513  1.9893  0.2599
 6872SOL    HW232076   3.503   1.529   6.953  0.4356 -2.6536 -1.1598
 6873SOL     OW32077   3.309   0.361   4.303 -0.2850  0.2399  0.2319
 6873SOL    HW132078   3.281   0.430   4.244  0.9167  1.0701  0.6218
 6873SOL    HW232079   3.372   0.309   4.252 -1.6389 -2.5975  1.4419
 6874SOL     OW32080   1.418   2.969  11.826 -0.3595  0.0205 -0.8680
 6874SOL    HW132081   1.370   3.034  11.878 -0.5965  0.3024 -1.4323
 6874SOL    HW232082   1.416   2.898  11.890 -1.3435  0.2323 -0.6648
 6875SOL     OW32083   4.555   0.672   8.258  0.0221 -0.3604 -0.7010
 6875SOL    HW132084   4.622   0.701   8.320  1.3864  1.0028 -2.7972
 6875SOL    HW232085   4.487   0.740   8.255 -0.1364 -0.4649  0.6158
 6876SOL     OW32086   3.692   1.607   4.496 -0.5545 -0.1245 -0.5097
 6876SOL    HW132087   3.738   1.614   4.579  0.0302 -0.8059 -0.7736
 6876SOL    HW232088   3.754   1.548   4.453 -1.1634  0.5410 -2.3185
 6877SOL     OW32089   0.604   0.737   8.914  0.4660  0.3862 -0.3482
 6877SOL    HW132090   0.603   0.778   8.827 -1.7511  0.5385 -0.2728
 6877SOL    HW232091   0.694   0.706   8.920 -0.5711 -2.6193 -0.2062
 6878SOL     OW32092   0.208   3.194   6.110  0.3054 -0.5087  0.4092
 6878SOL    HW132093   0.160   3.112   6.117  0.1052 -0.5287 -1.2730
 6878SOL    HW232094   0.267   3.171   6.039  1.4010  1.6467  0.6065
 6879SOL     OW32095   4.286   2.540  13.510  0.2560 -0.2358  0.2072
 6879SOL    HW132096   4.361   2.591  13.542  0.6560  0.6946 -2.1731
 6879SOL    HW232097   4.335   2.458  13.513  2.3647  1.1212  2.0714
 6880SOL     OW32098   0.478   2.805   7.248 -0.4581 -0.2331 -0.3638
 6880SOL    HW132099   0.417   2.826   7.177 -1.7957  0.1069  0.8817
 6880SOL    HW232100   0.515   2.889   7.274 -0.5658 -0.4843  0.6092
 6881SOL     OW32101   2.054   3.952   0.211 -0.1819  0.0336  0.6390
 6881SOL    HW132102   2.018   4.034   0.180  1.7576 -0.6017 -3.3125
 6881SOL    HW232103   2.100   3.918   0.134  4.2064 -0.7543  3.5933
 6882SOL     OW32104   2.664   0.789   8.053  0.5483  0.6202 -0.3432
 6882SOL    HW132105   2.710   0.761   8.132 -1.1674  0.0274  0.4586
 6882SOL    HW232106   2.708   0.731   7.991  0.0669 -0.7958  0.6531
 6883SOL     OW32107   2.539   1.852   9.172  0.3521  0.3943 -0.3691
 6883SOL    HW132108   2.546   1.773   9.227 -2.0372  0.8763  0.5922
 6883SOL    HW232109   2.447   1.869   9.155  0.1584 -0.9696 -0.7103
 6884SOL     OW32110   0.348   2.446   0.536 -0.4008 -0.0182  0.0624
 6884SOL    HW132111   0.337   2.492   0.619  0.7945  2.0174 -0.8994
 6884SOL    HW232112   0.366   2.353   0.552 -0.3498  0.2113  1.3240
 6885SOL     OW32113   0.230   1.430   3.399  0.3846 -0.3429  0.3969
 6885SOL    HW132114   0.247   1.469   3.313 -0.7825 -1.7588 -0.4752
 6885SOL    HW232115   0.293   1.360   3.414 -1.0838 -1.0605  3.2366
 6886SOL     OW32116   0.750   2.012  13.844  0.2834  0.5902 -0.3939
 6886SOL    HW132117   0.679   1.989  13.902  1.5278 -2.0152  0.0930
 6886SOL    HW232118   0.803   2.055  13.911 -0.8070  0.1171  0.7525
 6887SOL     OW32119   2.940   0.154   5.887  0.2937 -0.1122 -0.3507
 6887SOL    HW132120   2.952   0.067   5.849 -0.4983 -0.3257 -0.1182
 6887SOL    HW232121   3.031   0.160   5.916 -0.1504  0.1820  1.0178
 6888SOL     OW32122   3.853   1.283  17.370  0.2228 -0.3767  0.0747
 6888SOL    HW132123   3.918   1.346  17.340 -0.4325 -0.1366 -0.8326
 6888SOL    HW232124   3.776   1.328  17.337  0.1948  0.6248  1.4893
 6889SOL     OW32125   4.373   4.305   7.887 -0.2849  0.3573 -0.0494
 6889SOL    HW132126   4.411   4.261   7.811 -0.2030 -2.4925  1.6672
 6889SOL    HW232127   4.304   4.244   7.913  2.3704 -2.1492  1.1443
 6890SOL     OW32128   4.660   0.343   6.602  0.9949 -0.3027 -0.8175
 6890SOL    HW132129   0.017   0.311   6.554  0.4548  1.1938 -2.6686
 6890SOL    HW232130   4.666   0.280   6.673  0.3275 -2.4639 -2.6673
 6891SOL     OW32131   3.629   2.131  12.078  0.0850 -0.7968  0.2910
 6891SOL    HW132132   3.570   2.085  12.017  0.2456 -0.3862 -0.1735
 6891SOL    HW232133   3.623   2.222  12.050  2.5443 -0.3448  1.2683
 6892SOL     OW32134   1.341   1.474   4.007 -0.1167 -0.0071  0.6404
 6892SOL    HW132135   1.356   1.555   4.057 -0.1897  0.1849  0.3484
 6892SOL    HW232136   1.307   1.424   4.081 -1.3520 -1.0175 -0.6361
 6893SOL     OW32137   0.656   3.415   2.178 -0.0133  0.1910  0.6728
 6893SOL    HW132138   0.656   3.345   2.243 -2.4805 -0.1043  0.3371
 6893SOL    HW232139   0.665   3.496   2.228  2.5312  1.3432 -1.6120
 6894SOL     OW32140   2.205   1.925   5.381 -0.3361 -0.7916 -0.1045
 6894SOL    HW132141   2.171   2.012   5.400  2.6775  0.5877 -1.1470
 6894SOL    HW232142   2.215   1.897   5.472  0.5596 -1.3273 -0.3757
 6895SOL     OW32143   1.578   2.987   4.179  0.2761 -0.4978 -0.3760
 6895SOL    HW132144   1.541   3.073   4.201  0.9747 -0.1786 -0.4492
 6895SOL    HW232145   1.496   2.950   4.147  1.0614 -1.9165 -0.7241
 6896SOL     OW32146   4.362   2.437   0.196 -0.1158 -0.8894 -0.3319
 6896SOL    HW132147   4.326   2.522   0.171 -2.5496 -1.7520  0.2103
 6896SOL    HW232148   4.437   2.427   0.137  0.1707  2.2391 -0.4760
 6897SOL     OW32149   0.678   2.644   4.569  0.1510 -0.2713 -0.3448
 6897SOL    HW132150   0.709   2.584   4.636 -1.9861 -0.2430  0.6552
 6897SOL    HW232151   0.645   2.581   4.504 -1.4867 -1.4779  1.6540
 6898SOL     OW32152   4.635   2.404   5.800 -0.3904  0.2699  0.6106
 6898SOL    HW132153   4.645   2.499   5.809 -1.1378  0.4329 -0.3208
 6898SOL    HW232154   4.550   2.396   5.844  0.4447 -1.2025  1.9534
 6899SOL     OW32155   1.908   1.651   9.474  0.2006 -0.1486  0.4866
 6899SOL    HW132156   1.867   1.723   9.521  0.0665  0.6433 -0.8184
 6899SOL    HW232157   1.831   1.602   9.445  1.2118  0.2497 -2.9198
 6900SOL     OW32158   3.829   0.363   7.932  0.5799  0.0397  0.5476
 6900SOL    HW132159   3.832   0.348   8.027  0.0882 -1.9413  0.2522
 6900SOL    HW232160   3.925   0.358   7.926  0.4537 -1.5588 -0.1251
 6901SOL     OW32161   4.348   3.013   2.504  0.2593 -0.0592  0.3948
 6901SOL    HW132162   4.264   3.037   2.464  0.4061 -1.0563 -0.5327
 6901SOL    HW232163   4.388   2.986   2.421  2.7246 -0.0768  1.5882
 6902SOL     OW32164   1.709   3.907   3.549 -0.3619  0.2735  0.6072
 6902SOL    HW132165   1.641   3.938   3.610 -0.8589 -1.5948  0.9786
 6902SOL    HW232166   1.654   3.906   3.471  3.1993  0.8022 -1.9060
 6903SOL     OW32167   2.602   0.932  17.433 -0.1938 -0.1817  0.4817
 6903SOL    HW132168   2.541   0.980  17.489 -0.5088 -0.8123  0.6758
 6903SOL    HW232169   2.688   0.937  17.474  0.0130  1.1612 -0.1227
 6904SOL     OW32170   2.170   4.629   8.335  0.0895 -0.5160 -0.5710
 6904SOL    HW132171   2.205   4.701   8.283 -2.1440  1.2133  0.3268
 6904SOL    HW232172   2.247   4.578   8.362 -0.3516 -0.6221  0.5065
 6905SOL     OW32173   2.639   3.254   3.027 -0.4638 -0.0492  0.1719
 6905SOL    HW132174   2.577   3.326   3.017  0.2784  0.4801 -0.5705
 6905SOL    HW232175   2.651   3.247   2.933  0.8748 -0.1635  0.3497
 6906SOL     OW32176   1.597   1.527   6.396  0.5334  0.4499  0.0751
 6906SOL    HW132177   1.621   1.553   6.485  0.5571 -1.8576  0.7427
 6906SOL    HW232178   1.541   1.601   6.372  1.8224  1.1275 -0.8768
 6907SOL     OW32179   0.222   4.396   8.519  0.0706  0.8239  0.1984
 6907SOL    HW132180   0.258   4.485   8.518 -1.2860  1.3749  0.5533
 6907SOL    HW232181   0.135   4.414   8.484 -0.3039 -1.5796 -0.0859
 6908SOL     OW32182   4.169   1.916   9.101 -0.1620 -0.1317 -0.2139
 6908SOL    HW132183   4.152   2.009   9.113  0.2685  0.1383 -1.6171
 6908SOL    HW232184   4.099   1.894   9.040  1.1128 -2.3428 -0.8804
 6909SOL     OW32185   1.517   1.063   5.077  1.0302 -0.1441  0.2018
 6909SOL    HW132186   1.474   1.029   4.999  2.4746  0.4518 -0.8628
 6909SOL    HW232187   1.509   1.155   5.051  2.3552 -0.2267 -0.5244
 6910SOL     OW32188   1.813   2.526   7.180  0.3752  0.5194 -0.2535
 6910SOL    HW132189   1.803   2.615   7.214 -1.8208 -0.5741  1.9245
 6910SOL    HW232190   1.841   2.532   7.089  2.2392 -2.2156  0.1386
 6911SOL     OW32191   4.210   1.796   7.646  0.0167  0.0346  0.1493
 6911SOL    HW132192   4.215   1.816   7.553  0.8721 -0.9188 -0.0028
 6911SOL    HW232193   4.174   1.877   7.683  1.0968  1.1448 -1.2575
 6912SOL     OW32194   0.901   1.753  14.535 -0.5138 -0.4750 -0.4298
 6912SOL    HW132195   0.971   1.818  14.535 -1.0248  0.0819  0.5204
 6912SOL    HW232196   0.910   1.709  14.619  1.6262 -0.3417 -0.5953
 6913SOL     OW32197   4.382   0.331   6.504  0.5891 -0.2143  0.0709
 6913SOL    HW132198   4.465   0.319   6.548 -0.0140 -2.7257  0.4954
 6913SOL    HW232199   4.406   0.422   6.482  2.4444 -0.0493  2.8015
 6914SOL     OW32200   1.330   2.734  16.724  0.1425  0.3314  0.0750
 6914SOL    HW132201   1.376   2.682  16.790  0.1856  1.7841  1.2104
 6914SOL    HW232202   1.250   2.761  16.769 -0.9683 -0.3116 -1.5220
 6915SOL     OW32203   1.501   1.904  15.385  0.5702 -0.6618 -0.0716
 6915SOL    HW132204   1.585   1.870  15.355 -0.8048 -2.8896 -1.4209
 6915SOL    HW232205   1.448   1.882  15.308  0.4573  0.1391 -0.2256
 6916SOL     OW32206   4.364   1.588   3.697 -0.5499 -0.1036 -0.2394
 6916SOL    HW132207   4.353   1.672   3.653 -2.9688 -0.6968 -0.7815
 6916SOL    HW232208   4.431   1.611   3.762 -0.2247 -1.2659 -0.1623
 6917SOL     OW32209   3.092   1.092   3.161 -0.1275 -0.0507 -0.0790
 6917SOL    HW132210   3.059   1.003   3.169  1.7470 -0.8585 -1.5724
 6917SOL    HW232211   3.004   1.132   3.162 -1.2364 -2.4896 -0.4939
 6918SOL     OW32212   1.982   3.313   7.777 -0.0463  0.4624 -0.1468
 6918SOL    HW132213   2.059   3.335   7.830  0.2440  1.0325 -0.7985
 6918SOL    HW232214   1.973   3.392   7.724 -0.2539  1.5695  1.5656
 6919SOL     OW32215   1.238   2.158   6.136  0.3177 -0.0710  0.4014
 6919SOL    HW132216   1.249   2.227   6.201  0.7063 -3.5329  3.9664
 6919SOL    HW232217   1.325   2.118   6.134  0.7889  1.0233 -1.2591
 6920SOL     OW32218   0.365   4.375  15.568 -0.5797  0.3060 -0.4066
 6920SOL    HW132219   0.314   4.430  15.509  2.4080  1.9589 -1.4585
 6920SOL    HW232220   0.448   4.401  15.530 -0.3968  2.3535  1.3572
 6921SOL     OW32221   1.337   0.121   7.972  0.4388 -0.4763  0.2876
 6921SOL    HW132222   1.422   0.086   8.002  0.9298 -0.1066 -0.6780
 6921SOL    HW232223   1.335   0.202   8.023  0.4049  0.6468 -1.5392
 6922SOL     OW32224   4.654   1.235  17.418 -0.0227 -0.2672 -0.1180
 6922SOL    HW132225   4.633   1.319  17.460 -0.9972  0.6033 -2.3537
 6922SOL    HW232226   4.571   1.190  17.429 -0.9520  0.7589 -3.0493
 6923SOL     OW32227   4.097   3.344  10.467  0.3865 -0.1802 -0.0097
 6923SOL    HW132228   4.024   3.300  10.424 -1.0717  1.3240  0.9377
 6923SOL    HW232229   4.141   3.350  10.382  0.7344 -0.2023  0.1680
 6924SOL     OW32230   4.472   1.706   0.121 -0.1803  0.2362  0.4244
 6924SOL    HW132231   4.419   1.683   0.197 -0.7635 -1.1129 -0.3923
 6924SOL    HW232232   4.417   1.682   0.047  1.1698 -1.6203  0.0169
 6925SOL     OW32233   3.963   2.860  14.833 -0.2504  0.0865  0.0808
 6925SOL    HW132234   4.053   2.889  14.848  0.3978 -1.5252 -0.6278
 6925SOL    HW232235   3.914   2.908  14.899  0.9669  0.5332  0.6745
 6926SOL     OW32236   1.298   1.057   6.214 -0.2103  0.0601 -0.0368
 6926SOL    HW132237   1.391   1.047   6.195  0.1431 -0.4538  1.9342
 6926SOL    HW232238   1.262   0.970   6.193  0.7141 -0.3455  0.0583
 6927SOL     OW32239   2.415   0.018   8.861 -0.1471 -0.4303  0.5181
 6927SOL    HW132240   2.452   0.038   8.775  1.3464 -2.2966  0.7508
 6927SOL    HW232241   2.431   0.099   8.910  2.0397 -0.8295  0.4738
 6928SOL     OW32242   2.751   2.080   0.314 -0.4555  0.0744  0.3011
 6928SOL    HW132243   2.733   2.135   0.390 -0.1520  2.1493 -1.1386
 6928SOL    HW232244   2.837   2.043   0.334  0.5936  2.2866 -0.0879
 6929SOL     OW32245   3.126   0.854   2.017  0.3120 -0.5232 -0.4043
 6929SOL    HW132246   3.200   0.886   2.067 -0.4148 -0.8078  0.8486
 6929SOL    HW232247   3.049   0.891   2.060  0.5967  0.0359 -0.3841
 6930SOL     OW32248   0.654   4.062   6.280 -0.0041  0.2827 -0.4188
 6930SOL    HW132249   0.605   4.127   6.332 -1.0371 -1.8296  1.2438
 6930SOL    HW232250   0.726   4.120   6.257  0.2691 -0.3326 -1.0835
 6931SOL     OW32251   2.511   2.325  13.612 -0.0725  0.4209 -0.1260
 6931SOL    HW132252   2.421   2.333  13.582 -0.5519 -0.1103  1.1940
 6931SOL    HW232253   2.500   2.319  13.707  0.2878 -0.4268 -0.1366
 6932SOL     OW32254   1.252   4.069  14.983  0.3927 -0.3721 -0.0573
 6932SOL    HW132255   1.157   4.060  14.980  0.3931 -0.4083  0.0348
 6932SOL    HW232256   1.272   4.029  15.068 -2.8792 -0.6739  0.5892
 6933SOL     OW32257   4.406   3.381  17.668 -0.3576 -0.2141 -0.9315
 6933SOL    HW132258   4.398   3.286  17.666 -0.6508 -0.2326  1.4485
 6933SOL    HW232259   4.317   3.395   0.022  0.8447 -1.4997  2.8398
 6934SOL     OW32260   2.366   4.120   3.894  0.3375  0.7943 -0.1676
 6934SOL    HW132261   2.419   4.050   3.855 -0.0218  1.7253 -2.3399
 6934SOL    HW232262   2.278   4.094   3.869  0.6594 -1.1897  0.7562
 6935SOL     OW32263   1.581   3.961   2.583  0.0752 -0.0672  0.0518
 6935SOL    HW132264   1.564   4.051   2.555  2.5198  0.1780 -0.6580
 6935SOL    HW232265   1.676   3.950   2.591  0.0487  0.9583  1.7854
 6936SOL     OW32266   1.604   0.645   8.574  0.1585  0.0274  0.1473
 6936SOL    HW132267   1.679   0.617   8.626 -0.8635 -3.0791 -0.0347
 6936SOL    HW232268   1.532   0.661   8.635 -1.0619 -1.5341 -0.8917
 6937SOL     OW32269   1.864   3.582  17.167 -0.4427  0.0175 -0.0164
 6937SOL    HW132270   1.932   3.532  17.213 -0.8741  1.1819  1.8698
 6937SOL    HW232271   1.805   3.508  17.151  1.0629 -1.2043  0.0673
 6938SOL     OW32272   4.316   1.497  10.968 -0.8119  0.0895  0.0980
 6938SOL    HW132273   4.410   1.516  10.966 -0.6215 -0.9225 -0.5737
 6938SOL    HW232274   4.320   1.403  10.952  2.1134 -0.1041  1.7790
 6939SOL     OW32275   1.600   4.060   6.905 -0.0891 -0.3205  1.0230
 6939SOL    HW132276   1.561   4.042   6.991 -1.5626 -0.2310  0.3808
 6939SOL    HW232277   1.684   4.016   6.914  0.6524  0.5577 -1.7500
 6940SOL     OW32278   2.502   1.842  17.303  0.1802 -0.2270  0.4547
 6940SOL    HW132279   2.536   1.753  17.296 -0.6013 -0.6708  2.4267
 6940SOL    HW232280   2.486   1.856  17.209  1.3116  0.5666  0.3675
 6941SOL     OW32281   4.606   0.603   6.692 -0.7170  0.0678 -0.0582
 6941SOL    HW132282   4.654   0.664   6.636 -1.2007 -1.4763 -2.1760
 6941SOL    HW232283   4.602   0.535   6.624 -0.5595 -0.3043  0.3043
 6942SOL     OW32284   2.070   4.104   6.204  0.0561  0.1999  0.2970
 6942SOL    HW132285   2.015   4.156   6.145  2.7036  1.3291 -1.1964
 6942SOL    HW232286   2.137   4.071   6.144  1.6980  3.7826  0.1251
 6943SOL     OW32287   1.915   0.139  17.079 -0.1051 -0.0215  0.3241
 6943SOL    HW132288   1.842   0.121  17.018 -1.0213 -1.0204  1.7222
 6943SOL    HW232289   1.934   0.045  17.081 -1.1683 -0.1919  1.9797
 6944SOL     OW32290   3.471   2.123  14.051  0.2326  0.0662 -0.3208
 6944SOL    HW132291   3.521   2.095  14.128 -0.1133 -2.2570 -0.9590
 6944SOL    HW232292   3.521   2.194  14.011  0.3603  0.3067  0.2613
 6945SOL     OW32293   3.317   4.170  14.522  0.5886  0.2621 -0.4386
 6945SOL    HW132294   3.273   4.200  14.443 -2.6530  2.2633  2.1058
 6945SOL    HW232295   3.392   4.229  14.526  2.3476 -2.0095  0.1925
 6946SOL     OW32296   2.048   0.775   4.503 -0.7240  0.1165 -0.0376
 6946SOL    HW132297   1.973   0.794   4.447 -0.5157  2.2640  0.4221
 6946SOL    HW232298   2.072   0.865   4.525  3.6047 -1.4968  1.7671
 6947SOL     OW32299   0.079   4.144   8.405  0.5292 -0.0620  0.1607
 6947SOL    HW132300   0.020   4.166   8.333  0.6076  0.2098  0.1804
 6947SOL    HW232301   0.009   4.112   8.462  0.8877 -0.5020  0.3553
 6948SOL     OW32302   4.049   3.669   3.306  0.1465 -0.4482 -0.1778
 6948SOL    HW132303   3.965   3.631   3.279 -0.5241  0.2205  0.9970
 6948SOL    HW232304   4.086   3.694   3.221 -1.7619 -1.9508 -1.4692
 6949SOL     OW32305   2.443   3.744  12.423  0.5001  0.0388 -0.1048
 6949SOL    HW132306   2.494   3.810  12.470 -1.3230  1.3846 -0.0078
 6949SOL    HW232307   2.363   3.743  12.474  0.8345 -0.6836  0.4024
 6950SOL     OW32308   0.323   4.701   4.776  0.2012  0.2857 -0.4101
 6950SOL    HW132309   0.356   4.635   4.837  0.3799  0.8920  0.1502
 6950SOL    HW232310   0.265   0.031   4.834 -0.1049 -0.2704 -0.2461
 6951SOL     OW32311   2.884   0.129   5.106  0.2358  0.3981  0.2738
 6951SOL    HW132312   2.955   0.064   5.107 -0.7774 -0.7365 -0.6827
 6951SOL    HW232313   2.814   0.088   5.155 -0.2208  1.2631  0.3435
 6952SOL     OW32314   0.122   3.078   8.128 -0.7413 -0.0095 -0.4368
 6952SOL    HW132315   0.218   3.076   8.120 -0.5912  1.4957  1.1094
 6952SOL    HW232316   0.090   3.040   8.046 -0.5226  0.9478 -0.9594
 6953SOL     OW32317   2.893   2.561   3.354  0.4280  0.5479  0.0061
 6953SOL    HW132318   2.984   2.589   3.358  0.9326 -1.0242 -0.3813
 6953SOL    HW232319   2.875   2.543   3.446  1.0483 -1.9940 -0.3788
 6954SOL     OW32320   1.757   1.563   7.190  0.5578  0.9525 -0.0301
 6954SOL    HW132321   1.691   1.510   7.235  2.6580 -1.4996  0.1603
 6954SOL    HW232322   1.840   1.533   7.225  0.6967 -0.8615 -1.9634
 6955SOL     OW32323   4.237   2.850   3.100 -0.1628  0.5502  0.4762
 6955SOL    HW132324   4.270   2.910   3.034  0.1559 -0.5420 -0.3514
 6955SOL    HW232325   4.261   2.886   3.186  0.1629  2.4245 -0.4039
 6956SOL     OW32326   2.707   2.172   9.115  0.1363  0.0164 -0.2873
 6956SOL    HW132327   2.618   2.166   9.078 -0.8901  2.8558  1.7823
 6956SOL    HW232328   2.737   2.082   9.104  1.3019  0.4932 -0.9604
 6957SOL     OW32329   4.558   3.523   8.872 -0.2335 -0.5966  0.4066
 6957SOL    HW132330   4.647   3.530   8.836  0.6678 -1.1730  2.5096
 6957SOL    HW232331   4.540   3.617   8.863 -0.8386 -0.6239  1.3186
 6958SOL     OW32332   2.427   1.745   3.606 -0.1055 -0.3020 -0.5874
 6958SOL    HW132333   2.454   1.732   3.515 -0.2007 -1.1257 -0.4991
 6958SOL    HW232334   2.485   1.818   3.628 -0.0161 -0.6607  0.3512
 6959SOL     OW32335   2.197   0.286  14.322 -0.3455  0.5091 -0.0809
 6959SOL    HW132336   2.245   0.215  14.279 -0.2906  1.0217 -0.8677
 6959SOL    HW232337   2.257   0.294  14.396 -0.4439 -2.3623  0.3175
 6960SOL     OW32338   1.042   1.112   0.727 -0.1457  0.4368  0.3181
 6960SOL    HW132339   1.006   1.101   0.815 -0.6963 -1.8476 -0.1886
 6960SOL    HW232340   1.132   1.130   0.754  0.3657  1.4318 -2.0405
 6961SOL     OW32341   4.644   4.347   7.247  0.4228 -0.4660  0.1708
 6961SOL    HW132342   4.629   4.333   7.153 -0.5451 -0.3516  0.3141
 6961SOL    HW232343   4.567   4.388   7.286 -0.5243 -1.5265 -0.5711
 6962SOL     OW32344   0.092   1.725  10.618 -0.0909 -0.1090 -0.0201
 6962SOL    HW132345   0.111   1.716  10.525  1.1589  0.0185  0.2286
 6962SOL    HW232346   0.059   1.814  10.610  2.0358  0.5936 -0.8123
 6963SOL     OW32347   3.611   0.076   4.399  0.3779  0.1145 -0.1119
 6963SOL    HW132348   3.542   0.011   4.416 -0.5062  0.7666 -1.2188
 6963SOL    HW232349   3.569   0.150   4.443  1.4324  1.0767 -0.7413
 6964SOL     OW32350   1.857   2.450  10.030 -0.3401  0.1119  0.4540
 6964SOL    HW132351   1.833   2.524   9.974  1.9296  0.9716  0.6057
 6964SOL    HW232352   1.945   2.480  10.054 -0.1158  0.4326 -0.7800
 6965SOL     OW32353   2.421   3.213   8.834  0.2611 -0.3954 -0.0207
 6965SOL    HW132354   2.470   3.279   8.882 -0.0551 -0.7534  0.7990
 6965SOL    HW232355   2.370   3.178   8.907 -0.7055  1.3764  0.1350
 6966SOL     OW32356   1.066   3.979   6.134 -0.4620 -0.5197 -0.1093
 6966SOL    HW132357   1.074   4.074   6.134  2.6114 -0.7671 -0.3388
 6966SOL    HW232358   1.008   3.980   6.210  1.1194 -0.3892  1.0913
 6967SOL     OW32359   2.357   3.743   4.906 -0.1762 -0.9774 -0.1163
 6967SOL    HW132360   2.342   3.648   4.903 -1.8591 -0.6363 -2.3141
 6967SOL    HW232361   2.346   3.764   4.813 -0.7563  3.4020  0.9773
 6968SOL     OW32362   2.809   2.464   5.940 -0.5026 -0.6348  0.4551
 6968SOL    HW132363   2.803   2.399   6.010  0.5587 -0.9855  0.2107
 6968SOL    HW232364   2.781   2.420   5.860  0.9970  1.6974 -1.3324
 6969SOL     OW32365   2.458   2.189   8.309 -0.6686  0.4490 -0.0810
 6969SOL    HW132366   2.469   2.103   8.350 -0.2257  0.4423 -0.2096
 6969SOL    HW232367   2.420   2.160   8.226 -2.2598  3.9568 -0.5629
 6970SOL     OW32368   3.887   0.106  11.064  0.2649  0.0644  0.3982
 6970SOL    HW132369   3.795   0.134  11.064  0.5094  0.8536 -0.4779
 6970SOL    HW232370   3.916   0.161  10.992  0.6015 -0.2198  0.3187
 6971SOL     OW32371   2.149   3.084   7.063 -0.0871 -0.3829 -0.5816
 6971SOL    HW132372   2.126   2.992   7.075  0.2896 -0.4693 -0.5402
 6971SOL    HW232373   2.117   3.097   6.974 -0.3799 -0.7727 -0.5313
 6972SOL     OW32374   0.204   2.234  13.483  0.1935  0.4188 -0.3009
 6972SOL    HW132375   0.129   2.267  13.531 -0.3370 -1.3188  0.0524
 6972SOL    HW232376   0.197   2.268  13.394  1.3706  0.6829 -0.2938
 6973SOL     OW32377   2.655   1.458  14.600  0.0001  0.3216  0.1058
 6973SOL    HW132378   2.562   1.479  14.591 -0.4642 -1.9181 -0.2358
 6973SOL    HW232379   2.680   1.479  14.690 -0.2209 -0.7589  0.4216
 6974SOL     OW32380   3.871   0.227   0.219 -0.0618 -0.3658  0.2626
 6974SOL    HW132381   3.858   0.268   0.304  1.7699 -2.0592  1.3534
 6974SOL    HW232382   3.926   0.289   0.172 -2.1019 -0.7952 -2.6922
 6975SOL     OW32383   0.285   4.303  14.265  0.1181  0.3620 -0.0069
 6975SOL    HW132384   0.269   4.350  14.347  0.3282 -0.1097  0.3015
 6975SOL    HW232385   0.377   4.280  14.275 -0.2838 -1.5213 -0.4947
 6976SOL     OW32386   2.107   3.962   9.620 -0.2712 -0.0318 -0.2640
 6976SOL    HW132387   2.082   3.987   9.709  0.9356 -0.5883  0.2441
 6976SOL    HW232388   2.201   3.982   9.614 -0.9870  2.4279 -2.7038
 6977SOL     OW32389   0.249   2.571  13.278 -0.2777  0.3340 -0.0798
 6977SOL    HW132390   0.174   2.601  13.330 -0.9881  0.6125 -1.2774
 6977SOL    HW232391   0.224   2.482  13.254 -1.8816  0.3578  1.4660
 6978SOL     OW32392   1.124   1.981   5.204 -0.4021 -0.0826 -0.0737
 6978SOL    HW132393   1.090   1.936   5.282 -0.3642  1.9644  1.1252
 6978SOL    HW232394   1.039   1.987   5.161 -0.0940 -1.6326 -0.8792
 6979SOL     OW32395   1.013   1.296   7.337  0.3188 -0.1875  0.7367
 6979SOL    HW132396   0.930   1.268   7.298  0.3935 -1.8402  1.8206
 6979SOL    HW232397   0.997   1.266   7.426 -2.7882 -1.9772 -0.4434
 6980SOL     OW32398   2.514   3.657   0.538  0.3159 -0.0960 -0.1996
 6980SOL    HW132399   2.472   3.572   0.522  0.4002 -0.4122  1.3010
 6980SOL    HW232400   2.514   3.705   0.455  0.2160 -0.9841 -0.7125
 6981SOL     OW32401   2.659   1.323   4.812  0.1183 -0.4044 -0.0118
 6981SOL    HW132402   2.584   1.279   4.851 -1.8835  2.6379 -0.4143
 6981SOL    HW232403   2.724   1.302   4.879 -1.9000 -1.3942  1.6293
 6982SOL     OW32404   1.436   1.012   7.298 -0.4857 -0.3136 -0.1158
 6982SOL    HW132405   1.404   0.982   7.213 -1.3486  1.6851 -0.4849
 6982SOL    HW232406   1.460   1.101   7.274  2.0770 -0.4800  1.7792
 6983SOL     OW32407   4.144   4.011  11.202  0.7035  0.0247 -0.5272
 6983SOL    HW132408   4.150   4.009  11.106  0.4729  2.2101 -0.5847
 6983SOL    HW232409   4.059   4.051  11.217  1.0685  0.5345  0.1806
 6984SOL     OW32410   3.206   1.440   5.971  0.2122  0.2813  0.3896
 6984SOL    HW132411   3.130   1.471   5.921  0.0942 -0.3958  0.1475
 6984SOL    HW232412   3.246   1.388   5.901 -0.7659  1.4099 -1.0148
 6985SOL     OW32413   1.726   4.035   0.369 -0.2710 -0.0049  0.0171
 6985SOL    HW132414   1.719   3.940   0.362 -1.2302  0.1986 -1.8309
 6985SOL    HW232415   1.819   4.051   0.387  0.5359 -2.7978 -1.8093
 6986SOL     OW32416   0.351   2.065   6.077 -0.3558 -0.4851  0.0858
 6986SOL    HW132417   0.394   2.135   6.125  0.4222  0.3238 -1.7649
 6986SOL    HW232418   0.286   2.102   6.017  0.6071 -1.6865 -1.7177
 6987SOL     OW32419   1.550   0.913  10.833 -0.0780 -0.4081 -0.2758
 6987SOL    HW132420   1.475   0.973  10.829 -2.1679 -2.8888  1.4421
 6987SOL    HW232421   1.516   0.841  10.886  0.0956  0.9334  1.6721
 6988SOL     OW32422   3.595   2.908   8.433  0.3298  0.1844 -0.2066
 6988SOL    HW132423   3.659   2.848   8.471 -0.6068  1.2647  3.0099
 6988SOL    HW232424   3.620   2.989   8.477  0.2143  0.3463 -0.4369
 6989SOL     OW32425   3.818   3.706  17.017  0.2366 -0.2539 -0.0347
 6989SOL    HW132426   3.872   3.627  17.015  0.1082 -0.3383 -0.1863
 6989SOL    HW232427   3.852   3.735  17.102  0.4097  2.0018 -0.8539
 6990SOL     OW32428   2.701   3.158   2.192 -0.0091  0.2486  0.5089
 6990SOL    HW132429   2.747   3.223   2.140 -2.1113 -0.3525 -2.1137
 6990SOL    HW232430   2.610   3.188   2.190 -0.2018 -0.2387  1.8575
 6991SOL     OW32431   1.840   1.751  10.599  0.4239  0.1710  0.0382
 6991SOL    HW132432   1.935   1.751  10.595  0.3827  0.6545 -0.9153
 6991SOL    HW232433   1.823   1.708  10.684 -0.0348 -0.0997 -0.1877
 6992SOL     OW32434   1.584   3.589  10.428 -0.0822 -0.1679 -0.6284
 6992SOL    HW132435   1.670   3.551  10.448 -2.6444 -3.5746  3.9779
 6992SOL    HW232436   1.594   3.669  10.480  1.5797  0.1218 -1.4036
 6993SOL     OW32437   1.748   3.909   3.864 -0.1542  0.3710  0.4829
 6993SOL    HW132438   1.729   3.816   3.854  0.0481  0.3998 -0.1481
 6993SOL    HW232439   1.685   3.947   3.803  1.4687  1.3244 -0.5909
 6994SOL     OW32440   1.115   0.295   5.978  0.5691  0.2582  0.1391
 6994SOL    HW132441   1.187   0.356   5.962 -0.8079  1.3213 -2.0204
 6994SOL    HW232442   1.074   0.347   6.047  0.2837 -1.0755  0.9730
 6995SOL     OW32443   0.938   3.246   7.144 -0.1520  0.0587  0.2936
 6995SOL    HW132444   0.892   3.318   7.189 -0.3957  0.8871 -1.2849
 6995SOL    HW232445   1.000   3.298   7.093 -1.5288 -0.3563 -1.8088
 6996SOL     OW32446   0.489   3.994   2.615  0.4150  0.0146 -0.5242
 6996SOL    HW132447   0.474   4.025   2.526 -0.2778  0.1439 -0.3676
 6996SOL    HW232448   0.565   4.042   2.647  0.6998 -0.9808  0.2817
 6997SOL     OW32449   4.015   1.238  15.639  0.2266 -0.4243  0.3116
 6997SOL    HW132450   3.979   1.221  15.726 -0.1410  2.6523  0.7808
 6997SOL    HW232451   4.111   1.242  15.644  0.1077  0.7051  1.6455
 6998SOL     OW32452   1.325   1.663   5.414  0.1897 -0.0376 -0.4977
 6998SOL    HW132453   1.364   1.744   5.382  0.6561  0.7641  2.0469
 6998SOL    HW232454   1.305   1.676   5.507 -0.0613 -1.2428 -0.3883
 6999SOL     OW32455   1.243   4.387   6.830 -0.3329  0.2873  0.2249
 6999SOL    HW132456   1.199   4.339   6.900 -0.2741  0.2426  0.2316
 6999SOL    HW232457   1.332   4.407   6.861  0.7160 -1.4324 -1.6540
 7000SOL     OW32458   1.190   2.448   1.745  0.6757  0.3713 -0.1640
 7000SOL    HW132459   1.105   2.407   1.761  0.9020 -0.1322 -0.2646
 7000SOL    HW232460   1.245   2.406   1.811  0.1241 -0.9033 -0.5359
 7001SOL     OW32461   4.578   2.248   8.713  0.5508 -0.1245  0.6877
 7001SOL    HW132462   4.589   2.336   8.748  0.7930  0.8614 -1.8699
 7001SOL    HW232463   4.487   2.242   8.685  0.6050  0.5089  0.3828
 7002SOL     OW32464   3.194   2.245   4.826  0.9385 -0.3109  0.0859
 7002SOL    HW132465   3.226   2.158   4.803 -0.4369 -0.8531  0.2070
 7002SOL    HW232466   3.143   2.262   4.747  0.6437  0.6924  0.4961
 7003SOL     OW32467   2.724   0.256  12.721  0.2258 -0.2049  0.0401
 7003SOL    HW132468   2.715   0.225  12.631  0.8460  0.9915 -0.4352
 7003SOL    HW232469   2.650   0.209  12.759  1.2775 -1.9643 -0.1113
 7004SOL     OW32470   0.740   2.113  11.973  0.1667  0.2576  0.4168
 7004SOL    HW132471   0.811   2.165  11.937  0.7348 -0.3901  0.6002
 7004SOL    HW232472   0.673   2.180  11.966 -1.5495 -1.2635  2.3309
 7005SOL     OW32473   2.778   3.210  14.909  0.4850 -0.4802  0.6502
 7005SOL    HW132474   2.773   3.116  14.930 -1.1430 -0.3824  0.6965
 7005SOL    HW232475   2.870   3.226  14.888  0.2813  0.5330  0.5616
 7006SOL     OW32476   2.219   4.509   4.909 -0.2751 -0.0158  0.5300
 7006SOL    HW132477   2.172   4.590   4.930  0.3242  0.4420  0.1109
 7006SOL    HW232478   2.240   4.466   4.992  0.6561 -1.1359 -0.2880
 7007SOL     OW32479   1.691   4.667   5.139 -0.9045 -0.3920  0.5316
 7007SOL    HW132480   1.733   0.033   5.154  2.3689 -1.9362  0.1061
 7007SOL    HW232481   1.598   4.686   5.138 -0.5567  1.1869 -0.9700
 7008SOL     OW32482   1.359   2.059   5.746 -0.1645 -0.1376 -0.1284
 7008SOL    HW132483   1.283   2.108   5.777  0.4029  0.3752  0.4719
 7008SOL    HW232484   1.383   2.116   5.673  3.0093 -0.5737  0.5689
 7009SOL     OW32485   2.561   3.556   8.460 -0.1681 -0.4635 -0.4139
 7009SOL    HW132486   2.489   3.502   8.494 -0.6123  1.3753  1.5577
 7009SOL    HW232487   2.604   3.584   8.541  0.5858  0.1233 -1.0145
 7010SOL     OW32488   4.444   0.302   2.376 -0.3682 -0.7157 -0.2131
 7010SOL    HW132489   4.397   0.263   2.450 -1.6858  0.9661 -0.1649
 7010SOL    HW232490   4.471   0.230   2.320  0.3641  1.0099 -2.0747
 7011SOL     OW32491   1.073   4.596   2.439  0.5856 -0.5640  0.1269
 7011SOL    HW132492   1.024   4.675   2.462  1.1951  0.0615 -0.7668
 7011SOL    HW232493   1.063   4.595   2.344 -0.7449 -0.6875  0.2627
 7012SOL     OW32494   4.291   1.268  15.671  0.4573  0.7164 -0.1196
 7012SOL    HW132495   4.310   1.360  15.652  1.1329  1.1459  2.5796
 7012SOL    HW232496   4.332   1.225  15.596 -1.4927  0.6911 -1.1617
 7013SOL     OW32497   2.793   2.388   8.476 -0.7364 -0.1372 -0.4053
 7013SOL    HW132498   2.863   2.450   8.493 -0.8409  0.3146 -1.6484
 7013SOL    HW232499   2.733   2.416   8.545  1.6055 -1.2353  2.0864
 7014SOL     OW32500   4.384   0.450   7.343 -0.1150 -0.6470 -0.2945
 7014SOL    HW132501   4.372   0.368   7.392  0.4717  0.3820  1.5957
 7014SOL    HW232502   4.388   0.511   7.417  1.5737  1.8705 -2.4279
 7015SOL     OW32503   3.322   0.901   6.224  0.4589 -0.6712  0.4157
 7015SOL    HW132504   3.330   0.921   6.318  0.8033  0.0468  0.2286
 7015SOL    HW232505   3.243   0.847   6.228  0.0502 -0.1712 -1.0656
 7016SOL     OW32506   3.948   3.990   2.589 -0.3726 -0.3619 -0.4876
 7016SOL    HW132507   3.924   3.958   2.502 -0.8388  0.8580 -0.8124
 7016SOL    HW232508   3.866   3.962   2.628 -0.2405  0.7695  0.6147
 7017SOL     OW32509   3.346   2.862   5.220  0.3888  0.1601 -0.2028
 7017SOL    HW132510   3.401   2.879   5.297 -0.7327 -0.4570  0.7381
 7017SOL    HW232511   3.264   2.877   5.266 -1.3510 -1.4726 -2.8209
 7018SOL     OW32512   1.507   3.517   9.555  0.0128  0.0526 -0.0389
 7018SOL    HW132513   1.429   3.571   9.543  0.6866  0.3390 -2.9953
 7018SOL    HW232514   1.551   3.570   9.622 -1.4931 -0.6981  1.5461
 7019SOL     OW32515   1.871   0.004   6.989 -0.1284 -0.0436  0.4108
 7019SOL    HW132516   1.838   0.091   7.011 -1.0279 -0.7313  1.7277
 7019SOL    HW232517   1.836   4.667   7.058 -0.2960 -1.0437 -0.4820
 7020SOL     OW32518   2.002   4.384   3.381 -0.3353  0.7857 -0.4929
 7020SOL    HW132519   1.956   4.403   3.463  0.7029 -0.4338  0.3709
 7020SOL    HW232520   2.085   4.342   3.405 -1.0233 -1.3962 -1.9706
 7021SOL     OW32521   0.939   0.389  17.295 -0.4284  0.3044  0.3529
 7021SOL    HW132522   0.951   0.328  17.222 -0.7997  0.4829  0.1469
 7021SOL    HW232523   1.028   0.425  17.304 -1.3180  1.9034  2.6054
 7022SOL     OW32524   0.651   1.847  11.946 -0.3443  0.3398  0.7726
 7022SOL    HW132525   0.709   1.816  11.877 -3.3896 -0.3763 -1.5059
 7022SOL    HW232526   0.681   1.937  11.955 -2.3967  0.9668  1.3077
 7023SOL     OW32527   2.987   0.747   1.614 -0.6701 -0.8678 -0.4508
 7023SOL    HW132528   3.035   0.706   1.685  2.4701  0.8178 -1.5988
 7023SOL    HW232529   2.900   0.773   1.645  0.9047  0.7587  2.5794
 7024SOL     OW32530   1.423   3.204   2.841  0.1728  0.0031 -0.5464
 7024SOL    HW132531   1.337   3.245   2.856 -0.1043 -1.0794  0.9016
 7024SOL    HW232532   1.395   3.117   2.812 -0.2567 -0.4778  1.2902
 7025SOL     OW32533   0.139   3.391   7.872  0.4631 -0.0899  0.6272
 7025SOL    HW132534   0.222   3.414   7.830 -1.1636 -0.8040 -2.9117
 7025SOL    HW232535   0.179   3.385   7.959 -2.6159  0.5487  2.0919
 7026SOL     OW32536   4.045   1.416   7.221  0.1437 -0.0998 -0.3790
 7026SOL    HW132537   4.054   1.437   7.314  2.0961 -0.3044 -0.5255
 7026SOL    HW232538   4.130   1.444   7.188 -0.5520  3.4103  0.7985
 7027SOL     OW32539   0.580   0.502   4.661  0.6722 -0.0408 -0.0840
 7027SOL    HW132540   0.486   0.496   4.642  0.0220 -0.3660  3.2552
 7027SOL    HW232541   0.620   0.489   4.575  1.9593 -1.4604  0.7259
 7028SOL     OW32542   3.976   2.926  13.707 -0.6105  0.5706  0.5694
 7028SOL    HW132543   3.974   2.893  13.617 -2.3929 -1.9797  1.5530
 7028SOL    HW232544   4.054   2.874  13.730 -0.4690  0.9367  0.9181
 7029SOL     OW32545   4.020   3.837  13.945 -0.9988  0.0020 -0.1225
 7029SOL    HW132546   4.081   3.881  14.004 -1.4335  0.2742  0.1235
 7029SOL    HW232547   4.014   3.754  13.991 -4.4882  0.6154  0.5471
 7030SOL     OW32548   2.091   4.454   8.080  0.2589 -0.2872 -0.1388
 7030SOL    HW132549   2.118   4.503   8.157  0.6658  1.2792 -1.2872
 7030SOL    HW232550   2.044   4.382   8.123  0.0050 -0.0296  0.0139
 7031SOL     OW32551   3.434   3.734   5.702 -0.4868  0.3055 -0.2011
 7031SOL    HW132552   3.372   3.766   5.636  0.0233 -0.1385 -0.8963
 7031SOL    HW232553   3.462   3.648   5.671 -0.3409 -0.1153  1.0935
 7032SOL     OW32554   2.382   3.901   6.987 -0.1034  0.6034  0.2733
 7032SOL    HW132555   2.325   3.869   6.918  1.3123  1.6827 -1.3823
 7032SOL    HW232556   2.330   3.978   7.012  1.0764  1.2264  0.8035
 7033SOL     OW32557   4.103   4.550   3.563 -0.8197  0.5429  0.4913
 7033SOL    HW132558   4.188   4.585   3.534 -0.3517 -0.0609  1.1215
 7033SOL    HW232559   4.079   4.487   3.495  0.4002 -0.5732  1.0798
 7034SOL     OW32560   4.071   3.736   0.705 -0.3869  0.0837  0.0015
 7034SOL    HW132561   4.119   3.754   0.624  0.3131 -0.3616  0.3272
 7034SOL    HW232562   4.081   3.815   0.759 -0.2513 -1.1265  1.7295
 7035SOL     OW32563   1.789   4.041   4.279 -0.0154  0.2324 -0.0827
 7035SOL    HW132564   1.820   4.095   4.205  3.2919  0.6694  1.6178
 7035SOL    HW232565   1.869   4.022   4.327 -1.1873 -3.0346  0.5343
 7036SOL     OW32566   0.858   3.155   0.574 -0.0289  0.0504  0.5121
 7036SOL    HW132567   0.818   3.081   0.620  2.0198 -1.2958  0.1519
 7036SOL    HW232568   0.951   3.138   0.586  0.1071  1.5938  1.6827
 7037SOL     OW32569   0.849   0.183   3.636  0.2556  0.0485  0.2075
 7037SOL    HW132570   0.870   0.226   3.719  1.1428 -0.9724  0.5077
 7037SOL    HW232571   0.937   0.168   3.602  0.1178 -0.6716  0.1660
 7038SOL     OW32572   3.126   3.557   4.826  0.0993  0.6332 -0.0152
 7038SOL    HW132573   3.061   3.628   4.830 -1.4578 -0.8948  1.5717
 7038SOL    HW232574   3.095   3.491   4.888 -2.5426  2.0649  0.1992
 7039SOL     OW32575   3.087   3.569   5.882  0.1480  0.5165  0.7217
 7039SOL    HW132576   3.037   3.607   5.954 -2.1218  0.0910 -0.6163
 7039SOL    HW232577   3.059   3.635   5.818 -1.5938  0.0105  0.9432
 7040SOL     OW32578   2.516   1.672   7.623  0.3904 -0.4397  0.6805
 7040SOL    HW132579   2.483   1.716   7.701  1.1084  2.3023 -0.5970
 7040SOL    HW232580   2.611   1.671   7.638  0.9092  2.1258 -2.5508
 7041SOL     OW32581   0.939   0.424  14.780 -0.8006  0.4590 -0.4738
 7041SOL    HW132582   0.938   0.330  14.764  2.4410  0.2150  0.6867
 7041SOL    HW232583   0.877   0.468  14.722 -0.9490 -0.3735 -0.9415
 7042SOL     OW32584   3.580   3.271  14.408  0.2352 -0.0027 -0.6134
 7042SOL    HW132585   3.599   3.232  14.322 -2.3571  0.0533 -1.2146
 7042SOL    HW232586   3.655   3.330  14.413 -0.2665  0.8338 -2.8124
 7043SOL     OW32587   0.857   4.077   9.658 -0.2515 -0.3212 -0.3942
 7043SOL    HW132588   0.918   4.150   9.651  3.1149 -2.8814  2.0558
 7043SOL    HW232589   0.852   4.067   9.563 -1.2099 -3.0857 -0.0647
 7044SOL     OW32590   4.312   0.210   7.054 -0.0392  0.3073 -0.2287
 7044SOL    HW132591   4.264   0.178   6.978 -0.3770 -1.1794  0.6160
 7044SOL    HW232592   4.315   0.304   7.039 -2.2932  0.2296 -1.0656
 7045SOL     OW32593   4.317   3.949  14.527 -0.3980  0.3208 -0.1170
 7045SOL    HW132594   4.379   3.918  14.593  0.5549  2.8816  0.2105
 7045SOL    HW232595   4.235   3.908  14.554 -0.9094  1.1978 -0.3338
 7046SOL     OW32596   1.507   0.794   7.450 -0.0071 -0.0347 -0.2678
 7046SOL    HW132597   1.481   0.864   7.389  0.2715  0.3252  0.0258
 7046SOL    HW232598   1.466   0.823   7.532  0.2201  0.3659 -0.2963
 7047SOL     OW32599   1.297   4.423  14.446 -0.1001  0.0522  0.3111
 7047SOL    HW132600   1.384   4.438  14.410 -1.2426 -0.1164 -2.5771
 7047SOL    HW232601   1.304   4.481  14.521  0.1012  0.7358 -0.2349
 7048SOL     OW32602   4.609   2.721   3.047  0.3237  0.3937  0.5019
 7048SOL    HW132603   4.562   2.803   3.032  0.4477  0.4242  0.2694
 7048SOL    HW232604   4.605   2.706   3.141 -0.2438 -1.2469  0.2286
 7049SOL     OW32605   3.130   4.195   4.886  0.0556 -0.1878  0.3928
 7049SOL    HW132606   3.165   4.268   4.937  0.0362  0.4494 -0.5044
 7049SOL    HW232607   3.214   4.165   4.853 -0.1168  0.3678 -0.5545
 7050SOL     OW32608   1.957   0.740   0.377 -0.1904  0.6048  0.7301
 7050SOL    HW132609   1.904   0.756   0.298 -0.2747  1.1054  0.8853
 7050SOL    HW232610   2.002   0.657   0.360 -0.1584  0.8403 -0.3434
 7051SOL     OW32611   0.476   4.544   8.086  0.2624  0.6786 -0.2183
 7051SOL    HW132612   0.496   4.453   8.062 -2.0553  0.6107 -1.8008
 7051SOL    HW232613   0.451   4.537   8.178 -0.8413 -0.7029 -0.6169
 7052SOL     OW32614   0.700   0.101   7.555 -0.1002 -0.1983 -0.2701
 7052SOL    HW132615   0.633   0.077   7.618 -1.1133  1.8938 -0.5543
 7052SOL    HW232616   0.726   0.190   7.580  0.8149  0.1347 -2.3715
 7053SOL     OW32617   0.483   1.291   1.014  0.1360  0.3773 -0.0196
 7053SOL    HW132618   0.390   1.270   1.021  1.3455 -4.5811  1.0005
 7053SOL    HW232619   0.496   1.374   1.061 -1.3025 -0.6087  2.1054
 7054SOL     OW32620   0.181   4.576  16.429  0.1557  0.1458 -0.1588
 7054SOL    HW132621   0.237   4.580  16.352  1.1443  0.1219  0.5513
 7054SOL    HW232622   0.252   4.545  16.486  0.0645 -0.1723 -0.2189
 7055SOL     OW32623   1.477   0.536  14.795 -0.4138 -0.0021  0.5306
 7055SOL    HW132624   1.418   0.524  14.720 -0.2355  1.9946  0.0685
 7055SOL    HW232625   1.547   0.476  14.770 -0.3820  1.4406 -2.9019
 7056SOL     OW32626   3.766   1.730  15.063  0.1495 -0.2945 -0.2549
 7056SOL    HW132627   3.766   1.650  15.116 -3.0911  0.7041  1.2428
 7056SOL    HW232628   3.858   1.740  15.039  0.0016 -0.6767 -0.9833
 7057SOL     OW32629   3.261   3.010   1.638  0.1054 -0.3081  0.4042
 7057SOL    HW132630   3.314   3.089   1.648 -0.2080 -0.0915  0.3839
 7057SOL    HW232631   3.328   2.945   1.656 -0.9971 -0.7429  3.0739
 7058SOL     OW32632   1.721   1.430   0.196  0.4093  0.5082 -0.9501
 7058SOL    HW132633   1.664   1.393   0.263  0.1618  2.4856 -0.0712
 7058SOL    HW232634   1.723   1.357   0.134 -1.5031  1.2440 -1.8591
 7059SOL     OW32635   3.499   2.250   3.713  0.3178  0.0142  0.5079
 7059SOL    HW132636   3.421   2.248   3.768 -2.1368 -0.6633 -3.0177
 7059SOL    HW232637   3.559   2.282   3.780 -1.0816  1.3182  1.1293
 7060SOL     OW32638   2.486   0.933   8.323  0.1136 -0.1729  0.3396
 7060SOL    HW132639   2.476   0.885   8.240  1.1716 -0.1350  0.1852
 7060SOL    HW232640   2.435   0.876   8.381  2.0927 -0.4059  1.8513
 7061SOL     OW32641   1.342   0.736  10.898  0.0150  0.4065 -0.4106
 7061SOL    HW132642   1.338   0.646  10.931  0.1927  1.4975  2.6590
 7061SOL    HW232643   1.276   0.781  10.951 -0.2479  0.2786 -0.6272
 7062SOL     OW32644   3.504   1.651   6.204 -0.1160  0.0643 -0.5231
 7062SOL    HW132645   3.415   1.619   6.219  1.6683 -5.7090 -2.2589
 7062SOL    HW232646   3.521   1.720   6.268 -1.1969  0.2629 -0.4592
 7063SOL     OW32647   0.827   4.697  17.418  0.5522 -0.4074  0.2305
 7063SOL    HW132648   0.826   4.642  17.340 -0.0757 -3.2906  2.2386
 7063SOL    HW232649   0.810   0.062  17.376  0.4733  0.2094  1.4843
 7064SOL     OW32650   3.864   2.159   2.725 -0.3420 -0.7154  0.3498
 7064SOL    HW132651   3.872   2.203   2.641  0.2538  0.3500  0.9752
 7064SOL    HW232652   3.841   2.070   2.698  1.3987 -1.2419  0.5937
 7065SOL     OW32653   0.260   2.466  14.337 -0.1980 -0.5362  0.5413
 7065SOL    HW132654   0.297   2.532  14.278  0.4424  0.3474  1.9365
 7065SOL    HW232655   0.171   2.474  14.303 -0.3966 -2.9945  0.4814
 7066SOL     OW32656   3.558   2.568  11.677  0.1105  0.0918 -0.5736
 7066SOL    HW132657   3.598   2.607  11.754 -0.9992  0.8162 -0.3542
 7066SOL    HW232658   3.635   2.525  11.640  1.8756  1.9162  0.9697
 7067SOL     OW32659   4.685   1.178  10.153  0.2275 -0.0343  0.3734
 7067SOL    HW132660   4.623   1.251  10.152  0.1671 -0.0867  0.0749
 7067SOL    HW232661   4.648   1.126  10.081  0.5190 -0.5387  0.5914
 7068SOL     OW32662   2.641   1.266   4.047 -0.2219 -0.6238 -0.4009
 7068SOL    HW132663   2.725   1.236   4.012  0.5460 -1.6644  2.3443
 7068SOL    HW232664   2.637   1.359   4.024  0.8810 -0.6657 -0.7902
 7069SOL     OW32665   0.101   2.954   6.174 -0.3812  0.2265  0.5328
 7069SOL    HW132666   0.068   2.880   6.124  2.7665 -0.8443  0.0105
 7069SOL    HW232667   0.164   2.907   6.229  1.2285  0.9800 -0.6654
 7070SOL     OW32668   1.924   0.832   5.967  0.0765  0.1525 -0.2348
 7070SOL    HW132669   1.974   0.851   5.888  2.7722  1.6939  1.8586
 7070SOL    HW232670   1.969   0.879   6.037  1.6248 -1.0393 -0.4392
 7071SOL     OW32671   3.802   2.525   3.058 -0.5382 -0.3018 -0.1944
 7071SOL    HW132672   3.778   2.543   3.148  0.2763  0.5378 -0.1505
 7071SOL    HW232673   3.895   2.505   3.067 -0.4361  1.0301  1.5405
 7072SOL     OW32674   4.488   4.206   7.659 -0.5971 -0.1524  0.1133
 7072SOL    HW132675   4.486   4.121   7.614 -1.4648 -0.2812  0.4002
 7072SOL    HW232676   4.569   4.239   7.621 -0.5627  1.5335  1.6717
 7073SOL     OW32677   2.741   4.622   9.232  0.3412  0.5367 -0.1913
 7073SOL    HW132678   2.762   4.715   9.238 -0.1621  0.7754 -1.9427
 7073SOL    HW232679   2.774   4.581   9.152 -0.0651 -0.4894  0.1685
 7074SOL     OW32680   0.605   1.128  14.227  0.3670  0.2394  0.3573
 7074SOL    HW132681   0.588   1.220  14.248  0.5945  0.2342  0.5755
 7074SOL    HW232682   0.665   1.135  14.153 -1.7531  0.1109 -1.3792
 7075SOL     OW32683   0.884   1.984   5.107  0.3268 -0.1214  0.2334
 7075SOL    HW132684   0.810   1.944   5.061  1.2952 -0.0069 -1.4382
 7075SOL    HW232685   0.887   2.074   5.075  0.4433 -0.1312  0.2158
 7076SOL     OW32686   2.839   0.292   1.367  0.3293  0.1093 -0.3444
 7076SOL    HW132687   2.757   0.253   1.337  0.4467  1.6618 -2.6755
 7076SOL    HW232688   2.827   0.375   1.321  2.1289  0.6019  0.0598
 7077SOL     OW32689   2.801   2.737   4.136  0.0883 -0.3089  0.4902
 7077SOL    HW132690   2.873   2.800   4.130  0.1374 -0.5738 -1.7918
 7077SOL    HW232691   2.788   2.702   4.048 -0.3391 -1.3221  0.9541
 7078SOL     OW32692   3.567   2.656   3.004  0.3350 -0.1462  0.0103
 7078SOL    HW132693   3.658   2.626   3.005  0.9724  1.8419  2.6528
 7078SOL    HW232694   3.515   2.576   3.008  1.4704 -0.8453  0.8661
 7079SOL     OW32695   3.135   0.712  15.812 -0.2251  0.1225  0.2410
 7079SOL    HW132696   3.106   0.649  15.878  1.4623  2.0165  2.7726
 7079SOL    HW232697   3.098   0.670  15.734  2.5342  0.2605 -1.1492
 7080SOL     OW32698   1.785   1.325   7.693  0.7421  0.0405  0.3345
 7080SOL    HW132699   1.840   1.396   7.726  0.5699 -0.1754  1.0941
 7080SOL    HW232700   1.853   1.258   7.697 -0.7254 -1.4783 -0.0967
 7081SOL     OW32701   4.509   3.296  16.737  0.4541 -0.1364 -0.6130
 7081SOL    HW132702   4.514   3.232  16.808  0.1691 -0.2933 -0.7369
 7081SOL    HW232703   4.599   3.303  16.705  0.2383 -0.4613 -1.2716
 7082SOL     OW32704   4.359   2.732   5.563  0.1199  0.2527 -0.0199
 7082SOL    HW132705   4.328   2.642   5.555 -0.0917  0.4303 -1.1083
 7082SOL    HW232706   4.334   2.756   5.653  1.8551 -1.7200  0.9971
 7083SOL     OW32707   3.191   0.001   9.501  0.1028 -0.2594 -0.6482
 7083SOL    HW132708   3.213   0.071   9.440 -0.5595  1.8788  1.5431
 7083SOL    HW232709   3.269   4.666   9.494  2.8018  3.5111  0.5364
 7084SOL     OW32710   1.341   3.508   5.033  0.1222  0.4577  0.0283
 7084SOL    HW132711   1.316   3.471   4.948 -0.5282  2.1583 -0.5285
 7084SOL    HW232712   1.344   3.438   5.098 -0.1186  0.4056 -0.0178
 7085SOL     OW32713   0.224   2.974   4.453 -0.3019 -0.3803  0.5167
 7085SOL    HW132714   0.256   2.937   4.371  0.5364  2.0102 -0.2282
 7085SOL    HW232715   0.174   3.049   4.421  0.5410  0.2333  0.6330
 7086SOL     OW32716   1.901   2.219   4.688  0.2266  0.1600  0.1655
 7086SOL    HW132717   1.915   2.128   4.661  1.3438  0.1683  0.7201
 7086SOL    HW232718   1.913   2.208   4.782 -1.9040 -0.6295  0.3366
 7087SOL     OW32719   0.059   2.515   8.333 -0.2202 -0.1521  0.2832
 7087SOL    HW132720   4.709   2.489   8.272  0.2610 -0.1330 -0.2602
 7087SOL    HW232721   0.084   2.427   8.361  0.9087 -0.8736 -2.9999
 7088SOL     OW32722   0.313   0.431   2.270 -0.4895 -0.7811  0.2604
 7088SOL    HW132723   0.268   0.350   2.247 -0.2260 -1.0081  0.5362
 7088SOL    HW232724   0.404   0.402   2.267 -0.4807 -0.7228  0.0466
 7089SOL     OW32725   4.696   2.388   6.824  0.3197  0.3444  0.4202
 7089SOL    HW132726   0.037   2.353   6.890 -1.5371 -0.8591  1.4772
 7089SOL    HW232727   4.610   2.378   6.865  0.5011 -0.4146  0.6224
 7090SOL     OW32728   0.133   1.106   0.496 -0.0917  0.3800 -0.1009
 7090SOL    HW132729   0.102   1.072   0.413 -0.9190 -1.9443  1.1504
 7090SOL    HW232730   0.134   1.021   0.542 -0.7812  0.0219 -0.7505
 7091SOL     OW32731   2.614   3.482   7.548  0.1268  0.1214  0.2727
 7091SOL    HW132732   2.707   3.489   7.530 -0.2531  2.2169 -0.8211
 7091SOL    HW232733   2.587   3.448   7.463 -1.9675  1.3980  0.4076
 7092SOL     OW32734   0.117   2.746   2.083  0.1054  0.3744 -0.0259
 7092SOL    HW132735   0.162   2.678   2.032 -0.1616  0.2337 -0.0788
 7092SOL    HW232736   0.177   2.819   2.074  0.5368 -0.0843 -0.8489
 7093SOL     OW32737   2.543   1.886   3.919  0.1900 -0.2500  0.4771
 7093SOL    HW132738   2.627   1.844   3.899  0.1037 -1.0697  1.8416
 7093SOL    HW232739   2.523   1.841   4.001 -1.3191  0.7588  0.6686
 7094SOL     OW32740   3.313   2.467  11.537  0.0091 -0.1547  0.2823
 7094SOL    HW132741   3.337   2.492  11.448  0.5037 -1.2925  0.0913
 7094SOL    HW232742   3.364   2.528  11.589  3.7989 -1.4893 -1.8960
 7095SOL     OW32743   2.325   1.982  11.448  0.2337 -0.3428 -0.2923
 7095SOL    HW132744   2.346   1.908  11.505  2.2583  0.0825 -0.5087
 7095SOL    HW232745   2.407   1.986  11.400  0.1229  0.1126 -0.4425
 7096SOL     OW32746   1.870   3.715   3.241  0.5014 -0.1887  0.5726
 7096SOL    HW132747   1.921   3.791   3.214  2.1557 -2.2787 -2.2555
 7096SOL    HW232748   1.780   3.729   3.209  0.2696 -0.5167  1.0922
 7097SOL     OW32749   1.468   0.631   3.482 -0.0408  0.0492 -0.0746
 7097SOL    HW132750   1.512   0.639   3.397  1.7506  1.4248  1.0015
 7097SOL    HW232751   1.411   0.707   3.482 -0.3508 -0.1827  0.5481
 7098SOL     OW32752   4.336   1.534   9.160 -0.5776  0.3381 -0.5312
 7098SOL    HW132753   4.243   1.535   9.181 -0.0733 -1.5463  1.8820
 7098SOL    HW232754   4.341   1.577   9.075  0.7828  0.1234 -0.5611
 7099SOL     OW32755   4.074   2.120   5.665  0.3836 -0.2653 -0.1891
 7099SOL    HW132756   4.014   2.165   5.606  1.2993 -0.3467 -1.1982
 7099SOL    HW232757   4.155   2.127   5.614  1.3029  1.4769  1.5389
 7100SOL     OW32758   1.111   0.678  13.978 -0.3530  0.3270 -0.2541
 7100SOL    HW132759   1.145   0.704  13.893 -2.3332 -0.6948 -1.3641
 7100SOL    HW232760   1.175   0.702  14.045 -0.1298 -0.5721 -0.1502
 7101SOL     OW32761   1.658   1.509  15.412  0.2524  0.2744 -0.1850
 7101SOL    HW132762   1.596   1.514  15.338  1.4894  0.2486 -1.2221
 7101SOL    HW232763   1.687   1.600  15.405  0.3693  0.3171  0.8429
 7102SOL     OW32764   0.721   2.170   9.326 -0.2587 -0.1469  0.0255
 7102SOL    HW132765   0.780   2.185   9.253  0.3817  0.0954  0.5866
 7102SOL    HW232766   0.639   2.204   9.290 -0.2034 -2.2570 -2.0643
 7103SOL     OW32767   2.425   2.454   1.975 -0.3162 -0.8697  0.4018
 7103SOL    HW132768   2.445   2.516   1.904 -1.3327 -1.7098 -0.6211
 7103SOL    HW232769   2.357   2.401   1.934 -0.4483 -1.2341  1.0976
 7104SOL     OW32770   1.505   0.498  15.050 -0.3231 -0.3906  0.0574
 7104SOL    HW132771   1.449   0.424  15.028 -0.1063 -0.3483 -0.6511
 7104SOL    HW232772   1.506   0.532  14.961 -1.0420 -0.8487 -0.1222
 7105SOL     OW32773   3.428   2.904   8.828 -0.0163  0.0633  0.1278
 7105SOL    HW132774   3.423   2.919   8.922  0.0439  2.1376 -0.1809
 7105SOL    HW232775   3.478   2.823   8.825  1.1533  0.8860 -2.8726
 7106SOL     OW32776   1.013   1.811  13.987  0.9158 -0.2659  0.0451
 7106SOL    HW132777   1.053   1.726  13.966 -1.2988 -1.0018 -1.1000
 7106SOL    HW232778   0.973   1.811  14.074 -0.1511 -0.3781 -0.4578
 7107SOL     OW32779   4.164   2.642   9.252  0.5206  0.0342 -0.3216
 7107SOL    HW132780   4.131   2.684   9.173  2.3488  1.8018 -0.1449
 7107SOL    HW232781   4.216   2.714   9.288  0.8916 -0.9893  1.1793
 7108SOL     OW32782   2.074   0.259   6.702  0.8911  0.0965  0.1476
 7108SOL    HW132783   2.086   0.256   6.797  0.1356 -0.9448  0.2041
 7108SOL    HW232784   2.010   0.330   6.692 -0.4351 -1.0105  0.8346
 7109SOL     OW32785   0.157   2.956   4.038 -0.6385 -0.1310 -0.4518
 7109SOL    HW132786   0.252   2.963   4.041 -0.7605  1.0254  0.7859
 7109SOL    HW232787   0.141   3.030   4.096 -1.1680 -1.9732  1.8001
 7110SOL     OW32788   2.444   1.413   2.538 -0.0789  0.3365  0.8163
 7110SOL    HW132789   2.466   1.398   2.446  1.3741  0.1948  1.1965
 7110SOL    HW232790   2.350   1.433   2.534 -0.2977 -1.0541 -0.9465
 7111SOL     OW32791   3.315   3.618  13.903 -0.1130  0.1290  0.1166
 7111SOL    HW132792   3.392   3.638  13.957 -0.4324  0.4453  0.4500
 7111SOL    HW232793   3.318   3.522  13.900  0.2721  0.1665 -0.8572
 7112SOL     OW32794   2.772   1.840   8.809 -0.1492 -0.0486 -0.2041
 7112SOL    HW132795   2.751   1.933   8.817 -0.3743 -0.0774 -0.4545
 7112SOL    HW232796   2.767   1.809   8.899 -2.6255 -0.2133 -0.4015
 7113SOL     OW32797   3.675   1.453  17.217 -0.1888  0.7586 -0.0912
 7113SOL    HW132798   3.743   1.511  17.183  0.2163 -0.0216 -0.5917
 7113SOL    HW232799   3.624   1.509  17.277 -0.4850 -0.7298  1.0378
 7114SOL     OW32800   1.344   1.632   1.346 -0.1706  0.1659 -0.1466
 7114SOL    HW132801   1.308   1.720   1.353  0.9848  0.4398  2.1842
 7114SOL    HW232802   1.303   1.590   1.422 -0.5206  1.1725  0.2231
 7115SOL     OW32803   1.273   0.496  14.618 -0.4033 -0.3736 -0.1372
 7115SOL    HW132804   1.265   0.463  14.528  0.5581 -1.1883  0.0861
 7115SOL    HW232805   1.213   0.570  14.604  1.1413  1.3142  2.2605
 7116SOL     OW32806   4.270   2.730   1.433  0.1186 -0.0916 -0.3395
 7116SOL    HW132807   4.269   2.805   1.493 -1.5182 -1.3197  1.1623
 7116SOL    HW232808   4.222   2.670   1.490  0.1556 -0.7758 -1.0305
 7117SOL     OW32809   3.702   1.621   2.422 -0.3466  0.4442  0.2112
 7117SOL    HW132810   3.662   1.681   2.485 -0.5114  0.7910 -0.2243
 7117SOL    HW232811   3.770   1.579   2.474 -0.5099  0.0381  0.0965
 7118SOL     OW32812   3.328   0.141   5.306  0.6870  0.0340 -0.2138
 7118SOL    HW132813   3.233   0.130   5.296  0.1975  1.3086  2.9624
 7118SOL    HW232814   3.354   0.079   5.238 -1.7818  1.1734 -2.2057
 7119SOL     OW32815   3.043   4.702  15.616 -0.0180 -0.3130  0.3027
 7119SOL    HW132816   3.125   0.031  15.628  1.6163 -2.3016 -2.9271
 7119SOL    HW232817   3.011   0.019  15.533  2.2115  0.9646  0.0122
 7120SOL     OW32818   0.655   1.003   4.540 -0.5266  0.5025  0.1453
 7120SOL    HW132819   0.716   0.937   4.508 -2.2278 -0.8093 -0.3874
 7120SOL    HW232820   0.683   1.018   4.630 -1.4985  0.6185  0.4317
 7121SOL     OW32821   0.253   1.807   8.712 -0.5451 -0.4920 -0.1458
 7121SOL    HW132822   0.223   1.753   8.786 -0.9325 -0.5865 -0.3721
 7121SOL    HW232823   0.228   1.758   8.634  1.9442 -0.8311 -0.7268
 7122SOL     OW32824   2.276   3.912   2.221 -0.5166  0.8416  0.6298
 7122SOL    HW132825   2.304   3.883   2.134 -1.3649  0.5073  0.4711
 7122SOL    HW232826   2.219   3.983   2.193 -1.8044  0.7396  2.9839
 7123SOL     OW32827   4.307   1.272   7.743 -0.4483 -0.3241 -0.2398
 7123SOL    HW132828   4.385   1.317   7.710 -1.1090  0.2271 -1.0589
 7123SOL    HW232829   4.247   1.344   7.764  0.9587  0.2774  1.7492
 7124SOL     OW32830   3.178   1.156   8.618  0.1718  0.3241 -0.5331
 7124SOL    HW132831   3.107   1.210   8.582  1.2949  1.0579 -1.6434
 7124SOL    HW232832   3.240   1.219   8.655 -0.7537  0.6575  0.4308
 7125SOL     OW32833   4.650   1.322   2.774 -0.1361 -0.0021 -0.1873
 7125SOL    HW132834   4.595   1.389   2.814 -0.8053 -0.7161  0.0844
 7125SOL    HW232835   0.009   1.376   2.759  0.2971 -0.3736  0.7207
 7126SOL     OW32836   1.531   1.116   3.509 -0.7969  0.1900 -0.2416
 7126SOL    HW132837   1.523   1.154   3.422 -3.3283  0.2429  0.0104
 7126SOL    HW232838   1.627   1.119   3.511 -0.7345 -1.0815 -1.2836
 7127SOL     OW32839   0.137   2.497   9.276 -0.1390  0.0470 -0.0866
 7127SOL    HW132840   0.184   2.462   9.200 -0.7340 -2.6955  0.8112
 7127SOL    HW232841   0.099   2.575   9.236  1.9737  2.3373  2.4384
 7128SOL     OW32842   1.629   1.328  17.298 -0.4779  0.0777  0.2486
 7128SOL    HW132843   1.710   1.367  17.330 -0.4236 -1.5305  2.0825
 7128SOL    HW232844   1.630   1.334  17.202 -0.9806 -1.5887  0.1448
 7129SOL     OW32845   4.244   3.609  12.174  0.0939  0.4949 -0.3507
 7129SOL    HW132846   4.161   3.653  12.192 -0.0236 -0.3468  1.1643
 7129SOL    HW232847   4.237   3.542  12.242 -0.8220 -1.7382 -2.6154
 7130SOL     OW32848   4.248   1.528   1.428  0.1870 -0.2084 -0.0993
 7130SOL    HW132849   4.258   1.562   1.517 -0.3255  3.1067 -1.2971
 7130SOL    HW232850   4.154   1.509   1.432  0.5228 -1.4766  1.5340
 7131SOL     OW32851   3.630   2.120   7.950  0.1758  0.1322  0.0097
 7131SOL    HW132852   3.622   2.214   7.961 -1.8233  0.1811 -1.7396
 7131SOL    HW232853   3.548   2.075   7.928 -0.0223 -0.2194  1.4115
 7132SOL     OW32854   3.048   0.578  16.036 -0.0913 -0.2306  0.0012
 7132SOL    HW132855   3.077   0.525  16.110  0.4820  0.5095  0.3046
 7132SOL    HW232856   2.957   0.548  16.036  0.1533 -0.9711  0.3709
 7133SOL     OW32857   1.873   4.325   5.839 -0.4785 -0.0812  0.0611
 7133SOL    HW132858   1.853   4.416   5.815  1.5316  0.3606  0.0437
 7133SOL    HW232859   1.898   4.335   5.931  0.0521  1.6852 -0.2633
 7134SOL     OW32860   0.113   2.486   2.699  0.3777  0.2909 -0.3724
 7134SOL    HW132861   0.165   2.406   2.713  1.3830  0.8868 -0.7126
 7134SOL    HW232862   0.174   2.557   2.717 -1.8325  2.0827  0.1182
 7135SOL     OW32863   2.199   0.064   6.083 -0.0024 -0.0840  0.1585
 7135SOL    HW132864   2.198   0.050   6.177  3.5905  2.3005  0.5632
 7135SOL    HW232865   2.135   4.719   6.053 -0.3903  0.1048  0.5892
 7136SOL     OW32866   4.135   4.588   8.760  0.6554  0.3573 -0.6974
 7136SOL    HW132867   4.182   4.613   8.840  1.9686  1.1905 -1.7375
 7136SOL    HW232868   4.188   4.635   8.696 -0.4755  0.3386 -1.6514
 7137SOL     OW32869   0.128   1.452   0.318 -0.4187  0.1308 -0.0119
 7137SOL    HW132870   0.173   1.396   0.381  3.1733  0.3542 -2.3718
 7137SOL    HW232871   0.063   1.388   0.289 -2.0166  2.2069 -0.9781
 7138SOL     OW32872   2.266   3.069   4.840 -0.0905  0.2121 -1.1141
 7138SOL    HW132873   2.292   3.158   4.816 -0.9203  0.3694 -1.3916
 7138SOL    HW232874   2.349   3.047   4.884 -0.6934 -0.9087 -0.5598
 7139SOL     OW32875   3.115   4.176  13.691 -0.0099  0.1847 -0.0558
 7139SOL    HW132876   3.113   4.127  13.773 -1.9519 -1.0578 -0.8545
 7139SOL    HW232877   3.045   4.142  13.636 -0.3919 -0.1721  0.6484
 7140SOL     OW32878   4.352   3.512   2.153  0.3715  0.1665 -0.1234
 7140SOL    HW132879   4.309   3.476   2.230 -0.5684  0.8531 -0.3246
 7140SOL    HW232880   4.357   3.605   2.178 -0.9367  0.3237 -0.4411
 7141SOL     OW32881   3.375   0.568   3.167  0.0790 -0.2094  0.2649
 7141SOL    HW132882   3.314   0.530   3.104  0.8242 -1.1576  0.1138
 7141SOL    HW232883   3.448   0.592   3.110 -2.2235  0.1231 -2.4906
 7142SOL     OW32884   4.657   1.816   7.133  0.0014 -0.2763 -0.0112
 7142SOL    HW132885   4.627   1.905   7.117 -0.2063 -0.5081 -0.9043
 7142SOL    HW232886   4.651   1.798   7.227 -0.7938 -1.8517 -0.3474
 7143SOL     OW32887   4.650   3.968   7.364 -0.1990  0.9546 -0.8310
 7143SOL    HW132888   4.669   3.932   7.451  0.8406  1.2450 -0.9283
 7143SOL    HW232889   4.560   3.998   7.378  0.2280  1.3800  1.0176
 7144SOL     OW32890   2.584   0.162   4.316 -0.2298  0.1085 -0.3880
 7144SOL    HW132891   2.560   0.153   4.408 -3.8429 -3.3017 -1.6548
 7144SOL    HW232892   2.544   0.246   4.294 -0.0282 -0.5456 -3.2711
 7145SOL     OW32893   0.892   2.277   1.120  0.1517  0.0618 -0.0962
 7145SOL    HW132894   0.893   2.272   1.025  1.4199 -1.1477 -0.0230
 7145SOL    HW232895   0.878   2.371   1.132  0.5496  0.2965 -1.5064
 7146SOL     OW32896   1.849   0.649  14.234 -0.1894 -0.3916  0.3591
 7146SOL    HW132897   1.890   0.573  14.193 -1.4958 -0.5126 -0.7405
 7146SOL    HW232898   1.886   0.725  14.189 -0.5893  0.2663  1.1492
 7147SOL     OW32899   0.411   3.994   2.890  0.1995 -0.0949  0.8896
 7147SOL    HW132900   0.438   4.010   2.799 -0.5313 -1.7638  0.3738
 7147SOL    HW232901   0.318   3.984   2.872  0.4913  0.9867 -1.2505
 7148SOL     OW32902   3.718   3.835   3.914 -0.0352 -0.3498 -0.3473
 7148SOL    HW132903   3.733   3.747   3.879 -2.6277 -0.5053 -1.1133
 7148SOL    HW232904   3.793   3.884   3.880  0.0836  1.6042  2.7431
 7149SOL     OW32905   0.575   3.642   3.731 -0.4496 -0.1905 -0.8740
 7149SOL    HW132906   0.645   3.697   3.696  0.1277  0.1051  0.7651
 7149SOL    HW232907   0.589   3.573   3.666  0.0423 -0.9758  0.0826
 7150SOL     OW32908   3.416   0.316   5.486  0.2642 -0.3666  0.4337
 7150SOL    HW132909   3.336   0.369   5.489  1.1407  0.8642  1.9687
 7150SOL    HW232910   3.381   0.247   5.429  1.7621 -1.6698  1.0805
 7151SOL     OW32911   0.658   2.697   2.204  0.0687  0.2919 -0.5072
 7151SOL    HW132912   0.663   2.699   2.108 -2.1049  0.7223 -0.6125
 7151SOL    HW232913   0.669   2.790   2.220 -0.2272  0.1592  0.4628
 7152SOL     OW32914   2.006   3.620   1.124 -0.3496 -0.4934 -0.3061
 7152SOL    HW132915   1.997   3.658   1.212  0.2001  0.9541 -0.8700
 7152SOL    HW232916   1.975   3.691   1.068  0.4540  0.3574  0.3202
 7153SOL     OW32917   0.694   4.129   2.740  0.3267  0.3783  0.2044
 7153SOL    HW132918   0.694   4.066   2.813  1.8877  0.8460  0.6045
 7153SOL    HW232919   0.788   4.142   2.735  0.4997 -0.9353  0.0059
 7154SOL     OW32920   4.180   1.013   1.664 -0.3087 -0.2834 -0.1773
 7154SOL    HW132921   4.149   1.103   1.662  0.6291  0.0641  0.7420
 7154SOL    HW232922   4.269   1.027   1.630 -1.4961  1.1691 -2.6082
 7155SOL     OW32923   0.096   4.135   0.175  0.0222 -0.7017 -0.4386
 7155SOL    HW132924   0.054   4.218   0.198  0.1383 -0.4488 -1.1271
 7155SOL    HW232925   0.015   4.086   0.186 -1.1414  0.6506 -2.9397
 7156SOL     OW32926   3.236   1.269   4.282 -0.1929 -0.0592 -0.0133
 7156SOL    HW132927   3.168   1.312   4.230  0.7088  1.5762  0.1459
 7156SOL    HW232928   3.293   1.230   4.216  3.8300  0.3508  3.2218
 7157SOL     OW32929   1.033   4.289   4.618  0.1087  0.1805  0.0956
 7157SOL    HW132930   1.030   4.384   4.605  0.6772  0.2466  0.4374
 7157SOL    HW232931   0.954   4.258   4.574  0.7905  0.8332 -1.5933
 7158SOL     OW32932   0.434   3.452   8.278  0.0283  0.6757  0.1515
 7158SOL    HW132933   0.407   3.388   8.344  1.3663  1.0175  1.0259
 7158SOL    HW232934   0.511   3.405   8.245 -0.3055  0.5090 -0.3860
 7159SOL     OW32935   2.735   4.420  10.859  0.5598 -0.0672 -0.5305
 7159SOL    HW132936   2.748   4.412  10.954  0.1395  0.5216 -0.4190
 7159SOL    HW232937   2.805   4.482  10.841  0.4030  0.3967  0.4488
 7160SOL     OW32938   3.449   3.386   7.468  0.0069  0.2408  0.1745
 7160SOL    HW132939   3.365   3.396   7.512 -0.0834 -0.8665  0.2337
 7160SOL    HW232940   3.441   3.451   7.397  0.1864  1.4851  1.2939
 7161SOL     OW32941   1.358   3.268   3.783  0.3287 -0.2787  0.0139
 7161SOL    HW132942   1.282   3.311   3.821  0.0449 -1.6139  0.9497
 7161SOL    HW232943   1.351   3.178   3.814 -0.2473  0.1726  1.2188
 7162SOL     OW32944   3.304   2.874   1.176  0.3342 -0.3840 -0.1842
 7162SOL    HW132945   3.339   2.835   1.096  2.8808 -0.6130  1.0475
 7162SOL    HW232946   3.369   2.943   1.193 -1.4064  1.2965 -0.2724
 7163SOL     OW32947   0.318   1.890  15.268 -0.1630 -0.3501  0.2628
 7163SOL    HW132948   0.407   1.860  15.290  0.5747  0.8286 -1.1459
 7163SOL    HW232949   0.267   1.809  15.274 -1.1029  0.1464 -1.1723
 7164SOL     OW32950   1.200   0.829  12.626  0.0445 -0.3451  0.1791
 7164SOL    HW132951   1.139   0.781  12.684 -0.7247  0.5315  0.0975
 7164SOL    HW232952   1.254   0.754  12.602  1.7188  0.5189  1.2294
 7165SOL     OW32953   1.953   3.102   9.107  0.2429 -0.2078 -0.1205
 7165SOL    HW132954   1.899   3.049   9.049 -2.8182  0.7002  1.9136
 7165SOL    HW232955   1.972   3.050   9.185  0.7236 -3.3965 -2.3436
 7166SOL     OW32956   3.804   0.642   9.150  0.5939 -0.5522  0.0207
 7166SOL    HW132957   3.789   0.637   9.056  1.2737 -2.8245  0.0367
 7166SOL    HW232958   3.892   0.604   9.153  1.1891  0.8568  0.7161
 7167SOL     OW32959   0.661   4.472   1.880  0.0870 -0.2535 -0.4389
 7167SOL    HW132960   0.655   4.456   1.786 -0.2731 -0.1823 -0.4275
 7167SOL    HW232961   0.586   4.424   1.914  0.0170 -1.1070 -1.7939
 7168SOL     OW32962   0.316   0.557   0.970 -0.4704  0.3990 -0.3166
 7168SOL    HW132963   0.300   0.464   0.952 -0.6244  0.4561 -0.4716
 7168SOL    HW232964   0.287   0.592   0.886 -0.6868 -0.5787 -0.6591
 7169SOL     OW32965   0.409   4.452   3.213 -0.2046 -0.3833 -0.3724
 7169SOL    HW132966   0.384   4.364   3.186  2.9103 -2.2417  2.7873
 7169SOL    HW232967   0.378   4.451   3.303  0.2043  1.7719 -0.1895
 7170SOL     OW32968   3.976   3.367   6.445 -0.3056 -0.5593  0.7000
 7170SOL    HW132969   3.885   3.340   6.430  0.2024  0.2364 -3.8698
 7170SOL    HW232970   3.972   3.461   6.461  0.3328 -0.2553 -0.9194
 7171SOL     OW32971   1.364   2.749   2.522 -0.0297  0.4573  0.0240
 7171SOL    HW132972   1.284   2.698   2.510  1.6050 -2.1758  0.2132
 7171SOL    HW232973   1.333   2.838   2.503 -0.0399  0.5371  0.4316
 7172SOL     OW32974   4.446   1.241   4.188 -0.2511  0.2909 -1.1568
 7172SOL    HW132975   4.447   1.316   4.247 -0.0975 -1.0622  0.5609
 7172SOL    HW232976   4.411   1.170   4.242 -1.8231  1.4000 -0.6970
 7173SOL     OW32977   2.853   0.767   6.936  0.0612  0.2393 -0.2198
 7173SOL    HW132978   2.840   0.850   6.981 -0.0346 -0.1744  0.5074
 7173SOL    HW232979   2.922   0.721   6.983 -0.2203 -0.8817 -0.8816
 7174SOL     OW32980   2.657   0.629   2.443  0.7650  0.2887  0.7072
 7174SOL    HW132981   2.587   0.666   2.496 -1.7305 -1.0187 -1.6723
 7174SOL    HW232982   2.651   0.539   2.474 -1.4931  0.7537  1.6124
 7175SOL     OW32983   0.499   0.421   5.225  0.4329 -0.2223 -0.4269
 7175SOL    HW132984   0.527   0.338   5.262  1.7205  0.8896  1.0838
 7175SOL    HW232985   0.542   0.428   5.139  0.3942  2.7746 -0.2015
 7176SOL     OW32986   0.338   2.549   5.660  0.0379  0.4112  0.4048
 7176SOL    HW132987   0.326   2.463   5.621 -0.7055  0.6891  0.0201
 7176SOL    HW232988   0.252   2.586   5.678 -0.2380 -0.5083  0.9600
 7177SOL     OW32989   4.502   0.951   4.866 -0.5125  0.8726 -0.3436
 7177SOL    HW132990   4.511   1.036   4.823  1.1359 -0.0775 -1.8574
 7177SOL    HW232991   4.534   0.892   4.797 -1.8492 -2.4350  1.8570
 7178SOL     OW32992   4.153   4.109  11.956  0.2967 -0.0088 -0.5732
 7178SOL    HW132993   4.081   4.171  11.947  1.8523  1.8106 -0.3183
 7178SOL    HW232994   4.214   4.171  11.917  0.4629 -0.0086 -0.3123
 7179SOL     OW32995   1.239   1.774   0.242  0.0560  0.3818  0.3127
 7179SOL    HW132996   1.186   1.700   0.213 -1.4365  0.7736  2.0054
 7179SOL    HW232997   1.251   1.827   0.163 -0.6858  1.0807  0.6679
 7180SOL     OW32998   2.053   4.475   6.891 -0.2830 -0.1161 -0.6621
 7180SOL    HW132999   1.983   4.411   6.904 -2.5571  2.1238 -1.7082
 7180SOL    HW233000   2.010   4.557   6.918  0.7939  0.9746 -2.2677
 7181SOL     OW33001   3.063   3.685   5.145 -1.0319 -0.3166 -0.2926
 7181SOL    HW133002   3.043   3.715   5.056  3.3477  0.1114 -1.1368
 7181SOL    HW233003   3.128   3.618   5.124  0.3144  0.7226  0.5403
 7182SOL     OW33004   4.690   3.203  17.251  0.2581  0.6948 -0.1589
 7182SOL    HW133005   4.626   3.148  17.296 -0.0781  0.9547 -0.3173
 7182SOL    HW233006   4.669   3.278  17.307  1.3056  1.3643 -0.6644
 7183SOL     OW33007   0.680   2.093   2.404 -0.3165  0.1318 -0.5114
 7183SOL    HW133008   0.721   2.107   2.319  1.8282  0.9098  0.6494
 7183SOL    HW233009   0.605   2.045   2.370 -0.9694  0.9256 -0.1986
 7184SOL     OW33010   4.477   1.400   8.315  0.9344  0.4265  0.0399
 7184SOL    HW133011   4.509   1.312   8.296  0.4599  0.6161 -1.6682
 7184SOL    HW233012   4.514   1.448   8.240 -2.2948  0.6118 -1.4166
 7185SOL     OW33013   0.807   3.270   9.890 -0.1150  0.3046  0.9749
 7185SOL    HW133014   0.892   3.310   9.909 -0.4215  0.8597  1.1858
 7185SOL    HW233015   0.791   3.241   9.980  2.1756 -2.9335  0.3185
 7186SOL     OW33016   0.734   3.640   1.942  0.0529 -0.0597 -0.1725
 7186SOL    HW133017   0.683   3.647   2.023  2.7903 -0.6241  1.6092
 7186SOL    HW233018   0.810   3.690   1.971 -0.2971  0.7577 -0.6440
 7187SOL     OW33019   1.131   3.579   4.354 -0.8657 -0.0193 -0.6436
 7187SOL    HW133020   1.212   3.628   4.342 -1.5079  1.6877  1.9113
 7187SOL    HW233021   1.076   3.653   4.381  1.0001  1.6295 -1.4009
 7188SOL     OW33022   1.214   4.633   0.135 -0.5686  0.1543  0.3998
 7188SOL    HW133023   1.287   4.665   0.081 -2.1506  1.2141 -1.0997
 7188SOL    HW233024   1.139   4.664   0.084  0.3044  1.8008  0.1207
 7189SOL     OW33025   2.106   1.550   3.591 -0.7299  0.2441 -0.4157
 7189SOL    HW133026   2.061   1.598   3.660 -1.6121 -1.1271 -0.0555
 7189SOL    HW233027   2.110   1.619   3.524  1.9254  1.1893  0.6996
 7190SOL     OW33028   3.397   0.017   1.516 -0.2192  0.1423  0.7093
 7190SOL    HW133029   3.435   0.007   1.604 -2.5056 -0.5615  1.6239
 7190SOL    HW233030   3.465   0.075   1.483  1.5748  0.7618  5.4746
 7191SOL     OW33031   0.795   4.286  17.545  0.3411  0.1089  0.3068
 7191SOL    HW133032   0.750   4.322  17.468 -0.6285 -1.1507  0.3048
 7191SOL    HW233033   0.854   4.223  17.506 -0.3142 -0.5089  0.3236
 7192SOL     OW33034   1.313   0.951   1.849 -0.4857  0.0913  0.1249
 7192SOL    HW133035   1.310   1.026   1.790  0.1468 -2.3889 -2.9883
 7192SOL    HW233036   1.392   0.902   1.825 -1.4342 -1.1516 -0.4435
 7193SOL     OW33037   1.617   1.086  16.012  0.0677 -0.0201 -0.0821
 7193SOL    HW133038   1.677   1.015  16.036 -0.6848 -0.9041 -0.8035
 7193SOL    HW233039   1.619   1.128  16.098  0.1621 -0.6173  0.2120
 7194SOL     OW33040   0.742   0.173  10.180 -0.1227  0.4617 -0.5804
 7194SOL    HW133041   0.711   0.262  10.164  0.3201  0.3096 -2.2732
 7194SOL    HW233042   0.834   0.188  10.157 -0.1033 -0.4235 -1.0939
 7195SOL     OW33043   0.080   2.001  12.076  0.1916 -0.2136  0.1385
 7195SOL    HW133044   0.175   2.007  12.087  0.1890 -2.2800  1.2701
 7195SOL    HW233045   0.078   1.977  11.983 -3.5944  0.8615 -0.0678
 7196SOL     OW33046   3.776   0.171  12.661  0.1663  0.1307 -0.1526
 7196SOL    HW133047   3.805   0.079  12.660  0.8939  0.3590  0.7198
 7196SOL    HW233048   3.851   0.213  12.619  0.6208  0.6938  1.2340
 7197SOL     OW33049   2.792   0.155   2.412  0.6779  0.2734 -0.3344
 7197SOL    HW133050   2.855   0.172   2.483 -1.6109  1.9574  1.3004
 7197SOL    HW233051   2.780   0.244   2.379 -0.6004 -0.0486 -0.7315
 7198SOL     OW33052   2.052   2.835   6.037  0.0854  0.3864 -0.3819
 7198SOL    HW133053   2.077   2.826   6.129  0.7933  0.5471 -0.5589
 7198SOL    HW233054   2.134   2.856   5.993  0.1694  1.7719  0.4601
 7199SOL     OW33055   3.947   1.296  12.345 -0.2287  0.0382  0.5349
 7199SOL    HW133056   3.996   1.268  12.422 -0.8485 -0.3557  0.7854
 7199SOL    HW233057   3.856   1.298  12.375 -0.6148 -0.2940 -0.6138
 7200SOL     OW33058   1.085   2.891   4.370 -0.3999 -0.0167 -0.2470
 7200SOL    HW133059   1.085   2.893   4.466  0.8219  2.2766 -0.2845
 7200SOL    HW233060   1.004   2.846   4.348 -0.4840  0.6437 -1.2932
 7201SOL     OW33061   4.621   1.614   3.838 -0.4338  0.2388  0.1731
 7201SOL    HW133062   4.635   1.532   3.885 -0.2996 -1.2757 -2.5003
 7201SOL    HW233063   4.667   1.680   3.890 -1.2502  1.0964 -0.1820
 7202SOL     OW33064   0.228   1.470   9.214  0.3548  0.0926 -0.2077
 7202SOL    HW133065   0.180   1.422   9.146  0.9406  0.1641 -0.6742
 7202SOL    HW233066   0.318   1.482   9.182  0.4333 -1.3205 -0.4858
 7203SOL     OW33067   0.383   3.902  11.383  0.0389  0.4580 -0.2670
 7203SOL    HW133068   0.454   3.838  11.375  1.4001  2.0677 -1.2358
 7203SOL    HW233069   0.304   3.849  11.369 -0.1168  0.6500 -0.1163
 7204SOL     OW33070   2.543   3.945   3.793 -0.0634 -0.9135  0.1802
 7204SOL    HW133071   2.510   3.861   3.760 -2.1984  0.2491 -0.6688
 7204SOL    HW233072   2.635   3.955   3.770 -0.4129  3.1005  0.6273
 7205SOL     OW33073   1.915   3.518   6.307 -0.4100  0.1245 -0.0099
 7205SOL    HW133074   1.988   3.459   6.326  0.3073  1.2895  0.8590
 7205SOL    HW233075   1.904   3.569   6.387 -0.5503 -1.9124  1.2682
 7206SOL     OW33076   0.265   1.364  10.282 -0.2140 -0.8098 -0.7335
 7206SOL    HW133077   0.318   1.356  10.361 -2.7876 -0.5459  1.0145
 7206SOL    HW233078   0.247   1.272  10.266 -1.3953 -0.9374  1.4193
 7207SOL     OW33079   3.456   2.046  10.501 -0.3154  0.0576  0.3018
 7207SOL    HW133080   3.513   2.020  10.429  0.4780 -0.4475  1.1124
 7207SOL    HW233081   3.413   1.965  10.528  0.6017 -0.4897  0.0994
 7208SOL     OW33082   2.203   1.656  15.889  0.3276 -0.6806 -0.4785
 7208SOL    HW133083   2.258   1.728  15.860 -0.7084 -0.1515 -1.1419
 7208SOL    HW233084   2.262   1.593  15.931 -0.0900 -1.6687 -1.3740
 7209SOL     OW33085   3.424   2.100   4.594  0.4162  0.3254 -0.7428
 7209SOL    HW133086   3.353   2.140   4.543 -1.8298 -1.3413  1.0808
 7209SOL    HW233087   3.493   2.105   4.527 -0.9403  0.0352 -2.1634
 7210SOL     OW33088   2.877   3.330   8.913  0.2371  0.1486  0.2899
 7210SOL    HW133089   2.962   3.308   8.952 -0.0969 -0.2988  0.7562
 7210SOL    HW233090   2.852   3.414   8.952 -0.0987  0.2823 -0.2194
 7211SOL     OW33091   2.100   0.150   4.836  0.2669 -0.4255 -0.7140
 7211SOL    HW133092   2.147   0.138   4.918  0.3171  1.0626 -0.5189
 7211SOL    HW233093   2.040   0.077   4.852 -2.2379  2.1716  1.9235
 7212SOL     OW33094   2.059   4.199   5.635  0.1113  0.7084  0.1060
 7212SOL    HW133095   2.018   4.113   5.641  0.4553  0.5027 -0.5443
 7212SOL    HW233096   2.018   4.231   5.715  0.3629  1.8182 -0.2145
 7213SOL     OW33097   4.123   1.477  16.497 -0.4399  0.1518  0.1446
 7213SOL    HW133098   4.125   1.386  16.527 -1.3133  0.1229  0.1084
 7213SOL    HW233099   4.052   1.473  16.433  1.2361  2.2358 -1.8418
 7214SOL     OW33100   3.781   4.067   8.508 -0.4062  0.5522  0.0816
 7214SOL    HW133101   3.686   4.061   8.496 -0.5700 -0.7547  2.0615
 7214SOL    HW233102   3.791   4.150   8.554 -0.3525  0.0803  0.9215
 7215SOL     OW33103   4.631   1.344   0.162  0.4341 -0.0604  0.8552
 7215SOL    HW133104   4.554   1.387   0.199  0.2690 -1.5236  2.2246
 7215SOL    HW233105   4.624   1.255   0.196  1.0681 -1.7508 -3.4060
 7216SOL     OW33106   4.513   3.701   3.002  0.3017  0.2911 -0.1335
 7216SOL    HW133107   4.485   3.667   2.917  0.0202  1.3661 -0.4697
 7216SOL    HW233108   4.429   3.742   3.021 -0.6182 -1.8948  0.5315
 7217SOL     OW33109   4.287   0.113  15.063 -0.7467  0.1652  0.0548
 7217SOL    HW133110   4.321   0.163  15.138  3.1319 -0.8270 -1.0712
 7217SOL    HW233111   4.373   0.086  15.031 -1.2302  0.1039 -1.1644
 7218SOL     OW33112   3.884   3.995   8.821 -0.2745  0.0751  0.5739
 7218SOL    HW133113   3.926   3.929   8.877  2.2257  0.9416 -0.2450
 7218SOL    HW233114   3.957   4.040   8.778  1.3262 -1.0294  2.1158
 7219SOL     OW33115   1.007   1.747   9.496 -0.5624  0.7366  0.4587
 7219SOL    HW133116   1.026   1.745   9.590 -1.2225  1.3895  0.6094
 7219SOL    HW233117   0.922   1.703   9.491  0.2061 -0.6967  0.0060
 7220SOL     OW33118   0.312   3.113   6.909  0.1707 -0.7208 -0.4023
 7220SOL    HW133119   0.275   3.094   6.995 -1.8597  1.3114 -0.8328
 7220SOL    HW233120   0.333   3.206   6.922  0.2270 -0.8463  0.3876
 7221SOL     OW33121   0.615   3.423  17.094  0.2575 -0.5382  0.0494
 7221SOL    HW133122   0.703   3.421  17.130  0.6816  0.7810 -0.9573
 7221SOL    HW233123   0.565   3.390  17.170 -2.0749  1.0396 -0.7963
 7222SOL     OW33124   0.554   3.716   2.736  0.0448  0.1038  0.0962
 7222SOL    HW133125   0.478   3.732   2.792  2.2251  4.6202  1.7316
 7222SOL    HW233126   0.545   3.793   2.680  0.5169 -1.2486 -1.8407
 7223SOL     OW33127   2.892   2.457  11.836 -0.0779 -0.4661  0.3405
 7223SOL    HW133128   2.961   2.503  11.788 -1.1526  0.5706 -0.2064
 7223SOL    HW233129   2.822   2.472  11.773  0.3885 -1.6618 -0.4480
 7224SOL     OW33130   1.284   4.198   3.025  0.4532  0.6778  0.3977
 7224SOL    HW133131   1.199   4.233   3.052 -0.6248 -1.1775 -0.6625
 7224SOL    HW233132   1.324   4.180   3.111 -0.2714  2.3439  1.0959
 7225SOL     OW33133   2.794   4.129  16.621  0.5278 -0.2545 -0.3333
 7225SOL    HW133134   2.863   4.115  16.686  0.9662  1.3608 -0.4422
 7225SOL    HW233135   2.723   4.085  16.667  0.4419  0.1503 -0.0829
 7226SOL     OW33136   1.264   1.389   7.382  0.2035  0.2229 -0.4209
 7226SOL    HW133137   1.285   1.305   7.423 -0.3090  1.4379  2.3430
 7226SOL    HW233138   1.171   1.375   7.366 -0.6120  2.7399  2.1779
 7227SOL     OW33139   1.550   4.509   9.338  0.4101  0.7627 -0.0729
 7227SOL    HW133140   1.639   4.517   9.375  0.6346 -1.0059 -0.2171
 7227SOL    HW233141   1.521   4.425   9.375  1.0583  1.8180  2.8862
 7228SOL     OW33142   1.200   2.676   6.566 -0.3578  0.4480  0.2266
 7228SOL    HW133143   1.167   2.766   6.558  1.5016  1.0048 -1.2799
 7228SOL    HW233144   1.150   2.638   6.493 -0.5708  0.4485  0.3709
 7229SOL     OW33145   0.296   3.948   7.538  0.0315 -0.8632  0.0035
 7229SOL    HW133146   0.237   3.873   7.544 -0.9776 -0.0824 -0.0674
 7229SOL    HW233147   0.293   3.988   7.625 -1.3194  0.5012 -0.6634
 7230SOL     OW33148   3.350   4.078  15.250  0.0742  0.1685  0.1761
 7230SOL    HW133149   3.404   4.121  15.316 -0.8395 -0.3460  1.2557
 7230SOL    HW233150   3.327   4.152  15.193 -1.2478  1.8856  2.9505
 7231SOL     OW33151   2.407   1.345   0.040  0.1719  0.4920 -0.1065
 7231SOL    HW133152   2.330   1.333  17.664  0.5107 -3.2717  0.1745
 7231SOL    HW233153   2.422   1.439   0.030  1.7619  0.3339  0.7518
 7232SOL     OW33154   2.944   3.437   7.888  0.0640  0.1597  0.2603
 7232SOL    HW133155   2.924   3.484   7.969 -3.0750  1.8959 -1.5650
 7232SOL    HW233156   2.856   3.434   7.852 -0.0641 -0.1629  0.5962
 7233SOL     OW33157   3.344   3.656   2.872 -0.2037 -0.0175 -0.5256
 7233SOL    HW133158   3.266   3.614   2.834  1.2242 -1.4697 -1.8579
 7233SOL    HW233159   3.351   3.586   2.937  2.1304  0.5056 -0.2256
 7234SOL     OW33160   0.030   2.678   0.195  0.2540 -0.5394 -0.6021
 7234SOL    HW133161   0.051   2.585   0.206  1.3938 -0.1956  0.0077
 7234SOL    HW233162   4.697   2.702   0.272  1.1821 -0.7178  0.0758
 7235SOL     OW33163   3.376   0.620   7.218 -0.5531 -0.2745 -0.2830
 7235SOL    HW133164   3.328   0.638   7.137  2.3099 -0.9175 -2.1357
 7235SOL    HW233165   3.457   0.592   7.175 -1.4733 -0.5512 -1.8162
 7236SOL     OW33166   0.467   0.588   4.172  0.2837 -0.4778  0.2555
 7236SOL    HW133167   0.533   0.612   4.238  0.4398 -0.1650 -0.0141
 7236SOL    HW233168   0.487   0.496   4.158 -3.5394 -1.3422  0.5581
 7237SOL     OW33169   4.418   0.106   5.513 -0.2670  0.1071 -0.4525
 7237SOL    HW133170   4.505   0.099   5.554 -1.6381 -2.7982  1.9560
 7237SOL    HW233171   4.363   0.105   5.591  1.1413 -2.0121  0.5390
 7238SOL     OW33172   3.949   1.980   8.345  0.0834 -0.0515 -0.4975
 7238SOL    HW133173   4.013   2.050   8.358 -1.4011  1.5781 -2.0319
 7238SOL    HW233174   3.955   1.965   8.251 -0.4751  0.8421 -0.6752
 7239SOL     OW33175   3.470   1.945  13.286 -0.8218 -0.0788  0.1103
 7239SOL    HW133176   3.501   1.868  13.332 -1.8515 -0.3370  0.3639
 7239SOL    HW233177   3.435   1.991  13.362  0.7844  0.8882  0.2536
 7240SOL     OW33178   2.228   0.489   4.326 -0.5943  0.4949 -0.1082
 7240SOL    HW133179   2.169   0.513   4.254 -1.3067  0.8250  0.5835
 7240SOL    HW233180   2.284   0.564   4.348  1.4186 -1.5818  1.7998
 7241SOL     OW33181   1.390   0.691   4.712 -0.2958 -0.3268  0.0153
 7241SOL    HW133182   1.424   0.710   4.800 -0.0239  2.6630 -0.7247
 7241SOL    HW233183   1.466   0.644   4.676 -1.1385 -1.3797 -0.3682
 7242SOL     OW33184   3.755   0.931   4.214 -0.0888  0.4558  0.2278
 7242SOL    HW133185   3.727   0.916   4.123  1.9956 -0.8218 -0.2207
 7242SOL    HW233186   3.844   0.965   4.202  0.4191 -1.5060 -1.6628
 7243SOL     OW33187   4.660   4.626   8.649 -0.0287  0.0101 -0.0587
 7243SOL    HW133188   4.651   4.687   8.575 -0.9892 -0.8315 -0.6357
 7243SOL    HW233189   4.659   4.688   8.722  0.2002  2.7310 -2.3527
 7244SOL     OW33190   1.883   4.171   7.216 -0.3258  0.0408 -0.0397
 7244SOL    HW133191   1.811   4.122   7.256 -1.4076  0.4549 -1.4480
 7244SOL    HW233192   1.960   4.149   7.268  0.0133  1.9348  0.2678
 7245SOL     OW33193   3.469   2.186   6.455  0.3631  0.4940  0.3252
 7245SOL    HW133194   3.454   2.244   6.381  1.9672  0.3606 -0.1151
 7245SOL    HW233195   3.549   2.143   6.422  0.0241  0.0501  0.0790
 7246SOL     OW33196   0.448   2.184  13.683  0.1203  0.2496 -0.1799
 7246SOL    HW133197   0.392   2.179  13.606  1.4436 -1.4854 -1.0316
 7246SOL    HW233198   0.515   2.249  13.662 -0.7718  1.1141 -0.3731
 7247SOL     OW33199   2.660   1.134   4.300 -0.0630 -0.8434 -0.2201
 7247SOL    HW133200   2.671   1.209   4.242  1.7980 -0.9584 -0.0186
 7247SOL    HW233201   2.740   1.084   4.282 -0.3623 -0.6826 -1.9369
 7248SOL     OW33202   1.421   2.905  12.360  0.0189 -0.5254  0.7791
 7248SOL    HW133203   1.491   2.909  12.295 -0.1263 -0.2303  0.6394
 7248SOL    HW233204   1.474   2.870  12.431  0.2704 -0.2492  0.7288
 7249SOL     OW33205   3.581   1.392   4.957 -0.0145 -0.1644  0.0982
 7249SOL    HW133206   3.668   1.421   4.982  0.2949 -1.0086 -0.0292
 7249SOL    HW233207   3.540   1.473   4.926  2.4475  1.4767  1.1295
 7250SOL     OW33208   0.728   3.937   2.340 -0.7900  1.0264 -0.1036
 7250SOL    HW133209   0.633   3.944   2.332 -0.7118  0.6804 -1.3112
 7250SOL    HW233210   0.765   4.020   2.310  0.3781  0.0392 -1.3941
 7251SOL     OW33211   4.521   3.700  15.910  0.1899  0.0649 -0.0681
 7251SOL    HW133212   4.521   3.712  16.005 -0.1278  1.1611 -0.2011
 7251SOL    HW233213   4.511   3.605  15.906  1.2620  0.0466 -2.2791
 7252SOL     OW33214   0.019   4.454   5.861 -0.5356  0.0818 -0.1591
 7252SOL    HW133215   4.669   4.510   5.827 -0.8067 -1.2031 -1.7573
 7252SOL    HW233216   4.703   4.369   5.835  1.8934 -0.9662 -0.0572
 7253SOL     OW33217   2.488   0.458   2.875  0.5950 -0.0108 -0.4063
 7253SOL    HW133218   2.437   0.538   2.862  1.9823  0.7827 -0.9560
 7253SOL    HW233219   2.508   0.472   2.968 -2.0855  0.4558  0.1203
 7254SOL     OW33220   2.862   1.209   5.494  0.5943 -0.0647 -0.0308
 7254SOL    HW133221   2.931   1.222   5.560  1.3028 -1.1321 -0.5582
 7254SOL    HW233222   2.905   1.145   5.437 -0.3296  0.1896 -0.9981
 7255SOL     OW33223   0.671   1.271   5.023  0.1661  0.2908  0.1847
 7255SOL    HW133224   0.759   1.252   5.057 -0.7380 -0.9293  1.8591
 7255SOL    HW233225   0.607   1.254   5.092 -0.7812  2.2360 -0.2296
 7256SOL     OW33226   0.353   3.473   3.098 -0.0020 -0.0061 -0.1969
 7256SOL    HW133227   0.428   3.437   3.052 -2.1181 -1.7855 -2.2715
 7256SOL    HW233228   0.324   3.405   3.159 -1.5147 -2.1354 -3.3013
 7257SOL     OW33229   0.929   2.348   6.224 -0.0667  0.0588  0.1695
 7257SOL    HW133230   1.008   2.375   6.176 -0.8478  0.4265 -0.9060
 7257SOL    HW233231   0.877   2.300   6.160  0.1074  1.7926 -1.2862
 7258SOL     OW33232   0.200   4.206   3.894  0.3830  0.3436 -0.4362
 7258SOL    HW133233   0.261   4.275   3.870 -0.2904  1.5116  1.1780
 7258SOL    HW233234   0.115   4.251   3.896 -1.3955 -3.0935  1.8003
 7259SOL     OW33235   3.709   3.311   6.310 -0.6198  0.5777 -0.8844
 7259SOL    HW133236   3.622   3.347   6.290 -1.1359 -0.5503 -0.6921
 7259SOL    HW233237   3.734   3.288   6.220 -0.9312 -1.6532 -0.4055
 7260SOL     OW33238   1.514   2.727   8.175  0.2777  0.3698 -0.0481
 7260SOL    HW133239   1.548   2.640   8.195  2.1848  1.2347  0.4337
 7260SOL    HW233240   1.511   2.764   8.263  1.8111 -1.6538  0.8475
 7261SOL     OW33241   2.609   0.218   0.305  0.0464  0.4073  0.0412
 7261SOL    HW133242   2.533   0.165   0.283 -1.2045  1.7486  1.0647
 7261SOL    HW233243   2.679   0.183   0.250 -1.9468 -1.3710 -1.3030
 7262SOL     OW33244   1.578   1.705   4.994 -0.3424 -0.4837  0.1690
 7262SOL    HW133245   1.562   1.643   5.065 -0.3926  1.3785  1.7809
 7262SOL    HW233246   1.673   1.717   4.996 -0.1582 -2.0284  0.2001
 7263SOL     OW33247   0.906   2.296   8.061 -0.0187  0.5865 -0.9990
 7263SOL    HW133248   0.915   2.281   8.155  0.3447  0.9628 -0.9723
 7263SOL    HW233249   0.887   2.207   8.031  0.1194 -0.0049  0.6476
 7264SOL     OW33250   3.391   0.999  11.796 -0.5358  0.2502  0.1660
 7264SOL    HW133251   3.325   0.931  11.787 -2.2011  1.8363  0.6035
 7264SOL    HW233252   3.363   1.035  11.880 -0.0749 -0.7365  0.7418
 7265SOL     OW33253   4.399   4.066   3.228 -0.6740  0.0870  0.3479
 7265SOL    HW133254   4.492   4.049   3.242 -1.5070 -3.2215  1.7820
 7265SOL    HW233255   4.370   4.037   3.314 -0.5169 -0.7650  0.1172
 7266SOL     OW33256   3.243   2.814   8.679  0.6520  0.2518 -0.2229
 7266SOL    HW133257   3.276   2.853   8.598  0.4844  0.1266 -0.3494
 7266SOL    HW233258   3.310   2.846   8.741  1.6691  0.1963 -1.2842
 7267SOL     OW33259   4.396   0.236   8.199 -0.2227  0.3050 -0.0271
 7267SOL    HW133260   4.403   0.286   8.281 -1.6349 -0.3570  0.4888
 7267SOL    HW233261   4.413   0.144   8.218 -0.0638  0.4998  0.8092
 7268SOL     OW33262   2.328   1.976   6.582 -0.1203 -0.0496 -0.0697
 7268SOL    HW133263   2.295   2.040   6.519 -1.9913 -0.9617 -0.0294
 7268SOL    HW233264   2.281   1.902   6.544 -0.5689  0.2025 -0.0058
 7269SOL     OW33265   3.366   2.383   1.231 -0.5872  0.0388 -0.0374
 7269SOL    HW133266   3.411   2.464   1.255  0.0602 -0.8359  1.7518
 7269SOL    HW233267   3.440   2.327   1.208  1.2028  2.3918 -0.0344
 7270SOL     OW33268   3.533   3.002   1.228  0.1867 -0.5544  0.1452
 7270SOL    HW133269   3.579   3.045   1.156  0.3850 -0.7403  0.1599
 7270SOL    HW233270   3.596   2.966   1.291  0.7866 -2.2008 -1.3827
 7271SOL     OW33271   2.132   3.670   5.912  0.3293  0.0011 -0.4500
 7271SOL    HW133272   2.095   3.624   5.836 -0.8960 -0.1308  0.2304
 7271SOL    HW233273   2.200   3.608   5.940  0.7347  0.7649  0.2293
 7272SOL     OW33274   0.708   1.624  15.504 -0.3808 -0.0753  0.5385
 7272SOL    HW133275   0.792   1.666  15.484 -0.1395 -1.6550 -1.7415
 7272SOL    HW233276   0.718   1.623  15.599  2.6204  0.6238  0.2151
 7273SOL     OW33277   3.385   3.271  13.064 -0.0886 -0.0681  0.0052
 7273SOL    HW133278   3.370   3.319  12.982  3.2998  0.3542 -0.3463
 7273SOL    HW233279   3.466   3.224  13.043 -1.0636 -1.4619 -0.6634
 7274SOL     OW33280   1.883   2.134   3.464 -0.0957  0.4991  0.1112
 7274SOL    HW133281   1.978   2.134   3.478 -0.1362 -1.5007  0.4218
 7274SOL    HW233282   1.875   2.229   3.458 -1.1697  0.2966 -1.7780
 7275SOL     OW33283   3.007   4.250   6.352  0.1140 -0.0975  0.4626
 7275SOL    HW133284   2.918   4.281   6.363 -0.3841 -1.3430 -0.0197
 7275SOL    HW233285   3.025   4.227   6.444  0.1312  0.0496  0.4962
 7276SOL     OW33286   1.092   0.260   0.272  0.4754 -0.3431 -0.0362
 7276SOL    HW133287   1.149   0.186   0.294  1.8229  0.2880 -1.3902
 7276SOL    HW233288   1.005   0.224   0.286 -0.3633  2.2264  1.3400
 7277SOL     OW33289   1.332   4.612   2.392  0.3275 -0.2859 -0.3485
 7277SOL    HW133290   1.242   4.607   2.424 -0.0643  0.5014 -1.3568
 7277SOL    HW233291   1.371   4.686   2.438  0.0511 -1.6700  2.1671
 7278SOL     OW33292   1.453   2.772   9.993  0.0163  0.3509 -0.0672
 7278SOL    HW133293   1.439   2.782   9.899 -2.9495  1.9701  0.5535
 7278SOL    HW233294   1.367   2.797  10.026 -0.5074 -1.4415 -0.0845
 7279SOL     OW33295   3.167   4.483   8.972  0.0547 -0.2973 -0.1638
 7279SOL    HW133296   3.100   4.547   8.950 -0.0007 -0.8525 -1.6117
 7279SOL    HW233297   3.121   4.399   8.969  1.2987 -0.9225 -1.8093
 7280SOL     OW33298   4.310   1.364   7.105 -0.3419  0.1556  0.5003
 7280SOL    HW133299   4.385   1.324   7.062 -1.3673 -0.7505 -0.4534
 7280SOL    HW233300   4.246   1.346   7.036  2.5189 -2.5333 -1.4491
 7281SOL     OW33301   0.818   2.509   1.425  0.1037 -0.8937 -0.2367
 7281SOL    HW133302   0.902   2.541   1.458 -0.7819  0.6613  0.5407
 7281SOL    HW233303   0.764   2.534   1.501 -1.1289 -1.1098 -1.0470
 7282SOL     OW33304   4.040   1.003  10.612  0.2907  0.1602 -0.6360
 7282SOL    HW133305   4.054   1.030  10.521  0.8768  3.0365  0.2831
 7282SOL    HW233306   4.100   0.929  10.611 -1.7610 -1.5032  1.1234
 7283SOL     OW33307   3.510   3.412   4.009  0.3445 -0.2327 -0.3035
 7283SOL    HW133308   3.588   3.467   4.007 -0.4821  0.8565 -4.0611
 7283SOL    HW233309   3.538   3.338   3.954 -0.4768 -1.4918  0.9588
 7284SOL     OW33310   3.014   4.566   9.998  0.2217 -0.4188 -0.3093
 7284SOL    HW133311   3.060   4.607   9.924 -0.2857  0.5370 -0.0937
 7284SOL    HW233312   2.952   4.507   9.954  0.9462  0.7951 -2.9688
 7285SOL     OW33313   1.039   4.511  14.551  0.0001 -0.3782 -0.4890
 7285SOL    HW133314   1.122   4.476  14.519 -1.2204 -2.1653 -1.6900
 7285SOL    HW233315   1.008   4.569  14.480  2.9396 -0.3235 -1.7411
 7286SOL     OW33316   0.507   2.963  17.645  0.1583  0.3052 -0.1916
 7286SOL    HW133317   0.486   2.974   0.059 -0.2384 -0.9093 -0.1456
 7286SOL    HW233318   0.557   3.044  17.630 -0.7865  0.5098 -2.1671
 7287SOL     OW33319   1.472   4.654  15.989  0.1127  0.7245 -0.3286
 7287SOL    HW133320   1.422   4.573  15.975 -1.1534  1.6257 -0.9751
 7287SOL    HW233321   1.509   4.635  16.075 -0.3290  0.3869 -0.2161
 7288SOL     OW33322   3.108   1.725   5.294 -0.2249  0.3168 -0.1734
 7288SOL    HW133323   3.070   1.753   5.210  0.1883 -1.9626 -1.1302
 7288SOL    HW233324   3.142   1.638   5.273  2.1836  1.3334 -0.4944
 7289SOL     OW33325   3.426   2.291  12.542  0.1091  0.1616  0.4410
 7289SOL    HW133326   3.410   2.380  12.511 -0.0813 -0.2085 -0.5156
 7289SOL    HW233327   3.450   2.248  12.460 -0.0507 -0.9905  1.0010
 7290SOL     OW33328   2.630   0.019   6.904 -0.7009  0.0495  0.5628
 7290SOL    HW133329   2.634   0.072   6.824  3.7271 -1.1139 -0.0290
 7290SOL    HW233330   2.608   4.653   6.865 -0.2419 -0.2496  0.9528
 7291SOL     OW33331   1.452   1.798   3.624 -0.2842 -0.2577 -0.0410
 7291SOL    HW133332   1.483   1.782   3.535  0.5793 -1.6111  0.5008
 7291SOL    HW233333   1.402   1.721   3.650  1.4131 -0.9992  1.0768
 7292SOL     OW33334   0.470   2.211   5.781  0.0956  0.1346 -0.3591
 7292SOL    HW133335   0.516   2.244   5.859 -1.0809  1.1436 -0.1020
 7292SOL    HW233336   0.378   2.225   5.803  0.1340  0.8462 -0.6684
 7293SOL     OW33337   1.533   2.144   0.465 -0.0641  0.3348  0.1643
 7293SOL    HW133338   1.524   2.060   0.419 -0.4436  0.1784  0.5224
 7293SOL    HW233339   1.628   2.152   0.466  0.0428 -1.0309  0.8752
 7294SOL     OW33340   2.966   3.323   4.512  0.4260 -0.1243  0.1078
 7294SOL    HW133341   2.923   3.364   4.436 -0.0260  1.3838  1.1756
 7294SOL    HW233342   3.014   3.253   4.468 -3.0767 -1.9079 -0.9347
 7295SOL     OW33343   0.317   1.495  11.171 -0.3766  0.3584  0.1395
 7295SOL    HW133344   0.303   1.526  11.260 -1.7013  1.2611 -0.3955
 7295SOL    HW233345   0.379   1.564  11.146  0.1507  0.9612  3.0363
 7296SOL     OW33346   1.844   2.995   6.971 -0.2200 -0.2905  0.1858
 7296SOL    HW133347   1.916   3.043   6.929 -1.0463  0.0697 -0.8019
 7296SOL    HW233348   1.826   2.931   6.902 -0.4326 -3.1772  2.9233
 7297SOL     OW33349   4.269   2.972   7.759  0.0518 -0.5604 -0.1845
 7297SOL    HW133350   4.237   3.014   7.839  2.5465 -2.5570  1.8407
 7297SOL    HW233351   4.308   3.046   7.713  1.9870 -1.0241  0.7128
 7298SOL     OW33352   2.515   4.538   4.290 -0.3178  0.3778 -0.2866
 7298SOL    HW133353   2.557   4.621   4.311  0.7856  0.0337 -1.1544
 7298SOL    HW233354   2.593   4.490   4.316 -0.7368 -0.6684 -0.9532
 7299SOL     OW33355   2.112   3.413   9.111  0.1382  0.3850 -0.8796
 7299SOL    HW133356   2.089   3.472   9.183  1.8102 -0.9266  0.7362
 7299SOL    HW233357   2.051   3.457   9.052 -0.2324  2.8845  1.3649
 7300SOL     OW33358   1.853   4.311  16.051  0.0661 -0.3228  0.0751
 7300SOL    HW133359   1.865   4.387  16.108 -0.6351  0.4296 -0.7853
 7300SOL    HW233360   1.815   4.249  16.114  1.3644 -0.3450  0.8365
 7301SOL     OW33361   2.355   2.543   4.357 -0.3203  0.1443  1.0074
 7301SOL    HW133362   2.372   2.481   4.286 -2.6781 -1.1198  1.5316
 7301SOL    HW233363   2.441   2.585   4.359  0.2852 -1.0114 -0.8260
 7302SOL     OW33364   1.568   4.289   6.704  0.3041 -0.4798  0.5739
 7302SOL    HW133365   1.589   4.207   6.749 -0.1099  0.2946  2.1998
 7302SOL    HW233366   1.553   4.352   6.774  0.1413  0.8759 -0.6836
 7303SOL     OW33367   3.524   0.516   8.457 -0.4237 -0.3751  0.1751
 7303SOL    HW133368   3.508   0.608   8.432 -3.3474  0.2956  4.5606
 7303SOL    HW233369   3.613   0.523   8.492 -1.0597 -0.0928  1.7158
 7304SOL     OW33370   2.381   2.341   2.762 -0.1793  0.7290  0.3674
 7304SOL    HW133371   2.288   2.358   2.743  0.0405  3.5251  1.7260
 7304SOL    HW233372   2.415   2.427   2.737  0.6936  0.4180  0.4891
 7305SOL     OW33373   2.323   1.806   2.398  0.4201 -0.4029 -0.0367
 7305SOL    HW133374   2.318   1.859   2.478 -1.1895  1.6808 -1.4991
 7305SOL    HW233375   2.398   1.839   2.349 -1.7347  0.6595 -2.6208
 7306SOL     OW33376   0.768   1.438   9.714  0.3018 -0.1572 -0.6351
 7306SOL    HW133377   0.687   1.431   9.765 -0.5610  0.1941 -1.9520
 7306SOL    HW233378   0.823   1.375   9.761  0.9513 -0.5776 -1.9651
 7307SOL     OW33379   4.550   2.746  17.420  0.0553  0.2510 -0.3250
 7307SOL    HW133380   4.507   2.831  17.432 -2.5306 -1.0301 -0.6071
 7307SOL    HW233381   4.478   2.691  17.388  0.9847 -0.6285 -0.8937
 7308SOL     OW33382   4.482   4.676   6.929  0.3243 -0.2684 -0.5812
 7308SOL    HW133383   4.462   4.647   7.018 -0.3449  1.1037 -0.2832
 7308SOL    HW233384   4.395   4.704   6.901  0.7006  1.2091 -0.2661
 7309SOL     OW33385   1.434   3.035  16.840  0.4242  0.4269 -0.3162
 7309SOL    HW133386   1.424   3.073  16.753 -0.5497  0.4390 -0.2034
 7309SOL    HW233387   1.485   2.955  16.823 -0.3958 -0.3620  0.9176
 7310SOL     OW33388   1.446   1.915  11.716 -0.2838 -0.5564 -0.6651
 7310SOL    HW133389   1.532   1.953  11.734 -0.3076 -1.6740  1.8066
 7310SOL    HW233390   1.387   1.975  11.764 -1.2289 -1.0202 -1.2459
 7311SOL     OW33391   2.049   3.969   8.398 -0.2592  0.5034  0.2403
 7311SOL    HW133392   2.087   3.902   8.455 -0.3522  0.8816  0.7381
 7311SOL    HW233393   2.004   4.024   8.462 -1.8367 -1.6985  1.0346
 7312SOL     OW33394   3.222   0.987   7.010  0.6704 -0.2978  0.7512
 7312SOL    HW133395   3.262   0.960   7.092  1.0023  0.1518  0.7395
 7312SOL    HW233396   3.227   1.083   7.017 -1.4849 -0.1945  0.9447
 7313SOL     OW33397   1.571   1.049   2.109 -0.2002 -0.5149 -0.4704
 7313SOL    HW133398   1.583   0.991   2.183  1.2613  0.3005 -0.0791
 7313SOL    HW233399   1.519   0.999   2.046  1.7624 -2.3323 -0.6235
 7314SOL     OW33400   2.223   0.054   7.669  0.3050 -0.1529 -0.4164
 7314SOL    HW133401   2.139   0.066   7.713  0.4162 -0.8768  0.0062
 7314SOL    HW233402   2.273   0.026   7.745 -1.1059 -0.2457  0.4840
 7315SOL     OW33403   0.209   1.916   4.584  0.3990  0.3788  0.1507
 7315SOL    HW133404   0.215   1.984   4.651  0.1043  1.4758 -0.9313
 7315SOL    HW233405   0.228   1.965   4.503 -0.8796  0.6754  0.0327
 7316SOL     OW33406   4.324   2.149  11.130  0.1103  0.1594 -0.0726
 7316SOL    HW133407   4.271   2.161  11.050  1.4713  1.6527 -0.7545
 7316SOL    HW233408   4.254   2.140  11.195  3.3029 -0.0500  3.2686
 7317SOL     OW33409   1.243   1.149  15.726  1.1061  0.6960  0.1047
 7317SOL    HW133410   1.261   1.235  15.764  0.9818  1.0533 -0.6516
 7317SOL    HW233411   1.332   1.113  15.727  0.2368 -1.5434 -3.3512
 7318SOL     OW33412   0.778   1.516   1.825 -0.3441 -0.5505 -0.1141
 7318SOL    HW133413   0.782   1.421   1.839  1.1300 -0.3971  0.4980
 7318SOL    HW233414   0.724   1.545   1.898 -2.4149 -2.3206 -0.9335
 7319SOL     OW33415   1.769   3.884  12.782  0.3185  0.0947 -0.0850
 7319SOL    HW133416   1.822   3.938  12.840  0.2817 -0.4352  0.4327
 7319SOL    HW233417   1.778   3.798  12.823 -0.4031 -0.0905 -0.3163
 7320SOL     OW33418   3.031   1.197   8.036  0.2236  0.2409 -0.3071
 7320SOL    HW133419   2.981   1.139   7.979 -0.6024 -0.8400  1.5271
 7320SOL    HW233420   2.966   1.219   8.103 -0.1433 -1.5388 -0.0734
 7321SOL     OW33421   0.528   1.420  10.192  0.0605 -0.2347  0.0406
 7321SOL    HW133422   0.433   1.418  10.202  0.0026  0.4373 -0.3784
 7321SOL    HW233423   0.549   1.510  10.215  0.3814 -0.1620 -0.5185
 7322SOL     OW33424   1.608   4.057  15.661  0.3944  0.0181 -0.8871
 7322SOL    HW133425   1.557   3.983  15.628  0.1649 -1.3878  2.5108
 7322SOL    HW233426   1.620   4.031  15.753 -1.3021  0.3894 -0.5607
 7323SOL     OW33427   3.672   2.312   2.911 -0.3070  0.2657 -0.1994
 7323SOL    HW133428   3.709   2.387   2.958  0.8110  0.5740 -1.5637
 7323SOL    HW233429   3.729   2.310   2.834 -2.3851  0.6590 -1.7459
 7324SOL     OW33430   1.782   1.865   9.595 -0.1637  0.1991 -0.0964
 7324SOL    HW133431   1.696   1.887   9.558  0.3157  1.1087 -0.6724
 7324SOL    HW233432   1.760   1.858   9.688 -2.0968  0.5200 -0.5268
 7325SOL     OW33433   2.812   0.308  12.078  0.0702 -0.4047 -0.2333
 7325SOL    HW133434   2.860   0.338  12.001 -1.5907  3.2491  0.1595
 7325SOL    HW233435   2.856   0.225  12.095  0.9622 -0.4930 -3.0470
 7326SOL     OW33436   2.143   4.399   2.279 -0.1743  0.0228 -0.8872
 7326SOL    HW133437   2.155   4.483   2.235  1.3999 -1.6402 -3.6029
 7326SOL    HW233438   2.111   4.435   2.362  0.8873  1.1132 -0.9480
 7327SOL     OW33439   1.588   3.541   5.265  0.8516  0.0842  0.4213
 7327SOL    HW133440   1.638   3.468   5.302  1.2174  0.9363  1.6172
 7327SOL    HW233441   1.595   3.531   5.170 -1.1037 -1.0000  0.3857
 7328SOL     OW33442   3.433   0.846  13.505  0.4989  0.4006 -0.0600
 7328SOL    HW133443   3.416   0.940  13.515 -2.0818  0.1612 -2.2151
 7328SOL    HW233444   3.357   0.824  13.451  1.2048  0.2835 -1.0265
 7329SOL     OW33445   1.765   1.105  10.878 -0.2835  0.0872 -0.2232
 7329SOL    HW133446   1.831   1.041  10.849 -0.8015 -0.6350  0.1905
 7329SOL    HW233447   1.687   1.054  10.859  1.1554 -2.2721  0.0760
 7330SOL     OW33448   3.093   1.869   8.842  1.2244  0.6771 -0.0129
 7330SOL    HW133449   3.105   1.806   8.913 -0.8875 -0.6829 -0.8711
 7330SOL    HW233450   3.001   1.867   8.817  1.1839  1.4169  0.0671
 7331SOL     OW33451   1.688   1.526  10.190 -0.3101  0.0065  0.1866
 7331SOL    HW133452   1.648   1.607  10.158 -1.4637 -0.6659 -0.0764
 7331SOL    HW233453   1.671   1.546  10.282  0.9986 -0.7229  0.5813
 7332SOL     OW33454   3.081   3.143   1.497 -0.1255 -0.3023 -0.2783
 7332SOL    HW133455   3.087   3.104   1.410 -1.9780 -0.8244 -0.1694
 7332SOL    HW233456   3.142   3.091   1.550 -0.4640  2.0738  2.4618
 7333SOL     OW33457   0.104   1.313   3.727  0.0768  0.2357  0.2205
 7333SOL    HW133458   0.187   1.290   3.686 -0.4390 -2.4190  0.6562
 7333SOL    HW233459   0.105   1.407   3.708  0.4475  0.2482  0.3073
 7334SOL     OW33460   1.439   2.184  12.219 -0.2063 -0.0338  0.3296
 7334SOL    HW133461   1.457   2.101  12.263 -0.7825 -0.2752  0.1063
 7334SOL    HW233462   1.517   2.180  12.165 -0.4123 -0.2163  0.0418
 7335SOL     OW33463   3.260   1.221   1.891  0.1927  0.1870 -0.1282
 7335SOL    HW133464   3.349   1.197   1.917  0.0757 -0.5902 -0.4538
 7335SOL    HW233465   3.241   1.294   1.950  1.7758  1.8259 -1.6731
 7336SOL     OW33466   3.705   1.811   6.075  0.2822  0.0988 -0.1326
 7336SOL    HW133467   3.647   1.873   6.031 -1.5115 -1.3107  0.2487
 7336SOL    HW233468   3.649   1.750   6.124  0.5624  0.2402  0.3608
 7337SOL     OW33469   3.698   3.203   7.165 -0.4765 -0.1120 -0.2697
 7337SOL    HW133470   3.675   3.142   7.095  2.7120 -1.1009 -0.4889
 7337SOL    HW233471   3.660   3.143   7.228  1.8028  1.8971  3.0623
 7338SOL     OW33472   4.186   4.357   3.360 -0.5463 -0.2567  0.1717
 7338SOL    HW133473   4.228   4.356   3.275  0.0387  0.3614  0.4541
 7338SOL    HW233474   4.250   4.409   3.409  0.3966  1.1401 -2.5460
 7339SOL     OW33475   3.764   1.502  12.924 -0.2883  0.1592  0.1312
 7339SOL    HW133476   3.712   1.501  13.004 -0.7988  1.2157 -0.1822
 7339SOL    HW233477   3.738   1.582  12.877 -0.6820 -0.4470 -0.6738
 7340SOL     OW33478   4.525   3.182  14.376  0.5184 -0.2014 -0.2751
 7340SOL    HW133479   4.555   3.098  14.342  1.1055 -0.4593  0.8523
 7340SOL    HW233480   4.437   3.154  14.400  1.4021 -2.8649 -0.1136
 7341SOL     OW33481   4.599   2.759   3.346  0.4283 -0.2264 -0.4580
 7341SOL    HW133482   4.657   2.827   3.380  1.4060 -1.4177  0.2308
 7341SOL    HW233483   4.645   2.682   3.379 -1.5476 -0.7803  1.0599
 7342SOL     OW33484   3.700   4.673   3.092 -0.3355  0.1712 -0.8261
 7342SOL    HW133485   3.735   4.692   3.005  0.4429 -0.5594 -0.6649
 7342SOL    HW233486   3.779   4.673   3.145  0.0287  4.7444 -1.3835
 7343SOL     OW33487   0.591   1.572   2.076 -0.5294  0.0744 -0.0737
 7343SOL    HW133488   0.575   1.664   2.054 -2.7940 -0.4267 -0.5473
 7343SOL    HW233489   0.557   1.571   2.165 -1.5109  1.3007 -0.4298
 7344SOL     OW33490   1.441   0.947   5.360 -0.1272 -0.2697  0.0672
 7344SOL    HW133491   1.480   1.005   5.295 -1.8898 -2.5826 -3.0808
 7344SOL    HW233492   1.390   0.898   5.295 -0.6259 -1.2981  1.2308
 7345SOL     OW33493   1.052   0.872   5.334  0.4634  0.2878 -0.0704
 7345SOL    HW133494   0.980   0.831   5.383  0.5547  0.1029 -0.0926
 7345SOL    HW233495   1.024   0.848   5.246 -1.0004 -2.6529  1.1850
 7346SOL     OW33496   0.294   3.939   5.298  0.4713  0.6269  0.3742
 7346SOL    HW133497   0.362   3.998   5.331  0.8085 -0.1716  1.0996
 7346SOL    HW233498   0.212   3.961   5.343  2.0237  2.1227  2.4710
 7347SOL     OW33499   0.271   3.138   1.615 -0.0463  0.3443 -0.0574
 7347SOL    HW133500   0.232   3.147   1.528  0.3322  0.0043 -0.2610
 7347SOL    HW233501   0.328   3.063   1.598 -0.5955 -0.3286  1.0642
 7348SOL     OW33502   0.918   0.524   3.103  0.1021  0.0498 -1.1411
 7348SOL    HW133503   0.880   0.592   3.159  3.4803 -0.2330  1.5211
 7348SOL    HW233504   0.873   0.442   3.123  1.5383 -0.1597  1.2236
 7349SOL     OW33505   1.561   3.869   7.118  0.0792 -0.2538 -0.1158
 7349SOL    HW133506   1.477   3.823   7.124  0.9737 -1.6243  2.0294
 7349SOL    HW233507   1.616   3.818   7.178 -1.8527  1.5270  3.1529
 7350SOL     OW33508   0.203   1.277  17.316  0.0988  0.4781 -0.6256
 7350SOL    HW133509   0.121   1.259  17.363 -0.6730 -1.5840 -2.7787
 7350SOL    HW233510   0.171   1.305  17.230 -1.8639 -0.6020 -0.2317
 7351SOL     OW33511   4.209   4.147   6.059  0.3422  0.2811  0.0723
 7351SOL    HW133512   4.192   4.061   6.022 -1.8415  1.3497 -1.4367
 7351SOL    HW233513   4.212   4.194   5.976 -1.9746  1.3047  0.5589
 7352SOL     OW33514   3.775   2.749   6.896  0.3128  0.0543  0.3923
 7352SOL    HW133515   3.844   2.773   6.958  0.2474  2.0175 -0.2962
 7352SOL    HW233516   3.746   2.670   6.941 -5.0975  0.7017 -1.9401
 7353SOL     OW33517   1.215   2.220  12.683 -0.2194 -0.2338 -0.3408
 7353SOL    HW133518   1.307   2.246  12.684 -0.2722  0.0140 -2.0293
 7353SOL    HW233519   1.222   2.125  12.699  0.3892 -0.1036  0.1867
 7354SOL     OW33520   0.736   4.056  17.199 -0.3941 -0.3402 -0.2498
 7354SOL    HW133521   0.717   3.974  17.153  0.5409 -0.4302 -0.4955
 7354SOL    HW233522   0.769   4.022  17.282  0.6950  0.7364 -0.2347
 7355SOL     OW33523   3.452   3.651   9.344 -0.2442  0.1037 -0.3210
 7355SOL    HW133524   3.457   3.746   9.331 -1.5141  0.1130 -0.7542
 7355SOL    HW233525   3.469   3.635   9.252 -0.1084 -2.9645  0.2360
 7356SOL     OW33526   1.471   4.429   2.567  0.0564  0.0794  0.7045
 7356SOL    HW133527   1.426   4.508   2.536 -0.6468 -0.6928 -0.2470
 7356SOL    HW233528   1.415   4.410   2.642 -0.4824 -0.7612  0.0796
 7357SOL     OW33529   1.676   0.227  13.225 -0.2594  0.5252 -0.2656
 7357SOL    HW133530   1.668   0.318  13.252  0.9713  0.5591 -0.0467
 7357SOL    HW233531   1.704   0.227  13.133  0.3706 -0.6991 -0.0725
 7358SOL     OW33532   3.690   3.136   5.606 -0.3332 -0.4142  0.1681
 7358SOL    HW133533   3.671   3.156   5.514 -1.5369 -1.4515  0.1854
 7358SOL    HW233534   3.612   3.092   5.641 -0.9607  0.2031 -0.4595
 7359SOL     OW33535   2.307   3.132   8.589  0.2888  0.0365 -0.2875
 7359SOL    HW133536   2.322   3.039   8.577  1.7626  0.5711 -2.6865
 7359SOL    HW233537   2.356   3.153   8.669 -2.6049 -0.8599  1.7227
 7360SOL     OW33538   0.360   3.164  11.809 -0.2728  0.2964  0.2813
 7360SOL    HW133539   0.313   3.083  11.788  1.4520 -0.1605 -1.9322
 7360SOL    HW233540   0.382   3.152  11.901  1.2973  0.0774 -0.1120
 7361SOL     OW33541   0.959   4.078   6.361 -0.3120  0.1209  0.1719
 7361SOL    HW133542   1.011   4.092   6.440  0.0645  1.5343 -0.3261
 7361SOL    HW233543   0.876   4.071   6.409 -1.3772  0.8354 -1.5432
 7362SOL     OW33544   4.165   2.359   2.878  0.2580 -0.1672 -0.3787
 7362SOL    HW133545   4.214   2.428   2.923 -1.2942 -0.5526  1.8885
 7362SOL    HW233546   4.092   2.405   2.837  0.7137  1.1238  0.2675
 7363SOL     OW33547   4.014   3.306  12.960 -0.0634  0.0146 -0.1536
 7363SOL    HW133548   3.948   3.335  13.023  0.1469  0.1559  0.0022
 7363SOL    HW233549   4.061   3.245  13.017  1.9588  0.0949 -1.7401
 7364SOL     OW33550   3.626   4.077   1.009  0.8942  0.1220 -0.1760
 7364SOL    HW133551   3.606   4.150   1.067  1.3408 -2.0344  2.6814
 7364SOL    HW233552   3.534   4.052   1.016  0.1530  2.8725  0.0546
 7365SOL     OW33553   0.703   3.486   3.528  0.5687 -0.4515 -0.3667
 7365SOL    HW133554   0.786   3.532   3.521  0.2471  0.6201  2.7797
 7365SOL    HW233555   0.728   3.408   3.577  2.4967  0.5535  0.2590
 7366SOL     OW33556   3.823   2.275   4.240 -0.0157  0.4516  0.2511
 7366SOL    HW133557   3.829   2.208   4.172 -1.2198  1.2338 -0.6336
 7366SOL    HW233558   3.897   2.265   4.299  0.5718  1.3979 -0.3377
 7367SOL     OW33559   3.193   2.767   4.665  0.1834  0.3056 -0.2061
 7367SOL    HW133560   3.247   2.694   4.694  0.5512  0.6196 -0.1105
 7367SOL    HW233561   3.205   2.832   4.735  1.8230 -2.2479  1.8742
 7368SOL     OW33562   3.132   4.075   6.074 -0.3742 -0.2105 -0.4694
 7368SOL    HW133563   3.214   4.029   6.060 -0.0475 -0.2059  1.4298
 7368SOL    HW233564   3.098   4.023   6.147 -2.0603 -0.3783 -1.3778
 7369SOL     OW33565   2.285   3.839   2.737 -0.5674 -0.0131  0.3605
 7369SOL    HW133566   2.324   3.766   2.786 -1.6744 -0.9825 -0.2092
 7369SOL    HW233567   2.330   3.920   2.760  2.1531 -1.4500  0.0543
 7370SOL     OW33568   2.707   3.124  13.966 -0.0105 -0.1038 -0.6393
 7370SOL    HW133569   2.642   3.055  13.955 -0.8513  0.5730 -0.0214
 7370SOL    HW233570   2.678   3.170  13.887  1.4244 -0.3022 -1.2849
 7371SOL     OW33571   0.407   3.416   7.779  0.2729  0.0335  0.1839
 7371SOL    HW133572   0.420   3.508   7.755 -2.1622  0.8783  2.1227
 7371SOL    HW233573   0.499   3.402   7.804  0.6811 -2.0232 -2.4945
 7372SOL     OW33574   2.346   3.882   4.318  0.1178 -0.0130  0.4128
 7372SOL    HW133575   2.262   3.902   4.277  0.2101 -1.7121 -0.6189
 7372SOL    HW233576   2.404   3.845   4.251  0.7341 -0.8688  1.4183
 7373SOL     OW33577   0.019   4.200   6.767  0.4408  0.3236 -0.0800
 7373SOL    HW133578   4.707   4.143   6.697 -0.9135  0.6019  0.2845
 7373SOL    HW233579   0.074   4.151   6.827 -1.2616 -0.8864  0.5089
 7374SOL     OW33580   3.450   2.445  16.814 -0.0895  0.5551 -0.2018
 7374SOL    HW133581   3.499   2.491  16.745 -1.4889 -0.5231 -1.9270
 7374SOL    HW233582   3.376   2.504  16.823 -0.8528 -0.7823  2.2274
 7375SOL     OW33583   3.653   3.264   0.271  0.4505  0.1355 -0.2068
 7375SOL    HW133584   3.716   3.200   0.303 -1.1870 -0.6420  1.4687
 7375SOL    HW233585   3.572   3.224   0.303  0.0016  1.2404  0.0373
 7376SOL     OW33586   2.411   0.673   4.424  0.5067 -0.1527  0.2030
 7376SOL    HW133587   2.449   0.697   4.509 -0.0621 -1.3012  0.7718
 7376SOL    HW233588   2.456   0.730   4.361 -0.0256 -0.7200 -0.6769
 7377SOL     OW33589   4.275   0.271   4.158 -0.3751  0.0534 -0.4766
 7377SOL    HW133590   4.182   0.257   4.174  0.2681 -0.7311  2.6174
 7377SOL    HW233591   4.308   0.181   4.154 -0.5983 -0.0336 -0.3446
 7378SOL     OW33592   0.818   1.271   5.664  0.1572  0.4752  0.0945
 7378SOL    HW133593   0.820   1.322   5.583 -1.7347 -0.2121 -0.3732
 7378SOL    HW233594   0.854   1.188   5.632  1.1831  0.4135  1.3993
 7379SOL     OW33595   1.340   1.158   7.527 -0.7463  0.7123 -0.3563
 7379SOL    HW133596   1.388   1.087   7.485 -0.1430 -0.5651  2.4385
 7379SOL    HW233597   1.359   1.139   7.619 -1.0564  1.7138 -0.0810
 7380SOL     OW33598   4.450   3.587  16.707  0.0413  0.3261 -0.5219
 7380SOL    HW133599   4.472   3.498  16.735  0.7352  0.6049 -0.1567
 7380SOL    HW233600   4.355   3.594  16.706 -0.0739 -1.1966  0.4253
 7381SOL     OW33601   2.631   1.387   9.184  0.4029  0.1671 -0.1651
 7381SOL    HW133602   2.721   1.402   9.214  0.1502  0.1323  0.6168
 7381SOL    HW233603   2.590   1.375   9.269  0.7501  0.7592  0.0906
 7382SOL     OW33604   3.582   1.738  15.709 -0.0326  0.0455 -0.1725
 7382SOL    HW133605   3.613   1.747  15.799  1.0438  2.0490 -0.7422
 7382SOL    HW233606   3.524   1.662  15.700 -1.6145  1.0489  1.6782
 7383SOL     OW33607   1.643   1.318   8.826 -0.2591  0.1533  0.1238
 7383SOL    HW133608   1.725   1.292   8.868 -0.5209  0.2078  0.6666
 7383SOL    HW233609   1.595   1.349   8.902 -1.2232  0.6424 -0.6872
 7384SOL     OW33610   1.418   4.286   3.697  0.4219 -0.2572 -0.5405
 7384SOL    HW133611   1.455   4.341   3.629 -0.3989  0.6335 -0.2635
 7384SOL    HW233612   1.403   4.346   3.770  2.5738  0.9010 -1.0739
 7385SOL     OW33613   1.398   0.338   6.876 -0.2645 -0.0426  0.3373
 7385SOL    HW133614   1.431   0.317   6.789 -1.4583  2.2680 -0.6533
 7385SOL    HW233615   1.318   0.386   6.856 -1.3774 -1.9687  0.1349
 7386SOL     OW33616   2.893   0.014   1.266  0.2845 -0.0364 -0.0988
 7386SOL    HW133617   2.881   0.101   1.226  4.7741  0.7532  0.3551
 7386SOL    HW233618   2.971   0.030   1.318  1.1458 -0.7146 -1.1761
 7387SOL     OW33619   3.353   0.868  15.036 -0.2682  0.0425 -0.2629
 7387SOL    HW133620   3.423   0.803  15.033 -0.0352  0.3235 -0.9929
 7387SOL    HW233621   3.290   0.813  15.083 -1.5741  0.0378 -2.0058
 7388SOL     OW33622   0.712   1.669  17.567  0.2095  0.1101  0.0597
 7388SOL    HW133623   0.744   1.730  17.634  1.3828 -2.1175  1.5409
 7388SOL    HW233624   0.776   1.601  17.587 -3.9304 -3.7490  0.0743
 7389SOL     OW33625   4.653   4.233   7.965  0.2702 -0.1381  0.6394
 7389SOL    HW133626   4.599   4.262   7.891  0.0634  1.7017  1.5112
 7389SOL    HW233627   4.621   4.276   8.044 -0.5552 -0.7668  0.6432
 7390SOL     OW33628   2.239   1.952   4.561  0.4456 -0.2383 -0.6177
 7390SOL    HW133629   2.184   1.910   4.627 -0.0635  0.8219 -0.3600
 7390SOL    HW233630   2.244   2.044   4.589  3.7407 -0.7039  0.2905
 7391SOL     OW33631   0.256   2.552   4.228 -0.0880  0.6164 -0.5437
 7391SOL    HW133632   0.348   2.566   4.207 -0.6031  2.0408 -1.8461
 7391SOL    HW233633   0.215   2.602   4.157 -2.9286 -0.0045  0.6395
 7392SOL     OW33634   4.446   4.411   5.243  0.2153  0.5690  0.3272
 7392SOL    HW133635   4.431   4.460   5.324  0.8233 -1.1502  1.4849
 7392SOL    HW233636   4.535   4.440   5.224 -0.4826  2.7396  0.3490
 7393SOL     OW33637   1.888   2.939  15.223  0.3941  0.2106  0.4513
 7393SOL    HW133638   1.875   2.875  15.153  3.7792  0.2132 -0.1437
 7393SOL    HW233639   1.805   2.987  15.231 -0.2309 -0.8310  0.2259
 7394SOL     OW33640   3.113   0.416  12.710  0.4686 -0.3966 -0.2606
 7394SOL    HW133641   3.097   0.508  12.688  0.3233 -0.6910 -1.4283
 7394SOL    HW233642   3.074   0.367  12.637  0.9702 -1.3998  0.1633
 7395SOL     OW33643   3.005   4.158   2.004 -0.3038  0.4169  0.7582
 7395SOL    HW133644   3.023   4.072   2.043 -0.8162 -0.8371 -1.8126
 7395SOL    HW233645   2.974   4.125   1.920  1.4673 -0.5048  0.4594
 7396SOL     OW33646   3.617   1.238   9.203 -0.5340 -0.0999  0.1916
 7396SOL    HW133647   3.610   1.279   9.289  1.3255 -0.6902  0.6227
 7396SOL    HW233648   3.705   1.199   9.200 -0.1519  0.9349 -2.1824
 7397SOL     OW33649   3.445   2.556  10.652  0.2341 -0.3895  0.9403
 7397SOL    HW133650   3.519   2.499  10.676  1.1245  1.0091  1.4780
 7397SOL    HW233651   3.496   2.628  10.616  0.0655  0.1032  1.6781
 7398SOL     OW33652   1.200   3.068   8.338  0.1450  0.1185 -0.3770
 7398SOL    HW133653   1.238   3.105   8.418 -0.4518 -0.2907  0.0919
 7398SOL    HW233654   1.133   3.136   8.330 -0.4632 -0.2643  1.5991
 7399SOL     OW33655   1.706   3.936   5.638  0.5076  0.2291 -0.4705
 7399SOL    HW133656   1.692   3.879   5.713  0.8112  1.3332  0.4172
 7399SOL    HW233657   1.631   3.905   5.586  0.1535 -1.7477  1.2260
 7400SOL     OW33658   3.726   1.966  15.740  0.1152  0.3819 -0.3663
 7400SOL    HW133659   3.809   1.953  15.693 -0.0737  0.9657 -0.8581
 7400SOL    HW233660   3.679   1.896  15.695 -1.7333  1.3963 -0.0266
 7401SOL     OW33661   2.905   2.953  11.753 -0.1468 -0.1261 -0.4918
 7401SOL    HW133662   2.975   2.952  11.819 -0.8114 -0.4853  0.2071
 7401SOL    HW233663   2.920   2.873  11.702  3.2209 -0.4698  0.9691
 7402SOL     OW33664   2.237   2.457   2.308  0.4335 -0.0452  0.2100
 7402SOL    HW133665   2.145   2.432   2.310  0.1225  1.0183 -0.9746
 7402SOL    HW233666   2.254   2.469   2.214 -1.1985 -0.2024 -0.1055
 7403SOL     OW33667   0.816   3.576   5.956  0.3100  0.3110  0.1716
 7403SOL    HW133668   0.896   3.524   5.948  0.4214  0.6183 -0.7556
 7403SOL    HW233669   0.753   3.503   5.956 -1.0258  1.4641 -0.6072
 7404SOL     OW33670   3.248   0.925  16.543  0.5825 -0.1535  0.2350
 7404SOL    HW133671   3.261   0.852  16.483 -0.6757 -0.9223  0.9110
 7404SOL    HW233672   3.213   0.885  16.622 -0.6019 -0.7415 -0.5930
 7405SOL     OW33673   3.728   3.652   8.405 -0.2334 -0.2622 -0.0312
 7405SOL    HW133674   3.657   3.717   8.404 -0.6375 -0.7012  0.1086
 7405SOL    HW233675   3.762   3.653   8.495 -1.2343 -0.7101  0.3517
 7406SOL     OW33676   0.946   1.683  15.354  0.5423  0.2167 -0.3728
 7406SOL    HW133677   0.928   1.728  15.272 -1.3606  3.4804  1.7987
 7406SOL    HW233678   1.006   1.617  15.321 -0.7986 -0.8705 -0.6330
 7407SOL     OW33679   2.741   3.829  11.022 -0.0277  0.6657 -0.0838
 7407SOL    HW133680   2.803   3.758  11.040  2.3200  2.9497  0.6662
 7407SOL    HW233681   2.666   3.807  11.078  0.4120 -1.2200 -0.2364
 7408SOL     OW33682   3.905   4.227   4.296  0.3342 -0.2257  0.1231
 7408SOL    HW133683   3.811   4.245   4.307  0.4924  1.0427 -0.5940
 7408SOL    HW233684   3.903   4.191   4.208 -0.2358 -0.5097  0.2495
 7409SOL     OW33685   0.787   3.142   2.913 -0.3612  0.8910  0.0479
 7409SOL    HW133686   0.718   3.156   2.848 -0.8927 -0.0700  0.4112
 7409SOL    HW233687   0.801   3.049   2.894  0.1228  1.3495 -1.8889
 7410SOL     OW33688   3.617   1.134   5.084 -0.0083  0.5639  0.3464
 7410SOL    HW133689   3.567   1.210   5.054  0.2478  1.1178  1.3134
 7410SOL    HW233690   3.564   1.065   5.043  2.1349 -1.0325  0.2788
 7411SOL     OW33691   0.110   0.956   0.264  0.4789 -0.0757  0.7635
 7411SOL    HW133692   0.143   1.034   0.219 -1.4908  0.4020  0.1441
 7411SOL    HW233693   0.177   0.890   0.244 -1.3259 -1.8533  0.5556
 7412SOL     OW33694   4.490   1.656   7.609  0.6523 -0.9367 -0.2145
 7412SOL    HW133695   4.473   1.732   7.665  1.0963 -0.6672 -0.4383
 7412SOL    HW233696   4.403   1.646   7.572  1.0751 -0.9003 -1.2348
 7413SOL     OW33697   1.187   2.563   2.441 -0.1951  0.2748 -0.5787
 7413SOL    HW133698   1.095   2.554   2.466  0.1662  1.7293  1.2858
 7413SOL    HW233699   1.185   2.585   2.348  0.9697  0.9992 -0.4323
 7414SOL     OW33700   0.515   0.589  12.545 -0.2825 -0.0225 -0.0895
 7414SOL    HW133701   0.455   0.658  12.517  0.9967 -0.2631 -3.4853
 7414SOL    HW233702   0.584   0.641  12.586 -0.6564  0.6304 -0.2916
 7415SOL     OW33703   2.424   3.402  11.158  0.2936 -0.5629  0.1368
 7415SOL    HW133704   2.485   3.389  11.231  0.1310 -0.9335  0.2082
 7415SOL    HW233705   2.487   3.426  11.091  1.4232 -2.1544  0.6300
 7416SOL     OW33706   1.588   2.697   6.090 -0.0430  0.2042  0.0203
 7416SOL    HW133707   1.512   2.643   6.068  1.6951 -3.3961  2.9920
 7416SOL    HW233708   1.531   2.773   6.106  0.4777  0.8436 -1.1497
 7417SOL     OW33709   3.822   1.524   5.016 -0.4566 -0.1780  0.0959
 7417SOL    HW133710   3.830   1.589   5.085 -2.4950  0.3148 -0.1522
 7417SOL    HW233711   3.906   1.478   5.026 -0.0436  0.8395  1.3127
 7418SOL     OW33712   3.375   4.506   9.734  0.2549  0.4441  0.0090
 7418SOL    HW133713   3.465   4.537   9.725  0.4577  0.2605  1.3888
 7418SOL    HW233714   3.337   4.503   9.646  1.7106  0.4601 -0.6100
 7419SOL     OW33715   2.938   3.680   6.103  1.1891 -0.4175 -0.1207
 7419SOL    HW133716   2.934   3.730   6.185  1.2516  1.1014 -1.0530
 7419SOL    HW233717   2.849   3.703   6.075  0.7918  2.2485  3.3006
 7420SOL     OW33718   1.543   0.068   3.705  0.1370 -0.3352  0.1283
 7420SOL    HW133719   1.573   4.712   3.756  1.6775 -0.4047 -0.8811
 7420SOL    HW233720   1.604   0.135   3.736 -0.2477  0.4824 -0.8871
 7421SOL     OW33721   2.054   0.627   4.113  0.1362 -0.4593 -0.1476
 7421SOL    HW133722   1.976   0.582   4.145  2.0109 -3.1674  0.5407
 7421SOL    HW233723   2.044   0.713   4.154 -0.5552 -0.6513  0.0757
 7422SOL     OW33724   1.634   3.794  17.255  0.0597 -0.7529 -0.4661
 7422SOL    HW133725   1.708   3.736  17.240  1.3465  0.7735 -0.0458
 7422SOL    HW233726   1.635   3.816  17.348  0.6482 -1.2657 -0.3520
 7423SOL     OW33727   2.985   0.308  10.796 -0.3323  0.1320 -1.0216
 7423SOL    HW133728   2.909   0.259  10.829 -1.2001 -0.2744 -3.6193
 7423SOL    HW233729   2.995   0.381  10.857  1.4717 -0.5647 -0.4834
 7424SOL     OW33730   2.743   3.198  14.224 -0.2242 -0.5163 -0.2491
 7424SOL    HW133731   2.761   3.171  14.134 -0.0523  0.7598 -0.5984
 7424SOL    HW233732   2.665   3.249  14.201 -0.5796 -1.5656 -1.4016
 7425SOL     OW33733   3.664   1.641   2.126 -0.1019 -0.0271  0.4086
 7425SOL    HW133734   3.659   1.600   2.212  2.6294 -0.8058  0.2247
 7425SOL    HW233735   3.652   1.564   2.071 -0.8970  0.8230 -0.6168
 7426SOL     OW33736   4.209   2.949   7.016  0.1013 -0.0956 -0.1399
 7426SOL    HW133737   4.251   3.017   6.963  0.3078  1.3893  1.9619
 7426SOL    HW233738   4.121   2.986   7.011  0.7830  1.4781 -0.5666
 7427SOL     OW33739   3.699   3.986   5.038  0.2031  0.4060  0.2559
 7427SOL    HW133740   3.707   3.933   4.959 -1.9219 -0.3983  0.5817
 7427SOL    HW233741   3.708   3.916   5.103  0.2041 -0.5238 -0.7507
 7428SOL     OW33742   4.136   2.586   8.108 -0.0522 -0.2619  0.7605
 7428SOL    HW133743   4.057   2.623   8.146 -1.8364 -0.5954 -2.6195
 7428SOL    HW233744   4.133   2.638   8.028 -0.4094  0.6675  1.3777
 7429SOL     OW33745   0.438   0.669   6.685  0.2574  0.1162  0.7372
 7429SOL    HW133746   0.475   0.658   6.772  2.8242 -1.8236 -0.6016
 7429SOL    HW233747   0.344   0.648   6.689  0.1583  0.4997  0.4878
 7430SOL     OW33748   1.844   2.341  16.013  1.0139 -0.1376 -0.7897
 7430SOL    HW133749   1.819   2.428  15.981 -1.0137 -0.4219  0.0182
 7430SOL    HW233750   1.760   2.318  16.052  0.1158  1.3565 -1.8497
 7431SOL     OW33751   4.546   1.230  12.490  0.1359 -0.3927 -0.3409
 7431SOL    HW133752   4.592   1.183  12.560  1.0839 -0.4790 -1.0245
 7431SOL    HW233753   4.549   1.316  12.532  1.2802 -0.6892  0.1798
 7432SOL     OW33754   0.896   0.519   9.702 -0.5591  0.0410  0.5622
 7432SOL    HW133755   0.977   0.551   9.663 -0.6585 -0.3226  0.0744
 7432SOL    HW233756   0.848   0.543   9.623 -2.3184 -2.7121  0.8013
 7433SOL     OW33757   4.216   2.778  17.506 -0.1367 -0.1788 -0.5035
 7433SOL    HW133758   4.137   2.816  17.467  0.4906  1.3802 -0.2516
 7433SOL    HW233759   4.241   2.720  17.435 -0.6749 -1.1051  0.0615
 7434SOL     OW33760   4.043   2.515   6.201 -0.1376 -0.1328 -0.0066
 7434SOL    HW133761   4.034   2.420   6.198 -0.5394 -0.1200  0.7656
 7434SOL    HW233762   4.137   2.527   6.211  0.2177 -1.8785 -1.2949
 7435SOL     OW33763   0.630   0.818  10.446 -0.2194 -0.5027 -0.1431
 7435SOL    HW133764   0.720   0.848  10.458 -0.4592  0.2319 -0.1662
 7435SOL    HW233765   0.639   0.785  10.356  1.6638  0.5939 -0.3495
 7436SOL     OW33766   1.485   0.577   2.847  0.4870  0.1540 -0.4268
 7436SOL    HW133767   1.562   0.608   2.894  1.5647 -0.2073 -1.9481
 7436SOL    HW233768   1.433   0.654   2.870  0.4221  0.1794 -0.6562
 7437SOL     OW33769   0.947   2.984   6.089  0.1637 -0.0110 -0.0749
 7437SOL    HW133770   0.872   3.038   6.065 -0.4738 -1.1604 -0.6803
 7437SOL    HW233771   0.987   3.035   6.159  0.4290  1.7035 -1.4555
 7438SOL     OW33772   1.621   4.243   1.357  0.0562  0.6268  0.6369
 7438SOL    HW133773   1.565   4.309   1.396 -3.2467 -0.7442 -1.8147
 7438SOL    HW233774   1.684   4.232   1.428 -0.4083 -0.7798  0.8168
 7439SOL     OW33775   1.667   0.455   6.726  0.3948 -0.2133  0.0334
 7439SOL    HW133776   1.610   0.528   6.752  0.3690 -1.1605  2.5694
 7439SOL    HW233777   1.734   0.474   6.791  1.3866  0.2337 -1.1260
 7440SOL     OW33778   1.806   4.142   7.735  0.0977  0.8131  0.3035
 7440SOL    HW133779   1.771   4.231   7.740 -2.1609 -0.0038 -0.8255
 7440SOL    HW233780   1.848   4.136   7.821  1.0771  0.2344 -0.2125
 7441SOL     OW33781   3.297   0.171   8.191  0.0837  0.1587  0.4449
 7441SOL    HW133782   3.203   0.171   8.208 -0.5253 -1.4638 -2.9432
 7441SOL    HW233783   3.320   0.078   8.187 -0.2543  0.1165 -0.5121
 7442SOL     OW33784   2.448   0.748   3.280 -0.0748 -0.0718 -0.0471
 7442SOL    HW133785   2.436   0.808   3.206 -1.6866 -0.2058  0.1012
 7442SOL    HW233786   2.462   0.803   3.357 -1.0734  0.5895 -0.3368
 7443SOL     OW33787   4.206   2.404   9.363 -0.2927 -0.3694 -0.6330
 7443SOL    HW133788   4.183   2.481   9.312 -1.7579  0.2497  0.9934
 7443SOL    HW233789   4.300   2.418   9.350  0.7374 -4.2740  2.4612
 7444SOL     OW33790   2.774   2.707  13.270  0.3181  0.6830  0.1891
 7444SOL    HW133791   2.833   2.662  13.210  0.5043 -0.7145  1.3859
 7444SOL    HW233792   2.716   2.633  13.288 -0.3964  0.9792 -0.9329
 7445SOL     OW33793   2.126   0.326   1.140 -0.2672 -0.1554 -0.0452
 7445SOL    HW133794   2.132   0.305   1.233  0.6638  0.4912  0.0377
 7445SOL    HW233795   2.039   0.288   1.123 -0.3653  0.4790 -0.9971
 7446SOL     OW33796   1.633   0.859   0.286 -0.2112  0.2248  0.1302
 7446SOL    HW133797   1.630   0.954   0.275 -1.0578  0.3252  1.1911
 7446SOL    HW233798   1.645   0.849   0.380 -2.3702 -0.6878  0.2871
 7447SOL     OW33799   1.174   0.394   2.709  0.2323 -0.5183 -0.0478
 7447SOL    HW133800   1.090   0.415   2.668  1.4717  1.0756 -1.7998
 7447SOL    HW233801   1.145   0.339   2.781 -1.4298 -0.5063 -0.7170
 7448SOL     OW33802   3.316   1.206   5.198 -0.0778  0.2858  0.3934
 7448SOL    HW133803   3.412   1.204   5.187 -0.2349 -1.9969 -0.4981
 7448SOL    HW233804   3.302   1.149   5.273  1.2211 -2.1393 -1.1935
 7449SOL     OW33805   2.196   1.999  16.613 -0.0291  0.9319  0.0448
 7449SOL    HW133806   2.240   1.926  16.657  1.2677  0.5021 -1.9459
 7449SOL    HW233807   2.257   2.072  16.617  0.3196  0.6606 -0.3244
 7450SOL     OW33808   3.814   4.514   0.319  0.2194  0.4280  0.5168
 7450SOL    HW133809   3.894   4.489   0.272 -0.0567 -0.8721  0.7262
 7450SOL    HW233810   3.791   4.428   0.355  1.6337  0.0305  0.4818
 7451SOL     OW33811   1.719   4.576   2.723  0.0302 -0.1076 -0.2341
 7451SOL    HW133812   1.671   4.643   2.771  2.0324  0.2218  1.3218
 7451SOL    HW233813   1.807   4.582   2.761 -0.7306 -1.3073  1.6889
 7452SOL     OW33814   4.625   2.285   3.434  0.8568  0.1189  0.0877
 7452SOL    HW133815   4.697   2.224   3.417  2.0925  1.8124 -0.7565
 7452SOL    HW233816   4.550   2.234   3.402  0.5153 -0.5340  1.9122
 7453SOL     OW33817   0.930   0.879   2.453 -0.1946  0.0797  0.7171
 7453SOL    HW133818   0.882   0.961   2.461 -2.1747 -1.2187  2.0718
 7453SOL    HW233819   0.863   0.817   2.423  0.1751 -0.1696  0.3972
 7454SOL     OW33820   2.971   4.053   5.854 -0.4714 -0.0370 -0.4964
 7454SOL    HW133821   3.018   4.070   5.935  0.3497  0.6505 -1.1114
 7454SOL    HW233822   2.883   4.088   5.868 -1.2105 -1.2033 -2.1697
 7455SOL     OW33823   2.627   0.362   3.364  0.5443 -0.0816 -0.0235
 7455SOL    HW133824   2.627   0.267   3.358 -0.2702 -0.0682 -0.1699
 7455SOL    HW233825   2.703   0.374   3.420 -1.3095  0.3352  2.3763
 7456SOL     OW33826   1.318   2.658   7.991  0.0616 -0.2600  0.2440
 7456SOL    HW133827   1.347   2.636   7.902  1.6238 -2.3889  1.2681
 7456SOL    HW233828   1.384   2.710   8.035 -0.5323  0.3827  0.3640
 7457SOL     OW33829   1.953   1.731  15.932  0.1342  0.0779  0.1330
 7457SOL    HW133830   2.040   1.696  15.916 -0.0553 -0.7174  0.8772
 7457SOL    HW233831   1.897   1.661  15.899  0.4872 -0.7522  1.2879
 7458SOL     OW33832   2.731   4.434   9.762 -0.3162 -0.1675  0.4021
 7458SOL    HW133833   2.729   4.473   9.674  0.4349 -1.6205 -0.2661
 7458SOL    HW233834   2.706   4.506   9.820  0.4210  0.1009  0.3885
 7459SOL     OW33835   2.247   4.219   5.394  1.6817 -0.7104 -0.2779
 7459SOL    HW133836   2.181   4.149   5.390  0.5800  0.2501  0.9555
 7459SOL    HW233837   2.193   4.298   5.400  0.7643 -1.2551 -1.4506
 7460SOL     OW33838   0.989   2.359  12.835 -0.5778  0.3038 -0.1743
 7460SOL    HW133839   0.951   2.422  12.773 -0.9850 -1.0681 -1.3099
 7460SOL    HW233840   1.074   2.352  12.791 -0.9190 -0.5610 -0.6922
 7461SOL     OW33841   4.544   2.204   6.211 -0.5092  0.0521 -0.3509
 7461SOL    HW133842   4.613   2.138   6.222 -0.3872  0.2816  0.3156
 7461SOL    HW233843   4.489   2.187   6.288  0.6559  0.2058  0.5238
 7462SOL     OW33844   1.958   3.107  12.988  0.4867  0.8416  0.3536
 7462SOL    HW133845   1.992   3.044  12.925 -3.0228  0.6928 -1.4149
 7462SOL    HW233846   1.863   3.092  12.981  0.3745  0.7964  1.9143
 7463SOL     OW33847   0.524   3.622  14.314  0.0469 -0.5321 -0.5756
 7463SOL    HW133848   0.539   3.712  14.286 -0.9237  0.1277  0.9988
 7463SOL    HW233849   0.584   3.566  14.266 -1.5966 -0.9573 -2.1295
 7464SOL     OW33850   3.913   1.874   7.865 -0.0585  0.4371 -0.1347
 7464SOL    HW133851   3.896   1.920   7.948  1.6739  0.2556  0.3102
 7464SOL    HW233852   4.004   1.902   7.857  0.3702 -1.2531 -0.9967
 7465SOL     OW33853   2.736   2.939   7.006 -0.2820 -0.4188  0.1077
 7465SOL    HW133854   2.724   2.921   7.099 -2.2530 -0.8041 -0.2073
 7465SOL    HW233855   2.773   2.857   6.974  0.5282  0.4450 -1.1478
 7466SOL     OW33856   0.720   3.166   3.584  0.2690  0.2247 -0.0021
 7466SOL    HW133857   0.682   3.078   3.574 -2.0804  1.2063  0.2425
 7466SOL    HW233858   0.658   3.221   3.536  0.3165 -1.3911 -1.9307
 7467SOL     OW33859   1.209   0.962   1.448 -0.4087  0.4015  0.4821
 7467SOL    HW133860   1.116   0.945   1.459 -0.0188 -1.5362  0.8061
 7467SOL    HW233861   1.199   1.024   1.376  2.1989 -1.2051 -1.2528
 7468SOL     OW33862   3.851   1.145  11.145 -0.3406 -0.3515 -0.5730
 7468SOL    HW133863   3.878   1.106  11.228 -3.5274  1.1375  1.1590
 7468SOL    HW233864   3.756   1.158  11.148 -0.1234  0.6836  1.3809
 7469SOL     OW33865   0.811   0.815  11.939  0.0226  0.4575 -0.8147
 7469SOL    HW133866   0.885   0.757  11.922 -1.5896 -1.0557 -2.6315
 7469SOL    HW233867   0.750   0.772  11.880  0.4629 -2.0695  0.5864
 7470SOL     OW33868   4.412   4.139   2.668 -0.1497  0.6141  0.6429
 7470SOL    HW133869   4.413   4.197   2.745 -0.9193 -0.5947  1.5562
 7470SOL    HW233870   4.326   4.098   2.668  0.9267 -1.6728  3.1373
 7471SOL     OW33871   0.503   4.570  13.242  0.0561  0.0119  0.1430
 7471SOL    HW133872   0.546   4.592  13.159  1.6391 -2.0057  0.4277
 7471SOL    HW233873   0.422   4.525  13.219  0.2731 -1.4859  2.3239
 7472SOL     OW33874   4.474   0.547   2.260 -0.4147  0.2262  0.2918
 7472SOL    HW133875   4.554   0.553   2.209 -0.6154  0.9898  0.0678
 7472SOL    HW233876   4.484   0.462   2.302  1.9192  1.4185  2.1567
 7473SOL     OW33877   1.210   4.292   8.021  0.8136  0.9432 -0.9478
 7473SOL    HW133878   1.149   4.255   8.085  1.2253  0.1160 -1.0314
 7473SOL    HW233879   1.175   4.268   7.936  0.5215 -0.9077 -0.3038
 7474SOL     OW33880   0.947   2.743  11.228 -0.1852 -0.7573  0.5433
 7474SOL    HW133881   1.001   2.778  11.157 -0.7166 -1.2407 -0.1017
 7474SOL    HW233882   1.015   2.733  11.294  1.6272  1.4646 -1.0001
 7475SOL     OW33883   3.831   2.739   4.597  0.1092  0.3153 -0.1440
 7475SOL    HW133884   3.891   2.664   4.596  0.5074  0.6147  1.4798
 7475SOL    HW233885   3.753   2.714   4.647  2.1658 -1.3478  2.2365
 7476SOL     OW33886   3.411   0.348   6.689 -0.1212  0.4604 -0.1981
 7476SOL    HW133887   3.384   0.329   6.779  0.6712 -1.3630 -0.3489
 7476SOL    HW233888   3.454   0.263   6.680  0.3656  0.5804  1.0229
 7477SOL     OW33889   1.449   3.721   2.438  0.0273 -0.0273  0.0656
 7477SOL    HW133890   1.363   3.715   2.481 -0.1114 -1.7197 -0.4630
 7477SOL    HW233891   1.438   3.810   2.403  2.3570  0.1561 -0.1793
 7478SOL     OW33892   4.334   3.603  14.695  0.3147 -0.0480  0.7815
 7478SOL    HW133893   4.393   3.537  14.658  1.0507  0.5330  0.9324
 7478SOL    HW233894   4.332   3.573  14.786  1.2467  1.4513  1.3006
 7479SOL     OW33895   3.468   1.680  14.981  0.0632  0.1377  0.1516
 7479SOL    HW133896   3.544   1.697  14.926 -0.0815  2.7119  0.7465
 7479SOL    HW233897   3.472   1.584  14.983 -2.5288  0.0582  1.1523
 7480SOL     OW33898   2.801   2.482  13.852 -0.4034 -0.1192 -0.2224
 7480SOL    HW133899   2.849   2.558  13.819  0.7496 -0.6606  0.1947
 7480SOL    HW233900   2.843   2.405  13.814  0.2524  1.0680 -1.8722
 7481SOL     OW33901   3.887   4.567   6.280  0.5436 -0.3937  0.0419
 7481SOL    HW133902   3.940   4.503   6.232 -1.3403  0.8145 -3.7113
 7481SOL    HW233903   3.824   4.606   6.218  0.8752  1.7553  1.0482
 7482SOL     OW33904   0.169   3.797   6.222  0.1090 -0.3690 -0.4120
 7482SOL    HW133905   0.104   3.861   6.252  0.9271 -0.3470  1.3095
 7482SOL    HW233906   0.246   3.852   6.232  0.5900 -0.8356 -1.5817
 7483SOL     OW33907   2.897   2.179   7.535  0.3858  0.3984  0.0993
 7483SOL    HW133908   2.912   2.262   7.580 -0.9288  1.1170 -0.7943
 7483SOL    HW233909   2.948   2.195   7.456 -0.0101 -2.1063 -0.6479
 7484SOL     OW33910   4.571   3.457   4.701  0.4493  0.5275  0.4562
 7484SOL    HW133911   4.662   3.479   4.683  0.1803  1.4720  0.2035
 7484SOL    HW233912   4.563   3.390   4.634  0.2284  1.6477 -0.6443
 7485SOL     OW33913   0.594   0.484  14.142 -0.5269  0.7040 -0.3082
 7485SOL    HW133914   0.678   0.528  14.125  0.2430 -0.4274  0.5408
 7485SOL    HW233915   0.627   0.405  14.184  0.1246  1.7956  1.2873
 7486SOL     OW33916   3.546   4.709   3.809 -0.0642  0.1783  0.1367
 7486SOL    HW133917   3.560   4.669   3.895  0.1244 -1.4380 -0.6349
 7486SOL    HW233918   3.592   4.643   3.757 -1.7297 -0.2906 -0.7522
 7487SOL     OW33919   3.143   4.687   5.143 -0.7061  0.2214  0.0717
 7487SOL    HW133920   3.217   4.717   5.090 -1.2074  0.6674 -0.3757
 7487SOL    HW233921   3.126   4.610   5.089 -0.0213 -0.3586  0.6853
 7488SOL     OW33922   0.222   4.212  16.070 -0.1419 -0.2202 -0.3430
 7488SOL    HW133923   0.276   4.171  16.003  2.4912 -0.4227  1.8605
 7488SOL    HW233924   0.139   4.168  16.055 -1.1014  0.7472  2.0421
 7489SOL     OW33925   2.122   2.333  15.968 -0.5146  0.6845  0.1070
 7489SOL    HW133926   2.143   2.250  16.011 -0.0308  0.3985 -0.6987
 7489SOL    HW233927   2.030   2.343  15.996  0.0464 -0.8355  2.5362
 7490SOL     OW33928   0.499   1.800   3.008  0.2637 -0.3019  0.6104
 7490SOL    HW133929   0.420   1.848   2.985  0.5464 -0.1251  0.0093
 7490SOL    HW233930   0.459   1.728   3.056 -2.8019  0.4477 -0.8532
 7491SOL     OW33931   4.288   1.634  17.514 -0.2232 -0.3578  0.1221
 7491SOL    HW133932   4.213   1.676  17.472  0.3152 -0.5634 -1.0207
 7491SOL    HW233933   4.294   1.557  17.457  1.4185  0.4990 -0.8676
 7492SOL     OW33934   2.002   3.763  17.013  0.8552 -0.5661 -0.1696
 7492SOL    HW133935   1.981   3.705  17.086  0.4769 -0.2866 -0.0524
 7492SOL    HW233936   2.005   3.696  16.945  4.7483  0.9419 -1.4534
 7493SOL     OW33937   1.566   1.048   6.200 -0.6049  0.0081 -0.1140
 7493SOL    HW133938   1.637   0.992   6.231 -0.3935 -0.6804 -1.8366
 7493SOL    HW233939   1.600   1.135   6.220 -0.0173 -0.4639  0.9387
 7494SOL     OW33940   4.578   0.734   2.441  0.5265  0.4330  0.2658
 7494SOL    HW133941   4.507   0.719   2.379 -0.9112 -1.7277  2.4214
 7494SOL    HW233942   4.622   0.653   2.465 -0.3660  0.5476  2.3461
 7495SOL     OW33943   0.225   3.342   4.031  0.2094 -0.2541 -0.4347
 7495SOL    HW133944   0.221   3.353   3.936 -0.0693 -1.5432 -0.5762
 7495SOL    HW233945   0.268   3.423   4.059 -2.4418  0.9453  0.1701
 7496SOL     OW33946   2.689   3.973   8.765 -0.0899 -0.0601 -0.6022
 7496SOL    HW133947   2.729   4.058   8.745 -0.3852 -0.1251 -1.4675
 7496SOL    HW233948   2.704   3.981   8.859 -0.7062  2.1850 -0.6880
 7497SOL     OW33949   0.223   2.021   3.661  0.3759 -0.0222 -0.1324
 7497SOL    HW133950   0.271   1.963   3.720  1.7014 -0.0461 -1.2400
 7497SOL    HW233951   0.131   2.010   3.685  1.3254 -3.0751  2.1090
 7498SOL     OW33952   3.154   0.099   7.378 -0.2726  0.4777 -0.3724
 7498SOL    HW133953   3.126   0.140   7.459  0.2948  1.9620 -0.9299
 7498SOL    HW233954   3.233   0.151   7.361  0.7100 -1.1588 -0.9033
 7499SOL     OW33955   1.571   4.604  12.903  0.2692  0.2007  0.0913
 7499SOL    HW133956   1.483   4.602  12.940  0.1304 -1.0758 -0.3018
 7499SOL    HW233957   1.584   4.514  12.871  0.6960  0.3599 -0.1914
 7500SOL     OW33958   4.674   4.219   3.658  0.4546  0.4107  0.0856
 7500SOL    HW133959   0.038   4.207   3.612 -0.9471  2.3513 -2.9913
 7500SOL    HW233960   4.693   4.229   3.751  1.2007  0.0075 -0.0294
 7501SOL     OW33961   4.023   2.800   9.070 -0.1063  0.2018 -0.5966
 7501SOL    HW133962   3.944   2.746   9.082 -0.0404 -0.2762 -2.3529
 7501SOL    HW233963   4.003   2.876   9.125 -0.9419  0.6656 -1.5551
 7502SOL     OW33964   2.410   1.983   4.905  0.1039 -0.1827  0.0803
 7502SOL    HW133965   2.349   2.025   4.845  0.4961  1.5664  0.8935
 7502SOL    HW233966   2.472   1.943   4.844  0.5419  0.5262  0.0598
 7503SOL     OW33967   3.068   3.227  13.776  0.0387 -0.1485  0.0121
 7503SOL    HW133968   3.105   3.155  13.726  0.1885 -0.7906  1.0556
 7503SOL    HW233969   3.148   3.240  13.827 -0.8106 -0.6886  1.4940
 7504SOL     OW33970   0.820   0.197  12.683  0.1757 -0.4695 -0.3836
 7504SOL    HW133971   0.814   0.253  12.605  0.0770  0.0341 -0.0074
 7504SOL    HW233972   0.776   0.244  12.753  0.0457 -1.1970  0.0215
 7505SOL     OW33973   3.984   0.116   9.875 -0.2243  0.0987  0.0789
 7505SOL    HW133974   3.988   0.182   9.943 -0.5807  3.0894 -2.8027
 7505SOL    HW233975   3.931   0.052   9.923  0.4339 -0.3754  0.1792
 7506SOL     OW33976   3.819   0.009   7.622  0.0622  0.1057 -0.0907
 7506SOL    HW133977   3.884   4.677   7.671 -1.1773 -1.5223 -0.1272
 7506SOL    HW233978   3.789   0.080   7.678 -0.6511 -0.7742  0.6418
 7507SOL     OW33979   0.936   2.199  13.365  0.0595  0.2044  0.4299
 7507SOL    HW133980   0.885   2.165  13.439  0.6184 -0.1631  0.6421
 7507SOL    HW233981   1.002   2.130  13.374 -2.4018 -1.8888  2.4804
 7508SOL     OW33982   1.955   0.708   5.455  0.3565 -0.1870 -0.2931
 7508SOL    HW133983   1.887   0.767   5.486 -0.1635 -1.2635  0.6299
 7508SOL    HW233984   1.996   0.757   5.384 -0.3385  1.5703  0.5057
 7509SOL     OW33985   4.229   4.669   5.781 -0.3400 -0.8132 -0.2498
 7509SOL    HW133986   4.262   0.040   5.774  0.5909 -1.1127  0.3943
 7509SOL    HW233987   4.201   4.663   5.872 -1.3591 -1.5130 -0.6068
 7510SOL     OW33988   4.120   1.013  11.693  0.8152 -0.5893 -0.7938
 7510SOL    HW133989   4.034   1.047  11.668 -0.9920 -2.0253  3.5716
 7510SOL    HW233990   4.164   1.007  11.608 -1.2689 -0.9565 -1.8269
 7511SOL     OW33991   0.869   3.354   7.638 -0.1812  0.3616 -0.1672
 7511SOL    HW133992   0.943   3.415   7.642 -0.2353  0.3450  1.1639
 7511SOL    HW233993   0.907   3.272   7.606 -4.5718 -1.8444  0.2326
 7512SOL     OW33994   3.212   1.394  13.642 -0.4872  0.2095  0.1205
 7512SOL    HW133995   3.296   1.397  13.688 -0.2455 -2.9801 -0.0703
 7512SOL    HW233996   3.243   1.382  13.552  0.6920  2.4035  0.2352
 7513SOL     OW33997   3.077   2.629   4.289 -0.7304  0.2769 -0.4207
 7513SOL    HW133998   3.073   2.537   4.316  0.1864  0.9132  1.8610
 7513SOL    HW233999   3.052   2.613   4.198 -1.5061 -1.2415  0.0660
 7514SOL     OW34000   3.508   0.328  10.068 -0.0349 -0.3983 -0.6804
 7514SOL    HW134001   3.413   0.320  10.054  0.0395  0.4629 -1.7059
 7514SOL    HW234002   3.510   0.280  10.151  1.9345  1.7722  0.5136
 7515SOL     OW34003   0.226   0.014  11.287 -0.2232  0.3106  0.6137
 7515SOL    HW134004   0.306   4.698  11.247  0.6303  1.5349  1.2372
 7515SOL    HW234005   0.192   4.665  11.344 -1.2556  0.1229 -0.2280
 7516SOL     OW34006   3.025   0.119   8.593  0.5447  0.3378 -0.5834
 7516SOL    HW134007   3.086   0.054   8.630  2.0030  2.2602  0.3858
 7516SOL    HW234008   3.089   0.182   8.559 -0.7648  3.1109  2.0970
 7517SOL     OW34009   1.049   2.046   4.766  0.1163  0.7234 -0.2180
 7517SOL    HW134010   1.061   2.085   4.680  1.0912 -2.7148 -1.6412
 7517SOL    HW234011   0.957   2.069   4.781  0.4517  0.5441  2.1263
 7518SOL     OW34012   1.502   4.459   4.198 -0.5745 -0.2308 -0.0062
 7518SOL    HW134013   1.512   4.404   4.276  2.9355  0.6055  0.0977
 7518SOL    HW234014   1.416   4.493   4.224 -1.8170 -1.1761 -2.8425
 7519SOL     OW34015   3.158   2.532   6.938 -0.1440 -0.0515 -0.0392
 7519SOL    HW134016   3.178   2.615   6.980  2.3925  0.5910 -2.4616
 7519SOL    HW234017   3.063   2.525   6.942 -0.1592 -0.0044 -0.2690
 7520SOL     OW34018   3.105   1.265   2.458 -0.1480 -0.0417 -0.6607
 7520SOL    HW134019   3.093   1.353   2.420  1.3410  0.1603 -0.6683
 7520SOL    HW234020   3.106   1.279   2.553  2.3601  1.5360 -0.9099
 7521SOL     OW34021   0.699   3.028  13.694  0.0762  0.1677 -0.1397
 7521SOL    HW134022   0.748   3.071  13.624  0.8842 -1.0573 -0.3335
 7521SOL    HW234023   0.648   2.967  13.639  1.2343 -0.3762 -0.6134
 7522SOL     OW34024   4.296   2.310   9.064  0.6480 -0.2687 -0.5843
 7522SOL    HW134025   4.366   2.336   9.006  0.8506 -1.2982 -0.8028
 7522SOL    HW234026   4.341   2.294   9.147 -0.1863 -1.0735 -0.2785
 7523SOL     OW34027   1.137   2.783   3.333 -0.0173  0.4917  0.6745
 7523SOL    HW134028   1.157   2.767   3.426  0.9680 -1.4871  0.1150
 7523SOL    HW234029   1.067   2.847   3.345  1.3213  2.3866 -1.5949
 7524SOL     OW34030   2.903   0.868   5.997 -0.6997 -0.2202 -0.2449
 7524SOL    HW134031   2.932   0.940   6.054  0.1263 -0.7527  0.0071
 7524SOL    HW234032   2.944   0.788   6.028 -0.5075 -0.0079  0.0529
 7525SOL     OW34033   4.336   3.873   3.827 -0.5135  0.4162 -0.2302
 7525SOL    HW134034   4.428   3.870   3.853 -1.5009  0.4983  3.2291
 7525SOL    HW234035   4.319   3.966   3.811  0.8472  1.0997  2.3244
 7526SOL     OW34036   1.611   0.816   9.887 -0.1060  0.2513 -0.0427
 7526SOL    HW134037   1.561   0.761   9.947  1.3565  1.4383  2.2479
 7526SOL    HW234038   1.633   0.893   9.938 -2.4462 -1.0169  2.8973
 7527SOL     OW34039   3.718   1.057   7.934  0.0676  0.1672  0.0122
 7527SOL    HW134040   3.728   0.969   7.899 -0.9557  0.3427 -0.7369
 7527SOL    HW234041   3.623   1.053   7.949  0.0777 -0.8347 -0.2394
 7528SOL     OW34042   4.221   1.482   8.397  0.2205 -0.7083  0.1235
 7528SOL    HW134043   4.296   1.439   8.355 -0.1884 -0.3977 -0.9215
 7528SOL    HW234044   4.253   1.572   8.404  2.5308 -1.6964  2.3213
 7529SOL     OW34045   2.145   3.847  13.039 -0.0878 -0.9288 -0.1707
 7529SOL    HW134046   2.220   3.788  13.049 -0.6068 -1.7849 -1.3669
 7529SOL    HW234047   2.097   3.814  12.963 -1.5759  1.4844 -0.2610
 7530SOL     OW34048   0.477   1.275   2.033 -0.0654 -0.0506 -0.1312
 7530SOL    HW134049   0.503   1.359   2.071 -1.9808 -0.0022  1.0323
 7530SOL    HW234050   0.399   1.253   2.083 -0.5342 -2.6896 -1.9864
 7531SOL     OW34051   0.590   1.244   6.223  0.2373  0.2234 -0.0303
 7531SOL    HW134052   0.550   1.169   6.267  0.1149  0.7484  0.7471
 7531SOL    HW234053   0.527   1.255   6.151 -0.0482 -2.9901 -0.2822
 7532SOL     OW34054   4.337   3.501   3.978 -0.1968  0.2151  0.5334
 7532SOL    HW134055   4.317   3.557   3.903  0.7133  0.1020  0.2090
 7532SOL    HW234056   4.429   3.485   3.960 -0.0790  1.5414 -0.0738
 7533SOL     OW34057   0.194   1.441   4.219 -0.4651  0.0796  0.6280
 7533SOL    HW134058   0.259   1.371   4.224 -1.1229 -0.6727 -1.1334
 7533SOL    HW234059   0.248   1.519   4.212  0.1372 -0.3304  0.6651
 7534SOL     OW34060   4.136   1.153  14.725  0.7135 -0.3236  0.1574
 7534SOL    HW134061   4.205   1.138  14.790  0.1779  2.3600  1.3400
 7534SOL    HW234062   4.056   1.125  14.769 -0.3182  4.4669  1.2548
 7535SOL     OW34063   3.074   2.611   1.949 -0.0043 -0.0549  0.1001
 7535SOL    HW134064   3.060   2.614   2.044  0.6130 -2.5814  0.2686
 7535SOL    HW234065   2.984   2.614   1.917 -1.1097 -1.0839  3.0668
 7536SOL     OW34066   3.162   4.133  15.521 -0.3976 -0.5847 -0.0488
 7536SOL    HW134067   3.251   4.137  15.557  0.4362 -1.7092 -2.0170
 7536SOL    HW234068   3.167   4.212  15.467  1.6239 -1.1003 -0.6134
 7537SOL     OW34069   0.911   4.115  10.160  0.0586 -0.1442 -0.4893
 7537SOL    HW134070   0.956   4.067  10.090  1.7051  0.0773  0.4069
 7537SOL    HW234071   0.985   4.136  10.217 -0.6048  3.0826 -0.8168
 7538SOL     OW34072   3.805   2.781   7.675  0.1537  0.0583 -0.3134
 7538SOL    HW134073   3.808   2.828   7.758  1.5107 -1.7277  0.6447
 7538SOL    HW234074   3.889   2.795   7.632  0.8055  2.8233  1.8579
 7539SOL     OW34075   0.734   1.775   6.413 -0.7707  0.0437 -0.0010
 7539SOL    HW134076   0.818   1.821   6.419  0.8438 -2.7988 -0.9954
 7539SOL    HW234077   0.756   1.698   6.360  1.2196  0.1285  0.6709
 7540SOL     OW34078   1.329   4.010   6.852  0.7555 -0.0583  0.1682
 7540SOL    HW134079   1.303   3.982   6.940  1.2644 -0.4942  0.1766
 7540SOL    HW234080   1.419   4.036   6.874  0.1972  0.9591  1.2709
 7541SOL     OW34081   0.788   0.984   5.600 -0.2342  0.1627 -0.2141
 7541SOL    HW134082   0.780   0.984   5.696  0.7691 -1.5679 -0.1261
 7541SOL    HW234083   0.794   0.890   5.581 -2.6337  0.3205 -1.7522
 7542SOL     OW34084   3.601   3.614   7.059 -0.6284 -0.1813 -0.5856
 7542SOL    HW134085   3.642   3.696   7.087  0.8921 -1.1891  0.1666
 7542SOL    HW234086   3.544   3.601   7.135 -1.5914 -0.4097 -1.3645
 7543SOL     OW34087   1.102   0.822  10.338  0.2430 -0.2388  0.3710
 7543SOL    HW134088   1.037   0.821  10.407 -0.6525  0.7094 -0.4601
 7543SOL    HW234089   1.078   0.908  10.305 -1.0458 -0.1876  1.4862
 7544SOL     OW34090   3.925   3.076  15.288  1.0526 -0.2061  0.3203
 7544SOL    HW134091   3.974   3.159  15.291  0.6339  0.0394  0.3159
 7544SOL    HW234092   4.005   3.030  15.263  2.7592  1.8648  1.8995
 7545SOL     OW34093   0.825   2.485  15.189 -0.5241 -0.2412 -0.4911
 7545SOL    HW134094   0.763   2.448  15.125  0.8195  0.0422 -1.9563
 7545SOL    HW234095   0.854   2.561  15.139 -1.0850 -0.1215 -0.6320
 7546SOL     OW34096   3.152   1.248   6.733 -0.3732 -0.4656 -0.0847
 7546SOL    HW134097   3.086   1.181   6.748 -0.7852 -0.4233 -1.7037
 7546SOL    HW234098   3.207   1.237   6.811 -0.6944 -2.2309 -0.1155
 7547SOL     OW34099   3.279   2.575   2.531 -0.0819  0.2901 -0.3000
 7547SOL    HW134100   3.297   2.653   2.478  0.5372  0.3054 -0.0592
 7547SOL    HW234101   3.256   2.619   2.613 -2.4009  1.2867 -1.4690
 7548SOL     OW34102   0.793   4.378  14.798 -0.1793 -0.1389  0.1796
 7548SOL    HW134103   0.876   4.336  14.823  0.4015  0.2040 -1.2090
 7548SOL    HW234104   0.797   4.369  14.703  0.3005 -0.0356  0.1900
 7549SOL     OW34105   1.349   3.068   5.840 -0.5363  0.2002  0.3160
 7549SOL    HW134106   1.378   3.118   5.916  1.8371 -0.2164 -0.3058
 7549SOL    HW234107   1.291   3.007   5.886 -0.3262 -0.5111 -0.3600
 7550SOL     OW34108   1.521   1.279  15.582 -0.1868 -0.2805 -0.5087
 7550SOL    HW134109   1.521   1.300  15.675 -0.7756 -0.6555 -0.4191
 7550SOL    HW234110   1.427   1.281  15.563 -0.0592 -0.3095 -1.1459
 7551SOL     OW34111   2.478   4.014   7.621  0.2443  0.2853  0.0309
 7551SOL    HW134112   2.460   3.965   7.541  0.6892 -0.5519  0.4433
 7551SOL    HW234113   2.523   3.946   7.672  2.0223  0.4744 -1.2939
 7552SOL     OW34114   2.733   1.393  17.645  0.0756 -0.8634  0.1731
 7552SOL    HW134115   2.802   1.459  17.641  0.5222 -1.2782  1.0845
 7552SOL    HW234116   2.663   1.446  17.606 -0.0926 -2.1660 -1.2565
 7553SOL     OW34117   2.623   2.488  12.476 -0.4250  0.1414 -0.6284
 7553SOL    HW134118   2.705   2.533  12.493 -1.1492  0.3834  2.2782
 7553SOL    HW234119   2.577   2.553  12.423 -1.4792  0.1894  0.3273
 7554SOL     OW34120   2.225   2.524   4.035  0.1285 -0.0693  0.5225
 7554SOL    HW134121   2.291   2.479   4.088 -0.7313 -1.2933  0.5552
 7554SOL    HW234122   2.143   2.495   4.076 -0.0660  3.1471  2.4043
 7555SOL     OW34123   0.489   3.606   1.760  0.1903 -0.4523 -0.0599
 7555SOL    HW134124   0.416   3.651   1.803  0.4702  2.4611 -2.6133
 7555SOL    HW234125   0.559   3.621   1.824  0.0099  3.1073 -0.7153
 7556SOL     OW34126   4.116   3.936   0.910  0.5184 -0.0519  0.2445
 7556SOL    HW134127   4.180   4.004   0.890  0.0054  0.1261 -0.8465
 7556SOL    HW234128   4.139   3.918   1.001  0.4241 -0.2166  0.2377
 7557SOL     OW34129   3.349   4.178   1.635 -0.2529  0.3279  0.0613
 7557SOL    HW134130   3.408   4.252   1.646  1.5444 -1.2381  0.9683
 7557SOL    HW234131   3.270   4.221   1.604 -0.2658 -1.1226 -1.9195
 7558SOL     OW34132   2.591   3.585   5.263 -0.3454 -0.6369  0.2109
 7558SOL    HW134133   2.641   3.654   5.219 -0.5031 -0.9806 -0.5039
 7558SOL    HW234134   2.511   3.633   5.285  1.6408  1.3523  3.1194
 7559SOL     OW34135   1.774   0.076   4.009  0.2654 -0.0468 -0.0070
 7559SOL    HW134136   1.748   0.084   4.101  3.8496  1.9998  0.8236
 7559SOL    HW234137   1.827   0.152   3.985 -0.2056  1.2252  2.9787
 7560SOL     OW34138   4.307   0.427   8.008 -0.4648  0.0812 -0.1831
 7560SOL    HW134139   4.362   0.392   8.078 -1.6410  1.3496  1.3880
 7560SOL    HW234140   4.247   0.489   8.050  0.2328  1.0951 -0.6980
 7561SOL     OW34141   2.542   1.315  10.260  0.8791 -0.2597  0.5468
 7561SOL    HW134142   2.558   1.229  10.222  1.3835  0.5139 -1.0030
 7561SOL    HW234143   2.480   1.303  10.332  1.2331 -0.3249  0.8405
 7562SOL     OW34144   1.935   3.261   3.824 -0.0795  0.4561 -0.1315
 7562SOL    HW134145   1.933   3.354   3.848 -1.2035  0.4805 -0.3069
 7562SOL    HW234146   1.996   3.244   3.896  0.2826 -0.1035 -0.5781
 7563SOL     OW34147   3.480   1.669   5.330 -0.0341  0.0514 -0.2547
 7563SOL    HW134148   3.408   1.628   5.283  1.3767 -1.7618 -0.8093
 7563SOL    HW234149   3.470   1.619   5.411  1.4528  0.2072  0.0196
 7564SOL     OW34150   3.730   2.998   2.524 -0.2055  0.2184  0.0636
 7564SOL    HW134151   3.724   2.903   2.519 -0.1282  0.1289  1.7079
 7564SOL    HW234152   3.817   3.020   2.491 -0.1738  0.5546  0.3784
 7565SOL     OW34153   3.666   1.670   4.126  0.4707 -0.5549 -0.6054
 7565SOL    HW134154   3.748   1.624   4.140  2.6883  3.8505  0.8971
 7565SOL    HW234155   3.608   1.600   4.096  1.4017 -0.8606 -1.6956
 7566SOL     OW34156   0.150   2.613   7.106 -0.7112  0.4606  0.1062
 7566SOL    HW134157   0.135   2.528   7.065 -2.5634  1.1022 -0.5294
 7566SOL    HW234158   0.149   2.677   7.035 -1.2666  1.4582  1.0347
 7567SOL     OW34159   1.461   3.675   4.060 -0.6321 -0.4117 -0.4626
 7567SOL    HW134160   1.454   3.638   4.147 -0.4022 -0.7502 -0.5884
 7567SOL    HW234161   1.490   3.762   4.088 -2.5274  0.4216 -1.0894
 7568SOL     OW34162   3.363   4.079   8.762 -0.3120 -0.5458  0.2547
 7568SOL    HW134163   3.417   4.157   8.776 -0.9005 -0.3018  1.1487
 7568SOL    HW234164   3.362   4.061   8.668 -1.3390 -1.3154  0.4147
 7569SOL     OW34165   1.123   1.496   7.880 -0.0693  0.3937 -0.0894
 7569SOL    HW134166   1.030   1.502   7.859 -0.0888 -1.0325 -0.4111
 7569SOL    HW234167   1.171   1.550   7.817  1.0505 -0.1619  0.2911
 7570SOL     OW34168   2.642   2.382   6.186  0.2669  0.8587 -0.5535
 7570SOL    HW134169   2.589   2.432   6.249  1.7395  0.4459  1.0220
 7570SOL    HW234170   2.584   2.409   6.115  0.0636 -0.6912 -0.9647
 7571SOL     OW34171   3.898   0.279  14.920  0.0801  0.6496  0.4373
 7571SOL    HW134172   3.890   0.359  14.867  0.2158 -0.4456 -1.2497
 7571SOL    HW234173   3.855   0.323  14.993  0.4059  1.3353  0.2216
 7572SOL     OW34174   0.691   1.975   5.763  0.1049 -0.4060  0.4196
 7572SOL    HW134175   0.689   1.959   5.669 -0.6602 -0.3316  0.4218
 7572SOL    HW234176   0.597   1.965   5.780 -0.3955 -0.3575 -2.3598
 7573SOL     OW34177   0.084   4.627   3.384 -0.0249 -0.2453 -0.5350
 7573SOL    HW134178   0.055   4.700   3.329  1.3770 -0.1528 -1.1570
 7573SOL    HW234179   0.011   4.568   3.366  1.0801 -1.7399 -0.0680
 7574SOL     OW34180   2.295   4.440  13.749  0.7655 -0.3285 -0.2401
 7574SOL    HW134181   2.346   4.389  13.685  0.0226  1.2652 -2.1136
 7574SOL    HW234182   2.315   4.527  13.715  1.8235  0.3108  2.0425
 7575SOL     OW34183   0.550   3.609   5.701  0.4508 -0.5241 -0.1524
 7575SOL    HW134184   0.584   3.582   5.616 -1.9271 -0.3269 -1.1633
 7575SOL    HW234185   0.626   3.662   5.726  0.5273 -0.2567 -0.9665
 7576SOL     OW34186   1.953   2.928  12.345  0.3904 -0.7296  0.1443
 7576SOL    HW134187   1.972   2.894  12.432 -0.3000 -0.4146  0.4194
 7576SOL    HW234188   1.858   2.942  12.351  0.7034  1.7419 -0.4735
 7577SOL     OW34189   1.007   1.009   7.081  0.3765  0.0222 -0.1315
 7577SOL    HW134190   0.914   0.993   7.097  0.4391 -1.2401 -1.0255
 7577SOL    HW234191   1.003   1.087   7.026 -0.4051 -0.4375 -0.7308
 7578SOL     OW34192   2.342   0.181   6.534  0.3926  0.1878 -0.0027
 7578SOL    HW134193   2.301   0.142   6.457 -2.1581  0.0365  1.4112
 7578SOL    HW234194   2.289   0.146   6.606  0.9303  1.8006  1.1742
 7579SOL     OW34195   3.810   2.552   1.103 -0.6761 -0.5070  0.2380
 7579SOL    HW134196   3.725   2.593   1.086  0.7031  1.8791 -0.8094
 7579SOL    HW234197   3.787   2.469   1.145  2.7726 -2.8081 -2.4527
 7580SOL     OW34198   2.625   4.395   5.512  0.7343  0.9679 -0.2962
 7580SOL    HW134199   2.633   4.355   5.425  0.5877 -1.3897  0.7876
 7580SOL    HW234200   2.717   4.421   5.523  1.1052 -0.4665  0.0654
 7581SOL     OW34201   2.620   4.118   6.838  0.9587 -0.6240 -0.1368
 7581SOL    HW134202   2.584   4.079   6.759 -0.0675  3.0808 -1.4915
 7581SOL    HW234203   2.618   4.037   6.889 -0.3921 -1.4409 -1.4755
 7582SOL     OW34204   0.231   1.666   8.020 -0.2617  0.4798 -0.0184
 7582SOL    HW134205   0.183   1.625   7.949 -1.6762  0.4178  0.9769
 7582SOL    HW234206   0.311   1.695   7.977  2.5046 -3.1697  2.6913
 7583SOL     OW34207   3.227   3.319   6.396  0.3913 -0.0170  0.3269
 7583SOL    HW134208   3.223   3.393   6.335  1.3259 -0.4564 -0.2681
 7583SOL    HW234209   3.133   3.311   6.409  0.4346 -2.3893 -0.8250
 7584SOL     OW34210   0.637   2.491  12.722 -0.2918 -0.2232  0.1706
 7584SOL    HW134211   0.615   2.540  12.801  0.0217 -3.6876  2.3940
 7584SOL    HW234212   0.717   2.537  12.695 -0.1043 -1.6573 -1.6841
 7585SOL     OW34213   2.104   2.981   7.799 -0.4240  0.2516 -1.2023
 7585SOL    HW134214   2.138   3.011   7.884 -0.5031 -1.9685 -0.3931
 7585SOL    HW234215   2.014   2.972   7.830 -0.2596 -0.4492 -0.9213
 7586SOL     OW34216   0.998   2.250  17.514 -0.6266  0.1929 -0.3488
 7586SOL    HW134217   1.070   2.200  17.476  1.1673 -0.5029  4.0613
 7586SOL    HW234218   1.049   2.325  17.545  0.6529 -0.3988 -1.0156
 7587SOL     OW34219   3.821   0.649   8.862 -0.7137  0.3246  0.3147
 7587SOL    HW134220   3.775   0.593   8.800  0.4712 -0.9082  0.5517
 7587SOL    HW234221   3.860   0.709   8.799 -0.5792 -0.0831  0.0103
 7588SOL     OW34222   4.686   1.681   6.437 -0.1345  0.0272 -0.1968
 7588SOL    HW134223   4.591   1.688   6.437 -0.0450  1.0969 -1.0052
 7588SOL    HW234224   4.690   1.596   6.392 -1.1824 -0.7231  1.1141
 7589SOL     OW34225   3.064   0.483  10.162  0.5472  0.3094  0.0680
 7589SOL    HW134226   3.040   0.561  10.212  0.9720 -0.8958  2.1672
 7589SOL    HW234227   2.994   0.421  10.183 -1.1392  2.6081  1.2089
 7590SOL     OW34228   4.155   3.643  10.570 -0.3915 -0.4683 -0.0828
 7590SOL    HW134229   4.159   3.689  10.486 -0.0185  0.6138  0.5252
 7590SOL    HW234230   4.081   3.685  10.615  0.9685  1.1273  0.6727
 7591SOL     OW34231   3.944   0.247  10.096  0.1393  0.0329  0.2599
 7591SOL    HW134232   3.949   0.171  10.155  0.4586 -1.1055 -1.2499
 7591SOL    HW234233   3.960   0.320  10.157  1.5465 -1.0846  1.2367
 7592SOL     OW34234   0.157   4.017   5.728  0.7923  0.8136 -0.6228
 7592SOL    HW134235   0.250   3.993   5.724  0.3027 -0.7382 -2.6634
 7592SOL    HW234236   0.155   4.051   5.817 -0.8515 -1.2415  0.1194
 7593SOL     OW34237   0.188   2.488   7.836  0.0393 -0.0494 -0.2090
 7593SOL    HW134238   0.203   2.571   7.791 -1.9583  1.4042  1.7487
 7593SOL    HW234239   0.276   2.451   7.836 -0.1517 -0.5181  2.2723
 7594SOL     OW34240   1.723   4.279  15.805  0.3980 -0.3715  0.2155
 7594SOL    HW134241   1.686   4.197  15.839 -1.5251 -0.4529 -2.0160
 7594SOL    HW234242   1.764   4.321  15.879 -0.0462  0.8136 -0.2131
 7595SOL     OW34243   2.363   0.891   8.702  0.5130  1.0286  0.2831
 7595SOL    HW134244   2.369   0.814   8.646  0.7255  0.3170  1.3041
 7595SOL    HW234245   2.325   0.955   8.641 -0.8284  0.9797  1.0499
 7596SOL     OW34246   2.144   2.676   2.063 -0.8339 -0.0684 -0.6277
 7596SOL    HW134247   2.106   2.589   2.075 -1.2370  0.3161  0.8592
 7596SOL    HW234248   2.105   2.703   1.979  1.7567  0.3559 -1.7000
 7597SOL     OW34249   1.507   1.313   7.964  0.3657  0.0665  0.0795
 7597SOL    HW134250   1.475   1.239   8.016  1.1145 -0.5697 -0.3456
 7597SOL    HW234251   1.548   1.375   8.024  1.0034  1.9082 -2.2676
 7598SOL     OW34252   1.937   0.821   8.541  0.1074  0.6427  0.0728
 7598SOL    HW134253   1.852   0.860   8.522 -1.3012 -1.9542  1.0350
 7598SOL    HW234254   1.978   0.880   8.604 -0.9368  1.9703 -0.4991
 7599SOL     OW34255   1.972   0.051   0.886  0.1115 -0.2054  0.1238
 7599SOL    HW134256   1.959   4.676   0.900  1.0848 -0.0417  2.2042
 7599SOL    HW234257   1.880   0.076   0.888  0.0776 -0.3968  1.2676
 7600SOL     OW34258   4.525   2.311   7.742 -0.1555  0.0109  0.1079
 7600SOL    HW134259   4.595   2.299   7.806 -1.0083 -0.0259  1.0229
 7600SOL    HW234260   4.475   2.235   7.772 -1.1716  0.1275 -1.2696
 7601SOL     OW34261   1.785   0.387  15.639  0.5523 -0.0039  0.4004
 7601SOL    HW134262   1.857   0.449  15.643  0.3842  0.0590  2.7407
 7601SOL    HW234263   1.828   0.305  15.661 -0.8809 -1.5796 -2.6319
 7602SOL     OW34264   2.238   3.076   4.228  0.3893  0.0280 -0.0390
 7602SOL    HW134265   2.294   3.067   4.305 -1.7344  0.3666  1.5645
 7602SOL    HW234266   2.236   3.172   4.236  0.5445  0.0729 -0.6077
 7603SOL     OW34267   0.714   1.603   7.222  0.0618 -0.1911  0.5045
 7603SOL    HW134268   0.701   1.616   7.128  1.9827 -1.8179  0.0227
 7603SOL    HW234269   0.626   1.577   7.249 -0.6185  1.6708  0.0451
 7604SOL     OW34270   0.531   4.464  17.356 -0.1202  0.1155 -0.2752
 7604SOL    HW134271   0.454   4.457  17.299 -0.6846 -0.2864  0.5420
 7604SOL    HW234272   0.596   4.411  17.309  0.1539 -1.1523  1.5613
 7605SOL     OW34273   0.578   1.739   4.077  0.0495 -0.0278 -0.2550
 7605SOL    HW134274   0.609   1.672   4.016 -2.4348 -0.9913 -0.4715
 7605SOL    HW234275   0.656   1.792   4.090  0.9468 -1.2317 -0.7932
 7606SOL     OW34276   3.939   1.494   3.677  0.5593  0.6247 -0.3308
 7606SOL    HW134277   3.946   1.399   3.666 -1.1263  0.5379 -0.7075
 7606SOL    HW234278   3.936   1.521   3.585  0.4761 -2.4847 -1.2521
 7607SOL     OW34279   2.303   3.689   8.720  0.3932  0.4292  0.5616
 7607SOL    HW134280   2.284   3.663   8.810  2.6038  0.1613  0.9414
 7607SOL    HW234281   2.310   3.602   8.680  1.4038  1.8826 -2.4039
 7608SOL     OW34282   0.939   2.988   3.371  0.1713 -0.1376  0.3516
 7608SOL    HW134283   0.868   3.038   3.333  0.5868 -1.1047 -1.6957
 7608SOL    HW234284   0.974   3.047   3.437 -0.7462 -0.0846  0.7900
 7609SOL     OW34285   3.629   1.844   3.929 -0.1442  0.3695  0.6201
 7609SOL    HW134286   3.694   1.816   3.865  0.4413  1.8939  0.5271
 7609SOL    HW234287   3.670   1.790   3.996  0.2681 -2.0348 -1.5800
 7610SOL     OW34288   3.620   2.742   1.517  0.4601  0.1622 -0.1517
 7610SOL    HW134289   3.710   2.736   1.486 -0.2959 -0.1897 -2.2682
 7610SOL    HW234290   3.615   2.661   1.568 -1.6519  1.5145  1.8063
 7611SOL     OW34291   0.197   2.186   6.722  0.0846 -0.3070  0.4748
 7611SOL    HW134292   0.110   2.206   6.688  0.2437 -0.4390 -0.0154
 7611SOL    HW234293   0.209   2.245   6.796 -0.7797  2.1223 -1.3097
 7612SOL     OW34294   0.526   2.754   5.746 -0.3335 -0.0578 -0.3641
 7612SOL    HW134295   0.501   2.662   5.744  0.9383 -0.4449  1.4060
 7612SOL    HW234296   0.608   2.758   5.697  0.3568 -0.9625  0.7162
 7613SOL     OW34297   1.467   2.921   8.665 -0.1240 -0.4740 -0.3092
 7613SOL    HW134298   1.438   2.981   8.734 -3.4885 -1.7908 -0.5660
 7613SOL    HW234299   1.398   2.856   8.673 -0.6893  0.3131  1.2243
 7614SOL     OW34300   3.077   0.758   6.223  0.2463  0.2289  0.4795
 7614SOL    HW134301   3.043   0.713   6.300 -0.8848 -1.3997 -0.9908
 7614SOL    HW234302   3.038   0.695   6.162 -0.9527  0.6341  0.8126
 7615SOL     OW34303   2.179   3.647   5.345 -0.5146 -0.7562  0.0088
 7615SOL    HW134304   2.239   3.692   5.285 -1.4639  1.5116  0.7303
 7615SOL    HW234305   2.207   3.556   5.339 -2.4557 -1.3510  0.1289
 7616SOL     OW34306   1.356   4.481   8.158 -0.3809 -0.4953 -0.3670
 7616SOL    HW134307   1.368   4.428   8.237  3.9306  0.0904 -0.5963
 7616SOL    HW234308   1.290   4.430   8.111 -2.3388 -0.4776  2.3746
 7617SOL     OW34309   3.467   0.444  14.826 -0.1521  0.0164 -0.2966
 7617SOL    HW134310   3.493   0.360  14.787  1.4962  0.3806  0.0002
 7617SOL    HW234311   3.520   0.495  14.765  0.0428  0.9428  0.6434
 7618SOL     OW34312   0.627   4.395   5.933  0.5050 -0.4841 -0.1151
 7618SOL    HW134313   0.547   4.383   5.985 -0.0428  1.7233 -0.4619
 7618SOL    HW234314   0.625   4.323   5.870  1.5221 -1.8927  1.4269
 7619SOL     OW34315   3.526   3.552  17.328 -0.5930 -0.0178  0.6411
 7619SOL    HW134316   3.550   3.577  17.239 -0.5683  2.2908  1.2849
 7619SOL    HW234317   3.586   3.606  17.380 -1.5533  1.2466  0.4461
 7620SOL     OW34318   1.644   4.157  14.895 -0.4549  0.2617  0.0973
 7620SOL    HW134319   1.552   4.135  14.879 -0.2904 -1.9826  2.3013
 7620SOL    HW234320   1.646   4.214  14.971 -0.6496 -0.0016  0.2992
 7621SOL     OW34321   0.363   2.074  17.230 -0.2527 -0.1887  0.0837
 7621SOL    HW134322   0.426   2.094  17.299  1.6812 -1.7756 -1.2522
 7621SOL    HW234323   0.313   1.996  17.255 -1.3727  0.4203 -0.2325
 7622SOL     OW34324   2.048   0.990   3.506 -0.1106 -0.7694  0.1687
 7622SOL    HW134325   2.090   0.914   3.546  0.6674 -1.3961 -1.8052
 7622SOL    HW234326   2.091   1.060   3.555 -1.6358  0.5625 -0.3991
 7623SOL     OW34327   1.711   2.866   5.004  0.0176 -0.1230 -0.0884
 7623SOL    HW134328   1.764   2.805   4.952  1.1688  1.2419 -0.4951
 7623SOL    HW234329   1.681   2.932   4.941 -0.1699 -0.1789 -0.0584
 7624SOL     OW34330   0.553   2.467   3.306 -0.1426  0.3111 -0.4190
 7624SOL    HW134331   0.524   2.521   3.379 -0.2295  0.1638 -0.3451
 7624SOL    HW234332   0.512   2.499   3.226 -0.5799  0.4844 -0.1249
 7625SOL     OW34333   2.504   4.156   4.435 -0.4017 -0.1763 -0.4824
 7625SOL    HW134334   2.456   4.127   4.358 -0.4586  1.0343 -0.9134
 7625SOL    HW234335   2.513   4.080   4.492 -0.1607  1.9390  2.2780
 7626SOL     OW34336   0.886   2.381  10.937  0.0925 -0.0954 -0.9141
 7626SOL    HW134337   0.936   2.313  10.981  0.4708  0.9887  0.3434
 7626SOL    HW234338   0.950   2.444  10.903  0.7591 -1.0288 -1.3746
 7627SOL     OW34339   0.825   0.896   7.918 -0.0916 -0.3806  0.1939
 7627SOL    HW134340   0.918   0.910   7.897 -0.9908  0.8862 -2.9575
 7627SOL    HW234341   0.823   0.921   8.011 -0.4062  0.4305 -0.0354
 7628SOL     OW34342   4.205   1.739  12.005 -0.8668  0.5377 -0.6674
 7628SOL    HW134343   4.181   1.819  11.959 -0.2866  0.3902 -1.2340
 7628SOL    HW234344   4.214   1.771  12.094 -3.2795  1.8092 -0.8822
 7629SOL     OW34345   2.254   4.473   4.358 -0.1159 -0.1783  0.1697
 7629SOL    HW134346   2.242   4.530   4.434 -0.5477  1.8116 -1.3869
 7629SOL    HW234347   2.350   4.474   4.347 -0.1292  2.2774  0.3207
 7630SOL     OW34348   3.415   2.831   0.916  0.1273 -0.3055  0.5478
 7630SOL    HW134349   3.495   2.827   0.862  0.0101  0.6223  0.3085
 7630SOL    HW234350   3.359   2.881   0.857  2.1846  2.3709  0.8284
 7631SOL     OW34351   2.499   2.582   5.746 -0.0163 -0.1480 -0.4560
 7631SOL    HW134352   2.480   2.523   5.672  0.1247  0.0734 -0.6674
 7631SOL    HW234353   2.474   2.666   5.708 -0.5743 -0.3772 -0.6002
 7632SOL     OW34354   0.859   3.353  11.216 -0.3236  0.0525 -0.2962
 7632SOL    HW134355   0.943   3.360  11.171 -0.0874 -2.7657 -0.3175
 7632SOL    HW234356   0.822   3.275  11.175  1.6339 -1.2407  0.3745
 7633SOL     OW34357   1.981   0.418   0.843  0.2600 -0.4249 -0.1191
 7633SOL    HW134358   1.977   0.406   0.748 -2.3675 -1.1058  0.0846
 7633SOL    HW234359   1.914   0.485   0.859  0.7333 -0.4932  2.1429
 7634SOL     OW34360   1.550   3.515  12.652 -0.5438  0.0436 -0.4542
 7634SOL    HW134361   1.550   3.447  12.720  1.7013  0.3925 -0.1009
 7634SOL    HW234362   1.459   3.544  12.649 -0.7063 -0.3808  0.3433
 7635SOL     OW34363   4.170   4.008   2.118 -0.0950 -0.0622 -0.2612
 7635SOL    HW134364   4.213   4.056   2.048  1.3972 -3.2852 -1.5673
 7635SOL    HW234365   4.148   4.074   2.184  1.0142  0.3060 -0.2662
 7636SOL     OW34366   3.918   4.021   4.595 -0.0380 -0.0015  0.3725
 7636SOL    HW134367   3.848   4.015   4.530 -2.3913 -0.0078  2.8921
 7636SOL    HW234368   3.901   4.112   4.620 -0.6905 -0.1338  0.4256
 7637SOL     OW34369   4.489   1.888   6.057 -0.7013  0.2412  0.4413
 7637SOL    HW134370   4.418   1.940   6.094  0.0805  2.7985 -1.6575
 7637SOL    HW234371   4.559   1.920   6.114 -1.4029  2.7357 -0.1043
 7638SOL     OW34372   3.080   0.981   3.479  0.5825 -0.1916 -0.0727
 7638SOL    HW134373   3.121   1.064   3.455 -0.8889  0.6301  0.2277
 7638SOL    HW234374   3.000   0.977   3.426  0.3478  0.2817  0.2454
 7639SOL     OW34375   2.600   4.709  13.170  0.4153  0.2370  0.2190
 7639SOL    HW134376   2.695   4.705  13.180  0.4321 -1.1265 -0.5767
 7639SOL    HW234377   2.587   0.084  13.155 -2.7916 -0.1872  0.3209
 7640SOL     OW34378   0.541   3.331  11.153 -0.2414 -1.0957  0.3492
 7640SOL    HW134379   0.623   3.379  11.153 -0.7115 -0.2833 -0.8401
 7640SOL    HW234380   0.527   3.351  11.245 -1.6436  1.1435 -0.3234
 7641SOL     OW34381   1.849   2.140   9.508 -0.1345  0.3804  0.2031
 7641SOL    HW134382   1.828   2.151   9.600  3.7982 -3.5653  1.5663
 7641SOL    HW234383   1.763   2.117   9.474 -0.4665 -0.7695  1.8565
 7642SOL     OW34384   0.533   1.504   6.030  0.1665 -0.2573 -0.3254
 7642SOL    HW134385   0.577   1.449   5.965 -0.3826 -2.5957  1.2977
 7642SOL    HW234386   0.556   1.596   6.018 -1.2702  0.7218  4.4561
 7643SOL     OW34387   4.013   2.616   1.671  0.7954  0.8856  0.3640
 7643SOL    HW134388   3.951   2.689   1.676  0.0238  0.1889  0.8290
 7643SOL    HW234389   3.976   2.559   1.738  1.0548  0.1701 -0.0981
 7644SOL     OW34390   0.254   3.531   6.188 -0.0634 -0.3676 -0.2522
 7644SOL    HW134391   0.208   3.612   6.207  0.7638 -0.2156  1.1314
 7644SOL    HW234392   0.334   3.571   6.155  0.0666 -0.1095  0.3609
 7645SOL     OW34393   1.115   1.772   4.720 -0.0177 -0.1627 -0.2882
 7645SOL    HW134394   1.099   1.861   4.750 -3.1351 -0.1893 -1.8771
 7645SOL    HW234395   1.210   1.763   4.735 -0.2090  0.9117  1.5751
 7646SOL     OW34396   0.413   1.672   7.308 -0.1036 -0.1815  0.4714
 7646SOL    HW134397   0.323   1.643   7.296 -0.2303 -0.1823  1.4583
 7646SOL    HW234398   0.405   1.768   7.305 -0.1012 -0.1945  0.0213
 7647SOL     OW34399   2.205   2.246   3.000 -0.1932 -0.0535 -0.0909
 7647SOL    HW134400   2.267   2.280   2.937  0.3648  0.0410  0.5088
 7647SOL    HW234401   2.134   2.219   2.942  0.5348 -1.8771 -0.1181
 7648SOL     OW34402   4.703   4.174  12.690  0.3207  0.2526 -0.7019
 7648SOL    HW134403   4.717   4.265  12.715  0.7444  0.1451 -0.5341
 7648SOL    HW234404   0.028   4.129  12.762  0.7717  0.4776 -0.8339
 7649SOL     OW34405   1.445   2.707  16.475  0.3230 -0.1823 -0.3953
 7649SOL    HW134406   1.404   2.724  16.560 -2.8128 -1.8056 -1.5970
 7649SOL    HW234407   1.406   2.779  16.426 -1.2625  0.9244  2.4883
 7650SOL     OW34408   3.725   3.850   7.050 -0.3152 -0.8844  0.2185
 7650SOL    HW134409   3.684   3.856   6.964  0.2003  0.1484  0.0401
 7650SOL    HW234410   3.736   3.942   7.075 -2.7339 -0.2716 -0.9669
 7651SOL     OW34411   1.182   0.629   4.253  0.0248 -0.3479  1.0681
 7651SOL    HW134412   1.205   0.688   4.325 -0.7298  0.5662  0.5606
 7651SOL    HW234413   1.215   0.675   4.175 -1.9363 -1.6766 -0.5551
 7652SOL     OW34414   1.795   1.503  15.839 -0.0370  0.1324 -0.1010
 7652SOL    HW134415   1.734   1.431  15.853 -0.3837  0.0925 -1.7876
 7652SOL    HW234416   1.878   1.460  15.819  0.7609  2.2047 -1.2593
 7653SOL     OW34417   4.472   3.252   1.764  0.3101  0.2542 -0.2675
 7653SOL    HW134418   4.435   3.165   1.780 -1.9444  0.9222 -1.8659
 7653SOL    HW234419   4.560   3.214   1.763  0.3252  0.3170 -1.4026
 7654SOL     OW34420   3.088   1.503  15.737 -0.3455  0.5702 -0.3626
 7654SOL    HW134421   3.026   1.488  15.666  0.5427  0.6956 -1.1630
 7654SOL    HW234422   3.063   1.437  15.802  0.8243  1.2916  0.8225
 7655SOL     OW34423   1.377   2.648   8.936  0.0297 -0.0229 -0.5705
 7655SOL    HW134424   1.319   2.721   8.914  0.8134  0.8817  0.3737
 7655SOL    HW234425   1.413   2.622   8.851  0.4167 -0.4115 -0.2912
 7656SOL     OW34426   1.484   1.405   4.880 -0.5496 -0.5396  0.4141
 7656SOL    HW134427   1.408   1.365   4.923  1.1553 -0.5705  3.3624
 7656SOL    HW234428   1.548   1.347   4.922 -0.4893 -1.6612 -1.2376
 7657SOL     OW34429   1.337   3.674   8.465 -0.1480  0.4731  0.1147
 7657SOL    HW134430   1.412   3.647   8.411 -0.5953 -1.5289  0.5040
 7657SOL    HW234431   1.270   3.675   8.396  0.7902 -0.4525 -0.8032
 7658SOL     OW34432   4.145   2.069   9.532 -0.1472  0.0860  0.1410
 7658SOL    HW134433   4.091   2.148   9.521  0.1568  0.2935  0.1243
 7658SOL    HW234434   4.100   2.026   9.604  1.0473 -3.8105 -1.4624
 7659SOL     OW34435   2.273   1.409   3.390  0.4208  0.3510 -0.7689
 7659SOL    HW134436   2.196   1.376   3.344 -0.8843  0.6229  1.2637
 7659SOL    HW234437   2.238   1.451   3.468  0.8096  0.9466 -0.9082
 7660SOL     OW34438   2.712   3.496   4.144 -0.3633  0.1879 -0.4657
 7660SOL    HW134439   2.706   3.407   4.180 -1.9679  0.0894 -0.9436
 7660SOL    HW234440   2.657   3.486   4.066 -1.4236  0.7546  0.2035
 7661SOL     OW34441   4.350   1.774  16.147 -0.0100  0.3542  0.0907
 7661SOL    HW134442   4.442   1.746  16.141 -0.4671 -1.1946  0.4687
 7661SOL    HW234443   4.306   1.694  16.120 -0.1388  0.9775 -1.5397
 7662SOL     OW34444   4.469   2.078   3.816  0.0994 -0.1945 -0.3715
 7662SOL    HW134445   4.418   2.156   3.795 -0.4743  0.0375  1.9014
 7662SOL    HW234446   4.404   2.021   3.858  0.6931 -0.8404 -0.3355
 7663SOL     OW34447   2.254   3.813   4.634 -0.7559 -0.4174  0.5611
 7663SOL    HW134448   2.222   3.760   4.561  3.8459 -1.9306 -0.3305
 7663SOL    HW234449   2.238   3.904   4.606  0.1513 -0.5747 -0.4594
 7664SOL     OW34450   1.428   2.379   5.326 -0.4455  0.2192  0.0760
 7664SOL    HW134451   1.337   2.406   5.313 -0.4525  0.3504  0.3939
 7664SOL    HW234452   1.419   2.284   5.319  0.9777 -0.2350  4.1168
 7665SOL     OW34453   3.437   3.324   7.024  0.7050  0.0834 -0.1237
 7665SOL    HW134454   3.418   3.234   7.050  2.1682 -0.7964 -2.1237
 7665SOL    HW234455   3.499   3.305   6.953 -0.0575 -1.3399 -0.3954
 7666SOL     OW34456   1.765   2.774  15.048 -0.3408 -0.2662 -0.0324
 7666SOL    HW134457   1.698   2.842  15.035 -0.3882 -0.0099  1.4961
 7666SOL    HW234458   1.727   2.713  14.986 -2.5578 -0.1858  1.2298
 7667SOL     OW34459   0.303   2.382   7.393  0.1108 -0.0848 -0.4445
 7667SOL    HW134460   0.398   2.368   7.402  0.1314  0.0277 -0.4862
 7667SOL    HW234461   0.295   2.475   7.372 -2.2850 -0.2718 -0.3004
 7668SOL     OW34462   3.442   1.581   8.595  0.9790  0.6661 -0.2391
 7668SOL    HW134463   3.530   1.614   8.576  0.8321  1.3426  0.2678
 7668SOL    HW234464   3.402   1.653   8.644  1.3427  0.4991  0.2944
 7669SOL     OW34465   2.311   2.838  13.249 -0.0663  0.0392  0.0856
 7669SOL    HW134466   2.379   2.839  13.183  0.2434  1.1690  0.4146
 7669SOL    HW234467   2.303   2.934  13.248 -0.1104  0.0472  0.8603
 7670SOL     OW34468   0.238   1.383   1.292 -0.2348  0.3593 -0.2834
 7670SOL    HW134469   0.311   1.444   1.283 -0.0182  0.1012 -0.2627
 7670SOL    HW234470   0.283   1.300   1.279  0.5206  0.4438  1.7908
 7671SOL     OW34471   0.464   3.176   7.338  1.1507 -0.0003  0.3030
 7671SOL    HW134472   0.557   3.156   7.330  0.7819 -1.8501  0.5264
 7671SOL    HW234473   0.446   3.146   7.427  1.7349  2.2546  1.1761
 7672SOL     OW34474   1.940   3.818   2.963  0.5507 -0.3840 -0.0649
 7672SOL    HW134475   1.976   3.872   3.033 -0.8247 -0.2545  0.5538
 7672SOL    HW234476   2.016   3.760   2.963  0.0690 -1.0190  0.0578
 7673SOL     OW34477   1.403   2.625   4.270  0.2445  0.3411  0.0341
 7673SOL    HW134478   1.329   2.566   4.288 -1.9249  2.9756 -0.1394
 7673SOL    HW234479   1.440   2.590   4.190 -0.2869  0.1325 -0.1171
 7674SOL     OW34480   4.388   4.540  10.281  0.2831 -0.0766 -1.1324
 7674SOL    HW134481   4.382   4.501  10.369  0.9356 -0.9470 -1.4742
 7674SOL    HW234482   4.304   4.574  10.251 -1.0721 -0.4237  2.2215
 7675SOL     OW34483   0.187   0.297   7.591 -0.4691 -0.0529 -0.3351
 7675SOL    HW134484   0.207   0.228   7.655 -0.9874  0.0184 -0.0915
 7675SOL    HW234485   0.163   0.245   7.514  0.5417  0.1187 -0.7588
 7676SOL     OW34486   0.808   4.306   6.156  0.8407 -0.1759  0.5364
 7676SOL    HW134487   0.883   4.322   6.098  0.2773 -1.9811 -0.6722
 7676SOL    HW234488   0.741   4.347   6.101  1.4848  1.6057  1.0862
 7677SOL     OW34489   3.897   4.195   9.943  0.2313 -0.0493  1.0609
 7677SOL    HW134490   3.908   4.215  10.036 -0.2309  0.4681  1.0007
 7677SOL    HW234491   3.825   4.134   9.955  0.8710 -1.5035 -2.3627
 7678SOL     OW34492   1.496   2.068  15.055 -0.0033  0.0536  0.3330
 7678SOL    HW134493   1.560   2.074  14.984 -0.1115  1.6905  0.3633
 7678SOL    HW234494   1.542   2.115  15.125  1.7772 -1.1820  0.0140
 7679SOL     OW34495   0.875   3.095  16.588 -0.6123 -0.2186  0.0918
 7679SOL    HW134496   0.964   3.067  16.608  0.2604  1.4110 -1.6031
 7679SOL    HW234497   0.826   3.045  16.654  0.4324  1.1616  1.8978
 7680SOL     OW34498   2.263   1.370   5.940 -0.0133  0.0812 -0.0393
 7680SOL    HW134499   2.193   1.406   5.885  0.1177  1.7142  0.8713
 7680SOL    HW234500   2.243   1.277   5.934  1.3148 -0.2864  1.2237
 7681SOL     OW34501   3.645   4.498   7.473  0.2579  0.5470  0.1708
 7681SOL    HW134502   3.707   4.568   7.450  0.4481  1.3102  3.0292
 7681SOL    HW234503   3.603   4.494   7.387  0.7929 -0.5148 -0.0419
 7682SOL     OW34504   4.030   3.003   3.513  0.1373 -0.4251  0.2365
 7682SOL    HW134505   3.974   3.078   3.534  1.4969 -0.0582  2.4860
 7682SOL    HW234506   4.113   3.045   3.535  0.0019  0.8228 -1.5821
 7683SOL     OW34507   0.280   4.235   3.106 -0.0561  0.3647 -0.3274
 7683SOL    HW134508   0.279   4.139   3.101  1.8368  0.4587 -2.4102
 7683SOL    HW234509   0.252   4.255   3.017 -0.1599  0.6723 -0.2267
 7684SOL     OW34510   2.733   4.145   1.603 -0.4735  0.6775  0.3441
 7684SOL    HW134511   2.655   4.200   1.617  0.8476  2.9860 -1.3988
 7684SOL    HW234512   2.794   4.217   1.615  0.1864  0.1749 -0.0001
 7685SOL     OW34513   2.089   0.423   3.015 -0.0817  0.3609  0.4686
 7685SOL    HW134514   1.994   0.418   3.006 -0.0053  2.2286 -1.4795
 7685SOL    HW234515   2.091   0.509   3.056 -2.7204  0.4046  0.4985
 7686SOL     OW34516   0.288   2.337   1.512  0.0809 -0.5878 -0.1237
 7686SOL    HW134517   0.359   2.401   1.502 -1.1061  0.7435 -0.1657
 7686SOL    HW234518   0.318   2.255   1.473 -2.9065 -1.7687  0.0075
 7687SOL     OW34519   2.474   0.541   9.319  0.5110 -0.0135 -0.2153
 7687SOL    HW134520   2.491   0.578   9.406  1.2257 -0.9103  0.0229
 7687SOL    HW234521   2.517   0.607   9.265  2.1452  0.1305  1.2808
 7688SOL     OW34522   4.255   0.415   9.219  0.2930 -0.6173  0.3724
 7688SOL    HW134523   4.341   0.455   9.225  0.3184 -0.6588  0.2812
 7688SOL    HW234524   4.261   0.367   9.302 -0.0120 -0.6846  0.3578
 7689SOL     OW34525   2.125   3.748   9.174 -0.7176 -0.0963 -0.6720
 7689SOL    HW134526   2.140   3.745   9.268  1.3693  1.2995 -0.9660
 7689SOL    HW234527   2.115   3.841   9.152  1.1415  0.3130  0.2332
 7690SOL     OW34528   4.019   0.495   1.876  0.4091 -0.4992 -0.0620
 7690SOL    HW134529   4.067   0.457   1.802  1.5020 -0.1767  0.4793
 7690SOL    HW234530   4.088   0.516   1.939  0.9589  1.1420 -1.2187
 7691SOL     OW34531   1.827   2.173   2.431  0.5056 -0.1913  0.7247
 7691SOL    HW134532   1.892   2.232   2.393  1.7394 -2.7328 -1.1211
 7691SOL    HW234533   1.755   2.171   2.367 -0.3454  2.0396  1.6208
 7692SOL     OW34534   2.960   4.644   5.763 -0.6303  0.1081 -0.1936
 7692SOL    HW134535   2.981   4.588   5.838 -2.9784  1.2222  1.2487
 7692SOL    HW234536   2.909   4.585   5.707 -1.5667  1.6639 -0.9827
 7693SOL     OW34537   1.656   1.541  13.918 -0.1946 -0.1252 -0.3203
 7693SOL    HW134538   1.652   1.536  14.013  0.7394 -0.6014 -0.3042
 7693SOL    HW234539   1.647   1.636  13.909  2.2280  0.1461 -0.0425
 7694SOL     OW34540   1.832   4.630   7.528 -0.5178  0.3374 -0.0070
 7694SOL    HW134541   1.856   4.552   7.479  4.7340  2.0982 -0.2654
 7694SOL    HW234542   1.902   4.649   7.590 -0.2195 -1.6044  0.2479
 7695SOL     OW34543   2.737   0.524   7.604 -1.0896 -0.1437  0.9058
 7695SOL    HW134544   2.706   0.479   7.525  0.0349 -1.5490  1.2676
 7695SOL    HW234545   2.830   0.503   7.607 -1.2145 -0.5492  1.6814
 7696SOL     OW34546   3.291   3.909   7.764  0.0174 -0.1083 -0.0228
 7696SOL    HW134547   3.266   3.906   7.672  0.0213  1.9659 -0.0791
 7696SOL    HW234548   3.382   3.879   7.766 -0.4072 -1.4640 -0.9483
 7697SOL     OW34549   0.867   4.586  10.117  0.1276 -0.3798 -0.3691
 7697SOL    HW134550   0.895   4.661  10.064  0.8035  1.9842  3.3249
 7697SOL    HW234551   0.880   4.618  10.206 -2.0567 -1.2127  0.2419
 7698SOL     OW34552   2.102   3.753   9.434 -0.0189 -0.0706  0.1265
 7698SOL    HW134553   2.122   3.839   9.471  1.0132 -0.4197  0.3659
 7698SOL    HW234554   2.039   3.723   9.500 -1.4044  0.8863 -0.7499
 7699SOL     OW34555   0.780   0.143   8.701  0.0423 -0.1100 -0.3344
 7699SOL    HW134556   0.699   0.093   8.709  0.3535 -0.3783  1.1316
 7699SOL    HW234557   0.760   0.236   8.697 -2.0803 -0.5343  0.5326
 7700SOL     OW34558   4.649   3.277   5.233 -0.3184  0.1439  0.1741
 7700SOL    HW134559   4.672   3.191   5.267 -0.5774  0.1659  0.4038
 7700SOL    HW234560   4.654   3.334   5.309  0.6695  0.0321  0.1923
 7701SOL     OW34561   0.441   2.397   7.845  0.5106 -0.0294 -0.0744
 7701SOL    HW134562   0.421   2.469   7.785  1.3724  0.0455 -0.2739
 7701SOL    HW234563   0.455   2.325   7.783  3.3194 -0.4562  1.0480
 7702SOL     OW34564   3.597   1.215   2.351  0.4053 -0.1410 -0.2289
 7702SOL    HW134565   3.648   1.276   2.405  0.8225  0.7459 -1.5959
 7702SOL    HW234566   3.530   1.188   2.413  0.4999  2.0383  0.8284
 7703SOL     OW34567   2.827   1.291   5.023 -0.2316 -0.1957 -0.3692
 7703SOL    HW134568   2.794   1.212   5.066  0.2991 -1.0843 -1.5746
 7703SOL    HW234569   2.922   1.281   5.022 -0.5463 -3.1444  0.7090
 7704SOL     OW34570   0.685   1.411   4.636  0.1510 -0.2201  0.0233
 7704SOL    HW134571   0.646   1.417   4.548  0.5886  0.3455 -0.1337
 7704SOL    HW234572   0.772   1.376   4.613  0.2651  1.4023 -2.0312
 7705SOL     OW34573   0.862   3.396  13.101 -0.3940  0.1806 -0.2326
 7705SOL    HW134574   0.817   3.320  13.136  2.4231 -1.2043  0.3866
 7705SOL    HW234575   0.817   3.466  13.149  1.5528 -0.3797  2.4137
 7706SOL     OW34576   1.216   1.508   2.419  0.2623  0.6461  0.2762
 7706SOL    HW134577   1.122   1.512   2.435  0.2260 -2.8524  0.8782
 7706SOL    HW234578   1.226   1.413   2.411  0.4046  0.5988  1.0495
 7707SOL     OW34579   1.645   1.269   6.368 -0.7043  0.7154 -0.2984
 7707SOL    HW134580   1.619   1.359   6.389 -1.5727  0.5110 -0.4944
 7707SOL    HW234581   1.739   1.279   6.353 -1.0137  3.4574 -0.4685
 7708SOL     OW34582   0.944   2.820   1.276 -0.1199 -0.4597 -0.3251
 7708SOL    HW134583   1.015   2.883   1.289 -0.4004 -0.3403  0.6560
 7708SOL    HW234584   0.912   2.802   1.364  0.7286  1.0906  0.2953
 7709SOL     OW34585   4.391   3.997   8.977 -0.2469 -0.3326 -0.0204
 7709SOL    HW134586   4.413   3.937   9.049 -2.8674 -0.2291  0.8762
 7709SOL    HW234587   4.474   4.044   8.977  0.7849 -2.1339  0.8458
 7710SOL     OW34588   2.539   3.969   2.522  0.0795  0.4471  0.5845
 7710SOL    HW134589   2.460   3.971   2.468  1.1196 -2.0257 -1.0290
 7710SOL    HW234590   2.499   3.988   2.607  1.6750  1.3436  1.1319
 7711SOL     OW34591   1.781   1.036   6.959  0.0591 -0.3792  0.0422
 7711SOL    HW134592   1.725   1.111   6.939  2.7127  1.4839 -0.3311
 7711SOL    HW234593   1.866   1.047   6.916 -0.9523 -1.4250 -2.2376
 7712SOL     OW34594   2.458   2.303   0.936 -0.2132  0.1483  0.4531
 7712SOL    HW134595   2.399   2.369   0.972 -0.4603 -1.3949  2.9144
 7712SOL    HW234596   2.441   2.315   0.843 -0.1005  1.9204  0.6757
 7713SOL     OW34597   1.544   3.523   2.198  0.2818  0.0085  0.1195
 7713SOL    HW134598   1.593   3.602   2.175 -1.3282  0.6988 -0.9205
 7713SOL    HW234599   1.555   3.523   2.293  0.4180  0.6297  0.1024
 7714SOL     OW34600   2.841   0.546   6.683 -0.4020 -0.2603  1.0997
 7714SOL    HW134601   2.886   0.608   6.741  0.9324  2.1284 -2.4352
 7714SOL    HW234602   2.852   0.462   6.727  1.0044 -0.8728 -0.3998
 7715SOL     OW34603   1.837   3.275   7.281 -0.0604  0.3313  0.1570
 7715SOL    HW134604   1.871   3.217   7.350  0.0549 -0.0747 -0.2392
 7715SOL    HW234605   1.768   3.218   7.247 -0.2220 -0.3189  1.6031
 7716SOL     OW34606   2.333   3.625   2.376 -0.0851 -0.5078 -0.3695
 7716SOL    HW134607   2.314   3.596   2.465  1.3165  1.1873  0.4896
 7716SOL    HW234608   2.303   3.716   2.373 -0.9541 -0.7850  0.0918
 7717SOL     OW34609   1.547   3.299   9.731 -0.4436  0.3947 -0.5172
 7717SOL    HW134610   1.643   3.297   9.727 -0.4697  0.9787 -1.3844
 7717SOL    HW234611   1.529   3.366   9.665 -2.3687  0.1972 -0.1922
 7718SOL     OW34612   0.452   2.200   3.089  0.2383  0.0200 -0.7276
 7718SOL    HW134613   0.511   2.133   3.056 -1.9519 -0.5274 -3.5816
 7718SOL    HW234614   0.383   2.203   3.022  0.0457  0.7803 -0.4895
 7719SOL     OW34615   3.689   4.174  11.052 -0.0983  0.4938 -0.1330
 7719SOL    HW134616   3.598   4.197  11.073 -0.1973  0.9209 -1.0128
 7719SOL    HW234617   3.669   4.100  10.995  0.4820 -0.1034  0.4314
 7720SOL     OW34618   2.966   1.054   6.799  0.1791 -0.0016  0.6021
 7720SOL    HW134619   2.900   1.111   6.839 -0.7077 -2.0061  1.9595
 7720SOL    HW234620   2.996   1.018   6.882 -1.1955  0.1246  1.1568
 7721SOL     OW34621   1.271   4.624   4.888  0.1892  0.3167  0.0874
 7721SOL    HW134622   1.198   4.564   4.897 -0.3414  0.9353 -0.0793
 7721SOL    HW234623   1.298   4.602   4.799 -3.1665 -0.7840 -0.6245
 7722SOL     OW34624   3.804   2.227   4.626 -0.0033  0.2854  0.2000
 7722SOL    HW134625   3.745   2.163   4.585  0.1700  1.3128 -1.6527
 7722SOL    HW234626   3.876   2.171   4.657  0.5614 -0.6616 -2.7967
 7723SOL     OW34627   1.405   0.897   0.637  0.1110  0.3003  0.3455
 7723SOL    HW134628   1.365   0.981   0.663  1.1817  1.3001 -1.2192
 7723SOL    HW234629   1.342   0.875   0.569  0.3662 -0.3856  0.3298
 7724SOL     OW34630   0.864   2.700   6.063  0.0667  0.1501 -0.4340
 7724SOL    HW134631   0.938   2.641   6.047  0.6728  1.0268 -0.8752
 7724SOL    HW234632   0.900   2.784   6.033  0.6271 -0.4828 -1.5288
 7725SOL     OW34633   1.769   2.322  11.677  0.4470  0.1282  0.1865
 7725SOL    HW134634   1.723   2.379  11.739 -2.2118 -0.8388 -0.8975
 7725SOL    HW234635   1.760   2.373  11.597  0.8113 -0.4585 -0.2251
 7726SOL     OW34636   0.160   0.516   3.662  0.5689  0.1642 -0.4494
 7726SOL    HW134637   0.197   0.593   3.618  1.5685  0.3507  0.7198
 7726SOL    HW234638   0.067   0.529   3.645  0.5383  1.1674  0.4894
 7727SOL     OW34639   0.734   3.367  16.185 -0.3035 -0.1405  0.3148
 7727SOL    HW134640   0.662   3.371  16.121 -0.0509  1.7327  0.1494
 7727SOL    HW234641   0.695   3.412  16.260  0.8366  1.9030 -0.3116
 7728SOL     OW34642   3.140   4.324   1.519 -0.3354 -0.1463  0.1037
 7728SOL    HW134643   3.050   4.323   1.552 -0.7457 -1.1376 -1.0640
 7728SOL    HW234644   3.120   4.322   1.425 -2.0280 -1.1449  0.4898
 7729SOL     OW34645   4.596   4.147   8.579  0.2151  0.0421  0.1206
 7729SOL    HW134646   4.640   4.185   8.656 -1.1506 -0.6143  1.2171
 7729SOL    HW234647   4.509   4.133   8.616 -0.0284  2.7490  0.5466
 7730SOL     OW34648   2.207   1.596   0.101  0.4781 -0.3405  0.0075
 7730SOL    HW134649   2.193   1.689   0.084  0.4359 -0.1398  1.1743
 7730SOL    HW234650   2.302   1.597   0.115  0.5442 -2.1950 -0.2156
 7731SOL     OW34651   1.324   1.715  13.969 -0.0726 -0.1964  0.1242
 7731SOL    HW134652   1.314   1.809  13.984  0.5496  0.0927 -1.2053
 7731SOL    HW234653   1.408   1.713  13.924 -0.2653  1.7167 -0.3088
 7732SOL     OW34654   0.213   4.357  14.898  0.3555 -0.3326 -0.4200
 7732SOL    HW134655   0.204   4.452  14.896 -1.1323 -0.4895 -0.8905
 7732SOL    HW234656   0.261   4.350  14.981 -0.9017 -1.2051  0.2304
 7733SOL     OW34657   1.744   1.131   9.565  0.0602 -0.2183  0.1831
 7733SOL    HW134658   1.668   1.182   9.538 -1.5431 -1.5057  2.3554
 7733SOL    HW234659   1.799   1.202   9.598 -0.2618  0.1405 -0.0566
 7734SOL     OW34660   0.939   0.052   0.523  0.0885 -0.5387  0.0861
 7734SOL    HW134661   0.846   0.071   0.534 -0.2456 -0.7986 -2.1695
 7734SOL    HW234662   0.944   0.048   0.427  1.6814 -0.5006  0.1756
 7735SOL     OW34663   1.954   3.974  15.071  0.0905  0.7147 -0.5114
 7735SOL    HW134664   2.011   4.051  15.065  2.5164 -1.4132 -5.1655
 7735SOL    HW234665   2.024   3.910  15.075 -1.0531 -0.6088 -1.6879
 7736SOL     OW34666   3.286   3.111   7.718  0.4798 -0.5750  0.1708
 7736SOL    HW134667   3.207   3.074   7.759 -1.2820  1.2145 -1.6510
 7736SOL    HW234668   3.260   3.203   7.727  0.0175 -0.6519 -0.4119
 7737SOL     OW34669   2.119   0.170   6.961  0.0819 -0.1574  0.1391
 7737SOL    HW134670   2.188   0.174   7.028  0.3075  1.8263 -0.2135
 7737SOL    HW234671   2.068   0.094   6.989 -1.5561  0.6736 -0.5569
 7738SOL     OW34672   1.103   2.636   0.920  0.1962  0.0494  0.4053
 7738SOL    HW134673   1.144   2.571   0.976  0.5864  1.8335  2.1916
 7738SOL    HW234674   1.171   2.641   0.852  0.3820  1.8951  0.7219
 7739SOL     OW34675   1.241   3.988  15.251  0.3377 -0.1637 -0.9288
 7739SOL    HW134676   1.203   3.902  15.264  0.8266  0.0866  2.0616
 7739SOL    HW234677   1.182   4.043  15.303  0.1679 -0.7815 -0.4798
 7740SOL     OW34678   2.966   2.417   8.940  0.3139  0.0186 -0.2927
 7740SOL    HW134679   2.993   2.471   8.866 -2.5717  1.4338 -0.3056
 7740SOL    HW234680   2.873   2.398   8.931  0.1764  0.7481 -0.4709
 7741SOL     OW34681   3.973   0.830   0.822 -0.2728 -0.9160 -0.1013
 7741SOL    HW134682   4.052   0.775   0.822  0.1469 -0.3237  1.5007
 7741SOL    HW234683   3.980   0.880   0.903 -0.7543  0.0464 -0.6624
 7742SOL     OW34684   3.999   4.566  14.905 -0.1907 -0.2756 -0.1037
 7742SOL    HW134685   4.091   4.590  14.890 -0.7031  1.1842 -0.9417
 7742SOL    HW234686   3.994   4.486  14.852 -0.9923  1.4043 -2.6021
 7743SOL     OW34687   1.885   2.614  17.349  0.6240  0.0608 -0.0395
 7743SOL    HW134688   1.910   2.590  17.438  0.5563  1.7317  0.4251
 7743SOL    HW234689   1.972   2.646  17.325  1.3096 -0.3744  1.8516
 7744SOL     OW34690   0.150   2.385   2.170  0.0041  0.9833 -0.0597
 7744SOL    HW134691   0.145   2.424   2.257 -0.0769  0.5147  0.1482
 7744SOL    HW234692   0.245   2.391   2.155  0.2318  0.5296  1.1717
 7745SOL     OW34693   0.423   3.393   5.783  0.0335 -0.3454 -0.0083
 7745SOL    HW134694   0.498   3.337   5.800 -0.0636 -0.4109  0.2148
 7745SOL    HW234695   0.470   3.473   5.758 -2.1538  1.8580  2.8648
 7746SOL     OW34696   2.518   3.838   8.605  0.0143 -0.1309  1.1407
 7746SOL    HW134697   2.451   3.818   8.670  0.5048 -1.9694  1.0832
 7746SOL    HW234698   2.573   3.893   8.660  1.3034  0.4297 -0.6972
 7747SOL     OW34699   4.542   3.364  17.414  0.2659 -0.7166  0.1364
 7747SOL    HW134700   4.532   3.457  17.436  0.3978 -0.5745 -0.3852
 7747SOL    HW234701   4.485   3.322  17.478 -1.0529  2.0670  0.7725
 7748SOL     OW34702   4.629   3.733   7.803 -0.4418 -0.6138 -0.6857
 7748SOL    HW134703   4.571   3.809   7.807 -0.5103 -0.7351  0.4475
 7748SOL    HW234704   4.564   3.666   7.826 -1.2188  0.3723  0.0095
 7749SOL     OW34705   0.620   2.056  14.152  0.3954  0.3576  1.4044
 7749SOL    HW134706   0.706   2.092  14.175  1.8967 -2.4946  0.2849
 7749SOL    HW234707   0.551   2.122  14.155 -2.6822 -2.8758  1.5171
 7750SOL     OW34708   0.286   0.224   4.931  0.2156 -0.4802  0.3313
 7750SOL    HW134709   0.380   0.215   4.946  0.6401  0.4509 -1.7366
 7750SOL    HW234710   0.276   0.309   4.888  2.5407  1.0193  2.7483
 7751SOL     OW34711   1.242   4.095  12.633 -0.2880 -0.0188 -0.6369
 7751SOL    HW134712   1.175   4.073  12.568  0.1178 -4.4177  0.4454
 7751SOL    HW234713   1.188   4.067  12.706 -0.0921  0.4314 -0.3213
 7752SOL     OW34714   0.749   1.356  12.040 -0.6339 -0.2086 -0.5514
 7752SOL    HW134715   0.731   1.450  12.040 -0.2250 -0.1407 -2.5455
 7752SOL    HW234716   0.713   1.331  12.125  0.1762 -2.6860 -0.9322
 7753SOL     OW34717   0.038   4.371  13.220 -0.4548 -0.0204 -0.4192
 7753SOL    HW134718   0.040   4.302  13.154  1.6340  0.0332 -0.4254
 7753SOL    HW234719   0.104   4.424  13.176  1.3356 -2.9539 -1.2993
 7754SOL     OW34720   2.192   1.084   5.764  0.1026  0.1583 -0.4828
 7754SOL    HW134721   2.207   1.012   5.826  0.0228  1.0839  0.6112
 7754SOL    HW234722   2.099   1.066   5.753 -0.1915  0.4802  1.4723
 7755SOL     OW34723   2.744   2.077   2.837 -0.2535 -0.2600 -0.0164
 7755SOL    HW134724   2.662   2.124   2.826  0.4983  1.0270 -0.2234
 7755SOL    HW234725   2.768   2.082   2.744 -0.3638 -1.3602 -0.1063
 7756SOL     OW34726   0.565   1.096  11.914 -0.3063  0.4947 -0.0130
 7756SOL    HW134727   0.646   1.146  11.916  1.0493 -1.7203 -0.1811
 7756SOL    HW234728   0.508   1.171  11.932 -0.1724  0.2314  1.5873
 7757SOL     OW34729   1.906   0.271   1.901 -0.4977  0.2745  0.6155
 7757SOL    HW134730   1.913   0.181   1.868 -0.7693 -0.0600  1.4579
 7757SOL    HW234731   1.996   0.302   1.889 -1.0649  0.9583 -1.8619
 7758SOL     OW34732   0.258   1.646   3.944  0.9750 -0.1855  0.5343
 7758SOL    HW134733   0.202   1.644   3.867  0.5645  0.4332  0.8131
 7758SOL    HW234734   0.327   1.585   3.917  1.6764  0.8803 -0.0778
 7759SOL     OW34735   3.965   2.636   5.980 -0.2495 -0.0892 -0.3575
 7759SOL    HW134736   4.000   2.600   6.061 -0.5258 -2.2735 -1.2268
 7759SOL    HW234737   3.876   2.650   6.013 -1.1671 -0.1406 -2.8054
 7760SOL     OW34738   2.747   1.924   8.242  0.2619  0.1179  0.0731
 7760SOL    HW134739   2.820   1.903   8.300 -1.1907 -2.1679  1.0728
 7760SOL    HW234740   2.737   2.019   8.248 -0.0852  0.1473 -0.9891
 7761SOL     OW34741   1.206   0.627  15.122 -0.3740  0.1566 -0.2450
 7761SOL    HW134742   1.203   0.565  15.050  0.9181  1.7097 -1.6364
 7761SOL    HW234743   1.247   0.703  15.081 -1.9342  1.3110  0.3295
 7762SOL     OW34744   0.644   3.005   2.572  0.5008 -0.0491  0.1929
 7762SOL    HW134745   0.639   2.929   2.630  0.3517 -0.9973 -1.0608
 7762SOL    HW234746   0.711   2.979   2.510  1.5902 -1.8321  2.1256
 7763SOL     OW34747   4.369   0.988   3.680 -0.0077  0.1691 -0.0187
 7763SOL    HW134748   4.454   1.016   3.647  0.5745  0.2150  1.5193
 7763SOL    HW234749   4.374   0.982   3.776 -0.5995  1.3538  0.0878
 7764SOL     OW34750   2.909   3.589   9.583 -0.4045  0.2610 -0.5540
 7764SOL    HW134751   2.851   3.559   9.514 -0.1957  2.9047 -1.8867
 7764SOL    HW234752   2.946   3.669   9.545  0.6809  0.2952  0.5550
 7765SOL     OW34753   4.303   0.005   1.140  0.7448 -0.1460 -0.2348
 7765SOL    HW134754   4.219   4.704   1.180  0.7053  1.4941  0.5343
 7765SOL    HW234755   4.282   4.686   1.055  1.8802 -0.3666 -0.4153
 7766SOL     OW34756   3.611   0.984   7.265  0.0748 -0.4438 -0.2325
 7766SOL    HW134757   3.615   1.015   7.355 -0.4905 -0.8171 -0.0772
 7766SOL    HW234758   3.678   0.918   7.278 -0.5699 -0.9237  0.6510
 7767SOL     OW34759   1.688   0.448  15.356 -0.0608 -0.4106  0.0943
 7767SOL    HW134760   1.675   0.532  15.311 -2.6121 -1.1733 -0.6121
 7767SOL    HW234761   1.669   0.461  15.450 -0.3951 -0.1662 -0.0040
 7768SOL     OW34762   4.123   0.839  17.506 -0.4857  0.5025 -0.0915
 7768SOL    HW134763   4.215   0.854  17.482 -0.2950  0.0951  0.3695
 7768SOL    HW234764   4.093   0.916  17.554  2.7661  1.4561  0.4080
 7769SOL     OW34765   2.933   2.731  14.969 -0.0489  0.5422  0.1443
 7769SOL    HW134766   2.847   2.689  14.969  1.6799 -3.0731 -3.2070
 7769SOL    HW234767   2.995   2.667  14.935 -0.6809 -0.1748  0.3337
 7770SOL     OW34768   3.220   0.035  13.366 -0.1399 -0.3446 -1.3196
 7770SOL    HW134769   3.168   4.675  13.351  1.5425 -1.1576 -2.7809
 7770SOL    HW234770   3.302   4.718  13.399 -0.0375 -1.4325 -2.7579
 7771SOL     OW34771   0.269   1.605   5.436 -0.2144  0.3585 -0.1955
 7771SOL    HW134772   0.306   1.623   5.522  0.0532  2.0217 -0.6603
 7771SOL    HW234773   0.209   1.535   5.460 -0.5266  0.5514 -0.4093
 7772SOL     OW34774   4.328   0.568  12.593  0.6163 -0.3614 -0.5430
 7772SOL    HW134775   4.264   0.573  12.664  1.0672 -1.4315 -0.0612
 7772SOL    HW234776   4.269   0.595  12.522  1.4052  1.9409 -0.2988
 7773SOL     OW34777   3.345   0.911   3.033  0.1216  0.1417 -0.2277
 7773SOL    HW134778   3.266   0.933   2.983 -0.3503  0.6554  0.7449
 7773SOL    HW234779   3.304   0.842   3.085  2.0239 -0.3794  0.5874
 7774SOL     OW34780   4.064   0.629   7.457 -0.3525 -0.6756 -0.0325
 7774SOL    HW134781   4.032   0.545   7.492 -1.6803 -0.7355 -1.4128
 7774SOL    HW234782   4.157   0.610   7.443 -0.1616  1.5721 -1.8180
 7775SOL     OW34783   3.621   0.155  11.090 -0.4344 -0.5546  0.5377
 7775SOL    HW134784   3.571   0.091  11.040  0.2452  0.6975 -1.7630
 7775SOL    HW234785   3.587   0.131  11.176 -1.9086  1.7748  0.6186
 7776SOL     OW34786   2.385   1.411   6.520  0.0165 -0.3167  0.1230
 7776SOL    HW134787   2.464   1.357   6.523  0.1720 -0.1199 -0.3737
 7776SOL    HW234788   2.401   1.490   6.468  0.7570  0.8020  2.0499
 7777SOL     OW34789   3.113   2.827   0.888 -0.0279 -0.1193 -0.2854
 7777SOL    HW134790   3.140   2.918   0.873 -3.0776  0.6244 -1.2743
 7777SOL    HW234791   3.022   2.819   0.860 -0.4177  1.0611  0.6611
 7778SOL     OW34792   3.591   1.518   9.008 -0.5331 -0.2878 -0.8819
 7778SOL    HW134793   3.540   1.470   9.073  1.0879 -0.2626  0.3977
 7778SOL    HW234794   3.627   1.447   8.954  1.2328  0.8894 -1.2276
 7779SOL     OW34795   4.665   3.869   8.662 -0.1707  0.5387  0.0971
 7779SOL    HW134796   4.702   3.822   8.736 -1.0866 -1.1612 -0.5392
 7779SOL    HW234797   4.653   3.960   8.691  0.5169  0.4056  0.8067
 7780SOL     OW34798   4.597   4.622  11.251  0.1192 -0.2866  0.0822
 7780SOL    HW134799   4.512   4.661  11.269  1.5656  1.5666  2.8797
 7780SOL    HW234800   4.619   4.585  11.336 -0.7908 -0.1317  0.3776
 7781SOL     OW34801   3.924   3.670   4.891  0.1512 -0.2083 -0.3094
 7781SOL    HW134802   3.949   3.747   4.942  1.7937 -0.1434 -1.2211
 7781SOL    HW234803   3.877   3.624   4.961  1.4940  1.4745  1.7252
 7782SOL     OW34804   4.178   3.577  16.640 -0.3241 -0.3480 -0.1480
 7782SOL    HW134805   4.100   3.593  16.586  1.0393  0.1060 -2.0069
 7782SOL    HW234806   4.153   3.523  16.714  0.7269  0.2045  0.5969
 7783SOL     OW34807   0.533   4.534   1.516 -0.4426  0.3906  0.1165
 7783SOL    HW134808   0.520   4.500   1.427  2.6297  1.5044 -0.7606
 7783SOL    HW234809   0.596   4.477   1.559 -1.5855 -0.6354  0.4058
 7784SOL     OW34810   2.261   0.585   3.953  0.0975  0.1595 -0.1624
 7784SOL    HW134811   2.211   0.583   4.034  0.2189 -0.1425 -0.0932
 7784SOL    HW234812   2.290   0.676   3.948 -0.5508  0.3016 -1.3374
 7785SOL     OW34813   1.622   1.513  14.180  0.3572  0.7983  0.4082
 7785SOL    HW134814   1.637   1.456  14.255  3.1997  0.4583 -0.4219
 7785SOL    HW234815   1.539   1.557  14.200 -1.6901 -2.7566 -0.2618
 7786SOL     OW34816   1.930   3.154   8.385 -0.1512  0.0602  0.4739
 7786SOL    HW134817   1.890   3.220   8.441  1.3497  0.6576  0.8158
 7786SOL    HW234818   1.878   3.081   8.418  1.5943 -1.6472 -0.5386
 7787SOL     OW34819   4.491   0.177   7.479 -0.0595 -0.3331 -0.4499
 7787SOL    HW134820   4.551   0.111   7.515  0.7980  0.3321 -0.6389
 7787SOL    HW234821   4.463   0.224   7.557  0.0117 -1.2814  0.1526
 7788SOL     OW34822   1.952   2.829   6.500 -0.0831 -0.1606 -0.3498
 7788SOL    HW134823   1.868   2.873   6.496  0.6872  1.2599 -1.1838
 7788SOL    HW234824   1.919   2.748   6.538 -0.4135  0.5608  0.9001
 7789SOL     OW34825   3.057   1.048   1.816  0.1977  0.6611 -0.1331
 7789SOL    HW134826   3.127   1.111   1.833  0.1609 -0.1497  3.2030
 7789SOL    HW234827   3.088   0.980   1.876 -3.0089 -0.7021 -0.0177
 7790SOL     OW34828   2.995   1.471   2.307  0.3820  0.3257 -0.2522
 7790SOL    HW134829   2.901   1.484   2.321  0.0700 -1.0395 -1.0319
 7790SOL    HW234830   3.034   1.530   2.372 -1.5906  1.5212 -0.1469
 7791SOL     OW34831   3.884   4.106  11.242  0.2300 -0.0756  0.5745
 7791SOL    HW134832   3.818   4.097  11.310 -0.6653  2.5869  0.0540
 7791SOL    HW234833   3.827   4.126  11.168  0.7276 -0.6115  0.0422
 7792SOL     OW34834   0.277   1.372   4.594  0.1683 -0.0962  0.0204
 7792SOL    HW134835   0.317   1.373   4.681  2.5045 -2.5249 -1.0153
 7792SOL    HW234836   0.284   1.465   4.572  0.9473 -1.0824 -3.9187
 7793SOL     OW34837   3.256   2.834   7.082  0.1146  0.3687  0.8917
 7793SOL    HW134838   3.253   2.858   6.990  0.2724  1.0470  1.0642
 7793SOL    HW234839   3.288   2.915   7.121  2.6347 -0.9933  1.6775
 7794SOL     OW34840   4.370   2.961   3.650  0.3389  0.0890 -0.0334
 7794SOL    HW134841   4.436   2.937   3.715 -0.0402  0.3925  0.4648
 7794SOL    HW234842   4.353   3.051   3.677 -0.1367  0.6218 -2.0651
 7795SOL     OW34843   3.545   0.546   9.258 -0.5867  0.1644 -0.3494
 7795SOL    HW134844   3.562   0.489   9.333  1.1950  1.6706  0.3958
 7795SOL    HW234845   3.632   0.578   9.235  0.4078 -1.9097  0.5480
 7796SOL     OW34846   2.919   2.121   6.572  0.3878  0.5710 -0.8548
 7796SOL    HW134847   2.978   2.166   6.511  3.0743  0.0533  1.3380
 7796SOL    HW234848   2.851   2.079   6.519  1.0036  0.3955 -1.5088
 7797SOL     OW34849   1.174   4.088   3.788 -0.0504 -0.1238 -0.3486
 7797SOL    HW134850   1.235   4.143   3.738 -0.4479  1.1130  0.5502
 7797SOL    HW234851   1.231   4.078   3.864 -0.0265 -1.0642 -0.4801
 7798SOL     OW34852   0.826   2.852   4.273  0.5816  0.3621 -0.3208
 7798SOL    HW134853   0.839   2.904   4.193  0.7787 -1.7164 -1.6152
 7798SOL    HW234854   0.785   2.914   4.333  0.5670  2.0125 -2.0199
 7799SOL     OW34855   3.568   2.811   0.467 -0.6136  0.5731  0.0786
 7799SOL    HW134856   3.507   2.794   0.539  0.7097  0.0021  1.0570
 7799SOL    HW234857   3.523   2.884   0.424 -3.6160 -1.9484 -1.1009
 7800SOL     OW34858   1.396   1.690  14.233  0.1081 -0.0245  0.5989
 7800SOL    HW134859   1.322   1.679  14.292  0.2978 -2.4804  0.3601
 7800SOL    HW234860   1.357   1.729  14.155 -1.6901 -2.2049  0.4373
 7801SOL     OW34861   3.608   4.421   3.623 -0.1508 -0.5744 -0.4169
 7801SOL    HW134862   3.694   4.428   3.664  0.1548  1.1289 -1.3012
 7801SOL    HW234863   3.620   4.344   3.568  1.6807 -1.4725  1.2491
 7802SOL     OW34864   2.138   2.406   5.684 -0.7131  0.2384 -0.2168
 7802SOL    HW134865   2.093   2.483   5.720  0.6490  0.7979  0.3248
 7802SOL    HW234866   2.168   2.370   5.767 -1.1535 -0.3411 -0.3142
 7803SOL     OW34867   3.029   0.142  11.649 -0.8144  0.4043  0.6199
 7803SOL    HW134868   2.937   0.168  11.655 -0.9404  0.1346 -0.1776
 7803SOL    HW234869   3.088   0.217  11.662 -0.0633  0.0152 -0.5261
 7804SOL     OW34870   4.278   2.249   8.651  0.1121 -0.3898 -0.2772
 7804SOL    HW134871   4.251   2.340   8.654  1.1285 -0.1025  0.3901
 7804SOL    HW234872   4.221   2.212   8.719 -1.5598  0.3145 -1.3198
 7805SOL     OW34873   3.628   3.492  10.755  0.7458 -0.6279  0.1816
 7805SOL    HW134874   3.572   3.514  10.830 -0.4936  1.0713 -1.2328
 7805SOL    HW234875   3.698   3.443  10.797  2.2066  0.6360 -0.7648
 7806SOL     OW34876   3.293   1.947   7.117  0.2692 -0.6088  0.2514
 7806SOL    HW134877   3.252   1.999   7.049  1.8711 -0.4507 -0.5909
 7806SOL    HW234878   3.382   1.978   7.136  0.0466 -0.7386  1.5403
 7807SOL     OW34879   3.015   0.326   4.094 -0.7963 -0.2307 -0.3470
 7807SOL    HW134880   2.990   0.278   4.173  1.0746 -0.1064  0.3372
 7807SOL    HW234881   3.007   0.260   4.025  1.1678 -1.9589  1.0491
 7808SOL     OW34882   2.072   4.432   7.368 -0.1450 -0.1808  0.6702
 7808SOL    HW134883   2.076   4.527   7.368 -1.0290 -0.1532 -0.8416
 7808SOL    HW234884   2.090   4.410   7.277 -2.6705  1.4762 -0.2290
 7809SOL     OW34885   2.873   4.066   2.273  0.0580 -0.1070  0.2045
 7809SOL    HW134886   2.898   4.078   2.181  2.6031  0.0920  0.9075
 7809SOL    HW234887   2.787   4.106   2.279  0.1067 -0.2458  1.7409
 7810SOL     OW34888   0.265   0.327   5.948  0.1714 -0.0826 -0.5463
 7810SOL    HW134889   0.360   0.319   5.948  0.1169 -0.7210 -0.9654
 7810SOL    HW234890   0.246   0.336   6.041  0.7544 -4.1969 -0.0501
 7811SOL     OW34891   2.996   2.175   5.019 -0.2550 -0.1699  0.0457
 7811SOL    HW134892   3.045   2.177   4.937  1.2083 -0.8715  0.9123
 7811SOL    HW234893   2.918   2.131   4.984 -0.4130  0.8534 -0.8938
 7812SOL     OW34894   2.318   1.184   5.535 -0.1551  0.3565  0.0744
 7812SOL    HW134895   2.385   1.244   5.567 -0.0801 -0.9004  2.2668
 7812SOL    HW234896   2.280   1.152   5.617 -0.9810 -1.7742 -1.1335
 7813SOL     OW34897   0.784   3.186   3.873 -0.5524 -0.6169 -0.5796
 7813SOL    HW134898   0.693   3.211   3.884  0.0818  0.2322  2.7383
 7813SOL    HW234899   0.779   3.167   3.779 -0.1245 -1.7248 -0.3811
 7814SOL     OW34900   1.093   4.083   1.704  0.2732  0.2837 -0.2740
 7814SOL    HW134901   1.009   4.127   1.695  0.1733  0.2085  0.2698
 7814SOL    HW234902   1.123   4.082   1.613  0.1318 -1.7052 -0.3063
 7815SOL     OW34903   0.198   0.900  16.384  0.8141  0.2022  0.4461
 7815SOL    HW134904   0.169   0.827  16.330  1.4126  0.0494  0.3297
 7815SOL    HW234905   0.208   0.973  16.323  2.2042 -1.4421 -1.2848
 7816SOL     OW34906   3.028   3.690   4.373  0.2243  0.0125 -0.0458
 7816SOL    HW134907   2.983   3.678   4.457  0.5454 -3.1555 -0.3187
 7816SOL    HW234908   2.980   3.621   4.327 -1.0275  0.0567  1.1826
 7817SOL     OW34909   2.633   0.090   3.245 -0.2592 -0.2917  0.1339
 7817SOL    HW134910   2.660   4.717   3.249  0.8659  0.0327  0.0438
 7817SOL    HW234911   2.708   0.125   3.197  0.7560 -0.0979  1.8837
 7818SOL     OW34912   4.171   2.928   4.340 -0.6568  0.3237  0.1538
 7818SOL    HW134913   4.266   2.940   4.347 -0.6110  1.3955 -2.1273
 7818SOL    HW234914   4.155   2.894   4.428  1.5227  1.1553  0.8841
 7819SOL     OW34915   4.441   4.629   8.161 -0.0104  0.4126 -0.3671
 7819SOL    HW134916   4.391   4.606   8.083  0.7715  1.8103 -1.2861
 7819SOL    HW234917   4.477   4.541   8.174 -1.1167  0.2417  1.5903
 7820SOL     OW34918   4.351   1.218   2.035 -0.7484 -0.7551  0.8505
 7820SOL    HW134919   4.257   1.216   2.021 -0.6024 -3.9608  0.4536
 7820SOL    HW234920   4.372   1.135   1.993  0.5255  0.3052 -0.6134
 7821SOL     OW34921   1.947   0.380   8.527  0.2413  0.2517 -0.0064
 7821SOL    HW134922   1.973   0.317   8.594 -0.9110  1.2522  1.3695
 7821SOL    HW234923   2.024   0.437   8.519 -0.9505  2.0839  1.4773
 7822SOL     OW34924   0.620   2.099  16.795  0.6526  0.1554 -0.4720
 7822SOL    HW134925   0.610   2.014  16.754 -0.1031 -1.0840  2.2941
 7822SOL    HW234926   0.572   2.076  16.875 -0.6418 -0.0869 -1.3266
 7823SOL     OW34927   0.491   2.828  16.330  0.8228 -0.4333 -0.3058
 7823SOL    HW134928   0.449   2.743  16.333 -2.9340  1.5002  2.1173
 7823SOL    HW234929   0.484   2.849  16.423  0.0846 -2.3231  0.0621
 7824SOL     OW34930   0.917   0.145   2.598 -0.3421  0.2843 -0.3235
 7824SOL    HW134931   1.011   0.132   2.609 -1.1053 -3.3772  1.9637
 7824SOL    HW234932   0.910   0.239   2.612  0.7573  0.1686  0.9348
 7825SOL     OW34933   1.275   1.746   6.107  0.6386 -0.0182 -0.2904
 7825SOL    HW134934   1.198   1.716   6.155 -0.0959 -0.2082 -1.5896
 7825SOL    HW234935   1.299   1.666   6.060  2.2752 -0.2727  0.9814
 7826SOL     OW34936   2.309   2.662  15.142 -0.2489 -0.3522 -0.2053
 7826SOL    HW134937   2.256   2.620  15.075 -2.0056  2.7403 -0.7239
 7826SOL    HW234938   2.252   2.641  15.216  0.9465 -0.4041  0.6971
 7827SOL     OW34939   3.571   1.361   8.172 -0.0694  0.7583  0.5037
 7827SOL    HW134940   3.555   1.316   8.255  0.3553  0.8241  0.6231
 7827SOL    HW234941   3.619   1.290   8.129 -1.4318  0.4612 -0.4907
 7828SOL     OW34942   1.180   1.623   2.902 -0.1328  0.1861  0.0681
 7828SOL    HW134943   1.212   1.710   2.924 -0.3841  0.5232 -0.9077
 7828SOL    HW234944   1.106   1.642   2.845 -0.1476 -2.0100 -0.6222
 7829SOL     OW34945   2.385   4.148   5.049  0.1573  0.3687 -0.2330
 7829SOL    HW134946   2.316   4.129   4.985 -1.0224  0.0447  1.1423
 7829SOL    HW234947   2.373   4.241   5.072 -3.8692 -0.7359  2.1677
 7830SOL     OW34948   2.401   3.772   5.238 -0.5192 -0.2788  0.0059
 7830SOL    HW134949   2.432   3.853   5.278 -2.0376  0.9787 -1.3488
 7830SOL    HW234950   2.391   3.797   5.145 -1.0342  0.2885  0.2094
 7831SOL     OW34951   1.955   3.218   0.159  0.1586 -0.0585  0.1046
 7831SOL    HW134952   1.917   3.153   0.100  0.2002 -0.6000  0.6692
 7831SOL    HW234953   2.016   3.170   0.216 -2.1000  0.8636  3.3058
 7832SOL     OW34954   2.101   2.182   8.247 -0.2910  0.1358 -0.1719
 7832SOL    HW134955   2.162   2.168   8.320 -0.7771 -2.4895 -0.2880
 7832SOL    HW234956   2.112   2.104   8.193  0.2804  2.4910 -3.4592
 7833SOL     OW34957   1.469   3.215   5.019 -0.1229 -0.0305  0.2703
 7833SOL    HW134958   1.476   3.222   4.924 -2.6093 -1.9455 -0.0571
 7833SOL    HW234959   1.558   3.223   5.054 -0.4443 -1.8953  1.5255
 7834SOL     OW34960   2.249   1.960   3.920 -0.0678 -0.6711  0.0361
 7834SOL    HW134961   2.336   1.922   3.912  0.5995  0.5365  1.5582
 7834SOL    HW234962   2.221   1.910   3.997  0.0218 -0.6632  0.0735
 7835SOL     OW34963   1.989   2.182  16.518  0.3848  0.2025  0.1331
 7835SOL    HW134964   2.034   2.103  16.548 -0.3433 -0.7901 -1.3640
 7835SOL    HW234965   2.060   2.235  16.484  1.4157 -0.1321  1.7661
 7836SOL     OW34966   4.312   2.404   4.816 -0.4258  0.0800 -0.3597
 7836SOL    HW134967   4.337   2.418   4.907  2.4877  0.8652 -1.2841
 7836SOL    HW234968   4.392   2.376   4.770  0.5760 -0.0400  1.4538
 7837SOL     OW34969   3.245   3.039   9.103  0.2950 -0.1510  0.0462
 7837SOL    HW134970   3.255   3.058   9.197  1.7920  0.9324 -0.3270
 7837SOL    HW234971   3.184   3.108   9.078  0.5149 -0.5804 -1.6606
 7838SOL     OW34972   2.356   2.019   7.077  0.5108 -0.4101  0.0499
 7838SOL    HW134973   2.311   1.936   7.093  0.4620 -0.3011  0.4688
 7838SOL    HW234974   2.304   2.061   7.009  0.3421 -0.9393 -0.1527
 7839SOL     OW34975   4.548   0.122  12.106 -0.1536 -0.1870 -0.4350
 7839SOL    HW134976   4.625   0.148  12.157 -0.2443 -0.1885 -0.2978
 7839SOL    HW234977   4.575   0.035  12.076 -1.2483 -1.0263  1.0011
 7840SOL     OW34978   0.403   3.740   8.307 -0.4261 -0.8192 -0.5180
 7840SOL    HW134979   0.383   3.654   8.272  0.1055 -1.0760 -0.1780
 7840SOL    HW234980   0.323   3.759   8.357 -0.2090 -5.7451  1.7007
 7841SOL     OW34981   3.211   0.578   2.940  0.3461 -0.4594  0.1349
 7841SOL    HW134982   3.137   0.521   2.918 -0.5564  0.8002 -0.0743
 7841SOL    HW234983   3.220   0.624   2.856 -0.4652 -2.2539 -0.9333
 7842SOL     OW34984   2.031   4.651   2.127 -0.1123 -0.1084 -0.3040
 7842SOL    HW134985   2.039   4.598   2.047  1.8890  0.3310 -0.3900
 7842SOL    HW234986   1.949   4.626   2.169 -0.5121  0.8306 -0.5307
 7843SOL     OW34987   0.463   1.803  10.839  0.1824  0.0384  0.2349
 7843SOL    HW134988   0.441   1.895  10.825 -1.6512 -0.4339  0.0392
 7843SOL    HW234989   0.557   1.816  10.847  0.3801 -0.8947 -0.6458
 7844SOL     OW34990   3.208   2.185  12.898  0.0229  0.3471 -0.8359
 7844SOL    HW134991   3.298   2.157  12.917 -0.0212 -0.4029 -1.6977
 7844SOL    HW234992   3.162   2.187  12.981  0.9724  1.5163 -0.3452
 7845SOL     OW34993   4.565   1.850   2.166 -0.3677  0.2929 -0.2659
 7845SOL    HW134994   4.563   1.769   2.116  0.1579 -0.2010  0.5093
 7845SOL    HW234995   4.504   1.900   2.112 -0.5585  1.0949  0.6896
 7846SOL     OW34996   3.022   2.305   4.637 -0.0512 -0.6066  0.0683
 7846SOL    HW134997   3.074   2.311   4.556  0.3465  0.0788  0.3758
 7846SOL    HW234998   2.939   2.336   4.601  1.0151  0.6543 -1.3521
 7847SOL     OW34999   4.248   0.996   7.732  0.3604  0.1981 -0.2579
 7847SOL    HW135000   4.293   1.010   7.649  0.3130  1.9082 -0.0014
 7847SOL    HW235001   4.210   1.084   7.740 -1.6538 -0.7575  0.6766
 7848SOL     OW35002   4.695   3.095   2.241  0.6169 -0.2773  0.0484
 7848SOL    HW135003   4.680   3.029   2.173  0.3016 -0.2657  0.1052
 7848SOL    HW235004   0.023   3.168   2.202 -2.2853  1.8390  0.5224
 7849SOL     OW35005   1.680   2.982  13.880  0.5022  0.2783 -0.0438
 7849SOL    HW135006   1.620   3.053  13.902  1.3075  1.1365 -0.6381
 7849SOL    HW235007   1.690   2.956  13.972  0.2999  0.6670  0.0861
 7850SOL     OW35008   2.070   3.930   8.109 -0.0030  0.1877 -0.4107
 7850SOL    HW135009   2.068   3.952   8.202 -0.1010 -1.7320  0.0401
 7850SOL    HW235010   2.113   4.005   8.067  2.0194 -1.9590 -2.2149
 7851SOL     OW35011   4.392   2.878   2.225  0.4938 -0.6420 -0.2729
 7851SOL    HW135012   4.403   2.786   2.251  1.3434 -0.7301 -0.9190
 7851SOL    HW235013   4.469   2.893   2.170 -0.7862 -0.5441 -2.0292
 7852SOL     OW35014   2.736   0.559   7.882  0.0065 -0.0394 -0.3133
 7852SOL    HW135015   2.748   0.477   7.928 -0.4140  0.4445  0.6513
 7852SOL    HW235016   2.728   0.522   7.794 -1.1721  0.3918 -0.3860
 7853SOL     OW35017   3.419   4.318   9.000 -0.2031 -0.3547  0.0755
 7853SOL    HW135018   3.497   4.362   8.967  0.2550 -0.7945  0.5948
 7853SOL    HW235019   3.354   4.387   9.015  0.1844 -0.6150  2.8762
 7854SOL     OW35020   1.084   3.532   6.494 -0.2469 -0.1719  0.2653
 7854SOL    HW135021   1.111   3.624   6.491  2.1212 -0.8170  1.2778
 7854SOL    HW235022   1.002   3.551   6.449  0.3988  0.5044 -0.6591
 7855SOL     OW35023   4.504   1.581  11.399  0.8378 -0.2355 -0.5903
 7855SOL    HW135024   4.433   1.543  11.346 -0.5800 -0.1950  1.3048
 7855SOL    HW235025   4.448   1.637  11.453  2.1789  1.2725 -0.7597
 7856SOL     OW35026   4.530   0.706   8.670 -0.1840  0.4735 -0.0653
 7856SOL    HW135027   4.485   0.734   8.750 -1.4976  0.8166 -0.9341
 7856SOL    HW235028   4.481   0.754   8.604 -2.7190 -2.3386 -0.2424
 7857SOL     OW35029   0.153   1.416  10.951 -0.1656  0.1509 -0.0969
 7857SOL    HW135030   0.214   1.430  11.023 -1.6646  0.4134  1.1290
 7857SOL    HW235031   0.188   1.474  10.883 -2.0246 -0.2423 -1.4024
 7858SOL     OW35032   0.110   4.667   9.487  0.3828 -0.1677  0.0220
 7858SOL    HW135033   0.027   4.625   9.463  1.6225 -0.3588 -3.8318
 7858SOL    HW235034   0.148   4.598   9.541  1.0000 -0.0170 -0.2220
 7859SOL     OW35035   0.493   4.696  13.468 -0.1527  0.2650  0.2204
 7859SOL    HW135036   0.507   4.642  13.390 -1.6161  0.8434 -0.4351
 7859SOL    HW235037   0.448   0.052  13.429 -0.8287 -0.4883 -0.4391
 7860SOL     OW35038   0.110   1.323   1.577  0.3539  0.0810  0.2274
 7860SOL    HW135039   0.178   1.304   1.512 -0.6085 -2.2986 -0.1020
 7860SOL    HW235040   0.164   1.351   1.651 -0.2101 -0.4309  0.8231
 7861SOL     OW35041   2.090   0.538  12.153 -0.1577 -0.2367 -0.2728
 7861SOL    HW135042   2.145   0.617  12.148  0.8274 -0.8224  1.2238
 7861SOL    HW235043   2.071   0.528  12.246 -1.5802  1.8427 -0.3244
 7862SOL     OW35044   2.256   0.398   9.837 -0.1646  0.1321 -0.0878
 7862SOL    HW135045   2.303   0.461   9.783  0.0555 -0.6624 -0.8284
 7862SOL    HW235046   2.180   0.393   9.779 -0.9981  0.6173  0.9717
 7863SOL     OW35047   3.218   3.230   3.144  0.0056 -0.5349 -0.3452
 7863SOL    HW135048   3.273   3.192   3.076  1.4731  0.9773 -0.0105
 7863SOL    HW235049   3.130   3.251   3.112  0.1409 -1.2558 -1.1659
 7864SOL     OW35050   3.478   2.271   4.956  0.1795 -0.7443 -0.2151
 7864SOL    HW135051   3.450   2.196   4.903  1.2436 -1.6921  0.5762
 7864SOL    HW235052   3.505   2.232   5.039  1.3483  2.5519  0.9603
 7865SOL     OW35053   0.308   0.709   3.492 -0.4378  0.7442 -0.3284
 7865SOL    HW135054   0.360   0.694   3.413 -0.0316 -0.3873  0.1525
 7865SOL    HW235055   0.321   0.799   3.525  1.4626  0.6148 -0.7030
 7866SOL     OW35056   0.782   3.672   2.237 -0.7229  0.0840 -0.1407
 7866SOL    HW135057   0.821   3.626   2.312 -0.2231 -0.6308 -0.8375
 7866SOL    HW235058   0.770   3.761   2.270  2.0575 -0.0513  1.2643
 7867SOL     OW35059   3.297   1.000   5.394  0.7172  0.1913  0.3808
 7867SOL    HW135060   3.328   0.947   5.468 -0.0646 -0.4540  0.2500
 7867SOL    HW235061   3.282   0.931   5.330 -2.7738  0.4672  0.9393
 7868SOL     OW35062   4.433   0.425  16.131  0.2866  0.0596  0.0663
 7868SOL    HW135063   4.494   0.388  16.067 -0.9429 -2.1167  0.1168
 7868SOL    HW235064   4.369   0.460  16.069 -0.3097  0.4599  0.8998
 7869SOL     OW35065   4.672   0.249   8.074 -0.0084  0.3696 -0.2440
 7869SOL    HW135066   4.701   0.336   8.046  0.8466  0.6650  1.5987
 7869SOL    HW235067   4.643   0.270   8.162 -3.5068  1.4766 -1.6588
 7870SOL     OW35068   2.226   0.926   0.972  0.1741  0.5854  0.1360
 7870SOL    HW135069   2.295   0.948   0.908  0.2539 -1.5379 -0.5005
 7870SOL    HW235070   2.202   1.016   0.994 -0.8275  0.3765 -0.1254
 7871SOL     OW35071   1.196   1.637  17.666  0.5249  0.1116  0.9435
 7871SOL    HW135072   1.120   1.666   0.037 -0.0220 -1.0113  0.7547
 7871SOL    HW235073   1.177   1.544   0.001 -0.9836  0.5699  1.9731
 7872SOL     OW35074   4.025   1.480  15.876  0.6819  0.0670 -0.0695
 7872SOL    HW135075   4.057   1.556  15.828  0.8816  0.2778  0.4026
 7872SOL    HW235076   3.971   1.434  15.812 -0.5389  0.2484  0.8294
 7873SOL     OW35077   1.794   3.688   4.719  0.1157  0.0745  0.0863
 7873SOL    HW135078   1.778   3.599   4.686 -0.5954 -0.1826  1.1322
 7873SOL    HW235079   1.877   3.709   4.677 -0.6921 -0.4381 -1.7565
 7874SOL     OW35080   3.716   0.175   8.201 -0.1086  0.5816  0.1908
 7874SOL    HW135081   3.663   0.187   8.280 -1.7600 -2.4908 -0.4464
 7874SOL    HW235082   3.655   0.217   8.140 -0.1722 -0.0314 -0.1613
 7875SOL     OW35083   0.154   3.942  17.148  0.2283  0.3166 -0.0480
 7875SOL    HW135084   0.115   3.908  17.229 -1.3065  1.7948 -0.1589
 7875SOL    HW235085   0.076   3.928  17.094  1.0450 -0.1027 -1.1074
 7876SOL     OW35086   0.073   1.258  12.045  0.2098  0.1698  0.5402
 7876SOL    HW135087   0.105   1.293  11.961 -0.8876 -0.5312 -0.1738
 7876SOL    HW235088   0.048   1.338  12.091 -0.8672 -0.4843  1.0641
 7877SOL     OW35089   0.727   0.361  12.878  0.4769  0.2037 -0.1096
 7877SOL    HW135090   0.761   0.443  12.913 -0.1284 -1.2633  3.8973
 7877SOL    HW235091   0.768   0.300  12.939 -1.0254 -0.0408  0.6460
 7878SOL     OW35092   0.073   0.012   8.946 -0.8735  0.3584 -0.0654
 7878SOL    HW135093   0.019   0.090   8.932 -0.4436  0.4578 -1.1713
 7878SOL    HW235094   0.100   0.017   9.038 -0.8234 -0.2448 -0.0464
 7879SOL     OW35095   3.339   1.418   2.302 -0.1845  0.7225  0.5717
 7879SOL    HW135096   3.410   1.383   2.248  1.2003  1.3187  2.0150
 7879SOL    HW235097   3.283   1.340   2.305 -0.1325  0.7739  2.6814
 7880SOL     OW35098   0.297   2.129   6.481  0.0149  0.3009  0.1571
 7880SOL    HW135099   0.392   2.123   6.491 -0.0989 -0.3020  0.8848
 7880SOL    HW235100   0.273   2.164   6.567 -0.7356  2.7310 -1.0601
 7881SOL     OW35101   0.588   3.922  10.205  0.4350  0.2468  0.2552
 7881SOL    HW135102   0.501   3.953  10.179  0.2870  0.6363  1.1942
 7881SOL    HW235103   0.574   3.832  10.233 -2.7752  0.2975 -1.1530
 7882SOL     OW35104   0.733   1.587  15.114  0.5039  0.0222  0.0125
 7882SOL    HW135105   0.808   1.529  15.104 -1.7863 -2.8534 -0.4893
 7882SOL    HW235106   0.706   1.599  15.023  0.2807  1.0188  0.2052
 7883SOL     OW35107   3.435   4.166   7.846 -0.7018 -0.1883  0.6293
 7883SOL    HW135108   3.427   4.261   7.854  1.4678  0.0174  0.3096
 7883SOL    HW235109   3.352   4.148   7.801 -0.7166 -1.1337  1.0328
 7884SOL     OW35110   2.327   2.868   7.650  0.1173  0.5183 -0.5399
 7884SOL    HW135111   2.260   2.917   7.698  0.5525  0.1783  0.4158
 7884SOL    HW235112   2.371   2.834   7.729 -1.2587 -0.1987 -0.0846
 7885SOL     OW35113   3.371   1.635   1.973  0.4627  0.1493  0.0534
 7885SOL    HW135114   3.374   1.696   2.047 -0.7876  0.5097 -0.2042
 7885SOL    HW235115   3.284   1.595   1.974 -0.0430  1.2792  0.9678
 7886SOL     OW35116   1.628   1.054   2.454  0.5801  0.1609  0.1969
 7886SOL    HW135117   1.665   1.002   2.382 -3.8463 -1.6880 -0.8063
 7886SOL    HW235118   1.539   1.017   2.452  0.8716 -0.5725  0.8161
 7887SOL     OW35119   2.574   0.522   8.495 -0.5782 -0.6783  0.2726
 7887SOL    HW135120   2.627   0.572   8.557 -0.6723  0.3076 -0.4627
 7887SOL    HW235121   2.613   0.436   8.512  3.1087  0.6560 -1.5569
 7888SOL     OW35122   4.195   1.520   3.237  0.0470  0.0855  0.8066
 7888SOL    HW135123   4.133   1.565   3.179  2.8069  2.3615 -0.3481
 7888SOL    HW235124   4.280   1.537   3.197  0.6275 -1.7379  1.2702
 7889SOL     OW35125   0.949   1.350   4.549 -0.1905 -0.3779  0.0908
 7889SOL    HW135126   0.979   1.440   4.536 -3.1543  0.5562 -0.3047
 7889SOL    HW235127   0.998   1.324   4.627 -0.9826  0.6290  0.9357
 7890SOL     OW35128   3.078   4.218   5.656  0.1282 -0.0814 -0.3190
 7890SOL    HW135129   3.043   4.173   5.733  0.2552 -1.3382 -0.9947
 7890SOL    HW235130   3.136   4.285   5.693  0.8927 -1.3368  0.7321
 7891SOL     OW35131   0.697   2.930  11.253  0.8854 -0.1267  0.1660
 7891SOL    HW135132   0.730   2.839  11.251 -0.8727 -0.7372 -0.8447
 7891SOL    HW235133   0.761   2.989  11.214 -0.5127  0.6787 -0.8938
 7892SOL     OW35134   4.408   4.568   9.342  0.6470  0.3946 -0.0934
 7892SOL    HW135135   4.423   4.611   9.427 -1.3517 -0.7695  0.8387
 7892SOL    HW235136   4.494   4.531   9.320  1.0118  0.0333  1.8901
 7893SOL     OW35137   1.178   3.610   3.279  0.5909  0.1138 -0.0986
 7893SOL    HW135138   1.237   3.598   3.205  1.0711 -1.5268  0.5530
 7893SOL    HW235139   1.236   3.565   3.341  1.6118  0.7977 -0.5563
 7894SOL     OW35140   4.417   3.942  11.282  0.1902  0.1390  0.2318
 7894SOL    HW135141   4.398   3.850  11.266  1.4600 -0.1071  0.1131
 7894SOL    HW235142   4.328   3.976  11.288 -0.1119 -0.7424  0.6399
 7895SOL     OW35143   2.188   2.136   8.567  0.6908  0.3300 -0.0288
 7895SOL    HW135144   2.220   2.205   8.625  0.6398 -0.0106  0.4002
 7895SOL    HW235145   2.212   2.061   8.621 -0.4455 -0.4699 -0.6280
 7896SOL     OW35146   2.609   3.555   8.169 -0.0242  0.7614 -0.4909
 7896SOL    HW135147   2.517   3.528   8.177  0.4974 -0.5502  1.2015
 7896SOL    HW235148   2.635   3.560   8.261 -2.5223  0.7768  0.2315
 7897SOL     OW35149   2.409   4.544   5.402  0.4205  0.0121  0.6632
 7897SOL    HW135150   2.422   4.639   5.399  2.9702 -0.3648  0.0156
 7897SOL    HW235151   2.492   4.515   5.439 -0.8115 -1.2130  2.4792
 7898SOL     OW35152   3.805   3.903   7.892  0.1641 -0.0402  0.1475
 7898SOL    HW135153   3.793   3.809   7.902 -0.3403  0.0643  0.5285
 7898SOL    HW235154   3.843   3.943   7.971 -2.5364  0.9080  0.9630
 7899SOL     OW35155   1.650   1.458   8.138 -0.2059 -0.2105  0.0529
 7899SOL    HW135156   1.645   1.536   8.194 -0.1503 -1.0925  1.2981
 7899SOL    HW235157   1.724   1.414   8.179  0.6644  0.8461 -0.3586
 7900SOL     OW35158   0.614   2.046   4.089  0.3502  0.4763  0.2985
 7900SOL    HW135159   0.674   2.013   4.022 -0.4478  0.2657 -0.3239
 7900SOL    HW235160   0.665   2.112   4.135  0.9816  0.8402 -0.9180
 7901SOL     OW35161   1.664   1.990   6.907  0.2364 -0.3794  0.0168
 7901SOL    HW135162   1.670   1.995   6.811  1.4458 -0.5995  0.0917
 7901SOL    HW235163   1.637   1.899   6.918  0.2841 -0.4571 -0.5140
 7902SOL     OW35164   4.111   1.078   6.651 -0.2377  0.9612  0.0248
 7902SOL    HW135165   4.026   1.107   6.619 -0.1234  1.9132  0.5956
 7902SOL    HW235166   4.104   1.087   6.746 -3.9773 -1.3011 -0.0449
 7903SOL     OW35167   2.461   4.563   9.286  0.3240  0.2103  0.1907
 7903SOL    HW135168   2.547   4.602   9.273  0.4484  0.3853  1.5078
 7903SOL    HW235169   2.488   4.484   9.333 -0.9777 -0.5844 -0.4033
 7904SOL     OW35170   0.163   0.416  13.183 -0.0089  0.0402 -0.2136
 7904SOL    HW135171   0.185   0.499  13.224  1.7853 -0.9832  0.8847
 7904SOL    HW235172   0.132   0.440  13.095  2.2240 -0.0541 -1.0437
 7905SOL     OW35173   0.532   4.134   8.317 -0.3070 -0.5503  0.3421
 7905SOL    HW135174   0.500   4.090   8.395  0.1735 -0.5503  0.5366
 7905SOL    HW235175   0.451   4.159   8.272 -0.0515  0.8476  0.6828
 7906SOL     OW35176   0.964   1.161   8.060  0.3827 -0.1721 -0.4650
 7906SOL    HW135177   0.942   1.181   7.969  1.8092 -1.3950 -1.0735
 7906SOL    HW235178   0.880   1.179   8.104  1.4526  1.9681  0.7283
 7907SOL     OW35179   3.668   1.324  12.753  0.3580 -0.2433  0.3559
 7907SOL    HW135180   3.732   1.255  12.735 -0.4345 -0.4223 -1.7342
 7907SOL    HW235181   3.712   1.390  12.806  2.7756 -1.1942 -0.4669
 7908SOL     OW35182   0.175   2.761   6.829  0.1171  0.4427  0.3497
 7908SOL    HW135183   0.088   2.790   6.802  0.4188  2.0207  1.0452
 7908SOL    HW235184   0.187   2.699   6.758  0.7121  1.0840 -0.1119
 7909SOL     OW35185   1.016   1.623   4.488  0.1616  0.2999  0.3669
 7909SOL    HW135186   1.028   1.669   4.571  1.7118 -0.2599  0.4646
 7909SOL    HW235187   1.092   1.648   4.435  0.5147 -1.5886 -0.0518
 7910SOL     OW35188   1.393   2.197   8.621  0.1276 -0.5439  0.2288
 7910SOL    HW135189   1.310   2.220   8.662  0.2698  1.4446 -0.6093
 7910SOL    HW235190   1.460   2.240   8.674  1.2577 -1.0910 -0.7501
 7911SOL     OW35191   0.960   3.792   2.713 -0.1992  0.4260 -0.2203
 7911SOL    HW135192   1.000   3.867   2.757  2.1589  1.6037 -4.3319
 7911SOL    HW235193   1.029   3.791   2.646 -1.1064  0.2223 -1.1588
 7912SOL     OW35194   0.944   1.324  10.052  0.0105 -0.2246  0.2692
 7912SOL    HW135195   0.922   1.263   9.982 -0.1983  0.2329 -0.0623
 7912SOL    HW235196   0.874   1.320  10.117  0.0028  0.9241  0.3318
 7913SOL     OW35197   4.690   1.955   3.737  0.4647 -0.8756 -0.0365
 7913SOL    HW135198   4.611   2.008   3.748  0.4034 -1.2793  1.4955
 7913SOL    HW235199   4.692   1.904   3.819 -3.3372 -3.5795 -1.6234
 7914SOL     OW35200   3.782   2.752   8.531  0.7241 -0.1523 -0.3113
 7914SOL    HW135201   3.870   2.762   8.497 -0.1629  3.0104 -1.6629
 7914SOL    HW235202   3.798   2.684   8.596 -0.5743 -0.2895 -0.1221
 7915SOL     OW35203   2.999   0.624   3.722 -0.5655  0.0146  0.2843
 7915SOL    HW135204   3.071   0.684   3.705 -0.8824 -0.6692 -3.4515
 7915SOL    HW235205   3.024   0.596   3.810 -0.8762  0.1387  0.4142
 7916SOL     OW35206   1.356   2.452  12.258  0.4125  0.4081  0.2005
 7916SOL    HW135207   1.373   2.359  12.246 -0.0699  0.1132  1.7943
 7916SOL    HW235208   1.375   2.462  12.352 -1.7625 -2.4699  0.9270
 7917SOL     OW35209   2.084   2.674  15.346 -0.1152 -0.2021  0.2079
 7917SOL    HW135210   1.989   2.689  15.343 -0.0179  0.5167  0.7176
 7917SOL    HW235211   2.109   2.754  15.392  0.5305  0.2651 -0.9547
 7918SOL     OW35212   0.665   1.864   5.000  0.0590 -0.0479  0.0626
 7918SOL    HW135213   0.613   1.800   5.049  1.7844 -3.2387 -2.2517
 7918SOL    HW235214   0.660   1.820   4.915  0.5345 -1.4865  0.7706
 7919SOL     OW35215   4.415   4.664   6.144 -0.2499  0.7223  0.0072
 7919SOL    HW135216   4.442   4.660   6.236 -2.5601  0.1427  0.6666
 7919SOL    HW235217   4.394   0.038   6.146  0.4481  0.8501  1.5666
 7920SOL     OW35218   2.204   0.223   0.884  0.1883  0.6520 -0.1672
 7920SOL    HW135219   2.130   0.163   0.899 -1.0447  1.2982 -3.6200
 7920SOL    HW235220   2.271   0.155   0.876  0.9728  1.6872 -2.3474
 7921SOL     OW35221   1.068   0.058   8.021  0.6823 -0.1459  0.1019
 7921SOL    HW135222   1.161   0.071   8.002  0.6126  0.1146 -0.0557
 7921SOL    HW235223   1.058   0.115   8.097  1.2378 -1.1289  0.9181
 7922SOL     OW35224   1.162   3.692   8.268  0.0786  0.4211  0.7238
 7922SOL    HW135225   1.089   3.749   8.292  0.6240  0.7204  1.6685
 7922SOL    HW235226   1.158   3.695   8.172 -2.0149  0.0285  0.7968
 7923SOL     OW35227   1.366   3.787  11.665  0.0777 -0.2442 -0.0884
 7923SOL    HW135228   1.408   3.752  11.587  1.1059 -0.4454  0.5692
 7923SOL    HW235229   1.289   3.832  11.629  0.7624  1.3297  0.4255
 7924SOL     OW35230   0.493   1.005  13.867 -0.2377 -0.6217 -0.4066
 7924SOL    HW135231   0.574   1.016  13.916  0.6042 -1.5727 -1.5590
 7924SOL    HW235232   0.436   1.003  13.944  2.6799  2.0675  1.7542
 7925SOL     OW35233   0.440   4.503  10.268 -0.1209  0.2028  0.1066
 7925SOL    HW135234   0.445   4.574  10.333 -0.3994 -1.1430  1.5801
 7925SOL    HW235235   0.345   4.495  10.255  0.2286 -2.4053 -0.6885
 7926SOL     OW35236   3.227   2.326   3.188 -0.3629  0.8732 -0.1290
 7926SOL    HW135237   3.168   2.400   3.173  0.6132  1.2754 -1.8655
 7926SOL    HW235238   3.198   2.304   3.277  1.0583  2.5500  0.7535
 7927SOL     OW35239   1.559   1.448   7.715  0.3171 -0.0958  0.6761
 7927SOL    HW135240   1.567   1.449   7.810  0.3175  0.0733  0.6740
 7927SOL    HW235241   1.644   1.409   7.696  0.8718  1.1663  0.5600
 7928SOL     OW35242   0.429   1.191  16.915 -0.1848  0.3932 -0.0926
 7928SOL    HW135243   0.518   1.211  16.886 -0.4030 -0.3014 -1.2454
 7928SOL    HW235244   0.423   1.241  16.996 -0.5403  0.1967 -0.0020
 7929SOL     OW35245   1.835   0.067   9.333  0.3701  0.3378 -0.2739
 7929SOL    HW135246   1.791   0.046   9.250  1.2905 -0.5350 -0.5305
 7929SOL    HW235247   1.820   4.702   9.376 -0.0111  0.0136 -1.0260
 7930SOL     OW35248   3.732   0.961   5.331 -0.3007 -0.1846 -0.4865
 7930SOL    HW135249   3.661   0.909   5.293 -1.7940  0.9594  0.7196
 7930SOL    HW235250   3.722   0.939   5.424 -0.6211 -0.1243 -0.5076
 7931SOL     OW35251   2.001   0.827  14.103  0.1996 -0.0704  0.5906
 7931SOL    HW135252   2.054   0.764  14.055  1.0071  1.8157 -1.0051
 7931SOL    HW235253   2.057   0.862  14.173  0.8064  0.3626 -0.1088
 7932SOL     OW35254   1.128   4.078  12.881  0.0731  0.2890 -0.2776
 7932SOL    HW135255   1.177   3.997  12.898  1.8326  1.4338  0.0551
 7932SOL    HW235256   1.050   4.078  12.937  0.3070  2.3498  0.0203
 7933SOL     OW35257   2.670   0.278   2.780 -0.1297  0.2398  0.2855
 7933SOL    HW135258   2.641   0.259   2.691 -2.5572  0.7621  0.9612
 7933SOL    HW235259   2.595   0.325   2.817 -0.7431 -0.7975  0.3770
 7934SOL     OW35260   1.053   4.602   5.606  0.0160  0.6027  0.0206
 7934SOL    HW135261   1.001   4.544   5.550  3.1717 -1.0946 -1.1583
 7934SOL    HW235262   0.987   4.604   5.675 -0.5413  1.2014 -0.5420
 7935SOL     OW35263   2.613   1.121   5.474  0.4513 -0.7679 -0.2861
 7935SOL    HW135264   2.593   1.088   5.562 -3.5594 -2.1260 -1.7011
 7935SOL    HW235265   2.694   1.170   5.488 -0.5890  0.8168  0.2270
 7936SOL     OW35266   1.883   1.149  17.559 -0.4172  0.4808  0.2911
 7936SOL    HW135267   1.935   1.069  17.543 -1.0193  0.2148 -0.3282
 7936SOL    HW235268   1.879   1.132  17.653  1.6951  1.3318  0.5420
 7937SOL     OW35269   0.363   2.714  15.659 -0.1574 -0.4122 -0.5911
 7937SOL    HW135270   0.449   2.701  15.699 -0.3708  1.9046  0.5927
 7937SOL    HW235271   0.383   2.712  15.565 -0.1986  0.2903 -0.6170
 7938SOL     OW35272   3.257   4.568  10.599  0.1650 -0.2059  0.1685
 7938SOL    HW135273   3.318   4.642  10.604 -0.4404  0.2138  1.3054
 7938SOL    HW235274   3.236   4.551  10.691 -2.8819  2.0343 -0.1008
 7939SOL     OW35275   3.881   3.220  11.783 -0.5788  0.3680 -0.0833
 7939SOL    HW135276   3.881   3.144  11.842  0.5038  0.2554 -0.2238
 7939SOL    HW235277   3.966   3.261  11.803  0.1838  0.2338 -3.1358
 7940SOL     OW35278   3.033   2.692   5.733 -0.2913 -0.0781 -0.6189
 7940SOL    HW135279   3.011   2.692   5.826 -0.4739  4.4030 -0.6759
 7940SOL    HW235280   3.048   2.597   5.730 -2.3468 -0.3277 -3.4189
 7941SOL     OW35281   3.677   4.698   9.294 -0.1872  0.0540 -0.0416
 7941SOL    HW135282   3.677   0.074   9.307 -0.0366  0.2370 -1.4155
 7941SOL    HW235283   3.729   4.685   9.215  0.8846  3.7501  0.0703
 7942SOL     OW35284   3.012   3.931  15.425  0.3799  0.5440  0.6485
 7942SOL    HW135285   3.049   4.008  15.468  3.2990 -0.2709 -0.4119
 7942SOL    HW235286   3.094   3.903  15.384 -0.3884 -1.9267  0.8383
 7943SOL     OW35287   2.985   3.955  10.968  0.8914 -0.4107  0.6153
 7943SOL    HW135288   2.975   4.029  11.027  1.5455 -0.9573  1.4144
 7943SOL    HW235289   2.895   3.922  10.968  0.9662 -0.6085 -0.7837
 7944SOL     OW35290   2.578   1.902  14.254  0.5605 -0.2370  0.1438
 7944SOL    HW135291   2.488   1.935  14.260  1.3709  1.9505  0.3565
 7944SOL    HW235292   2.619   1.988  14.259 -0.0475 -0.0466  1.8714
 7945SOL     OW35293   1.443   1.413   1.517 -0.2615 -0.3121  0.3610
 7945SOL    HW135294   1.406   1.342   1.465 -0.5832 -0.1197  0.3317
 7945SOL    HW235295   1.362   1.453   1.547 -0.4282  0.5495 -1.2594
 7946SOL     OW35296   0.414   1.106  17.594 -0.2908  0.4686  0.2276
 7946SOL    HW135297   0.484   1.093  17.657  2.4922 -0.2687 -3.0197
 7946SOL    HW235298   0.465   1.094  17.513  0.3981  1.4207  0.5202
 7947SOL     OW35299   2.432   2.017   7.729 -0.0486 -0.1567 -0.1377
 7947SOL    HW135300   2.510   2.065   7.704 -0.7519  0.8187 -0.4606
 7947SOL    HW235301   2.468   1.945   7.781 -1.4914 -0.1883  0.8320
 7948SOL     OW35302   0.651   4.108   5.879 -0.0605  0.1929 -0.4935
 7948SOL    HW135303   0.686   4.045   5.816 -0.2339 -2.1597  1.7964
 7948SOL    HW235304   0.680   4.069   5.961 -2.5841 -0.0951  0.2548
 7949SOL     OW35305   2.829   3.743   5.520  0.6942  0.2326  0.8290
 7949SOL    HW135306   2.773   3.820   5.512  1.4592  0.6658 -0.4602
 7949SOL    HW235307   2.888   3.763   5.447 -0.8877 -0.4158 -0.6220
 7950SOL     OW35308   4.423   4.430   3.796  0.3617  0.1001 -0.2273
 7950SOL    HW135309   4.404   4.413   3.889  0.8013  1.7807  0.1736
 7950SOL    HW235310   4.397   4.520   3.778  2.5297  0.6058 -0.8927
 7951SOL     OW35311   1.441   4.308   0.432 -0.1783 -0.3788  0.3111
 7951SOL    HW135312   1.380   4.319   0.505 -1.3713 -0.8045 -0.6067
 7951SOL    HW235313   1.387   4.326   0.355 -0.8021  1.1159  1.1082
 7952SOL     OW35314   2.280   0.347   5.749 -0.2931  0.1111  0.1733
 7952SOL    HW135315   2.281   0.330   5.844  0.5688  0.2851  0.1996
 7952SOL    HW235316   2.187   0.357   5.731 -0.3490  1.9566  1.4925
 7953SOL     OW35317   4.135   3.476   0.036 -0.7770 -0.9244 -0.3053
 7953SOL    HW135318   4.102   3.432  17.635 -0.0632 -1.1944 -0.4467
 7953SOL    HW235319   4.131   3.399   0.093 -0.0520  0.4231  1.5460
 7954SOL     OW35320   0.599   1.867   0.686 -0.1349 -0.3162  0.4363
 7954SOL    HW135321   0.662   1.800   0.714  1.2404  0.1025 -1.6478
 7954SOL    HW235322   0.530   1.810   0.654 -0.3060  0.2513 -0.2247
 7955SOL     OW35323   3.033   0.301  12.495 -0.3930  0.1330  0.0591
 7955SOL    HW135324   3.019   0.354  12.417  0.2700  0.5680  0.2357
 7955SOL    HW235325   3.083   0.232  12.452  1.1193  0.1896  1.7365
 7956SOL     OW35326   1.976   0.733   2.497 -0.0856  0.1416  0.4808
 7956SOL    HW135327   1.883   0.710   2.488  0.4326 -0.6200 -2.8828
 7956SOL    HW235328   1.998   0.772   2.412 -0.7620 -1.2852 -0.3492
 7957SOL     OW35329   3.966   1.001   6.107 -0.4544  0.3449  0.3046
 7957SOL    HW135330   3.944   0.909   6.097 -0.9571  0.4924  0.0154
 7957SOL    HW235331   3.929   1.038   6.027 -0.7220 -2.8302 -1.0084
 7958SOL     OW35332   2.293   2.725  16.656  0.2560  0.0604  0.2348
 7958SOL    HW135333   2.374   2.697  16.698  0.5549 -1.7972 -1.6165
 7958SOL    HW235334   2.276   2.809  16.700  0.1332 -0.2160  0.7203
 7959SOL     OW35335   0.959   1.571   2.500 -0.1903 -0.4002 -0.0796
 7959SOL    HW135336   0.878   1.528   2.475 -0.6773  1.2172 -1.2853
 7959SOL    HW235337   0.927   1.661   2.510 -0.2480 -0.2207 -1.9395
 7960SOL     OW35338   3.253   0.733   4.145 -0.2528 -0.6495 -0.2196
 7960SOL    HW135339   3.320   0.766   4.206  0.8310 -1.7456 -0.8053
 7960SOL    HW235340   3.282   0.779   4.066  3.1338  1.7778  2.3933
 7961SOL     OW35341   1.222   2.147   0.469  0.3025 -0.3525  0.0467
 7961SOL    HW135342   1.303   2.143   0.520 -0.0133  2.0146  0.7542
 7961SOL    HW235343   1.204   2.054   0.474  0.8067 -0.6030 -2.7083
 7962SOL     OW35344   4.029   0.601  15.800  0.3460  0.4032  0.3786
 7962SOL    HW135345   3.942   0.584  15.765  0.9203 -1.0361 -0.3349
 7962SOL    HW235346   4.061   0.518  15.766 -1.1629  1.1998 -2.9161
 7963SOL     OW35347   0.517   2.381  14.683 -0.3880 -0.2183 -0.0060
 7963SOL    HW135348   0.577   2.439  14.636  0.2357 -0.9235 -0.0782
 7963SOL    HW235349   0.442   2.440  14.686 -1.6618 -1.7970 -0.7822
 7964SOL     OW35350   1.089   1.907   2.247 -0.0212  0.2524  0.4332
 7964SOL    HW135351   1.085   1.844   2.175  0.1318  1.4275 -0.5814
 7964SOL    HW235352   1.058   1.992   2.217  0.0507 -0.1452 -0.7478
 7965SOL     OW35353   1.858   0.171  14.980 -0.2985 -0.4636  0.8530
 7965SOL    HW135354   1.842   0.260  15.010 -0.5481 -0.7252  1.5005
 7965SOL    HW235355   1.894   0.135  15.061  1.5647 -0.3315  0.0726
 7966SOL     OW35356   2.475   3.977   6.633  0.0992 -0.1048  0.1106
 7966SOL    HW135357   2.421   3.920   6.688 -0.8040  1.0651  0.4373
 7966SOL    HW235358   2.408   4.039   6.606  1.1600  0.1795 -1.8006
 7967SOL     OW35359   3.509   1.665  11.608  0.5332 -0.3488  0.2880
 7967SOL    HW135360   3.454   1.690  11.534  1.2223 -2.9975 -1.1065
 7967SOL    HW235361   3.526   1.579  11.569  1.5100  0.4473 -1.0004
 7968SOL     OW35362   1.696   3.377   6.196  0.6278  0.2457 -0.0305
 7968SOL    HW135363   1.768   3.433   6.224 -0.2124  1.0458  0.5359
 7968SOL    HW235364   1.616   3.414   6.233 -0.5326 -2.3470  0.0480
 7969SOL     OW35365   0.407   4.156   0.045  0.1468 -0.0842 -0.6178
 7969SOL    HW135366   0.399   4.131  17.632  2.1516 -1.7066 -0.3573
 7969SOL    HW235367   0.464   4.229   0.022 -1.1803  0.3083 -2.6608
 7970SOL     OW35368   1.512   2.707   5.148 -0.0668  0.5670  0.4120
 7970SOL    HW135369   1.567   2.760   5.089 -0.9782 -0.6750 -1.5578
 7970SOL    HW235370   1.459   2.661   5.083  1.2164 -1.4443  0.8051
 7971SOL     OW35371   4.201   4.251   3.662  0.4615 -0.4096 -0.0061
 7971SOL    HW135372   4.243   4.276   3.579  0.9335 -1.9150 -0.2216
 7971SOL    HW235373   4.123   4.222   3.615 -1.2572  2.1157  1.2702
 7972SOL     OW35374   3.048   4.297   7.281  0.4797 -0.8774  0.6793
 7972SOL    HW135375   3.078   4.385   7.302 -0.6036 -0.4965  0.6534
 7972SOL    HW235376   2.961   4.297   7.322 -0.4725 -3.1932 -1.3279
 7973SOL     OW35377   3.341   0.630   1.520 -0.3982 -0.3864 -0.1946
 7973SOL    HW135378   3.424   0.673   1.541 -0.9412  1.0466 -0.9701
 7973SOL    HW235379   3.279   0.686   1.567 -0.9733 -1.3913  0.2224
 7974SOL     OW35380   4.058   0.790   7.698 -0.1554 -0.2897 -0.2796
 7974SOL    HW135381   4.134   0.848   7.699 -0.3612 -0.0092 -0.6778
 7974SOL    HW235382   4.065   0.742   7.616  0.0541 -1.1760  0.2613
 7975SOL     OW35383   1.541   1.847  17.217  0.0053 -0.2081 -0.1532
 7975SOL    HW135384   1.592   1.927  17.232  0.2024 -0.8828  2.7844
 7975SOL    HW235385   1.456   1.889  17.215  0.2125  0.1952 -0.7523
 7976SOL     OW35386   4.058   1.412   0.904  0.2938  0.2127 -0.4621
 7976SOL    HW135387   4.023   1.491   0.946  0.1939 -0.6611  1.1184
 7976SOL    HW235388   4.147   1.402   0.938  0.3316  2.2171  0.0368
 7977SOL     OW35389   2.587   4.676  11.273 -0.5047 -0.3832 -0.0047
 7977SOL    HW135390   2.603   4.581  11.276  0.8390 -0.1515  0.2017
 7977SOL    HW235391   2.531   4.676  11.196  0.1822  0.7435 -0.4971
 7978SOL     OW35392   1.348   4.418   5.221 -0.1204 -0.2197 -0.2560
 7978SOL    HW135393   1.323   4.467   5.300 -0.0476  1.4620 -1.2757
 7978SOL    HW235394   1.387   4.337   5.256  1.4085  1.5426  2.2060
 7979SOL     OW35395   2.632   2.308  14.460  0.1668  0.0593 -0.5374
 7979SOL    HW135396   2.669   2.246  14.398 -0.6421 -0.1408 -0.8161
 7979SOL    HW235397   2.646   2.391  14.414 -1.3332  0.1106 -0.8954
 7980SOL     OW35398   0.071   0.039   4.904 -0.1773 -0.3067  0.2352
 7980SOL    HW135399   0.008   0.037   4.976 -0.4010  0.1799  0.0518
 7980SOL    HW235400   0.100   0.130   4.906 -0.6060 -0.1754  0.6468
 7981SOL     OW35401   4.661   0.551   3.515  0.5945 -0.4018  0.1701
 7981SOL    HW135402   4.664   0.456   3.498  1.6711 -0.1520 -1.0881
 7981SOL    HW235403   0.003   0.582   3.448 -1.2084  0.3831 -1.0955
 7982SOL     OW35404   2.327   3.472   8.587 -0.6542 -0.2282  0.5093
 7982SOL    HW135405   2.254   3.425   8.628  0.8477 -2.9583  0.0296
 7982SOL    HW235406   2.334   3.420   8.507 -0.8880  0.7360 -0.1415
 7983SOL     OW35407   0.666   3.857  11.966 -0.2173  0.0946  0.9791
 7983SOL    HW135408   0.600   3.879  11.901 -1.7566 -0.9814  2.1870
 7983SOL    HW235409   0.712   3.941  11.974 -0.9293  0.7251 -1.7788
 7984SOL     OW35410   1.668   3.113  10.702 -0.0271  0.5240  0.0359
 7984SOL    HW135411   1.612   3.146  10.632  0.6706 -0.7102 -1.0977
 7984SOL    HW235412   1.689   3.025  10.672 -0.2307 -0.1821  1.9897
 7985SOL     OW35413   1.606   3.354   3.937  0.3498 -0.3444 -0.4694
 7985SOL    HW135414   1.630   3.278   3.883 -3.1268  0.6976 -3.4699
 7985SOL    HW235415   1.519   3.366   3.898  0.5530 -0.4279 -0.9530
 7986SOL     OW35416   4.674   4.623   0.677 -0.1505  0.5378  0.5756
 7986SOL    HW135417   4.690   4.671   0.596  0.7292  1.0531  1.0527
 7986SOL    HW235418   4.695   4.691   0.741  0.1570  1.1601 -0.1808
 7987SOL     OW35419   0.837   2.515  12.142  0.0546  0.5276 -0.3282
 7987SOL    HW135420   0.780   2.582  12.106 -1.2727  0.3062  1.3524
 7987SOL    HW235421   0.769   2.456  12.174  0.1615  1.3383  1.4123
 7988SOL     OW35422   0.737   1.809  10.885  0.6960  0.3599 -0.4318
 7988SOL    HW135423   0.827   1.803  10.916  0.0997 -1.2933  0.9234
 7988SOL    HW235424   0.732   1.905  10.884 -2.5114  0.2012  0.2561
 7989SOL     OW35425   0.824   4.158  11.867  0.2312 -0.1829 -0.0384
 7989SOL    HW135426   0.871   4.218  11.809  1.6768 -1.5626 -0.2903
 7989SOL    HW235427   0.866   4.180  11.950 -0.9124 -0.0980  0.5192
 7990SOL     OW35428   4.645   3.967   2.048  0.3671 -0.1599 -0.0318
 7990SOL    HW135429   4.656   3.950   2.141  0.6995  0.7582  0.0968
 7990SOL    HW235430   0.001   3.921   2.009  1.9226 -0.7419  3.6329
 7991SOL     OW35431   1.674   3.270   0.233  0.0651 -0.3658  0.3984
 7991SOL    HW135432   1.765   3.246   0.251 -0.0443 -0.0695  1.3763
 7991SOL    HW235433   1.640   3.189   0.195 -0.1123 -0.6760  1.2147
 7992SOL     OW35434   1.348   0.108   6.007 -0.3191  0.8134 -0.1975
 7992SOL    HW135435   1.338   0.031   5.950  2.2388  0.6301 -0.4077
 7992SOL    HW235436   1.293   0.170   5.959  0.0480  1.0365 -0.3287
 7993SOL     OW35437   3.726   3.691   4.577 -0.3028  0.5102  0.0598
 7993SOL    HW135438   3.812   3.720   4.607  0.6355 -0.2077 -1.9374
 7993SOL    HW235439   3.738   3.698   4.482 -1.4053 -0.0495 -0.1115
 7994SOL     OW35440   4.356   1.417   3.994 -0.2629  0.2566 -0.4661
 7994SOL    HW135441   4.381   1.356   4.063 -1.4588  1.0822  0.6994
 7994SOL    HW235442   4.389   1.503   4.022  3.4881 -1.5017  0.4359
 7995SOL     OW35443   1.355   2.324   3.034  0.3147 -0.3768  0.1106
 7995SOL    HW135444   1.282   2.328   2.973  0.7917  1.7209 -0.3067
 7995SOL    HW235445   1.368   2.411   3.072  1.4854 -0.4462 -0.1161
 7996SOL     OW35446   3.645   1.767   6.628 -0.6506 -0.2412 -0.6395
 7996SOL    HW135447   3.631   1.815   6.710  0.7245 -0.0663 -0.4943
 7996SOL    HW235448   3.574   1.704   6.634 -1.0369 -0.1194 -4.3546
 7997SOL     OW35449   4.421   1.382   1.814  0.0794  0.5351  0.1454
 7997SOL    HW135450   4.408   1.340   1.899  1.4584 -0.0536  0.0657
 7997SOL    HW235451   4.516   1.397   1.815  0.6480 -3.1783  0.3080
 7998SOL     OW35452   3.828   4.463   9.730 -0.0859  0.9863 -0.1218
 7998SOL    HW135453   3.819   4.436   9.639  0.7772 -0.6636  0.2921
 7998SOL    HW235454   3.876   4.542   9.704 -0.6717  0.6415 -2.2549
 7999SOL     OW35455   2.366   3.086   5.219 -0.2529  0.1136 -0.7418
 7999SOL    HW135456   2.434   3.045   5.165 -0.3532  0.9359 -1.5032
 7999SOL    HW235457   2.416   3.168   5.227  0.1934 -0.1666 -0.6231
 8000SOL     OW35458   4.087   1.304   6.153 -0.4473 -0.8138  0.0164
 8000SOL    HW135459   4.144   1.327   6.079 -1.2716 -0.8289 -0.6200
 8000SOL    HW235460   4.065   1.392   6.184 -0.4939 -0.3229 -1.4245
 8001SOL     OW35461   1.859   2.588   6.679  0.0105  0.4872 -0.6375
 8001SOL    HW135462   1.862   2.512   6.620  0.1967  0.0503 -0.0652
 8001SOL    HW235463   1.842   2.540   6.760 -0.4993  2.3737  0.3685
 8002SOL     OW35464   3.914   1.570  17.079  0.5952  0.3275 -0.5879
 8002SOL    HW135465   3.932   1.662  17.062 -0.4298  0.8079  0.9504
 8002SOL    HW235466   3.950   1.546  17.164  0.5858  0.4921 -0.5383
 8003SOL     OW35467   3.031   0.830   8.893 -0.2373 -0.7031 -0.0436
 8003SOL    HW135468   2.991   0.914   8.916  0.6883 -0.1178 -0.5459
 8003SOL    HW235469   2.960   0.772   8.920 -1.5329  1.4240  1.1283
 8004SOL     OW35470   4.117   1.952   3.035  0.6276 -0.3254 -0.0656
 8004SOL    HW135471   4.047   1.891   3.012 -1.1454  0.4588  3.2151
 8004SOL    HW235472   4.077   2.038   3.023 -1.0894 -1.2929 -1.2123
 8005SOL     OW35473   0.512   1.966  17.005 -0.3290  0.0884 -0.2608
 8005SOL    HW135474   0.529   1.873  17.021  1.1859  0.2127 -1.1726
 8005SOL    HW235475   0.493   1.997  17.094  1.5120  2.6325 -0.7714
 8006SOL     OW35476   0.201   1.567   3.666 -0.1669  0.2619  0.1028
 8006SOL    HW135477   0.270   1.633   3.674  0.9972 -0.9659  0.1012
 8006SOL    HW235478   0.189   1.569   3.571  3.2222  2.0029 -0.2741
 8007SOL     OW35479   2.215   1.516   2.440 -0.5683  0.5294 -0.2097
 8007SOL    HW135480   2.222   1.478   2.352  2.3862  1.5378 -0.4159
 8007SOL    HW235481   2.257   1.601   2.427  0.7713  0.0748  1.1268
 8008SOL     OW35482   2.444   4.237   6.272  0.5096  0.0478 -0.1007
 8008SOL    HW135483   2.532   4.240   6.234  0.2667 -1.2498 -0.7434
 8008SOL    HW235484   2.405   4.164   6.224  0.9257  0.1546 -0.6000
 8009SOL     OW35485   4.641   2.231   3.995 -0.3008  0.1305  0.1278
 8009SOL    HW135486   4.659   2.240   3.902 -0.3913  1.1069  0.2102
 8009SOL    HW235487   4.592   2.149   3.993 -0.4701  0.1537  3.1317
 8010SOL     OW35488   2.743   4.330   7.516  0.6793 -0.0840 -0.6467
 8010SOL    HW135489   2.718   4.241   7.490 -1.3251 -0.0657  1.2258
 8010SOL    HW235490   2.660   4.371   7.539 -0.8274 -1.6990 -3.1962
 8011SOL     OW35491   1.887   3.867   2.369 -0.4513 -0.0519 -0.5071
 8011SOL    HW135492   1.975   3.844   2.401 -1.1097 -0.0082  1.3654
 8011SOL    HW235493   1.863   3.892   2.459 -1.2922 -2.5748  0.0047
 8012SOL     OW35494   2.034   2.650   3.837 -0.1097 -0.1712 -0.2301
 8012SOL    HW135495   2.120   2.653   3.795 -1.3124  0.9849 -2.5694
 8012SOL    HW235496   2.057   2.579   3.898 -0.6453 -1.3270 -1.3661
 8013SOL     OW35497   4.026   3.430   3.970 -0.4341  0.2492  0.0947
 8013SOL    HW135498   4.112   3.467   3.949 -0.6948 -0.6348 -2.5450
 8013SOL    HW235499   4.040   3.394   4.057  0.2308  0.4962  0.0912
 8014SOL     OW35500   1.126   0.974   6.707 -0.0756 -0.2588  0.0100
 8014SOL    HW135501   1.152   1.010   6.622  0.1423  1.1725  0.6900
 8014SOL    HW235502   1.163   1.036   6.769  0.0598  2.2227 -2.5812
 8015SOL     OW35503   4.473   1.424  11.914 -0.1990  0.4474  0.2869
 8015SOL    HW135504   4.380   1.422  11.938 -0.8285 -0.3154 -2.2415
 8015SOL    HW235505   4.482   1.335  11.879  1.8829  0.9204 -0.4080
 8016SOL     OW35506   1.487   2.769   6.837  0.1736 -0.4468  0.3286
 8016SOL    HW135507   1.402   2.724   6.842  0.0376 -0.4579 -2.0787
 8016SOL    HW235508   1.540   2.711   6.892  0.5484 -1.3479 -0.9694
 8017SOL     OW35509   4.279   0.521   5.578  0.0777  0.0579  0.2474
 8017SOL    HW135510   4.265   0.613   5.599  0.7252  0.7162 -2.2636
 8017SOL    HW235511   4.362   0.525   5.531  0.9362  0.7574  1.8524
 8018SOL     OW35512   0.549   3.369   6.665  0.3494 -0.0597 -0.4740
 8018SOL    HW135513   0.498   3.331   6.737  2.4159 -2.0056 -0.0356
 8018SOL    HW235514   0.573   3.295   6.610  0.8327 -0.9677  0.9527
 8019SOL     OW35515   1.973   0.163   5.724  0.2127 -0.2630  0.0910
 8019SOL    HW135516   2.049   0.107   5.711  0.2496  0.5999 -3.1980
 8019SOL    HW235517   1.932   0.161   5.638 -1.8704  1.7931  1.0134
 8020SOL     OW35518   3.506   0.706   8.953  0.6559 -0.2094  0.1264
 8020SOL    HW135519   3.601   0.709   8.958  0.6996 -0.5531 -0.5160
 8020SOL    HW235520   3.489   0.775   8.890 -0.9904 -1.7738 -1.1420
 8021SOL     OW35521   1.832   4.187  10.573  0.2554  0.8221 -0.1229
 8021SOL    HW135522   1.923   4.186  10.603  0.2663 -0.4016 -0.2269
 8021SOL    HW235523   1.846   4.264  10.518 -1.2357  1.0151 -0.2543
 8022SOL     OW35524   3.022   0.633   4.282 -0.4163 -0.0108 -0.2185
 8022SOL    HW135525   3.044   0.554   4.233 -2.0474  0.2520 -1.3971
 8022SOL    HW235526   3.090   0.691   4.247 -0.2736  0.7539  1.3527
 8023SOL     OW35527   3.206   1.708  12.289  0.1746  0.4536 -0.4470
 8023SOL    HW135528   3.252   1.631  12.255  0.5848  0.8928 -0.8649
 8023SOL    HW235529   3.117   1.695  12.254  0.5948 -2.9430 -0.3047
 8024SOL     OW35530   2.830   4.097  12.253 -0.0794 -0.0797 -0.0163
 8024SOL    HW135531   2.757   4.154  12.227 -1.1778 -0.5994  1.9688
 8024SOL    HW235532   2.811   4.025  12.193  0.8532 -0.1922 -0.1769
 8025SOL     OW35533   4.642   1.265   5.142 -0.3761 -0.1844  0.7605
 8025SOL    HW135534   4.658   1.331   5.209 -0.8882  0.3150  0.3907
 8025SOL    HW235535   4.659   1.181   5.184  0.8909 -1.0200 -1.4430
 8026SOL     OW35536   3.389   2.535  11.295 -0.6781  0.4721 -0.4874
 8026SOL    HW135537   3.376   2.499  11.207 -2.8521  2.5535 -1.0162
 8026SOL    HW235538   3.444   2.607  11.267  0.6141 -1.1669 -2.1656
 8027SOL     OW35539   4.497   2.019   8.154 -0.4606  0.0964  0.0329
 8027SOL    HW135540   4.589   1.996   8.140 -0.1757  1.1566  0.2118
 8027SOL    HW235541   4.492   2.073   8.233  2.4049 -0.0791  0.3278
 8028SOL     OW35542   1.885   0.864   0.906 -0.3962  0.4903  0.1047
 8028SOL    HW135543   1.796   0.888   0.931 -0.5669  2.0844 -2.0635
 8028SOL    HW235544   1.918   0.948   0.874 -0.6127  0.6856  0.3925
 8029SOL     OW35545   3.453   4.030   2.242 -0.4002 -0.0223  0.2688
 8029SOL    HW135546   3.427   4.018   2.150  1.2921  1.1538 -0.3829
 8029SOL    HW235547   3.377   4.015   2.298 -1.3560  3.2715 -0.1502
 8030SOL     OW35548   1.387   3.896   9.478  0.2037  0.5559  0.3805
 8030SOL    HW135549   1.382   3.862   9.389  0.0698  0.9473  0.2375
 8030SOL    HW235550   1.325   3.968   9.468 -1.3955 -0.9400 -0.4502
 8031SOL     OW35551   3.381   0.830   5.598 -0.2797  0.2729 -0.9328
 8031SOL    HW135552   3.395   0.744   5.559 -0.9751 -0.2460 -0.0530
 8031SOL    HW235553   3.300   0.807   5.645  0.4666 -0.7420 -0.1575
 8032SOL     OW35554   2.516   4.399   6.880  0.2923  0.3348  0.5391
 8032SOL    HW135555   2.543   4.307   6.875  0.1459  0.3933 -1.1178
 8032SOL    HW235556   2.428   4.401   6.918  0.6739 -1.8184  1.5658
 8033SOL     OW35557   4.065   2.843   7.643 -0.5178 -0.1726  0.0485
 8033SOL    HW135558   4.108   2.803   7.567 -1.4072  1.5643 -1.3652
 8033SOL    HW235559   4.139   2.896   7.673  1.2087 -2.2925 -0.4205
 8034SOL     OW35560   4.273   2.871   8.986  0.2768  0.1931 -0.6135
 8034SOL    HW135561   4.237   2.795   8.940  1.7265 -0.2759 -0.9905
 8034SOL    HW235562   4.361   2.872   8.948  1.0543 -0.1574  1.1739
 8035SOL     OW35563   2.275   0.453   4.762 -1.3181  0.0488  0.0378
 8035SOL    HW135564   2.340   0.522   4.769 -0.0207 -1.2220  0.4767
 8035SOL    HW235565   2.281   0.407   4.846 -0.1790  1.1790  0.5614
 8036SOL     OW35566   3.210   2.264   3.452 -0.0889 -0.2078  0.1941
 8036SOL    HW135567   3.195   2.199   3.521  1.7873 -1.0039 -0.1140
 8036SOL    HW235568   3.303   2.284   3.463 -0.3141  1.5031 -1.0882
 8037SOL     OW35569   3.360   1.876   4.391  0.0818  0.3759  0.2467
 8037SOL    HW135570   3.440   1.927   4.388 -0.0519  0.4928 -1.2440
 8037SOL    HW235571   3.383   1.799   4.340  0.3931  0.0674  0.8477
 8038SOL     OW35572   0.859   3.200   4.984 -0.1257  0.5080 -0.0789
 8038SOL    HW135573   0.816   3.189   5.068 -2.3600 -1.7996 -1.5320
 8038SOL    HW235574   0.783   3.185   4.928 -0.6300  3.0188 -0.0678
 8039SOL     OW35575   0.179   4.415   6.903  0.0869  0.5725  0.5799
 8039SOL    HW135576   0.262   4.382   6.934  1.0849  2.3693 -0.1583
 8039SOL    HW235577   0.136   4.332   6.881  2.3911 -0.6514  0.7252
 8040SOL     OW35578   4.091   3.653   8.265  0.2714 -0.0419  0.4290
 8040SOL    HW135579   4.013   3.609   8.231 -1.2977  1.6410  1.8567
 8040SOL    HW235580   4.089   3.718   8.195  0.2480 -0.8854 -0.3526
 8041SOL     OW35581   3.808   0.921  10.395  0.0836  0.0334  0.3872
 8041SOL    HW135582   3.869   0.863  10.441 -1.4121 -0.0817  2.2674
 8041SOL    HW235583   3.769   0.967  10.469 -2.9155  0.8576 -1.7245
 8042SOL     OW35584   0.428   2.323   8.107 -0.2348 -0.2566  0.3152
 8042SOL    HW135585   0.493   2.384   8.143 -0.1778  0.1228 -0.4269
 8042SOL    HW235586   0.440   2.344   8.014 -0.6184 -0.3472  0.2461
 8043SOL     OW35587   2.772   0.361   6.181  0.3886 -0.4834 -0.2103
 8043SOL    HW135588   2.784   0.454   6.203  1.9307 -0.7937  0.2146
 8043SOL    HW235589   2.858   0.328   6.206 -0.1678 -0.5101  1.6526
 8044SOL     OW35590   0.184   2.220   3.995  0.3318 -0.8007  0.1954
 8044SOL    HW135591   0.173   2.133   3.959 -0.1688 -0.8145  0.3892
 8044SOL    HW235592   0.093   2.248   4.002  0.5367  0.5377 -2.4594
 8045SOL     OW35593   0.395   0.842   0.286 -0.4324  0.1854 -0.2606
 8045SOL    HW135594   0.453   0.911   0.318 -0.3657 -0.6701  1.4936
 8045SOL    HW235595   0.432   0.814   0.203 -2.9601 -2.3889 -0.5359
 8046SOL     OW35596   4.323   1.417  12.735 -0.2764  0.2078  0.5953
 8046SOL    HW135597   4.399   1.444  12.684 -0.7123 -0.3368 -0.3507
 8046SOL    HW235598   4.317   1.325  12.707  0.3384 -0.0614  1.3498
 8047SOL     OW35599   3.285   3.725   8.281 -0.3206  0.0303  0.1617
 8047SOL    HW135600   3.253   3.635   8.287  0.1547 -0.2126 -0.8284
 8047SOL    HW235601   3.209   3.782   8.292 -0.0718  0.1634  1.1873
 8048SOL     OW35602   1.577   1.964   6.598 -0.6919 -0.2967  0.4301
 8048SOL    HW135603   1.668   1.956   6.624 -0.2644 -0.8595 -1.2331
 8048SOL    HW235604   1.574   1.912   6.518  0.8984 -0.0168  0.2002
 8049SOL     OW35605   2.529   3.703   1.811  0.2031  0.4049 -0.3173
 8049SOL    HW135606   2.442   3.665   1.795  0.4946  0.4938 -2.1931
 8049SOL    HW235607   2.576   3.633   1.856 -2.1185 -0.7008  0.3595
 8050SOL     OW35608   0.460   4.426   1.267  0.1208 -0.2569 -0.4609
 8050SOL    HW135609   0.379   4.473   1.248  0.7161  0.3780 -1.4275
 8050SOL    HW235610   0.429   4.347   1.311  1.7046 -1.1069 -0.9010
 8051SOL     OW35611   0.834   3.595   6.385  0.2066 -0.4101  0.7274
 8051SOL    HW135612   0.747   3.602   6.423  0.0517  0.0601  0.2820
 8051SOL    HW235613   0.824   3.502   6.363  0.7696 -0.9794  2.8185
 8052SOL     OW35614   1.267   0.072   3.352  0.1868 -0.2015 -0.5950
 8052SOL    HW135615   1.359   0.049   3.344  0.6549  1.5443 -0.0626
 8052SOL    HW235616   1.231   4.710   3.315 -2.7617 -0.2248  2.3560
 8053SOL     OW35617   2.793   3.629  14.085  0.2445 -0.0785 -0.2468
 8053SOL    HW135618   2.822   3.583  14.163  1.4435 -0.1796 -0.7450
 8053SOL    HW235619   2.875   3.624  14.036 -0.1958 -0.6861 -0.9358
 8054SOL     OW35620   1.839   0.739   0.136 -0.0335 -0.4191  1.0523
 8054SOL    HW135621   1.820   0.738   0.043  1.6055 -0.3682  0.7265
 8054SOL    HW235622   1.751   0.747   0.172  0.0506  0.3029  1.0908
 8055SOL     OW35623   0.958   1.250   2.269 -0.9745 -0.2267  0.0663
 8055SOL    HW135624   1.014   1.265   2.193  0.0881 -1.0795  0.6781
 8055SOL    HW235625   0.882   1.297   2.234 -0.6674  0.2244  0.0176
 8056SOL     OW35626   1.232   2.333   4.766 -0.4239 -0.0233  0.4975
 8056SOL    HW135627   1.295   2.374   4.825  0.6073  0.0389 -0.6677
 8056SOL    HW235628   1.242   2.244   4.799  0.1799 -0.3594 -0.6024
 8057SOL     OW35629   1.494   1.149   3.798  0.2370  0.3412  0.3921
 8057SOL    HW135630   1.590   1.148   3.798  0.2195 -0.6185 -1.1495
 8057SOL    HW235631   1.470   1.158   3.706 -0.3529  1.8008  0.6882
 8058SOL     OW35632   1.973   2.031  14.871 -0.4894 -0.2242 -0.1581
 8058SOL    HW135633   2.032   1.996  14.937 -0.5448 -1.8945 -1.0113
 8058SOL    HW235634   2.002   2.122  14.860  2.2327 -1.0549  0.1936
 8059SOL     OW35635   3.581   0.275   2.658 -0.1612 -0.4216 -0.3048
 8059SOL    HW135636   3.582   0.254   2.751  0.3487 -0.0466 -0.2239
 8059SOL    HW235637   3.492   0.305   2.639 -0.0457  0.6232  0.8398
 8060SOL     OW35638   4.268   2.586   2.974 -0.7095 -0.5360  0.0576
 8060SOL    HW135639   4.253   2.668   3.020  0.7934 -1.0391  1.4707
 8060SOL    HW235640   4.346   2.602   2.921 -1.9215 -1.2052 -1.9359
 8061SOL     OW35641   1.766   2.502   5.954 -0.1946 -0.3137  0.2002
 8061SOL    HW135642   1.704   2.568   5.985  1.2322 -0.2169  2.9118
 8061SOL    HW235643   1.804   2.479   6.039 -0.3820  1.6919  0.8234
 8062SOL     OW35644   3.983   1.569   6.147  0.3926 -0.0225  0.2637
 8062SOL    HW135645   3.899   1.595   6.184 -0.8108 -1.0950 -1.7422
 8062SOL    HW235646   3.956   1.574   6.055 -3.4392 -0.9166  1.3367
 8063SOL     OW35647   2.306   1.351   0.356  0.4504 -0.2400 -0.3185
 8063SOL    HW135648   2.319   1.349   0.261  1.0798  0.3016 -0.2370
 8063SOL    HW235649   2.396   1.368   0.384 -0.2095  2.2009  0.3241
 8064SOL     OW35650   0.406   1.682   0.620  0.1786 -0.6667  0.3786
 8064SOL    HW135651   0.356   1.670   0.701 -0.6554  1.1606  0.1191
 8064SOL    HW235652   0.462   1.605   0.629 -0.4451 -0.8891  2.2894
 8065SOL     OW35653   2.913   0.827  15.234  0.0366  0.3421  0.5693
 8065SOL    HW135654   2.970   0.822  15.311  2.2865 -1.1606 -1.2114
 8065SOL    HW235655   2.950   0.900  15.184 -2.1616  0.9579 -0.1647
 8066SOL     OW35656   0.218   4.376  14.536 -0.2159 -0.6668 -0.1398
 8066SOL    HW135657   0.193   4.467  14.516 -1.2171 -0.8558  0.2783
 8066SOL    HW235658   0.267   4.394  14.616 -1.1660 -0.7041  0.4437
 8067SOL     OW35659   3.628   3.158  15.274 -0.2442  0.1422  0.3981
 8067SOL    HW135660   3.614   3.241  15.319  0.8692  0.7761 -0.4465
 8067SOL    HW235661   3.710   3.134  15.316 -0.7218 -1.1221  0.6254
 8068SOL     OW35662   3.479   1.785   8.964 -0.2399  0.0447  0.3688
 8068SOL    HW135663   3.396   1.750   8.995  0.7323 -0.3401  2.5596
 8068SOL    HW235664   3.545   1.723   8.995 -0.4866 -1.0198 -1.2733
 8069SOL     OW35665   2.981   3.195   2.325 -0.0646  0.2885  0.4563
 8069SOL    HW135666   2.902   3.200   2.271  1.1386  0.6724 -1.2791
 8069SOL    HW235667   2.989   3.101   2.339 -1.9978 -0.0016 -0.3988
 8070SOL     OW35668   4.467   1.995   6.959 -0.9053 -0.0757 -0.0990
 8070SOL    HW135669   4.506   2.040   7.034  1.3173 -1.7900 -0.2661
 8070SOL    HW235670   4.447   2.072   6.904 -1.4736 -0.5905 -0.6179
 8071SOL     OW35671   2.876   4.153   4.238  0.0677  0.5568  0.0897
 8071SOL    HW135672   2.942   4.186   4.177  2.0799 -1.3326  1.2356
 8071SOL    HW235673   2.884   4.061   4.212  2.5828 -0.0047  2.7634
 8072SOL     OW35674   0.405   3.893   6.987 -0.3431 -0.1803  0.3448
 8072SOL    HW135675   0.356   3.846   7.055  2.6162  0.8406  3.2237
 8072SOL    HW235676   0.421   3.977   7.030 -1.6389 -0.5964  1.6400
 8073SOL     OW35677   4.165   1.957   1.730 -0.5541 -0.1631 -0.4259
 8073SOL    HW135678   4.221   1.924   1.659  2.1926 -0.0289  1.6522
 8073SOL    HW235679   4.145   2.043   1.695 -0.0860 -0.6426 -1.8645
 8074SOL     OW35680   2.482   3.699   3.044 -0.3359  0.4548 -0.3890
 8074SOL    HW135681   2.473   3.679   2.951  0.3847  1.9395 -0.7764
 8074SOL    HW235682   2.462   3.613   3.080  0.4558 -0.2257 -1.6249
 8075SOL     OW35683   3.242   0.793   5.216 -0.4652  0.3280 -0.1893
 8075SOL    HW135684   3.327   0.754   5.195 -0.5872 -0.3076  0.4860
 8075SOL    HW235685   3.189   0.752   5.149 -0.1927  0.1312 -0.2847
 8076SOL     OW35686   1.542   4.053   8.028 -0.0458 -0.8972  0.1976
 8076SOL    HW135687   1.572   3.973   7.984 -0.2528 -1.2449  0.6898
 8076SOL    HW235688   1.532   4.031   8.120  2.5750  0.0588  0.7051
 8077SOL     OW35689   1.804   4.033   4.607 -0.0191  0.2668 -0.0675
 8077SOL    HW135690   1.878   3.997   4.559  0.6503  0.4193  0.8591
 8077SOL    HW235691   1.733   4.036   4.543 -0.4429 -1.1033  0.3525
 8078SOL     OW35692   3.680   4.001   4.460  0.5470 -0.0883 -0.1319
 8078SOL    HW135693   3.669   4.025   4.368 -2.1467 -2.9043 -0.5450
 8078SOL    HW235694   3.707   3.909   4.458  3.3969  0.7586 -0.0306
 8079SOL     OW35695   0.956   2.019  14.553  0.2035  0.4778 -0.5339
 8079SOL    HW135696   0.929   2.108  14.578  1.6984  0.9651 -0.6203
 8079SOL    HW235697   0.872   1.996  14.513 -0.1563 -0.3406  0.7103
 8080SOL     OW35698   4.559   2.477   8.863  0.1525  0.8083  0.9655
 8080SOL    HW135699   4.550   2.514   8.951 -2.5616  0.5564  0.7745
 8080SOL    HW235700   4.546   2.551   8.804  0.8505 -0.8023 -1.1905
 8081SOL     OW35701   3.713   2.736   2.452 -0.3244  0.2368 -0.1856
 8081SOL    HW135702   3.658   2.678   2.505  1.8133  0.8405  2.6961
 8081SOL    HW235703   3.796   2.692   2.433  0.3787  1.0455  0.9939
 8082SOL     OW35704   0.572   1.585   7.539 -0.5518  0.6684 -0.5997
 8082SOL    HW135705   0.486   1.578   7.496  0.6828 -3.4762 -2.3756
 8082SOL    HW235706   0.595   1.678   7.539  0.2976  0.4577  1.2064
 8083SOL     OW35707   3.492   1.960   2.520  0.1371  0.3473 -0.5687
 8083SOL    HW135708   3.433   1.885   2.517  1.1292 -0.4687  0.1407
 8083SOL    HW235709   3.483   1.991   2.610  1.6827  1.3296 -0.7451
 8084SOL     OW35710   0.792   2.438   8.879 -0.0320  0.5926  0.2967
 8084SOL    HW135711   0.744   2.519   8.866  2.0492  1.6126 -0.9928
 8084SOL    HW235712   0.716   2.379   8.887 -0.6546  1.1536 -1.5177
 8085SOL     OW35713   4.536   2.253  10.252 -0.1162 -0.6027  0.3679
 8085SOL    HW135714   4.544   2.236  10.346 -3.3277  2.1655  1.1534
 8085SOL    HW235715   4.493   2.339  10.262  2.7947  0.3053  4.8530
 8086SOL     OW35716   4.635   2.788   5.483  0.1008  0.1267 -0.1866
 8086SOL    HW135717   4.663   2.852   5.549 -0.7258  0.1366  0.1597
 8086SOL    HW235718   4.545   2.778   5.514 -0.1820  0.0848 -1.0244
 8087SOL     OW35719   0.822   1.051  16.842 -0.3731 -0.0426 -0.1061
 8087SOL    HW135720   0.858   1.073  16.927  1.8168 -2.3003 -0.4828
 8087SOL    HW235721   0.897   0.999  16.812 -1.5765 -1.6962 -0.2466
 8088SOL     OW35722   3.588   3.301   6.558 -0.3550  0.0983  0.4008
 8088SOL    HW135723   3.630   3.289   6.472 -0.9407  1.9492 -0.1491
 8088SOL    HW235724   3.514   3.360   6.542  0.6334  0.7862 -1.6379
 8089SOL     OW35725   4.697   4.573  15.863  0.2852 -0.6409 -0.0930
 8089SOL    HW135726   0.022   4.626  15.796  0.8124 -1.0808 -0.0895
 8089SOL    HW235727   0.056   4.530  15.897  1.3920 -0.1184 -1.9234
 8090SOL     OW35728   2.491   3.880   5.853 -0.3095  0.0699  0.1899
 8090SOL    HW135729   2.439   3.888   5.774  0.5631 -2.0097 -0.5874
 8090SOL    HW235730   2.470   3.793   5.887 -1.5544  1.0635  1.9762
 8091SOL     OW35731   2.336   3.466  12.635 -0.2914  0.1955  0.2326
 8091SOL    HW135732   2.317   3.420  12.716  0.5136  1.3833  1.0926
 8091SOL    HW235733   2.333   3.556  12.668 -1.1911 -1.4608  4.6112
 8092SOL     OW35734   1.227   4.402   0.275 -0.5419  0.1741 -0.4593
 8092SOL    HW135735   1.181   4.448   0.344 -0.5149 -1.1694  0.4649
 8092SOL    HW235736   1.217   4.479   0.219  0.1193 -0.5868 -1.6373
 8093SOL     OW35737   1.015   2.782   4.869 -0.1124  0.4032 -0.5059
 8093SOL    HW135738   1.056   2.867   4.852 -1.0609  0.9299 -0.1222
 8093SOL    HW235739   0.986   2.787   4.960 -1.0252  0.2849 -0.7913
 8094SOL     OW35740   2.745   1.585   5.382 -0.6127  0.3433 -0.2632
 8094SOL    HW135741   2.739   1.517   5.449 -3.8771  0.5329 -0.3476
 8094SOL    HW235742   2.774   1.654   5.441  0.2269  0.4753 -0.8345
 8095SOL     OW35743   0.325   1.369   5.807  0.5864  0.0184  0.0294
 8095SOL    HW135744   0.308   1.316   5.729  0.3081  1.6725 -1.0401
 8095SOL    HW235745   0.400   1.324   5.846  1.5141  1.8484  0.3876
 8096SOL     OW35746   2.387   4.450   8.116 -0.0342  0.3672  0.4626
 8096SOL    HW135747   2.409   4.451   8.023  0.1072  1.6580  0.5000
 8096SOL    HW235748   2.342   4.368   8.136 -1.2784  0.9533  0.0634
 8097SOL     OW35749   4.252   4.350   0.507  0.6669  0.1071 -0.0406
 8097SOL    HW135750   4.254   4.436   0.548  2.4186 -1.4772  3.1409
 8097SOL    HW235751   4.161   4.338   0.536  0.7767  0.2238  0.3478
 8098SOL     OW35752   4.503   3.638   5.720  0.2078 -0.2198 -0.0454
 8098SOL    HW135753   4.591   3.651   5.684  0.0363 -1.6051 -0.9622
 8098SOL    HW235754   4.450   3.660   5.644  1.7645  3.2089 -0.1490
 8099SOL     OW35755   1.471   2.367   6.700  0.4747 -1.1489  0.5469
 8099SOL    HW135756   1.444   2.385   6.790  0.6589  1.4294  0.0691
 8099SOL    HW235757   1.554   2.323   6.716  1.3104  0.1924 -0.1127
 8100SOL     OW35758   4.535   3.684  16.176 -0.3744 -0.5370 -0.1506
 8100SOL    HW135759   4.521   3.589  16.177  0.1699 -0.6544 -2.4795
 8100SOL    HW235760   4.474   3.717  16.241 -0.7312 -1.1871 -0.1576
 8101SOL     OW35761   3.598   4.553  10.131 -0.6346  0.7393  0.3299
 8101SOL    HW135762   3.541   4.555  10.054 -0.1028 -0.3871 -0.1039
 8101SOL    HW235763   3.568   4.628  10.182 -1.5651  0.5357  0.0840
 8102SOL     OW35764   1.588   3.789  10.610  0.5151 -0.0061  0.1536
 8102SOL    HW135765   1.561   3.753  10.694  0.3866 -1.3401 -0.4610
 8102SOL    HW235766   1.589   3.885  10.613 -0.9340  0.0643 -1.4552
 8103SOL     OW35767   1.449   2.721   6.521 -0.1356 -0.5828 -0.0071
 8103SOL    HW135768   1.476   2.708   6.612 -0.6076  0.0521  0.2252
 8103SOL    HW235769   1.354   2.714   6.529  0.0520 -2.3668  0.7413
 8104SOL     OW35770   4.352   3.768   2.168 -0.0334 -0.4042 -0.6205
 8104SOL    HW135771   4.396   3.781   2.084  0.7302  1.2101  0.0301
 8104SOL    HW235772   4.302   3.850   2.166 -0.0017 -0.3599  0.1934
 8105SOL     OW35773   2.240   3.739   7.141 -0.3487  0.0684 -0.8553
 8105SOL    HW135774   2.303   3.775   7.079 -0.2884  1.3691 -0.0310
 8105SOL    HW235775   2.287   3.657   7.160 -1.2111 -0.6800 -1.8939
 8106SOL     OW35776   4.351   1.736   8.410  0.0699 -0.0341 -0.0954
 8106SOL    HW135777   4.319   1.789   8.337 -1.0446 -1.7820 -0.8793
 8106SOL    HW235778   4.435   1.705   8.376  0.0637  1.1707 -1.2272
 8107SOL     OW35779   1.654   1.821  14.275 -0.5497  0.1997  0.5371
 8107SOL    HW135780   1.604   1.742  14.256 -0.5992  0.6478 -1.1415
 8107SOL    HW235781   1.600   1.893  14.242 -0.2946 -0.2354 -0.8104
 8108SOL     OW35782   3.333   2.846   0.620  0.5184  0.1572 -0.0004
 8108SOL    HW135783   3.302   2.783   0.685  2.1764  0.2888  0.9059
 8108SOL    HW235784   3.306   2.931   0.657 -2.0501 -0.4718 -0.4175
 8109SOL     OW35785   1.641   3.568   4.992  0.0860 -0.7489 -0.1364
 8109SOL    HW135786   1.670   3.615   4.914  1.9458 -3.3192 -1.0237
 8109SOL    HW235787   1.546   3.570   4.986  0.0651 -0.5229  0.2846
 8110SOL     OW35788   0.988   1.798  10.992 -0.2943  0.0104 -0.3161
 8110SOL    HW135789   0.948   1.792  11.078  1.8476  2.3005  0.8437
 8110SOL    HW235790   1.046   1.722  10.991  1.0504  1.0317  0.6970
 8111SOL     OW35791   0.188   1.317  16.256 -0.0771 -0.8771 -0.8057
 8111SOL    HW135792   0.161   1.260  16.183  0.4942 -1.0148 -0.9141
 8111SOL    HW235793   0.136   1.278  16.326  0.0185  0.7500  0.1544
 8112SOL     OW35794   2.137   1.085   7.058 -0.5741 -0.2574 -0.3154
 8112SOL    HW135795   2.211   1.080   7.118  0.0984  3.6887 -0.7887
 8112SOL    HW235796   2.136   1.181   7.063  2.3273 -0.2569  0.5574
 8113SOL     OW35797   2.644   1.292   7.295 -0.3412  0.6020  0.3717
 8113SOL    HW135798   2.601   1.363   7.343  0.1183  1.2085 -0.1163
 8113SOL    HW235799   2.639   1.322   7.204 -1.8005 -1.0219 -0.0838
 8114SOL     OW35800   2.232   0.284   4.167 -0.1738  0.0176 -0.4875
 8114SOL    HW135801   2.247   0.332   4.249  0.3064  1.1457 -1.2415
 8114SOL    HW235802   2.208   0.204   4.214  0.7516  1.2241  2.0700
 8115SOL     OW35803   1.191   4.549   7.309 -0.3092 -0.0343  0.2817
 8115SOL    HW135804   1.216   4.616   7.372 -0.8261  0.1364  0.3085
 8115SOL    HW235805   1.097   4.552   7.329  0.0659 -1.5155  2.2942
 8116SOL     OW35806   4.551   0.710   4.449  0.7828 -0.3608  0.5396
 8116SOL    HW135807   4.578   0.697   4.540 -0.6811 -0.9982  0.8786
 8116SOL    HW235808   4.630   0.751   4.412  1.6941 -1.6109  1.1049
 8117SOL     OW35809   2.574   2.131   5.793  0.1854  0.3965  0.3536
 8117SOL    HW135810   2.664   2.162   5.790  0.4945 -0.2547  2.4977
 8117SOL    HW235811   2.575   2.063   5.727 -3.0498 -0.6814  1.4116
 8118SOL     OW35812   1.181   1.525   3.148  0.7525  0.1422 -0.3152
 8118SOL    HW135813   1.268   1.484   3.144  0.6203 -0.0959 -0.8107
 8118SOL    HW235814   1.160   1.550   3.058  1.6319  1.9128 -0.0205
 8119SOL     OW35815   2.972   4.358   3.394  0.2547  0.2965  0.0314
 8119SOL    HW135816   2.937   4.433   3.442 -1.3167 -0.5228  0.1842
 8119SOL    HW235817   2.928   4.362   3.309  3.6836 -0.0080 -1.7322
 8120SOL     OW35818   1.334   2.010  16.288 -0.2383  0.4692 -0.7057
 8120SOL    HW135819   1.268   1.950  16.325 -0.0802  1.0041  0.4470
 8120SOL    HW235820   1.386   1.954  16.231  0.2200  0.7285 -0.5369
 8121SOL     OW35821   0.305   1.938   8.198  0.7494 -0.2900  0.2285
 8121SOL    HW135822   0.345   1.871   8.142 -0.5227  0.2227 -1.2867
 8121SOL    HW235823   0.370   1.977   8.257  1.6374 -0.1815 -0.8364
 8122SOL     OW35824   4.393   0.264   9.864 -0.1781 -0.8082 -0.8645
 8122SOL    HW135825   4.481   0.245   9.896 -0.3962 -1.9036 -0.9091
 8122SOL    HW235826   4.353   0.266   9.951  0.6790  0.5627 -0.5101
 8123SOL     OW35827   1.442   3.001   6.711  0.1719 -0.6675 -0.1314
 8123SOL    HW135828   1.368   2.958   6.669  0.2113 -0.4891 -0.3862
 8123SOL    HW235829   1.468   2.932   6.772  1.5718 -0.5972 -0.6473
 8124SOL     OW35830   1.554   2.533  15.210 -0.6959  0.1531 -0.4449
 8124SOL    HW135831   1.574   2.533  15.116 -0.6631  0.5096 -0.4366
 8124SOL    HW235832   1.476   2.477  15.210 -1.3201  1.0207 -0.8093
 8125SOL     OW35833   0.037   3.664   7.040  0.0584 -0.0726 -0.0186
 8125SOL    HW135834   4.700   3.672   7.118 -0.4504 -0.2690 -0.3696
 8125SOL    HW235835   0.094   3.741   7.043  1.6423 -1.2892  1.1729
 8126SOL     OW35836   1.373   1.893   3.898  0.8076 -0.3109 -0.3264
 8126SOL    HW135837   1.382   1.849   3.814  2.3763 -0.0565 -0.2929
 8126SOL    HW235838   1.436   1.966   3.895  0.4754 -0.0398 -0.7793
 8127SOL     OW35839   4.317   1.393   6.463 -0.3269 -0.1346 -0.2062
 8127SOL    HW135840   4.233   1.427   6.493 -0.0400  1.5525 -1.3075
 8127SOL    HW235841   4.358   1.468   6.419  1.3490 -0.9222 -0.0172
 8128SOL     OW35842   3.217   1.351   4.650 -0.6844  0.2125  0.2115
 8128SOL    HW135843   3.178   1.265   4.638 -1.3092  1.0003 -3.4733
 8128SOL    HW235844   3.310   1.335   4.631 -1.8012 -2.2357 -3.0683
 8129SOL     OW35845   1.478   2.188   2.361 -0.1023 -0.2630  0.3967
 8129SOL    HW135846   1.440   2.110   2.320  0.6481  0.3364 -1.4525
 8129SOL    HW235847   1.539   2.196   2.287 -0.6200 -0.0977 -0.0118
 8130SOL     OW35848   1.897   0.527   9.521 -0.2851 -0.7015  0.5325
 8130SOL    HW135849   1.876   0.499   9.432  1.0689 -2.3392  0.7332
 8130SOL    HW235850   1.986   0.561   9.528  0.1815 -1.9306  0.5305
 8131SOL     OW35851   4.463   2.316   9.873  0.5316  0.3009 -0.1498
 8131SOL    HW135852   4.450   2.249   9.806  0.9554 -0.6192  0.6853
 8131SOL    HW235853   4.380   2.365   9.874  0.4929  0.2388 -1.8335
 8132SOL     OW35854   2.079   0.415  11.726 -0.1587 -0.0768  0.8028
 8132SOL    HW135855   2.161   0.427  11.679 -0.7547 -4.0788 -1.2437
 8132SOL    HW235856   2.013   0.420  11.657 -2.5850 -2.5971  2.8934
 8133SOL     OW35857   2.929   4.479   2.150  0.0541 -0.2976 -0.1113
 8133SOL    HW135858   2.904   4.481   2.243 -0.2708  0.8506 -0.2179
 8133SOL    HW235859   2.844   4.493   2.107 -0.6780 -4.0383  0.1138
 8134SOL     OW35860   0.860   0.321   1.880  0.0960  0.1090  0.6975
 8134SOL    HW135861   0.906   0.240   1.857 -0.5062 -0.1670  0.4656
 8134SOL    HW235862   0.911   0.379   1.823 -0.0976 -1.2711 -0.8724
 8135SOL     OW35863   3.405   0.912   1.504  0.4029 -0.8176 -0.0582
 8135SOL    HW135864   3.438   0.874   1.422 -0.5345 -0.8059 -0.4507
 8135SOL    HW235865   3.487   0.933   1.547  0.5644 -0.5315 -0.5029
 8136SOL     OW35866   1.984   2.358   4.474  0.2748 -0.1606  0.3896
 8136SOL    HW135867   1.923   2.314   4.534 -1.0909  0.4313 -0.5575
 8136SOL    HW235868   2.038   2.395   4.544  2.5113  0.6013 -1.7370
 8137SOL     OW35869   2.052   3.315   6.551  0.2311  0.3457 -0.3195
 8137SOL    HW135870   2.068   3.240   6.493  0.4666 -2.3306  3.2592
 8137SOL    HW235871   1.958   3.304   6.562  0.4791 -0.7867  0.5991
 8138SOL     OW35872   0.151   1.360  10.645  0.2448 -0.3426 -0.1865
 8138SOL    HW135873   0.121   1.393  10.560 -0.8202  0.2464  0.4082
 8138SOL    HW235874   0.217   1.424  10.670 -2.6811  3.2321 -1.6309
 8139SOL     OW35875   3.391   0.335  15.676 -0.4959 -0.2362 -0.1972
 8139SOL    HW135876   3.329   0.370  15.612 -0.6230 -0.9660 -0.4719
 8139SOL    HW235877   3.477   0.361  15.645  0.3631 -0.5432  1.9324
 8140SOL     OW35878   2.864   0.540  17.355 -0.6130 -0.4351 -0.2419
 8140SOL    HW135879   2.932   0.479  17.384 -0.8092 -0.2161  0.6889
 8140SOL    HW235880   2.787   0.488  17.379 -0.4629 -0.2493  0.6220
 8141SOL     OW35881   3.741   3.309  12.034 -0.3052 -0.5792  0.5455
 8141SOL    HW135882   3.766   3.321  12.125  0.6528  0.4051  0.1510
 8141SOL    HW235883   3.815   3.354  11.993  1.4952 -2.3613  1.8688
 8142SOL     OW35884   1.076   2.102   6.497  0.2922  0.6337  0.5683
 8142SOL    HW135885   1.114   2.178   6.541  1.7738  1.1304 -1.5792
 8142SOL    HW235886   1.082   2.124   6.404 -0.6344  0.4051  0.4565
 8143SOL     OW35887   3.861   4.571   2.833  0.2014 -0.0999 -0.3633
 8143SOL    HW135888   3.772   4.543   2.810  0.0211 -1.4472  2.0064
 8143SOL    HW235889   3.892   4.489   2.872 -0.4173 -0.0770  0.1750
 8144SOL     OW35890   3.896   3.343   4.525  0.5387 -0.2889  0.3388
 8144SOL    HW135891   3.905   3.254   4.560 -0.2703 -2.1235 -4.1134
 8144SOL    HW235892   3.915   3.400   4.599 -0.9543  1.2690 -0.4789
 8145SOL     OW35893   0.595   3.216   2.743 -0.2529  0.1981 -0.0775
 8145SOL    HW135894   0.527   3.248   2.684 -0.2062  0.9343  0.2632
 8145SOL    HW235895   0.616   3.137   2.693  0.1414  1.0595 -1.2736
 8146SOL     OW35896   2.823   2.365  10.942  0.5680  0.3643  0.3601
 8146SOL    HW135897   2.856   2.334  11.026 -1.0002  1.4172  1.3539
 8146SOL    HW235898   2.853   2.301  10.877  0.5391 -0.8756  1.5945
 8147SOL     OW35899   1.446   3.596   4.325 -0.4059 -0.1215  0.7608
 8147SOL    HW135900   1.428   3.526   4.389  0.7687 -0.8342  0.3163
 8147SOL    HW235901   1.502   3.657   4.374 -1.0131  1.7159 -0.8600
 8148SOL     OW35902   3.947   0.897   4.442 -0.1139 -0.6855  0.0894
 8148SOL    HW135903   4.019   0.835   4.434  1.3408  1.3747 -3.0537
 8148SOL    HW235904   3.878   0.862   4.387  1.2045 -1.5387 -1.0219
 8149SOL     OW35905   2.755   1.504   6.225 -0.2673 -0.1356  0.6641
 8149SOL    HW135906   2.766   1.411   6.242  2.9420  0.5242  2.2199
 8149SOL    HW235907   2.672   1.498   6.178  1.3814 -0.6216 -2.2166
 8150SOL     OW35908   0.148   1.175  16.627  0.2112  0.2788 -0.0133
 8150SOL    HW135909   0.215   1.243  16.628  1.8892 -1.3247 -1.9205
 8150SOL    HW235910   0.092   1.209  16.556  0.0577 -0.2186 -0.1320
 8151SOL     OW35911   4.698   2.369   4.917 -0.5716 -0.3741  0.1182
 8151SOL    HW135912   4.682   2.436   4.850 -1.7135 -2.3254 -1.5688
 8151SOL    HW235913   0.068   2.345   4.892  0.1318  1.6299  0.7200
 8152SOL     OW35914   0.334   3.598  13.334 -0.0197  0.2436 -0.4633
 8152SOL    HW135915   0.363   3.668  13.275  0.5882 -1.1316 -1.8094
 8152SOL    HW235916   0.248   3.632  13.359 -0.3642 -1.2514  0.3678
 8153SOL     OW35917   3.812   2.859  15.525 -0.2333 -0.3141 -0.1395
 8153SOL    HW135918   3.721   2.832  15.540 -0.2090 -0.7249 -0.7702
 8153SOL    HW235919   3.804   2.893  15.436 -1.0366  0.6335  0.2967
 8154SOL     OW35920   2.428   1.627   6.363  0.0419 -0.1445 -0.5875
 8154SOL    HW135921   2.457   1.711   6.326  0.0001  0.4966  0.8599
 8154SOL    HW235922   2.417   1.577   6.282  0.2110 -1.2717  0.0940
 8155SOL     OW35923   4.121   1.257   3.279  0.0367  0.1967  0.3623
 8155SOL    HW135924   4.155   1.346   3.271 -2.0775  0.8063 -1.6210
 8155SOL    HW235925   4.166   1.231   3.359  0.0072  0.2670  0.4019
 8156SOL     OW35926   0.698   2.878  10.945 -0.2038  0.3544 -0.3262
 8156SOL    HW135927   0.679   2.789  10.975  2.3988 -0.4210 -1.0414
 8156SOL    HW235928   0.775   2.869  10.890 -1.1323  1.8838 -1.8779
 8157SOL     OW35929   4.077   0.013   2.767  0.5792 -0.1786  0.3751
 8157SOL    HW135930   4.005   4.678   2.801 -1.8667  2.7306 -0.1741
 8157SOL    HW235931   4.107   4.676   2.695 -0.7336 -3.6148  2.4707
 8158SOL     OW35932   0.543   0.801  14.031 -0.3930  0.0174  0.0575
 8158SOL    HW135933   0.534   0.720  13.981 -2.3109  1.9400 -2.7097
 8158SOL    HW235934   0.634   0.819  14.006 -0.1490 -1.1384  0.1157
 8159SOL     OW35935   1.565   0.788   1.982 -0.0738 -0.0508 -0.1130
 8159SOL    HW135936   1.543   0.716   2.040 -0.9700 -0.0867 -0.4976
 8159SOL    HW235937   1.577   0.729   1.907 -0.5714 -3.3598  2.3958
 8160SOL     OW35938   3.463   0.914   0.757 -0.0384 -0.4910 -0.0259
 8160SOL    HW135939   3.481   0.947   0.670 -1.5895  0.1164 -0.1194
 8160SOL    HW235940   3.518   0.836   0.766 -0.9087 -0.9080  1.8154
 8161SOL     OW35941   1.268   3.997   4.217 -0.2976 -0.2496  0.6681
 8161SOL    HW135942   1.255   4.084   4.253  1.1707 -0.6982  2.3248
 8161SOL    HW235943   1.251   3.933   4.287  0.8163 -1.4763 -0.1654
 8162SOL     OW35944   3.612   4.628   7.851  0.1953  0.2119  0.9547
 8162SOL    HW135945   3.665   4.572   7.795  0.0675  4.6489 -3.6094
 8162SOL    HW235946   3.663   4.708   7.836 -0.1453  0.1729 -0.4458
 8163SOL     OW35947   2.135   4.481   7.815 -0.1984  0.2953  0.6052
 8163SOL    HW135948   2.223   4.516   7.830  0.3728 -1.7358  2.0450
 8163SOL    HW235949   2.108   4.459   7.904 -0.0294  0.8366  0.7907
 8164SOL     OW35950   3.211   2.529  10.873  0.4494  0.1237 -0.1412
 8164SOL    HW135951   3.150   2.475  10.925  0.8784  2.0502  2.3573
 8164SOL    HW235952   3.258   2.573  10.944  1.6039  1.3160 -1.6745
 8165SOL     OW35953   3.543   3.598   0.856 -0.3518 -0.7253  0.3061
 8165SOL    HW135954   3.534   3.544   0.778  1.5894 -1.8533  0.8718
 8165SOL    HW235955   3.636   3.621   0.866 -0.3512 -1.4623  1.9489
 8166SOL     OW35956   3.069   2.550   3.120 -0.0469 -0.4235 -0.0754
 8166SOL    HW135957   3.094   2.622   3.178 -1.0629 -0.2578  0.1660
 8166SOL    HW235958   2.973   2.556   3.126  0.1890 -1.4525  4.4872
 8167SOL     OW35959   3.188   4.250   9.274  0.1652 -0.2065  0.2658
 8167SOL    HW135960   3.179   4.345   9.278 -1.4973 -0.3246 -0.3986
 8167SOL    HW235961   3.111   4.212   9.230  1.3204 -0.0359 -1.9078
 8168SOL     OW35962   2.531   1.052   6.738 -0.2256  0.2209  0.2783
 8168SOL    HW135963   2.494   1.136   6.711  0.4701  0.4580  0.0617
 8168SOL    HW235964   2.457   0.991   6.736 -0.8079  0.9504 -0.0467
 8169SOL     OW35965   0.590   0.262  13.895 -0.1052  0.5708  0.2839
 8169SOL    HW135966   0.667   0.257  13.951  1.3067  4.9695 -1.2372
 8169SOL    HW235967   0.616   0.206  13.822  0.8806  0.4197  0.7568
 8170SOL     OW35968   2.032   2.394  10.926  0.5692  0.3277 -0.0070
 8170SOL    HW135969   2.124   2.384  10.952  0.6567 -0.1443 -0.5122
 8170SOL    HW235970   2.034   2.391  10.830  0.0737 -1.5658  0.0571
 8171SOL     OW35971   3.801   3.116   7.665 -0.3519  0.0391 -0.6608
 8171SOL    HW135972   3.706   3.127   7.656 -0.8067 -0.8629  3.2433
 8171SOL    HW235973   3.806   3.070   7.749 -1.6557  0.7328 -0.2071
 8172SOL     OW35974   0.493   1.044   8.140 -0.4029 -0.8233 -0.3179
 8172SOL    HW135975   0.507   0.972   8.202 -0.3446 -0.4320  0.1274
 8172SOL    HW235976   0.443   1.112   8.187  1.6582 -0.3858  1.2526
 8173SOL     OW35977   3.086   0.699   5.604  0.1176 -0.8969 -0.2559
 8173SOL    HW135978   3.062   0.606   5.607 -3.0793 -0.2202 -3.9142
 8173SOL    HW235979   3.017   0.734   5.660  0.1116 -1.5758  0.1661
 8174SOL     OW35980   3.235   0.925   8.764 -0.3556 -0.2597 -0.0278
 8174SOL    HW135981   3.179   0.877   8.825  1.6804 -0.5651  1.6106
 8174SOL    HW235982   3.177   0.993   8.731  0.0464  0.2547  0.3237
 8175SOL     OW35983   2.557   3.948   5.009 -0.3881 -0.4869  0.2181
 8175SOL    HW135984   2.532   4.041   5.013  0.6882 -0.1760 -0.1035
 8175SOL    HW235985   2.479   3.917   4.962 -0.8246  1.4258 -0.3298
 8176SOL     OW35986   1.449   3.418   8.171  0.4234  0.0199  0.2203
 8176SOL    HW135987   1.462   3.400   8.264  2.7072  0.7124  0.0355
 8176SOL    HW235988   1.464   3.333   8.130  0.9705  0.4413 -0.4476
 8177SOL     OW35989   3.127   1.993   5.860 -0.0607  0.2314 -0.4941
 8177SOL    HW135990   3.180   2.005   5.782  3.0118 -2.3479  1.1706
 8177SOL    HW235991   3.153   1.914   5.909  1.8419  0.3695 -1.2873
 8178SOL     OW35992   4.094   1.604  10.529  0.5280 -0.1154  0.3006
 8178SOL    HW135993   4.076   1.528  10.585 -1.4296 -0.0623 -0.2648
 8178SOL    HW235994   4.089   1.674  10.595 -1.1589  2.1850 -2.2462
 8179SOL     OW35995   1.422   4.208   5.958  0.2098  0.1968  0.2963
 8179SOL    HW135996   1.426   4.135   6.020  1.8385  0.3208  0.3338
 8179SOL    HW235997   1.495   4.183   5.901 -0.1543 -0.9843  0.3576
 8180SOL     OW35998   2.319   3.542  14.026  0.5945 -0.2474  0.4352
 8180SOL    HW135999   2.353   3.457  14.055  0.0466 -0.7646 -0.4288
 8180SOL    HW236000   2.406   3.575  14.002  1.3346 -2.6565 -0.2312
 8181SOL     OW36001   1.909   2.865  17.599 -0.2511 -0.0112 -0.0208
 8181SOL    HW136002   1.893   2.774  17.625 -1.0682 -0.2780 -1.4934
 8181SOL    HW236003   1.974   2.879  17.668  0.8638 -1.3903 -0.7842
 8182SOL     OW36004   0.672   3.445   8.485  0.7373  0.0995 -0.4869
 8182SOL    HW136005   0.611   3.515   8.460  1.5319  0.3866 -1.6590
 8182SOL    HW236006   0.755   3.493   8.494  0.5274  0.8862 -2.4865
 8183SOL     OW36007   4.678   2.991   2.829 -0.5522  0.1449 -0.3623
 8183SOL    HW136008   4.683   3.087   2.831  0.8752  0.0562 -0.1042
 8183SOL    HW236009   4.595   2.981   2.876 -1.0143 -1.8803 -1.6306
 8184SOL     OW36010   0.273   1.520   6.113  0.1135  0.1632  0.1146
 8184SOL    HW136011   0.360   1.536   6.076  1.0932  0.8074  2.6451
 8184SOL    HW236012   0.222   1.587   6.068  0.8750 -0.0717 -1.0984
 8185SOL     OW36013   0.316   1.479   5.175 -0.3197  0.3173 -0.2726
 8185SOL    HW136014   0.284   1.509   5.260  1.0543 -0.5329  0.5280
 8185SOL    HW236015   0.340   1.388   5.189 -0.3050  0.2076 -0.9725
 8186SOL     OW36016   3.324   4.211   6.653 -0.0140 -0.4022 -0.3364
 8186SOL    HW136017   3.321   4.177   6.742  3.4695  0.3579  0.0999
 8186SOL    HW236018   3.379   4.288   6.670 -2.2780  0.6736  2.0352
 8187SOL     OW36019   3.934   2.467   7.865  0.4282 -0.2809 -0.0529
 8187SOL    HW136020   4.025   2.495   7.872  0.6886 -1.4979  1.4111
 8187SOL    HW236021   3.922   2.454   7.771 -0.1780 -1.0804  0.1405
 8188SOL     OW36022   3.919   0.815   8.642  0.1930 -0.5985  0.2461
 8188SOL    HW136023   3.858   0.818   8.568 -0.1251 -0.2634  0.5235
 8188SOL    HW236024   3.936   0.907   8.658 -5.7908  0.3674  0.9465
 8189SOL     OW36025   3.526   1.137   3.848 -0.1942  0.1187  0.7054
 8189SOL    HW136026   3.520   1.066   3.784  1.0685  0.9192 -0.3170
 8189SOL    HW236027   3.622   1.142   3.857 -0.1601 -1.1086  1.0856
 8190SOL     OW36028   3.428   2.049   4.115  0.0783 -0.4797  0.4685
 8190SOL    HW136029   3.391   2.024   4.030  3.5979 -1.8693 -0.6328
 8190SOL    HW236030   3.522   2.062   4.109  0.0019 -0.1423 -0.0082
 8191SOL     OW36031   4.493   2.312   9.267 -0.2788  0.1296  0.0038
 8191SOL    HW136032   4.518   2.398   9.234 -1.2085  0.0998 -0.7742
 8191SOL    HW236033   4.566   2.287   9.324  1.4176 -0.5502 -2.4798
 8192SOL     OW36034   3.221   3.057   6.668  0.3905  0.2664 -0.0901
 8192SOL    HW136035   3.259   3.145   6.668  1.7629 -0.3156 -1.5480
 8192SOL    HW236036   3.131   3.077   6.643  0.2910  1.5712  1.2779
 8193SOL     OW36037   2.152   3.492  11.912  0.0526 -0.2004 -0.0347
 8193SOL    HW136038   2.229   3.470  11.860  0.2315 -0.0585  0.1635
 8193SOL    HW236039   2.159   3.431  11.986 -0.8889  1.0692  1.1083
 8194SOL     OW36040   0.658   2.328  12.263  0.0940 -0.1100  0.4247
 8194SOL    HW136041   0.592   2.361  12.324 -1.3575 -0.7246 -0.8110
 8194SOL    HW236042   0.711   2.289  12.332  0.9184  0.3047  0.0213
 8195SOL     OW36043   1.832   2.028   8.200 -0.0968  0.0393  0.0595
 8195SOL    HW136044   1.834   1.977   8.281  2.7100  0.4452  0.2532
 8195SOL    HW236045   1.850   2.116   8.234 -0.1910 -0.3862  1.2007
 8196SOL     OW36046   3.691   0.058   4.941  0.3608  0.2977 -0.0846
 8196SOL    HW136047   3.672   4.683   4.939  2.1340 -0.0456 -0.1986
 8196SOL    HW236048   3.705   0.074   4.847  1.0344 -1.9516 -0.3448
 8197SOL     OW36049   1.263   1.390   3.509 -0.3147 -0.0084 -0.0078
 8197SOL    HW136050   1.249   1.426   3.597 -0.9909 -0.1959 -0.0385
 8197SOL    HW236051   1.328   1.455   3.483  0.8240 -0.6318  1.2816
 8198SOL     OW36052   4.286   1.927   9.849 -0.0240 -0.3169 -0.5228
 8198SOL    HW136053   4.317   1.951   9.936  1.3587 -1.1595 -0.7873
 8198SOL    HW236054   4.329   1.999   9.802 -0.4898  0.7402  0.6797
 8199SOL     OW36055   4.182   2.637   7.208 -0.2994  0.2864  0.5901
 8199SOL    HW136056   4.235   2.603   7.135 -1.6696 -1.3377  0.3709
 8199SOL    HW236057   4.102   2.586   7.205 -0.0243 -0.1435  0.5710
 8200SOL     OW36058   1.510   1.589  15.730 -0.3458 -0.2362  0.3784
 8200SOL    HW136059   1.588   1.537  15.714  0.3944  1.0939 -0.2708
 8200SOL    HW236060   1.447   1.520  15.753 -1.3108 -0.8432 -4.1320
 8201SOL     OW36061   0.266   4.494   0.065 -0.4045 -0.1172  0.2573
 8201SOL    HW136062   0.225   4.578   0.087  0.0223  0.5890 -1.6274
 8201SOL    HW236063   0.231   4.481  17.656  0.1914  1.8418 -0.2609
 8202SOL     OW36064   1.510   3.258   6.621  0.7647 -0.5088 -0.2266
 8202SOL    HW136065   1.455   3.191   6.663  0.9396 -0.3277  0.2973
 8202SOL    HW236066   1.447   3.324   6.593  1.6643  0.1018 -0.7863
 8203SOL     OW36067   4.484   2.964   3.042  0.4245  0.5655  0.7999
 8203SOL    HW136068   4.505   3.041   3.095  0.8449 -0.4683  2.1349
 8203SOL    HW236069   4.400   2.997   3.010  1.0316  1.3454  0.0040
 8204SOL     OW36070   0.177   0.643   1.468  0.3903 -0.6920  0.0015
 8204SOL    HW136071   0.204   0.734   1.482  0.2386 -0.6109 -0.2454
 8204SOL    HW236072   0.091   0.652   1.428  1.1456  2.3086 -0.9566
 8205SOL     OW36073   1.449   0.071  11.666  0.2714 -0.2987  0.0671
 8205SOL    HW136074   1.366   0.082  11.620  1.0207 -1.3275 -1.5115
 8205SOL    HW236075   1.421   0.099  11.753  1.8293 -0.2734  0.5624
 8206SOL     OW36076   2.791   0.906   6.620  0.0160 -0.1582 -0.7797
 8206SOL    HW136077   2.703   0.894   6.658  0.5663  1.4724  1.0078
 8206SOL    HW236078   2.837   0.914   6.703 -0.5342 -0.4151 -0.4491
 8207SOL     OW36079   0.847   3.551   4.058  0.1602 -0.4776 -0.2499
 8207SOL    HW136080   0.781   3.542   4.127  0.5870 -0.3048  0.1813
 8207SOL    HW236081   0.881   3.640   4.067  0.5754 -0.7665  1.1382
 8208SOL     OW36082   0.823   2.448   8.565 -0.4568 -0.4906  0.6860
 8208SOL    HW136083   0.756   2.410   8.621 -0.5096 -0.2879  0.7607
 8208SOL    HW236084   0.842   2.531   8.608 -1.5019 -0.2737  0.7235
 8209SOL     OW36085   3.818   4.000  17.437 -0.2895  0.1735 -0.2395
 8209SOL    HW136086   3.805   4.056  17.514  2.6618 -1.4783  1.4499
 8209SOL    HW236087   3.808   4.068  17.370 -0.7940 -0.2283 -0.5674
 8210SOL     OW36088   3.377   0.066   7.773 -0.0936 -0.0582 -0.6292
 8210SOL    HW136089   3.292   0.045   7.811  1.0776 -0.6428  1.6434
 8210SOL    HW236090   3.429   4.719   7.818 -2.9697 -1.1352  1.1128
 8211SOL     OW36091   3.473   0.859   7.072  0.0947  0.0953  0.2187
 8211SOL    HW136092   3.522   0.913   7.010  0.3962  0.2067  0.5476
 8211SOL    HW236093   3.507   0.898   7.153  0.0338 -0.8986  0.7294
 8212SOL     OW36094   4.077   1.704   2.814  0.2762 -0.3611 -0.4056
 8212SOL    HW136095   4.148   1.731   2.756 -0.7028  1.3786 -0.7771
 8212SOL    HW236096   3.996   1.725   2.769  0.3647 -0.4197 -0.5922
 8213SOL     OW36097   2.703   3.464   7.248 -0.0623  0.0683  0.3670
 8213SOL    HW136098   2.749   3.508   7.177  0.7902 -1.2541  0.0917
 8213SOL    HW236099   2.733   3.373   7.253  0.1461  0.0789 -0.7508
 8214SOL     OW36100   1.005   4.292  11.711  0.6378 -0.5940  0.4908
 8214SOL    HW136101   1.076   4.281  11.648  0.4024  0.3054  0.0708
 8214SOL    HW236102   1.042   4.330  11.790  1.7173 -3.2183  1.2413
 8215SOL     OW36103   0.252   3.998   2.186 -0.5041  0.0952 -0.0828
 8215SOL    HW136104   0.179   3.999   2.248  0.6432 -1.6909  1.3142
 8215SOL    HW236105   0.211   3.954   2.111  0.6313  1.2844 -1.3956
 8216SOL     OW36106   0.899   3.339  12.314  0.7371 -0.0371 -0.4417
 8216SOL    HW136107   0.989   3.331  12.347  0.5554 -1.8168 -0.4068
 8216SOL    HW236108   0.855   3.278  12.373  1.3238 -1.8208 -1.8278
 8217SOL     OW36109   1.544   3.118  16.349  0.7729  0.1206  1.2204
 8217SOL    HW136110   1.608   3.046  16.345 -0.6868 -1.0116 -1.9662
 8217SOL    HW236111   1.586   3.194  16.308  0.1829  0.1012  0.5798
 8218SOL     OW36112   2.035   3.505   7.578 -0.1390  0.3228  0.3146
 8218SOL    HW136113   2.068   3.581   7.530  1.6298  0.1119  1.1823
 8218SOL    HW236114   2.004   3.454   7.503 -0.1274  1.6162 -0.5692
 8219SOL     OW36115   0.446   3.965   5.708 -0.6909  0.7079  0.2921
 8219SOL    HW136116   0.538   3.939   5.710 -1.9791 -3.9585  1.3106
 8219SOL    HW236117   0.442   3.993   5.617 -0.2976 -1.3948 -0.3917
 8220SOL     OW36118   3.965   2.191   6.752 -0.1402  0.4182  0.1174
 8220SOL    HW136119   3.926   2.105   6.770  0.7119 -0.2809 -1.3319
 8220SOL    HW236120   3.892   2.246   6.781 -1.3019 -1.9723  1.7298
 8221SOL     OW36121   2.131   2.530  10.050  0.3120  0.0003 -0.2552
 8221SOL    HW136122   2.193   2.600  10.071 -0.6373  0.2596  1.7115
 8221SOL    HW236123   2.145   2.524   9.956  1.4796 -1.2107 -0.0001
 8222SOL     OW36124   3.508   3.375   6.120 -0.3668  0.3064  1.0764
 8222SOL    HW136125   3.431   3.425   6.091  0.0005  0.8681  1.0795
 8222SOL    HW236126   3.581   3.428   6.090 -0.4977 -0.5190 -0.7247
 8223SOL     OW36127   4.689   2.942   7.909 -0.3984 -0.2466  0.0216
 8223SOL    HW136128   4.711   2.972   7.821  0.4311  0.0569  0.3403
 8223SOL    HW236129   4.619   2.879   7.888  0.3551 -1.0029 -0.2023
 8224SOL     OW36130   2.760   4.016   5.264 -0.0949 -0.5646  0.1780
 8224SOL    HW136131   2.853   4.003   5.250 -0.5373 -2.3629 -1.1175
 8224SOL    HW236132   2.713   3.947   5.217 -1.6836  0.8523 -0.3194
 8225SOL     OW36133   0.769   0.618  13.020 -0.1619 -0.3158 -0.0656
 8225SOL    HW136134   0.688   0.651  13.059  0.3286  0.5923  0.1836
 8225SOL    HW236135   0.798   0.572  13.099 -1.9830 -2.5669 -0.7162
 8226SOL     OW36136   2.009   0.400  15.934 -0.4409 -0.0796 -0.4737
 8226SOL    HW136137   1.953   0.322  15.934  2.1611 -1.9589 -0.8925
 8226SOL    HW236138   1.940   0.466  15.931  0.0911  0.4787 -0.4286
 8227SOL     OW36139   0.056   3.709   3.983 -0.5032 -0.5007  0.2077
 8227SOL    HW136140   0.126   3.743   4.039 -0.2616  2.0139 -1.5981
 8227SOL    HW236141   4.700   3.735   4.037 -0.0064  3.5832 -1.0690
 8228SOL     OW36142   4.120   4.270   6.731  0.2279  0.4607 -0.4472
 8228SOL    HW136143   4.116   4.182   6.695  0.9906 -0.0541  0.6979
 8228SOL    HW236144   4.176   4.254   6.807 -0.6178 -1.0006 -0.1381
 8229SOL     OW36145   2.612   1.888   5.341  0.2031 -0.6403 -0.2396
 8229SOL    HW136146   2.686   1.830   5.354  1.5475  1.1559  0.0518
 8229SOL    HW236147   2.616   1.890   5.246  0.7777 -0.5692 -0.2128
 8230SOL     OW36148   1.000   1.369   2.729  0.4472 -0.1390  0.1706
 8230SOL    HW136149   1.012   1.456   2.690  2.5715 -0.4994  0.0197
 8230SOL    HW236150   1.008   1.311   2.653  0.8726  0.0738  0.0498
 8231SOL     OW36151   2.183   0.793   7.363 -0.2179 -0.6970  0.0038
 8231SOL    HW136152   2.238   0.871   7.366 -0.2844 -0.5784 -2.1026
 8231SOL    HW236153   2.111   0.812   7.303 -0.6870  0.6510  1.0085
 8232SOL     OW36154   4.593   0.032   6.650  0.3817 -0.0840  0.1122
 8232SOL    HW136155   4.660   0.003   6.711 -0.4870  0.4476  1.3274
 8232SOL    HW236156   4.514   4.706   6.678  0.2685 -1.3606 -2.2183
 8233SOL     OW36157   1.197   1.255   3.854 -0.0516  0.6105 -0.2729
 8233SOL    HW136158   1.192   1.173   3.804 -2.5178  0.3518  0.3920
 8233SOL    HW236159   1.287   1.252   3.886  0.3756  1.2524 -1.4003
 8234SOL     OW36160   2.112   1.763  10.562  0.0693 -0.2846  0.0302
 8234SOL    HW136161   2.156   1.678  10.559  1.1105  0.2097  1.2574
 8234SOL    HW236162   2.170   1.805  10.499  0.5464 -1.7537 -0.4900
 8235SOL     OW36163   3.878   2.594   8.764  0.0971 -0.7539  0.2583
 8235SOL    HW136164   3.859   2.500   8.767 -0.4084 -0.6361  0.7506
 8235SOL    HW236165   3.962   2.590   8.809  1.2349  0.5640 -1.7280
 8236SOL     OW36166   1.243   2.278   2.452  0.7668  0.3334  0.0837
 8236SOL    HW136167   1.262   2.370   2.434  2.8303  0.1531  1.3165
 8236SOL    HW236168   1.323   2.229   2.431 -1.4619 -2.2327 -2.4265
 8237SOL     OW36169   1.904   3.171   7.521  0.3341 -0.0974 -0.2120
 8237SOL    HW136170   1.991   3.132   7.514  0.4127 -0.2312  1.7783
 8237SOL    HW236171   1.900   3.197   7.613 -0.5143  0.8899 -0.5264
 8238SOL     OW36172   3.286   1.684   6.517  0.1653  0.0780 -0.2828
 8238SOL    HW136173   3.266   1.602   6.562 -0.3925  0.6445  0.5037
 8238SOL    HW236174   3.305   1.657   6.427  3.4843  1.9709 -0.1543
 8239SOL     OW36175   3.705   4.214   2.688  0.0708  0.0461 -0.0597
 8239SOL    HW136176   3.762   4.218   2.611 -0.4671 -1.1481 -0.5169
 8239SOL    HW236177   3.738   4.131   2.722 -0.6142 -0.5664 -0.8751
 8240SOL     OW36178   2.186   2.728   9.117 -0.1045 -0.1580  0.2827
 8240SOL    HW136179   2.178   2.809   9.168  0.2765 -0.0554  0.1791
 8240SOL    HW236180   2.092   2.710   9.114 -0.6956  2.9011 -0.0412
 8241SOL     OW36181   0.621   2.396   0.449 -0.1012  0.4396 -0.5925
 8241SOL    HW136182   0.526   2.406   0.446 -0.1703 -0.0029  0.1038
 8241SOL    HW236183   0.632   2.326   0.514 -0.6735  2.1341  1.3254
 8242SOL     OW36184   0.621   3.761  11.399  0.1952  0.3996 -0.6964
 8242SOL    HW136185   0.630   3.765  11.494 -1.9703  0.4353 -0.4813
 8242SOL    HW236186   0.662   3.677  11.380  1.6970  0.6610  1.3856
 8243SOL     OW36187   3.238   4.558  10.201 -0.4512 -0.0458 -0.1865
 8243SOL    HW136188   3.152   4.573  10.162  0.8804 -2.1509 -3.9139
 8243SOL    HW236189   3.295   4.569  10.125 -0.1228  1.2066  0.2441
 8244SOL     OW36190   1.274   2.024   7.878 -0.5634  0.2061 -0.2479
 8244SOL    HW136191   1.351   1.968   7.888  0.3681  1.3503 -0.9462
 8244SOL    HW236192   1.204   1.961   7.895 -1.2924  1.1182  0.1777
 8245SOL     OW36193   3.251   3.797   0.114  0.7284  0.7075  0.7652
 8245SOL    HW136194   3.306   3.775   0.039 -0.2108  0.4680  0.1451
 8245SOL    HW236195   3.166   3.759   0.090  0.6382  0.1906  1.8913
 8246SOL     OW36196   4.372   0.458   8.624 -0.1896  0.3309 -0.2395
 8246SOL    HW136197   4.280   0.473   8.602 -0.3302 -1.4000 -0.8631
 8246SOL    HW236198   4.399   0.546   8.649 -1.9998  0.7000  0.3970
 8247SOL     OW36199   1.144   2.343   7.499 -0.3055  0.2157 -0.1246
 8247SOL    HW136200   1.116   2.263   7.544  0.2881  0.5082  0.7701
 8247SOL    HW236201   1.226   2.319   7.457 -1.1059 -0.0544 -1.5120
 8248SOL     OW36202   1.328   3.252   5.477  0.1208 -0.3573  0.3690
 8248SOL    HW136203   1.278   3.316   5.426 -0.8766 -0.8439  0.7438
 8248SOL    HW236204   1.359   3.183   5.418 -0.8249 -1.0228  0.6554
 8249SOL     OW36205   4.572   2.271  11.889 -0.3447  0.5114 -0.0463
 8249SOL    HW136206   4.530   2.222  11.818  0.4578 -0.1016 -0.0976
 8249SOL    HW236207   4.507   2.337  11.913 -0.7165  0.1298 -0.0105
 8250SOL     OW36208   0.229   0.834   5.280  0.4551 -0.0319  0.6361
 8250SOL    HW136209   0.198   0.887   5.206 -2.7485 -1.9581  0.6169
 8250SOL    HW236210   0.315   0.872   5.294  0.7639  1.0066 -4.0288
 8251SOL     OW36211   4.279   4.610   8.989 -0.1003  0.6435  0.0224
 8251SOL    HW136212   4.244   4.665   9.059  0.9557 -0.3561  1.3387
 8251SOL    HW236213   4.366   4.590   9.023 -0.8591  0.1512  1.7122
 8252SOL     OW36214   1.146   0.857   9.630 -0.3864 -0.2034 -0.4892
 8252SOL    HW136215   1.163   0.770   9.595 -0.4518  1.0269 -3.5346
 8252SOL    HW236216   1.236   0.882   9.655 -0.4675 -0.0649 -0.3319
 8253SOL     OW36217   4.093   2.364   8.890 -0.3860  0.4581 -0.8233
 8253SOL    HW136218   4.164   2.351   8.952 -0.6399 -0.6406 -0.7637
 8253SOL    HW236219   4.024   2.307   8.925  0.4867  0.5088  0.9487
 8254SOL     OW36220   1.521   3.894   3.364  0.1293  0.0082  0.1069
 8254SOL    HW136221   1.535   3.957   3.292  0.8910  1.0256  1.1474
 8254SOL    HW236222   1.520   3.817   3.307  0.9723 -0.8493  1.2816
 8255SOL     OW36223   0.860   2.709   5.381  0.3533 -0.2381  0.2377
 8255SOL    HW136224   0.791   2.771   5.357  0.0516  0.1073  1.9906
 8255SOL    HW236225   0.828   2.705   5.471 -1.0116 -2.0511 -0.3477
 8256SOL     OW36226   1.432   4.292  12.356  0.4816  0.4352  0.0880
 8256SOL    HW136227   1.415   4.374  12.403  0.3007 -0.5739  1.8037
 8256SOL    HW236228   1.371   4.301  12.283 -0.0133 -1.9447  0.2031
 8257SOL     OW36229   4.222   3.100   8.002  0.0314 -0.4354  0.0019
 8257SOL    HW136230   4.244   3.192   8.018 -1.4011 -0.1737  0.4991
 8257SOL    HW236231   4.302   3.073   8.046 -0.1274 -0.7817  0.0821
 8258SOL     OW36232   3.066   0.594   1.390  0.7971 -0.0906 -0.0530
 8258SOL    HW136233   3.026   0.642   1.463  2.4303  1.9233 -0.4818
 8258SOL    HW236234   3.159   0.584   1.413  1.0525 -0.6290 -1.3109
 8259SOL     OW36235   2.012   2.624   5.825 -0.0121 -0.0962  0.1883
 8259SOL    HW136236   2.049   2.650   5.909 -1.0469 -3.2253  1.6068
 8259SOL    HW236237   1.921   2.653   5.825 -0.1518 -0.5343 -0.5906
 8260SOL     OW36238   0.308   2.908   2.366  0.2886  0.0812 -0.3772
 8260SOL    HW136239   0.317   2.929   2.273  0.4975 -1.8347 -0.7975
 8260SOL    HW236240   0.247   2.835   2.361  1.0052 -0.7216  2.3424
 8261SOL     OW36241   3.034   1.776   9.569  0.0147  0.2484  0.0528
 8261SOL    HW136242   3.113   1.738   9.607 -0.3038  0.4863  0.9628
 8261SOL    HW236243   2.976   1.730   9.630  0.9223 -1.5752 -0.4536
 8262SOL     OW36244   3.942   4.249   1.554  0.6160  0.5656 -0.0524
 8262SOL    HW136245   3.870   4.189   1.536  2.0256 -1.8332  2.2826
 8262SOL    HW236246   3.993   4.238   1.474 -0.6652 -2.4221 -0.4444
 8263SOL     OW36247   4.170   3.324   6.639  0.2406 -0.0391 -0.2779
 8263SOL    HW136248   4.235   3.366   6.583  0.1417  0.2907 -0.1453
 8263SOL    HW236249   4.100   3.322   6.574 -0.2433  0.4548  0.2326
 8264SOL     OW36250   3.385   0.043  12.047  0.3508 -0.0451  0.2537
 8264SOL    HW136251   3.308   0.099  12.062  0.5573  0.8432 -2.0231
 8264SOL    HW236252   3.441   0.069  12.120  1.4763 -1.8792  0.0416
 8265SOL     OW36253   3.354   3.905   2.003 -0.5791 -0.5943  0.1609
 8265SOL    HW136254   3.420   3.925   1.936 -1.2256  1.3223  0.1066
 8265SOL    HW236255   3.340   3.812   1.983 -0.4320 -0.4463 -0.6528
 8266SOL     OW36256   4.406   3.189   2.714  0.5039 -0.6491  0.8574
 8266SOL    HW136257   4.498   3.215   2.713  1.0761 -2.6355  0.5796
 8266SOL    HW236258   4.402   3.121   2.646 -3.2092 -0.2592  0.6838
 8267SOL     OW36259   1.056   0.203   7.058  0.3687  0.2164  0.1727
 8267SOL    HW136260   1.113   0.127   7.045 -0.7921 -0.5493 -0.4555
 8267SOL    HW236261   0.967   0.168   7.056  0.4204  0.0187  2.0685
 8268SOL     OW36262   0.626   4.610   6.116  0.3319 -0.2212  0.3832
 8268SOL    HW136263   0.629   4.603   6.021 -1.7506 -1.4393  0.4047
 8268SOL    HW236264   0.549   4.666   6.125  1.8877  1.4584  3.3048
 8269SOL     OW36265   4.530   4.538   5.477  0.2490  0.2254 -0.1500
 8269SOL    HW136266   4.591   4.596   5.524  0.8606 -1.6348  1.3908
 8269SOL    HW236267   4.455   4.537   5.536  0.7103 -0.5077  0.4390
 8270SOL     OW36268   1.349   0.459   6.276  0.6629 -0.0443 -0.1456
 8270SOL    HW136269   1.436   0.496   6.266  0.5531  0.8236  2.3210
 8270SOL    HW236270   1.345   0.376   6.228 -0.0762  0.3194 -0.7138
 8271SOL     OW36271   1.375   4.233   4.679 -0.1315  0.2626 -0.1481
 8271SOL    HW136272   1.282   4.210   4.674  0.2378 -1.5188  1.2773
 8271SOL    HW236273   1.376   4.282   4.761  0.1979 -1.5026  0.9060
 8272SOL     OW36274   0.956   4.538   4.388  0.0761 -0.3717 -0.5900
 8272SOL    HW136275   0.895   4.610   4.374  0.0526 -0.0707  1.0584
 8272SOL    HW236276   0.955   4.487   4.307  1.1766 -1.2183 -0.0683
 8273SOL     OW36277   4.442   1.671  10.463  0.4886  0.1000  0.4493
 8273SOL    HW136278   4.462   1.727  10.537 -1.3623  1.3543 -0.0010
 8273SOL    HW236279   4.485   1.715  10.390  1.2704 -1.5667 -0.0955
 8274SOL     OW36280   4.582   2.501   7.074 -0.7427  0.0070 -0.4859
 8274SOL    HW136281   4.594   2.585   7.030 -1.1715  1.8695  2.9363
 8274SOL    HW236282   4.657   2.503   7.133  0.1155 -1.9705 -1.5138
 8275SOL     OW36283   0.799   0.499  15.354  0.4575  0.0694  0.1910
 8275SOL    HW136284   0.782   0.433  15.287  0.7062  0.1165  0.0829
 8275SOL    HW236285   0.893   0.507  15.339  0.4287  3.0725  1.6766
 8276SOL     OW36286   0.318   3.727  16.666  0.5725  0.1677 -0.1443
 8276SOL    HW136287   0.345   3.747  16.756  0.2074 -3.3699  0.7592
 8276SOL    HW236288   0.376   3.788  16.621  1.1801 -0.1089  0.2590
 8277SOL     OW36289   4.568   1.078   5.359  0.0678  0.0628 -0.0828
 8277SOL    HW136290   4.592   1.008   5.299  0.6157 -0.6303  0.9425
 8277SOL    HW236291   4.475   1.060   5.345  0.2732 -1.1059  0.0068
 8278SOL     OW36292   2.966   2.548   8.597 -0.1733  0.0125  0.0707
 8278SOL    HW136293   2.985   2.590   8.681 -0.6294 -0.5301  0.4457
 8278SOL    HW236294   2.924   2.621   8.551 -0.7718 -0.0464  0.5229
 8279SOL     OW36295   1.133   1.827  16.414 -0.6910 -0.0747 -0.0828
 8279SOL    HW136296   1.095   1.817  16.502  0.9684  1.0764  0.7630
 8279SOL    HW236297   1.144   1.737  16.385 -1.3915 -0.0135 -0.5629
 8280SOL     OW36298   0.935   4.641   5.330  0.7708 -0.3230  0.7352
 8280SOL    HW136299   0.842   4.663   5.342  0.5019 -2.3015  2.2899
 8280SOL    HW236300   0.985   4.684   5.399  0.7380 -0.1544  0.6530
 8281SOL     OW36301   0.461   2.699   4.898  0.1645  0.4328 -0.6192
 8281SOL    HW136302   0.441   2.761   4.967 -2.8585 -1.0707 -0.1366
 8281SOL    HW236303   0.437   2.612   4.931  0.1027  0.3055 -0.9951
 8282SOL     OW36304   4.089   3.062   7.328  0.0837 -0.4234  0.5248
 8282SOL    HW136305   4.053   3.072   7.240 -0.8892  0.6882  1.0506
 8282SOL    HW236306   4.005   3.047   7.370 -0.3048  1.5332  0.4587
 8283SOL     OW36307   1.048   4.326   5.909 -0.2275  0.3125 -0.6226
 8283SOL    HW136308   1.087   4.292   5.990  0.6357 -0.1836 -1.2444
 8283SOL    HW236309   1.092   4.265   5.849 -1.4869  1.3670 -2.6046
 8284SOL     OW36310   4.090   1.740   4.821  0.3598  0.0197 -0.0457
 8284SOL    HW136311   4.149   1.806   4.784  0.0439 -0.4274 -1.3612
 8284SOL    HW236312   4.089   1.764   4.913  0.6205 -0.2946  0.0384
 8285SOL     OW36313   4.714   2.432   5.495  0.3784  0.3061  0.6794
 8285SOL    HW136314   4.708   2.420   5.400  2.2149  0.0130  0.5935
 8285SOL    HW236315   4.624   2.429   5.528 -0.1030  0.1806 -0.6466
 8286SOL     OW36316   2.679   4.147   6.465 -0.3294 -0.5029 -0.3553
 8286SOL    HW136317   2.678   4.233   6.508  0.9384 -0.1493 -1.0627
 8286SOL    HW236318   2.597   4.108   6.496 -1.2709  1.9260  0.2188
 8287SOL     OW36319   3.627   3.073  11.850 -0.3029 -0.0418 -0.8074
 8287SOL    HW136320   3.672   3.135  11.907  2.0469 -1.6526 -0.8903
 8287SOL    HW236321   3.677   3.097  11.772  0.2929  0.6662 -0.2019
 8288SOL     OW36322   1.750   0.579   2.283  0.3794 -0.2092  0.0875
 8288SOL    HW136323   1.678   0.520   2.260 -1.9094  2.4424  0.5361
 8288SOL    HW236324   1.828   0.543   2.240 -0.3699 -0.9751 -0.6220
 8289SOL     OW36325   0.097   2.233   7.563 -0.2687  0.5081  0.4529
 8289SOL    HW136326   0.191   2.236   7.544 -0.4368 -1.4481 -0.6917
 8289SOL    HW236327   0.066   2.319   7.533  1.2084  0.9625  0.2231
 8290SOL     OW36328   4.053   0.192   4.309  0.4950 -0.1891  0.5280
 8290SOL    HW136329   3.991   0.129   4.347  0.3172  0.4805  1.3525
 8290SOL    HW236330   4.106   0.226   4.381 -1.2437  0.5387  1.4732
 8291SOL     OW36331   4.190   2.033   7.230 -0.1030 -0.0858 -0.0188
 8291SOL    HW136332   4.186   2.088   7.151  3.9253 -0.3284 -0.3820
 8291SOL    HW236333   4.119   1.972   7.209  0.1266 -0.9219  1.6800
 8292SOL     OW36334   1.488   1.014  15.767  0.2483 -0.1936 -0.3612
 8292SOL    HW136335   1.483   1.039  15.859  0.3938  2.4027 -1.0514
 8292SOL    HW236336   1.540   0.934  15.770 -1.0133 -0.9608  0.5372
 8293SOL     OW36337   0.897   1.018  16.406  0.5589 -0.6774 -0.3113
 8293SOL    HW136338   0.846   0.977  16.336  0.5708  0.4446 -0.9771
 8293SOL    HW236339   0.931   0.938  16.446  1.1839  0.9147  2.3145
 8294SOL     OW36340   4.034   1.516   2.108  0.0392  0.6162 -0.4355
 8294SOL    HW136341   4.070   1.553   2.188  1.9076  0.1349 -1.0744
 8294SOL    HW236342   3.957   1.472   2.145  1.2126 -0.1287  1.1077
 8295SOL     OW36343   2.378   0.713   8.467  0.0799 -0.1310  0.3937
 8295SOL    HW136344   2.443   0.645   8.483  0.7811  0.0885 -1.4605
 8295SOL    HW236345   2.292   0.670   8.460  0.9092 -1.7311 -0.2138
 8296SOL     OW36346   3.451   4.342   0.296 -0.1863  0.0967 -0.2491
 8296SOL    HW136347   3.368   4.322   0.340  0.6577 -2.7291  0.0950
 8296SOL    HW236348   3.513   4.309   0.361  0.5810  1.2366 -0.4168
 8297SOL     OW36349   1.919   4.310   6.105  0.6403  0.1903  0.0585
 8297SOL    HW136350   1.983   4.373   6.138  0.7590  0.0011  0.1883
 8297SOL    HW236351   1.844   4.321   6.163  0.6667  1.7660 -0.1988
 8298SOL     OW36352   0.444   1.886  13.669  0.5082  0.2006  0.2288
 8298SOL    HW136353   0.435   1.928  13.754  1.4288 -1.2270  1.0360
 8298SOL    HW236354   0.476   1.960  13.616  0.9666  1.9578  2.9777
 8299SOL     OW36355   0.637   3.173   5.271 -0.2172  0.2015 -0.0839
 8299SOL    HW136356   0.562   3.127   5.310 -2.1729  2.4427 -1.2091
 8299SOL    HW236357   0.604   3.195   5.184  1.0419  1.5834 -0.2024
 8300SOL     OW36358   4.030   3.890  15.013 -0.1114  0.1982  0.1167
 8300SOL    HW136359   3.967   3.948  15.054  0.0528  0.0893  0.5203
 8300SOL    HW236360   4.023   3.928  14.925 -3.6307 -1.8634 -0.4955
 8301SOL     OW36361   1.458   0.400   5.281 -0.4076  0.0908  0.0656
 8301SOL    HW136362   1.540   0.395   5.230 -0.8397 -0.1627 -0.6079
 8301SOL    HW236363   1.439   0.306   5.287  0.0660 -0.2039 -2.7074
 8302SOL     OW36364   1.229   1.612   5.067 -0.1424  0.0524 -0.1392
 8302SOL    HW136365   1.312   1.571   5.042  0.3466  0.8370  0.2209
 8302SOL    HW236366   1.222   1.589   5.160 -3.0945  0.6716 -0.2321
 8303SOL     OW36367   4.324   2.328   4.427  0.2276  0.5026 -0.2698
 8303SOL    HW136368   4.415   2.345   4.402 -0.2006 -0.4673 -2.4349
 8303SOL    HW236369   4.296   2.405   4.476 -0.5321  0.0487  0.0042
 8304SOL     OW36370   2.796   4.241  10.564  0.2827  0.5657 -0.1501
 8304SOL    HW136371   2.868   4.267  10.507  0.3014 -1.3358 -0.9660
 8304SOL    HW236372   2.775   4.150  10.546 -2.5316  1.1276  0.2634
 8305SOL     OW36373   2.270   0.974   8.949 -0.1073 -0.2357 -0.0847
 8305SOL    HW136374   2.301   0.901   9.002  1.0166  2.7536  3.3857
 8305SOL    HW236375   2.298   0.944   8.863  0.0785 -1.7815  0.5227
 8306SOL     OW36376   3.416   4.715   5.082  0.0518 -0.0127 -0.2790
 8306SOL    HW136377   3.439   0.051   5.007 -3.1504  0.1176 -1.1946
 8306SOL    HW236378   3.496   4.666   5.099  0.2433  0.5279  0.3716
 8307SOL     OW36379   4.636   4.394   0.169  0.2198  0.0207  0.3501
 8307SOL    HW136380   4.698   4.436   0.228  0.0012  1.1735 -0.2407
 8307SOL    HW236381   4.567   4.369   0.230  0.3466 -1.0424  0.0696
 8308SOL     OW36382   0.898   2.927   5.799 -0.5411 -0.3718  0.1792
 8308SOL    HW136383   0.872   2.989   5.867 -2.6230 -0.0995 -0.8683
 8308SOL    HW236384   0.987   2.961   5.790  0.0577 -1.6289  1.4291
 8309SOL     OW36385   4.553   2.882   8.961 -0.5703  0.1331  0.0612
 8309SOL    HW136386   4.544   2.848   9.050 -2.1430 -2.6080 -1.1461
 8309SOL    HW236387   4.634   2.841   8.931  0.5494  2.4565 -0.1099
 8310SOL     OW36388   3.345   3.478   3.072 -0.1957  0.6406  0.2321
 8310SOL    HW136389   3.389   3.504   3.153  1.1869  0.5691 -0.4965
 8310SOL    HW236390   3.324   3.390   3.101  0.2357  0.9391  1.4529
 8311SOL     OW36391   4.342   3.022   7.420  0.2186  0.1424  0.2242
 8311SOL    HW136392   4.349   2.927   7.428  1.0837  0.1482 -0.4398
 8311SOL    HW236393   4.256   3.030   7.378 -0.4467 -3.1104  1.0094
 8312SOL     OW36394   2.267   1.806   9.198  0.2743  1.0422 -0.8215
 8312SOL    HW136395   2.270   1.725   9.146 -1.9632  0.1806  0.3841
 8312SOL    HW236396   2.173   1.798   9.215  0.8198  1.6762  2.5697
 8313SOL     OW36397   1.107   2.814   7.910  0.0550  0.2311 -0.1181
 8313SOL    HW136398   1.179   2.802   7.972  0.3539  1.9361 -0.1257
 8313SOL    HW236399   1.078   2.725   7.891 -1.1956  0.1323  2.1564
 8314SOL     OW36400   3.995   1.831   6.481 -0.4747 -0.4717 -0.2944
 8314SOL    HW136401   3.976   1.824   6.575 -0.2043 -0.0869 -0.2103
 8314SOL    HW236402   4.023   1.922   6.474 -2.8277  0.3236  0.7034
 8315SOL     OW36403   3.427   2.639   1.347  0.3104 -0.5008 -0.5571
 8315SOL    HW136404   3.342   2.635   1.392  0.8313 -1.7618  0.3109
 8315SOL    HW236405   3.487   2.700   1.389 -1.1184  0.4328  0.1418
 8316SOL     OW36406   0.012   2.010   7.738 -0.1631 -0.0236  0.4029
 8316SOL    HW136407   0.096   2.038   7.776 -0.7611 -0.7001  2.2015
 8316SOL    HW236408   4.705   2.099   7.715 -0.9442 -0.9332 -2.2135
 8317SOL     OW36409   0.506   4.138  16.502  0.6979 -0.4882 -0.0386
 8317SOL    HW136410   0.552   4.208  16.547 -1.1987 -0.7966  2.4019
 8317SOL    HW236411   0.487   4.168  16.413 -2.7312 -2.6739 -0.0541
 8318SOL     OW36412   4.063   0.251   4.666 -0.2576  0.3572 -0.0240
 8318SOL    HW136413   3.996   0.304   4.711  0.5292  2.0449 -0.8476
 8318SOL    HW236414   4.072   0.177   4.725 -0.8849 -3.8235 -5.1996
 8319SOL     OW36415   0.263   0.571  12.911  0.1654  0.5899 -0.0797
 8319SOL    HW136416   0.210   0.533  12.841 -1.2917  2.5857 -0.0522
 8319SOL    HW236417   0.353   0.556  12.882  0.0043  2.6875 -1.6247
 8320SOL     OW36418   4.452   0.002   9.556  0.0314 -0.0803 -0.1326
 8320SOL    HW136419   4.363   0.010   9.590  0.0299 -1.2936  0.1541
 8320SOL    HW236420   4.495   0.088   9.554  2.0898 -1.1144 -0.5550
 8321SOL     OW36421   2.481   0.638   7.620 -0.1257 -0.0449 -0.0688
 8321SOL    HW136422   2.555   0.603   7.669  1.0696  1.7781 -0.5786
 8321SOL    HW236423   2.448   0.707   7.677  0.9552  0.5193 -0.1197
 8322SOL     OW36424   2.524   0.693   0.640  0.0973  0.5132  0.7412
 8322SOL    HW136425   2.566   0.729   0.718  0.5767  1.9121 -0.1753
 8322SOL    HW236426   2.528   0.768   0.581 -3.3923  0.4085  0.3792
 8323SOL     OW36427   3.459   0.490   3.828  0.7930 -0.4849 -0.2159
 8323SOL    HW136428   3.451   0.395   3.825 -0.4141 -0.3599 -1.2154
 8323SOL    HW236429   3.533   0.495   3.888  0.3227  0.0668  0.3300
 8324SOL     OW36430   2.445   0.800   3.895  0.2280  0.4523  0.0621
 8324SOL    HW136431   2.489   0.790   3.810 -0.5740 -1.2437 -0.1329
 8324SOL    HW236432   2.481   0.886   3.918  1.9533 -0.2197 -0.0951
 8325SOL     OW36433   4.367   4.583   0.696  0.0405 -0.2264 -0.2237
 8325SOL    HW136434   4.461   4.591   0.683  0.1053  2.0344  1.4950
 8325SOL    HW236435   4.338   4.645   0.629 -1.3851  0.2309  0.8004
 8326SOL     OW36436   1.847   1.210   2.508 -0.7423  0.0553 -0.6484
 8326SOL    HW136437   1.894   1.151   2.449  2.5673  1.3477  0.7055
 8326SOL    HW236438   1.760   1.172   2.494 -1.4814  0.7523  2.0292
 8327SOL     OW36439   2.963   3.109   9.644  0.5004 -0.1477  1.0756
 8327SOL    HW136440   3.018   3.187   9.645 -0.3762  0.4833  0.7210
 8327SOL    HW236441   2.947   3.102   9.550  2.7182  0.6924  0.6502
 8328SOL     OW36442   2.767   4.072   2.880  0.1545 -0.3528 -0.0820
 8328SOL    HW136443   2.725   4.129   2.946 -0.1252 -0.3390 -0.2713
 8328SOL    HW236444   2.748   4.122   2.801 -2.0028 -4.2670 -2.0349
 8329SOL     OW36445   2.820   1.602  12.854  0.1453 -0.0658 -0.0905
 8329SOL    HW136446   2.779   1.666  12.796  0.7704 -1.2128 -1.7773
 8329SOL    HW236447   2.885   1.655  12.900  0.0594 -0.1545  0.1326
 8330SOL     OW36448   3.413   2.093   6.726 -0.0669 -0.2165  0.4269
 8330SOL    HW136449   3.383   2.002   6.720  0.8022 -0.4990  0.2574
 8330SOL    HW236450   3.428   2.120   6.636  1.8450 -1.8906  0.2339
 8331SOL     OW36451   3.209   1.995   5.143 -0.0716  0.0005  0.7464
 8331SOL    HW136452   3.129   2.017   5.096 -0.2976 -0.0448  1.1094
 8331SOL    HW236453   3.224   1.904   5.121 -1.0061 -0.3407  1.5360
 8332SOL     OW36454   1.642   3.877   4.142 -0.5354 -0.5686  0.3453
 8332SOL    HW136455   1.677   3.943   4.202 -0.1042 -0.9628  0.5280
 8332SOL    HW236456   1.691   3.890   4.061 -0.7941  0.6689  0.3890
 8333SOL     OW36457   4.668   0.300  14.283  0.6233  0.4215  0.5655
 8333SOL    HW136458   4.593   0.333  14.333  0.2143 -2.0363  1.5532
 8333SOL    HW236459   4.632   0.248  14.212 -1.1785  2.1583  0.1995
 8334SOL     OW36460   3.461   1.914  12.445  0.1156 -1.0091 -0.4492
 8334SOL    HW136461   3.550   1.914  12.481  0.8026  0.7039 -2.1878
 8334SOL    HW236462   3.417   1.957  12.518  1.4145 -2.5329  1.2342
 8335SOL     OW36463   3.229   2.466   6.656 -0.0214 -0.2936 -0.1634
 8335SOL    HW136464   3.163   2.522   6.616 -2.0526 -0.3048  3.1664
 8335SOL    HW236465   3.222   2.479   6.751  0.5791  2.7907 -0.5507
 8336SOL     OW36466   1.845   2.720   4.831 -0.1885  0.3127 -0.5973
 8336SOL    HW136467   1.897   2.770   4.769 -0.9322  2.9499  0.9035
 8336SOL    HW236468   1.845   2.629   4.801  0.6352 -0.1974  0.8999
 8337SOL     OW36469   3.964   2.719   2.369 -0.0540  0.1731 -0.1704
 8337SOL    HW136470   4.018   2.727   2.449  1.6236  1.1570 -1.3982
 8337SOL    HW236471   3.995   2.794   2.319 -1.2475 -0.0259 -1.1941
 8338SOL     OW36472   1.197   0.312   1.796  0.8830  0.4887  0.0570
 8338SOL    HW136473   1.118   0.341   1.751  0.0995  0.0661  1.1670
 8338SOL    HW236474   1.234   0.400   1.808  0.0108  0.7683  0.6909
 8339SOL     OW36475   1.835   2.449   8.813  0.0046 -0.5185 -0.0821
 8339SOL    HW136476   1.877   2.405   8.739  1.7027  0.9736 -0.0098
 8339SOL    HW236477   1.912   2.436   8.869  0.4314 -1.0856 -0.7964
 8340SOL     OW36478   3.878   3.179   8.010  0.0897 -0.0953 -0.4497
 8340SOL    HW136479   3.960   3.137   7.986  0.7191  1.3641 -0.9036
 8340SOL    HW236480   3.900   3.223   8.092 -1.9948 -0.4520  0.3137
 8341SOL     OW36481   2.947   2.073   4.282  0.1067  0.0341  0.0889
 8341SOL    HW136482   3.020   2.015   4.262  0.5281  0.4147  0.5113
 8341SOL    HW236483   2.882   2.003   4.289  0.8271 -0.3772  2.5677
 8342SOL     OW36484   3.256   0.061   0.990 -0.2602 -0.2047 -0.0546
 8342SOL    HW136485   3.276   4.702   1.042  2.0897 -0.7559 -1.7622
 8342SOL    HW236486   3.312   0.125   1.034 -0.3278 -0.3590  0.2561
 8343SOL     OW36487   3.554   4.202   5.428 -0.1832 -0.1030 -0.0064
 8343SOL    HW136488   3.500   4.125   5.448 -0.7518  0.5829  1.0985
 8343SOL    HW236489   3.622   4.164   5.372  0.3700  0.4790  0.2666
 8344SOL     OW36490   0.659   0.836   6.135  0.3208  0.1817 -0.2972
 8344SOL    HW136491   0.620   0.753   6.106 -1.4752  0.9950 -0.1856
 8344SOL    HW236492   0.714   0.807   6.208  0.3414 -0.3904 -0.5368
 8345SOL     OW36493   3.478   4.600  15.733  0.1242 -1.1222  0.1028
 8345SOL    HW136494   3.533   4.577  15.658  1.8814  1.0234  0.7166
 8345SOL    HW236495   3.423   4.522  15.735 -0.3279 -0.8238 -0.7697
 8346SOL     OW36496   4.454   3.937   7.835  0.7478 -0.4768  0.5186
 8346SOL    HW136497   4.481   3.944   7.927 -3.9694 -0.5793  1.9093
 8346SOL    HW236498   4.466   4.030   7.818  0.6805 -0.5287  0.1896
 8347SOL     OW36499   0.738   0.473   5.079 -0.4333  0.0632  0.5171
 8347SOL    HW136500   0.717   0.548   5.023 -0.3341 -0.5214 -0.3037
 8347SOL    HW236501   0.791   0.431   5.011 -0.5092 -0.6784  0.9185
 8348SOL     OW36502   0.419   1.416   3.887 -0.0184 -0.4904 -0.3289
 8348SOL    HW136503   0.484   1.435   3.819  0.8510  2.2836  1.3116
 8348SOL    HW236504   0.474   1.373   3.952  1.2382  0.5040 -0.7290
 8349SOL     OW36505   0.709   2.939   0.953 -0.0056 -1.0699  0.1390
 8349SOL    HW136506   0.802   2.941   0.979 -0.1851 -0.3297  0.7159
 8349SOL    HW236507   0.690   3.031   0.934  0.2008 -1.3939 -1.5568
 8350SOL     OW36508   4.226   0.412   6.130  0.3045  0.1210  0.5751
 8350SOL    HW136509   4.226   0.407   6.035  0.2857  1.2174  0.5190
 8350SOL    HW236510   4.261   0.501   6.134 -0.3257  0.4201 -0.4900
 8351SOL     OW36511   2.604   1.778   3.034 -0.4016 -0.3470 -0.6906
 8351SOL    HW136512   2.517   1.816   3.028 -0.8674 -1.2426  0.5802
 8351SOL    HW236513   2.619   1.728   2.953 -1.8336 -0.8297 -0.6428
 8352SOL     OW36514   2.763   1.507   1.253  0.4450  0.2326  0.2917
 8352SOL    HW136515   2.718   1.469   1.328  0.5086 -0.6689 -0.1270
 8352SOL    HW236516   2.774   1.596   1.286  1.1228 -0.3918  1.7415
 8353SOL     OW36517   1.652   3.043   9.525  0.1417 -0.2740  0.2891
 8353SOL    HW136518   1.558   3.037   9.543 -0.1590 -3.2510 -2.1880
 8353SOL    HW236519   1.668   3.131   9.491  0.4852  0.3522  2.0441
 8354SOL     OW36520   2.549   2.321   1.321  0.2420  0.1360  0.5576
 8354SOL    HW136521   2.504   2.254   1.269  3.7646 -2.4634  0.8391
 8354SOL    HW236522   2.611   2.257   1.356 -1.1627 -0.4031  2.0403
 8355SOL     OW36523   1.148   4.161  10.349  0.0903 -0.2264 -0.5815
 8355SOL    HW136524   1.122   4.234  10.405 -2.3655 -1.1983 -0.4450
 8355SOL    HW236525   1.223   4.205  10.310 -0.2705 -0.4657 -1.5407
 8356SOL     OW36526   3.852   3.048  14.999 -0.2224 -0.3467 -0.1648
 8356SOL    HW136527   3.932   3.033  15.048 -0.4945  1.2735  0.7887
 8356SOL    HW236528   3.867   3.133  14.957 -2.4303  0.1794  0.0659
 8357SOL     OW36529   1.849   4.100   8.013  0.0352 -0.0219 -0.0773
 8357SOL    HW136530   1.859   4.007   8.037 -2.0818 -0.2444 -0.0373
 8357SOL    HW236531   1.755   4.108   8.031 -0.0112  1.3147 -0.9901
 8358SOL     OW36532   2.605   2.353   2.512  0.5756  0.6607 -0.1738
 8358SOL    HW136533   2.683   2.398   2.544  1.0108  1.8047 -2.8651
 8358SOL    HW236534   2.594   2.378   2.420 -0.8310  0.2324 -0.1300
 8359SOL     OW36535   3.846   4.125  10.475 -0.3030  0.3612  0.0305
 8359SOL    HW136536   3.886   4.208  10.501 -0.2544  0.0981  0.8069
 8359SOL    HW236537   3.814   4.085  10.556 -0.7567 -0.3755 -0.5148
 8360SOL     OW36538   0.131   1.673  12.132 -0.1893 -0.7110 -0.5500
 8360SOL    HW136539   0.063   1.608  12.115  0.8608 -2.1803  0.8190
 8360SOL    HW236540   0.093   1.749  12.088 -0.9724 -1.1196 -0.5703
 8361SOL     OW36541   4.247   2.978  10.046  0.5554  0.1734 -0.0172
 8361SOL    HW136542   4.297   2.897  10.043  1.7277  0.8846  0.2097
 8361SOL    HW236543   4.237   2.997   9.953 -0.9993  1.8878  0.4722
 8362SOL     OW36544   0.413   1.929   0.214  0.2947  0.0431  0.1937
 8362SOL    HW136545   0.442   1.844   0.179 -1.2086 -1.1080  1.7649
 8362SOL    HW236546   0.351   1.908   0.283 -0.0830 -3.2966 -1.1530
 8363SOL     OW36547   4.340   2.075   4.568  0.1740  0.3313 -0.1149
 8363SOL    HW136548   4.335   2.149   4.507 -0.2101  1.3012  1.0722
 8363SOL    HW236549   4.434   2.079   4.590  0.1538 -0.7795  0.1456
 8364SOL     OW36550   3.878   0.583  11.281  0.4419  0.6720 -0.0096
 8364SOL    HW136551   3.940   0.611  11.213 -2.2636  0.7435 -2.4358
 8364SOL    HW236552   3.839   0.507  11.238  0.4780 -0.3393  1.7616
 8365SOL     OW36553   3.226   0.530   8.371 -0.2128 -0.0962 -0.2244
 8365SOL    HW136554   3.172   0.595   8.415 -1.1050 -1.3165  0.4776
 8365SOL    HW236555   3.306   0.550   8.419 -1.0919  0.0396  1.1552
 8366SOL     OW36556   4.559   0.426   6.192  0.1982 -0.0889  0.3157
 8366SOL    HW136557   4.640   0.395   6.152 -0.0953  0.0358 -0.3875
 8366SOL    HW236558   4.503   0.351   6.172  0.2490 -0.0140 -0.1204
 8367SOL     OW36559   1.104   1.402  14.835  0.4278  0.4338  0.8913
 8367SOL    HW136560   1.169   1.342  14.872  1.0838  0.0243 -0.9079
 8367SOL    HW236561   1.057   1.338  14.781  0.2910 -0.0979  1.6406
 8368SOL     OW36562   0.179   2.120   9.459  0.3932  0.0219  0.0049
 8368SOL    HW136563   0.198   2.133   9.366 -2.0202  2.5678 -0.1135
 8368SOL    HW236564   0.104   2.177   9.472  0.7349  1.2393 -3.5293
 8369SOL     OW36565   0.206   0.398   6.196  0.2563 -0.4926 -0.0603
 8369SOL    HW136566   0.222   0.473   6.253 -3.3961  1.2839 -1.3201
 8369SOL    HW236567   0.193   0.331   6.263 -1.0843 -0.8395 -0.6522
 8370SOL     OW36568   2.670   3.232   4.203 -0.2602  0.4936  0.0143
 8370SOL    HW136569   2.747   3.208   4.151  0.2214  0.7072  0.6208
 8370SOL    HW236570   2.613   3.159   4.179  0.6457 -0.0291 -0.5397
 8371SOL     OW36571   1.064   1.184   2.523 -0.2229 -0.5851 -0.6249
 8371SOL    HW136572   1.157   1.192   2.504  0.7817 -0.3194  4.3958
 8371SOL    HW236573   1.037   1.185   2.431 -0.9310  0.1182 -0.4101
 8372SOL     OW36574   0.497   2.878   6.230  0.7404 -0.0244  0.6418
 8372SOL    HW136575   0.548   2.894   6.309  1.6222 -2.3829  0.5356
 8372SOL    HW236576   0.410   2.867   6.268 -0.4314 -0.9959 -2.2875
 8373SOL     OW36577   3.259   0.441   6.405 -0.1735 -0.1174 -1.1146
 8373SOL    HW136578   3.311   0.460   6.484 -0.3197  0.9245 -1.2766
 8373SOL    HW236579   3.211   0.378   6.459  0.4479 -1.1968 -1.8189
 8374SOL     OW36580   1.095   3.833  13.188 -0.1681  0.2755  0.3011
 8374SOL    HW136581   1.166   3.877  13.235  1.6376  0.0212 -2.1960
 8374SOL    HW236582   1.021   3.893  13.199 -1.1354 -1.2880  2.2370
 8375SOL     OW36583   3.036   0.611   9.917  0.4409 -0.1909 -0.0756
 8375SOL    HW136584   3.049   0.547   9.987 -2.9071  0.9695  1.6132
 8375SOL    HW236585   3.010   0.689   9.967 -3.7090 -0.4146 -1.8343
 8376SOL     OW36586   4.112   3.776   5.154 -1.0843  0.2307 -0.2903
 8376SOL    HW136587   4.115   3.867   5.125 -1.3642  0.4540  0.3693
 8376SOL    HW236588   4.203   3.770   5.183 -1.5649  0.4647  1.2850
 8377SOL     OW36589   0.119   3.488   0.268  0.2961 -0.3241 -0.0800
 8377SOL    HW136590   0.078   3.411   0.307 -1.6790 -1.5622 -4.5222
 8377SOL    HW236591   0.129   3.553   0.337  0.0610 -0.9443  0.5411
 8378SOL     OW36592   2.525   2.250   4.969  0.3254  0.0322  0.4271
 8378SOL    HW136593   2.484   2.314   5.026 -0.7079  0.2674 -0.5862
 8378SOL    HW236594   2.471   2.172   4.980  3.0948 -1.8441  0.9581
 8379SOL     OW36595   0.359   4.013   3.802 -0.4282 -0.1980 -0.2902
 8379SOL    HW136596   0.374   4.030   3.709 -1.8928 -0.9013 -0.6515
 8379SOL    HW236597   0.300   4.081   3.833 -0.0461  0.1049 -0.2275
 8380SOL     OW36598   2.446   2.584  15.563  0.2428  0.0624 -0.5777
 8380SOL    HW136599   2.455   2.678  15.545 -1.9752  1.0895  3.3912
 8380SOL    HW236600   2.395   2.587  15.645 -0.6526 -0.2072 -1.1264
 8381SOL     OW36601   1.770   3.134   2.563  0.2553  0.0307  0.1837
 8381SOL    HW136602   1.740   3.129   2.472 -1.9759  0.4309  0.9093
 8381SOL    HW236603   1.855   3.090   2.573  1.6998  2.3855 -1.5489
 8382SOL     OW36604   3.598   4.282   4.900  0.4380 -0.5021  0.1161
 8382SOL    HW136605   3.639   4.249   4.980  1.2773  0.0587 -0.0826
 8382SOL    HW236606   3.603   4.206   4.843  2.2529 -2.6006  3.0676
 8383SOL     OW36607   1.027   2.748  11.985  0.0184  0.2935  0.2470
 8383SOL    HW136608   1.014   2.836  12.021 -1.1866  1.1320 -2.1874
 8383SOL    HW236609   1.064   2.716  12.067 -0.3318  1.8508  1.0199
 8384SOL     OW36610   1.815   1.947   4.659  0.1436  0.1440  0.3202
 8384SOL    HW136611   1.763   1.867   4.652  0.0981  0.4088 -2.3972
 8384SOL    HW236612   1.748   2.013   4.675 -2.0284 -2.4974  2.0355
 8385SOL     OW36613   3.276   0.672   7.445 -0.1942  0.3550  0.3208
 8385SOL    HW136614   3.303   0.763   7.452  0.1951  0.3969 -1.7781
 8385SOL    HW236615   3.315   0.658   7.359 -0.6307  0.7881  0.0503
 8386SOL     OW36616   0.059   0.759  13.929  0.2886 -0.2612  0.5582
 8386SOL    HW136617   0.111   0.753  14.009  0.3787 -1.8832  0.3658
 8386SOL    HW236618   0.122   0.801  13.869 -1.2660  0.9218 -0.2543
 8387SOL     OW36619   3.654   1.758   8.556  0.3364  0.2684  0.3985
 8387SOL    HW136620   3.654   1.821   8.628 -0.8355 -0.1697  0.7728
 8387SOL    HW236621   3.647   1.818   8.482 -1.0915 -1.3040 -0.7303
 8388SOL     OW36622   3.019   4.090   2.977  0.4360 -0.6764 -0.5556
 8388SOL    HW136623   2.951   4.066   2.914 -0.1162 -0.0786 -0.1856
 8388SOL    HW236624   2.968   4.105   3.057 -1.4331 -2.1239 -1.4745
 8389SOL     OW36625   3.399   0.298   7.354 -0.0713  0.2152 -0.1630
 8389SOL    HW136626   3.432   0.289   7.443  0.1814 -0.5001 -0.3282
 8389SOL    HW236627   3.413   0.389   7.327  0.3486  0.4886  0.9746
 8390SOL     OW36628   0.777   0.421  14.549  0.3593  0.1724 -0.0826
 8390SOL    HW136629   0.691   0.416  14.592 -0.2973  2.0738 -1.1706
 8390SOL    HW236630   0.754   0.460  14.465  0.1248 -1.4059 -0.7342
 8391SOL     OW36631   4.003   0.091  13.443  0.5629  0.1445 -0.1071
 8391SOL    HW136632   3.953   0.118  13.366 -3.3716 -1.3158  1.9070
 8391SOL    HW236633   3.943   0.032  13.489  0.7283  1.5600  1.9226
 8392SOL     OW36634   1.461   3.737   9.724 -0.3489 -0.1985  0.4185
 8392SOL    HW136635   1.493   3.771   9.808  0.2074 -3.2609  1.4693
 8392SOL    HW236636   1.422   3.812   9.680  0.8575  1.5673  2.3522
 8393SOL     OW36637   3.611   1.962  16.422 -0.2909  0.4242 -0.3914
 8393SOL    HW136638   3.552   1.897  16.461  1.0800  0.1105  1.1412
 8393SOL    HW236639   3.650   1.996  16.502 -1.5704  1.3934 -0.1727
 8394SOL     OW36640   1.345   2.580   7.396 -0.1032 -0.2328  0.2435
 8394SOL    HW136641   1.291   2.651   7.430  1.6231  2.4139 -2.5045
 8394SOL    HW236642   1.337   2.511   7.461  0.5319 -0.1056  0.4626
 8395SOL     OW36643   2.939   2.860   1.533  0.4597 -0.0489  0.0929
 8395SOL    HW136644   2.903   2.845   1.446 -0.3985  0.8447  0.2836
 8395SOL    HW236645   2.986   2.935   1.496 -0.1575  0.7280  0.8595
 8396SOL     OW36646   2.008   3.961   3.196 -0.6506 -0.5728 -0.5163
 8396SOL    HW136647   1.999   3.987   3.288  0.8800 -2.9601  0.2935
 8396SOL    HW236648   2.095   3.998   3.182 -0.3127  0.1611  3.4877
 8397SOL     OW36649   0.048   4.701   4.461  0.0112  0.5309 -0.0548
 8397SOL    HW136650   0.031   0.058   4.405 -1.2167  1.0876  1.0725
 8397SOL    HW236651   0.015   0.014   4.545 -4.3536 -0.8614 -1.2469
 8398SOL     OW36652   0.978   0.596   7.778  0.0145  0.4466  0.0172
 8398SOL    HW136653   1.033   0.646   7.718 -2.3567  2.6325 -0.3499
 8398SOL    HW236654   1.007   0.510   7.748 -1.5553  0.1095 -0.5704
 8399SOL     OW36655   0.535   4.425   0.067 -0.5449  0.4442 -0.3292
 8399SOL    HW136656   0.445   4.456   0.059 -0.5515  0.6996  0.7665
 8399SOL    HW236657   0.580   4.479   0.003  1.7256  0.3384  1.1688
 8400SOL     OW36658   2.231   4.654   9.376 -0.5145  0.3787  0.4595
 8400SOL    HW136659   2.321   4.653   9.345 -0.0541  1.5333  1.7611
 8400SOL    HW236660   2.192   4.679   9.293 -0.3234  1.4259  0.6835
 8401SOL     OW36661   3.075   1.226   9.620 -0.1321  0.2183  0.7669
 8401SOL    HW136662   3.138   1.278   9.670 -0.4308  0.2881  1.0659
 8401SOL    HW236663   3.135   1.166   9.574  1.5331  1.5427  1.2172
 8402SOL     OW36664   3.954   0.413   5.180 -0.1288 -0.1912 -0.5695
 8402SOL    HW136665   3.906   0.332   5.164  1.3150 -1.0567 -0.5112
 8402SOL    HW236666   3.989   0.399   5.268  0.2029  2.2150 -0.3221
 8403SOL     OW36667   1.150   4.232   6.152 -0.2060  0.3218 -0.2687
 8403SOL    HW136668   1.231   4.189   6.178  0.3968  1.6603  0.0836
 8403SOL    HW236669   1.150   4.304   6.216 -2.3854  0.7425 -0.7364
 8404SOL     OW36670   1.997   1.148   7.764  0.0782 -0.3785  0.2439
 8404SOL    HW136671   2.017   1.199   7.843  0.6075 -1.7435  0.9982
 8404SOL    HW236672   2.010   1.064   7.808 -0.1891 -0.5784 -0.0643
 8405SOL     OW36673   1.719   1.715  14.530  0.3193  0.2811  0.1504
 8405SOL    HW136674   1.664   1.735  14.454  2.7177 -0.9645 -1.9240
 8405SOL    HW236675   1.779   1.790  14.528  0.5342  0.1382  1.3937
 8406SOL     OW36676   3.817   4.344   8.671  0.1336  0.3274  0.1828
 8406SOL    HW136677   3.761   4.415   8.702 -0.2250 -0.1211  0.5706
 8406SOL    HW236678   3.895   4.358   8.725 -1.5996 -1.7802  3.2771
 8407SOL     OW36679   2.766   3.083   3.524 -0.0902  0.2518  0.7905
 8407SOL    HW136680   2.767   2.988   3.532 -1.2778  0.1889  0.2330
 8407SOL    HW236681   2.721   3.094   3.440  1.5540 -1.7291 -0.3356
 8408SOL     OW36682   2.863   3.565   1.035  0.5912 -0.4193 -0.4352
 8408SOL    HW136683   2.852   3.523   1.120 -0.2702 -0.0260 -0.3583
 8408SOL    HW236684   2.789   3.624   1.044 -0.8321 -2.0932 -1.0628
 8409SOL     OW36685   1.609   3.976   2.185  0.8160  0.6480 -0.2712
 8409SOL    HW136686   1.627   4.069   2.176  0.8704  0.5324 -1.3472
 8409SOL    HW236687   1.588   3.963   2.093 -0.0676 -2.2576  0.3084
 8410SOL     OW36688   1.350   1.553   5.927  0.8313  0.3688 -0.3380
 8410SOL    HW136689   1.427   1.519   5.973 -0.8199 -1.4164  1.0780
 8410SOL    HW236690   1.403   1.616   5.879  0.1236 -0.6827 -2.4697
 8411SOL     OW36691   2.511   3.720   5.567  0.0013 -0.2534  0.0362
 8411SOL    HW136692   2.428   3.767   5.571  0.8603  1.2273  0.2165
 8411SOL    HW236693   2.572   3.794   5.568 -0.2043 -0.0710 -0.9650
 8412SOL     OW36694   2.826   0.189   9.142 -0.0787  0.0569  0.1524
 8412SOL    HW136695   2.860   0.238   9.217 -0.9967 -2.1298  1.9578
 8412SOL    HW236696   2.768   0.256   9.106 -1.2219 -0.4898  0.9866
 8413SOL     OW36697   0.490   4.502   4.066 -0.6675 -0.8388 -0.6271
 8413SOL    HW136698   0.439   4.544   4.135 -1.2954  0.5009 -1.8958
 8413SOL    HW236699   0.479   4.411   4.092 -1.2118 -0.4327  0.5589
 8414SOL     OW36700   3.138   2.016   7.928 -0.1478 -0.0044  1.0239
 8414SOL    HW136701   3.085   2.035   8.006 -1.5989  0.4958 -0.0733
 8414SOL    HW236702   3.068   1.996   7.866  0.0788  2.1278  0.0790
 8415SOL     OW36703   2.979   3.953  12.407  0.3032  0.0913 -0.0535
 8415SOL    HW136704   3.018   4.017  12.466 -2.5336  2.4590 -0.7369
 8415SOL    HW236705   2.942   4.003  12.334 -0.6332 -2.2912 -1.1938
 8416SOL     OW36706   4.366   3.452   5.409  0.1457  0.0941  0.3555
 8416SOL    HW136707   4.341   3.369   5.369  1.2545  0.0826 -0.3149
 8416SOL    HW236708   4.450   3.428   5.448  1.2685  1.2590 -1.3475
 8417SOL     OW36709   1.045   2.595  10.896 -0.4030  0.2160  0.0122
 8417SOL    HW136710   1.049   2.672  10.953 -2.3355 -0.8583  1.5993
 8417SOL    HW236711   1.026   2.633  10.810  1.4320  0.8520 -0.1109
 8418SOL     OW36712   0.323   1.010   7.116 -0.2943  0.6151 -0.1280
 8418SOL    HW136713   0.279   0.974   7.192  0.8795 -0.0784  0.2146
 8418SOL    HW236714   0.294   0.960   7.039  1.1829  1.2244 -1.0984
 8419SOL     OW36715   3.987   2.765   9.898  0.2132  0.0372  0.2381
 8419SOL    HW136716   3.968   2.793   9.988  1.4606  0.6978  0.2987
 8419SOL    HW236717   3.989   2.849   9.851  1.6671 -1.1710 -1.8334
 8420SOL     OW36718   3.360   3.938   6.007 -0.0047  0.8002 -0.1040
 8420SOL    HW136719   3.427   3.986   5.958  1.1057 -0.0333  0.5756
 8420SOL    HW236720   3.321   3.884   5.939 -0.6892 -0.5298  1.3344
 8421SOL     OW36721   4.672   1.338   3.330 -0.0984 -0.4772  0.0522
 8421SOL    HW136722   4.650   1.287   3.409 -1.2071 -0.3767 -0.1929
 8421SOL    HW236723   0.022   1.398   3.358  0.2461 -0.8150 -0.0638
 8422SOL     OW36724   3.563   1.888   2.004 -0.3233  0.0634  0.5986
 8422SOL    HW136725   3.567   1.798   2.037  0.0063  0.0604  0.5527
 8422SOL    HW236726   3.563   1.941   2.084 -0.2493 -1.4011  1.5926
 8423SOL     OW36727   3.957   3.178   5.271  0.1874  0.0976  0.4047
 8423SOL    HW136728   3.887   3.152   5.211  0.6617  0.7617 -0.4505
 8423SOL    HW236729   4.023   3.120   5.232 -0.3538 -0.6098  0.5453
 8424SOL     OW36730   0.512   0.040   0.316  0.0352 -0.5086 -0.2980
 8424SOL    HW136731   0.556   4.675   0.307 -0.0790 -0.3582 -2.3906
 8424SOL    HW236732   0.493   0.051   0.222 -0.2086  0.6212 -0.1238
 8425SOL     OW36733   1.027   0.686   2.893 -0.0389  0.3205  0.5876
 8425SOL    HW136734   0.974   0.627   2.947  0.6044  1.1057  2.0893
 8425SOL    HW236735   0.979   0.768   2.903  1.0211  0.9143  0.8770
 8426SOL     OW36736   4.326   4.440   7.578  0.7765 -0.5426 -0.0338
 8426SOL    HW136737   4.354   4.349   7.585  1.7356 -0.2610 -0.1775
 8426SOL    HW236738   4.358   4.464   7.491  0.6321 -0.4595 -0.0650
 8427SOL     OW36739   2.082   0.787  15.158 -0.3249  0.2242 -0.8443
 8427SOL    HW136740   2.094   0.703  15.114 -1.1365 -0.9346  1.1743
 8427SOL    HW236741   2.146   0.838  15.107  0.5067 -0.2611 -0.2849
 8428SOL     OW36742   3.835   0.863   0.570  0.3971 -0.4548  0.0283
 8428SOL    HW136743   3.877   0.833   0.651  1.3860  0.8932  0.0172
 8428SOL    HW236744   3.821   0.773   0.539  2.0405 -0.2413 -1.3354
 8429SOL     OW36745   1.670   0.222   8.025 -0.4364 -0.1103  0.1965
 8429SOL    HW136746   1.743   0.185   7.976 -1.4053 -0.8497 -0.6887
 8429SOL    HW236747   1.625   0.140   8.044 -1.1930  0.3695  0.4995
 8430SOL     OW36748   1.780   4.589   7.207 -0.9089 -0.1187 -0.3571
 8430SOL    HW136749   1.728   4.528   7.260 -0.6891 -0.3701 -0.4297
 8430SOL    HW236750   1.801   4.654   7.274 -1.0784 -1.1970  0.7522
 8431SOL     OW36751   1.825   0.467   0.410  0.4164  0.0394 -0.3671
 8431SOL    HW136752   1.908   0.455   0.456  0.0221  0.6313  0.5024
 8431SOL    HW236753   1.860   0.497   0.326 -1.6171  2.0579 -0.5184
 8432SOL     OW36754   3.311   2.544   4.778  0.3249  0.7112  0.1078
 8432SOL    HW136755   3.289   2.535   4.870  2.6873  0.4026  0.6311
 8432SOL    HW236756   3.339   2.454   4.762 -1.5799  0.5054 -2.0987
 8433SOL     OW36757   4.498   3.051   0.287  0.2706  0.5968 -0.2488
 8433SOL    HW136758   4.584   3.019   0.258  1.0663  1.7119  0.8728
 8433SOL    HW236759   4.461   2.974   0.331  0.3601  1.2317  0.9260
 8434SOL     OW36760   0.388   3.031  11.477 -0.1803 -0.2341 -0.1710
 8434SOL    HW136761   0.419   2.952  11.432  1.8110 -0.0742  0.9327
 8434SOL    HW236762   0.298   3.031  11.444 -0.3396  0.5950  0.2555
 8435SOL     OW36763   2.034   4.493   2.503  0.3315  0.2147 -0.3108
 8435SOL    HW136764   1.941   4.515   2.506  0.5315  0.9441  0.2207
 8435SOL    HW236765   2.052   4.526   2.590 -0.0005 -2.5473  0.8163
 8436SOL     OW36766   1.343   3.932   2.304  0.7420  0.0227 -0.2828
 8436SOL    HW136767   1.432   3.948   2.273  1.7417 -1.6411  1.7290
 8436SOL    HW236768   1.312   4.021   2.321  1.0681  0.0900 -0.0393
 8437SOL     OW36769   1.085   2.117   4.373  0.1061 -0.0438 -0.3110
 8437SOL    HW136770   1.104   2.101   4.281 -2.1658 -0.0248 -0.7775
 8437SOL    HW236771   1.155   2.071   4.419  2.2031  2.0913 -1.3724
 8438SOL     OW36772   4.670   4.083   3.214  0.4970  1.2717  0.2794
 8438SOL    HW136773   4.718   4.135   3.278 -1.1597  1.9469  0.9909
 8438SOL    HW236774   0.020   4.055   3.155 -1.5430  0.2049 -1.5936
 8439SOL     OW36775   4.502   1.840   2.632  0.0590  0.4402  0.5832
 8439SOL    HW136776   4.422   1.892   2.636  0.0748  0.4963  0.1811
 8439SOL    HW236777   4.471   1.752   2.654 -1.2060  0.6929 -0.2142
 8440SOL     OW36778   1.890   2.872  12.610  0.4603  0.1031 -0.0798
 8440SOL    HW136779   1.810   2.915  12.641  0.7502  2.0537 -2.0159
 8440SOL    HW236780   1.953   2.897  12.679  0.9575 -2.3323  0.3536
 8441SOL     OW36781   1.440   2.859   8.405 -0.2053 -0.4762  0.3273
 8441SOL    HW136782   1.463   2.887   8.494  0.0557  1.1538 -0.2614
 8441SOL    HW236783   1.482   2.929   8.356  0.1151 -0.4941  0.5694
 8442SOL     OW36784   3.697   0.973   8.974 -0.4597  0.4412  0.4532
 8442SOL    HW136785   3.686   0.957   8.880 -0.6219 -0.3990  0.6149
 8442SOL    HW236786   3.623   0.934   9.020  2.1067 -2.5266  2.0746
 8443SOL     OW36787   2.077   0.512   2.638  0.1363  0.8482  0.6079
 8443SOL    HW136788   2.035   0.581   2.586  0.0453  0.2982 -0.0501
 8443SOL    HW236789   2.158   0.555   2.665 -0.6492  3.8583 -1.8632
 8444SOL     OW36790   2.128   0.638   8.398  0.3150 -0.1441  0.3638
 8444SOL    HW136791   2.135   0.701   8.326 -0.6852  0.7291  1.0283
 8444SOL    HW236792   2.086   0.690   8.467 -1.0537 -1.5579  0.5818
 8445SOL     OW36793   2.761   4.073   7.371  0.5915  0.0186  0.2765
 8445SOL    HW136794   2.782   4.037   7.457  2.1044  0.3349  0.0474
 8445SOL    HW236795   2.672   4.041   7.357 -0.7503  2.1526  3.9065
 8446SOL     OW36796   1.268   2.419  15.891  0.3184  1.0654  0.7353
 8446SOL    HW136797   1.285   2.375  15.808  1.5917  1.8338  0.5819
 8446SOL    HW236798   1.232   2.352  15.949  0.4493  0.2435 -0.1389
 8447SOL     OW36799   1.720   0.852   9.343 -0.1655  0.2005 -0.3540
 8447SOL    HW136800   1.728   0.926   9.284  0.6292 -0.3738 -0.9744
 8447SOL    HW236801   1.780   0.866   9.416  1.4535 -0.5378 -1.5271
 8448SOL     OW36802   2.215   4.259   6.722  0.7661 -0.0827 -0.1154
 8448SOL    HW136803   2.166   4.331   6.762  0.9207 -0.7472  1.2868
 8448SOL    HW236804   2.188   4.186   6.778  1.4998 -0.6824 -0.5436
 8449SOL     OW36805   2.841   2.976  10.956  0.1796 -0.0015 -0.2623
 8449SOL    HW136806   2.785   3.051  10.975  1.0942  0.4337  0.7391
 8449SOL    HW236807   2.847   2.964  10.861 -1.3363  2.2823 -0.6403
 8450SOL     OW36808   4.246   1.013  13.407 -0.2087 -0.4786  0.1215
 8450SOL    HW136809   4.291   0.945  13.355  1.7795  0.1524  1.0153
 8450SOL    HW236810   4.219   1.066  13.332  0.4354 -0.3354 -0.0132
 8451SOL     OW36811   3.719   3.123   0.725  0.4833  0.2340  0.8313
 8451SOL    HW136812   3.626   3.130   0.705  0.2265 -0.0800  1.9285
 8451SOL    HW236813   3.745   3.211   0.697  1.8037 -0.6529 -0.6919
 8452SOL     OW36814   1.282   1.226   6.945  0.4805  0.0989  0.0889
 8452SOL    HW136815   1.198   1.268   6.925  0.2093  0.0115  1.0571
 8452SOL    HW236816   1.298   1.284   7.019 -2.6809 -0.3682  1.1590
 8453SOL     OW36817   1.873   0.622   6.576  0.1236  0.3034  0.0261
 8453SOL    HW136818   1.938   0.643   6.642  0.5376  0.5475 -0.4581
 8453SOL    HW236819   1.808   0.692   6.578 -0.7167 -0.4540 -0.5808
 8454SOL     OW36820   0.043   1.620   7.833 -0.1722  0.4687  0.4225
 8454SOL    HW136821   4.709   1.699   7.830  0.7535  1.0824  0.1143
 8454SOL    HW236822   0.039   1.591   7.741 -0.3182  0.8312  0.3166
 8455SOL     OW36823   1.575   3.602  16.419  0.0313  0.6826  0.0460
 8455SOL    HW136824   1.539   3.629  16.504 -0.0704  0.3035  0.1255
 8455SOL    HW236825   1.652   3.548  16.437 -0.9773 -0.6778  0.3190
 8456SOL     OW36826   0.790   1.612   9.505 -0.5085 -0.6147  0.0266
 8456SOL    HW136827   0.799   1.536   9.563  2.4745 -0.8771 -0.8158
 8456SOL    HW236828   0.701   1.611   9.470 -0.7922  1.9873  0.6883
 8457SOL     OW36829   2.859   3.504   9.847  0.0823  0.2710  0.3713
 8457SOL    HW136830   2.941   3.487   9.893  0.9532  0.9226 -0.9499
 8457SOL    HW236831   2.889   3.538   9.763 -2.4202  2.9643  0.5819
 8458SOL     OW36832   0.787   2.532   7.023 -0.2857  0.2078 -0.0955
 8458SOL    HW136833   0.834   2.472   6.966 -1.1526 -0.0547 -0.5362
 8458SOL    HW236834   0.811   2.495   7.108 -0.9752 -0.4669 -0.1927
 8459SOL     OW36835   2.570   0.961   5.716  0.2299  0.0684 -0.3181
 8459SOL    HW136836   2.565   0.948   5.811 -1.8936 -1.0402 -0.5824
 8459SOL    HW236837   2.521   0.885   5.686 -1.4755  1.1510 -0.2985
 8460SOL     OW36838   2.831   2.778   8.530 -0.2862 -0.4078  0.1868
 8460SOL    HW136839   2.830   2.848   8.595 -0.2509 -1.8010  1.7032
 8460SOL    HW236840   2.736   2.762   8.530 -0.4877  0.7580 -0.3475
 8461SOL     OW36841   2.901   3.519   7.069  0.1070  0.3032  0.1535
 8461SOL    HW136842   2.935   3.595   7.022 -0.3337 -1.2921 -2.7567
 8461SOL    HW236843   2.983   3.489   7.109 -0.4257 -1.6657 -0.2383
 8462SOL     OW36844   0.946   0.606   7.042  0.2828  0.2978  0.0894
 8462SOL    HW136845   0.922   0.684   6.991 -0.2371  0.4827  0.6149
 8462SOL    HW236846   0.993   0.654   7.110  4.3417 -0.5107 -2.1911
 8463SOL     OW36847   1.081   4.442  11.943 -0.0725 -0.0950 -0.3992
 8463SOL    HW136848   1.125   4.527  11.949 -0.2910 -0.1092  1.3683
 8463SOL    HW236849   1.127   4.396  12.014 -0.3642 -0.4587 -0.4440
 8464SOL     OW36850   0.448   1.875   8.508  0.3809 -0.6213  0.0838
 8464SOL    HW136851   0.419   1.830   8.587  0.9882 -1.9242 -0.4412
 8464SOL    HW236852   0.363   1.914   8.484  0.1471  0.0535  2.0543
 8465SOL     OW36853   0.173   0.848   2.438  0.0662  0.0905  0.2487
 8465SOL    HW136854   0.174   0.783   2.368 -1.2926  0.3089  0.0140
 8465SOL    HW236855   0.113   0.915   2.403 -1.9715 -2.7511 -1.6424
 8466SOL     OW36856   1.101   3.047   4.901 -0.4499  0.5009 -0.6823
 8466SOL    HW136857   1.155   3.090   4.967  0.4991 -1.2850 -0.3105
 8466SOL    HW236858   1.014   3.083   4.922 -0.2074  2.2206 -2.6701
 8467SOL     OW36859   0.219   3.310   2.297 -0.0483  0.2259 -0.3283
 8467SOL    HW136860   0.241   3.394   2.254 -1.9940  0.8270 -0.1281
 8467SOL    HW236861   0.132   3.332   2.329  0.1382 -1.3527  1.2020
 8468SOL     OW36862   1.993   0.345   9.994 -0.4376 -0.1242  0.3271
 8468SOL    HW136863   2.029   0.326   9.907 -2.6419 -1.0444 -0.3776
 8468SOL    HW236864   1.906   0.373   9.969 -0.2312  0.7530  0.5879
 8469SOL     OW36865   2.457   1.663   2.683 -0.3359 -0.9835  0.7333
 8469SOL    HW136866   2.545   1.656   2.722 -0.2364 -1.5083  0.4129
 8469SOL    HW236867   2.468   1.604   2.608  0.1492  0.0328  0.0065
 8470SOL     OW36868   3.095   4.084   9.491 -0.3424 -0.3778 -0.2811
 8470SOL    HW136869   3.136   4.129   9.417  0.4481  0.7814  0.8547
 8470SOL    HW236870   3.112   4.145   9.563  1.6698 -0.5563 -0.6210
 8471SOL     OW36871   1.238   1.340  17.206  0.3948 -0.2270 -0.1687
 8471SOL    HW136872   1.297   1.269  17.233 -0.6554 -0.8079  0.5747
 8471SOL    HW236873   1.300   1.413  17.210  1.1859 -0.9596  1.3973
 8472SOL     OW36874   4.707   3.957   7.092 -0.5703 -0.0160 -0.1831
 8472SOL    HW136875   4.671   3.974   7.180 -2.6927 -1.0265 -0.8525
 8472SOL    HW236876   4.631   3.925   7.043  0.2389  0.1604 -1.5384
 8473SOL     OW36877   4.678   3.138  11.563 -0.3979  0.4818  0.4553
 8473SOL    HW136878   4.596   3.126  11.612 -0.1428 -0.2412  0.7099
 8473SOL    HW236879   4.689   3.232  11.575 -0.5578  0.4968  0.4828
 8474SOL     OW36880   3.617   1.416   6.156  0.2303  0.1031 -0.5576
 8474SOL    HW136881   3.568   1.498   6.165 -0.7274 -0.5970  0.7144
 8474SOL    HW236882   3.565   1.365   6.218  0.2265 -0.3186 -0.9113
 8475SOL     OW36883   2.602   1.651   6.565 -0.2443  0.0670  0.0155
 8475SOL    HW136884   2.673   1.711   6.540  0.7472 -1.4076 -0.7633
 8475SOL    HW236885   2.542   1.654   6.490 -1.3365  1.1101  0.9381
 8476SOL     OW36886   4.401   0.228  11.602  0.5272 -0.7191 -0.0896
 8476SOL    HW136887   4.463   0.257  11.669  0.5116 -1.9802  0.4581
 8476SOL    HW236888   4.400   0.139  11.636 -1.1387  0.6039  3.3525
 8477SOL     OW36889   2.004   3.734   6.495 -0.3749 -0.2208  0.5036
 8477SOL    HW136890   2.049   3.817   6.477 -2.4674  0.8713  0.3532
 8477SOL    HW236891   2.074   3.684   6.537  0.8056  0.7026 -0.3843
 8478SOL     OW36892   3.472   1.420  15.039  0.4216  0.4307  0.1721
 8478SOL    HW136893   3.525   1.341  15.026 -0.5696  0.3545 -3.2494
 8478SOL    HW236894   3.386   1.379  15.039  0.7945 -0.3162 -2.6860
 8479SOL     OW36895   1.784   4.044  15.291  0.3543  0.4311  0.6061
 8479SOL    HW136896   1.693   4.017  15.280 -0.2686  1.7248  2.4962
 8479SOL    HW236897   1.820   4.032  15.204  2.1605  0.4642  1.3508
 8480SOL     OW36898   1.354   2.946   3.930 -0.0987 -0.6630 -0.1576
 8480SOL    HW136899   1.284   2.905   3.880  0.6789  0.0160 -1.7957
 8480SOL    HW236900   1.333   2.921   4.020  2.3188 -1.2731  0.2386
 8481SOL     OW36901   2.792   2.808   4.817 -0.2283 -0.0159 -0.7102
 8481SOL    HW136902   2.835   2.872   4.760 -1.2311 -0.6713 -2.1876
 8481SOL    HW236903   2.733   2.765   4.755 -1.2313  0.9490 -0.4106
 8482SOL     OW36904   3.163   4.378   9.544  0.3169  0.1655  0.4931
 8482SOL    HW136905   3.083   4.421   9.513  0.5291 -0.8810 -1.5517
 8482SOL    HW236906   3.210   4.352   9.465  0.9297  1.9684  0.2777
 8483SOL     OW36907   2.301   4.717   4.061 -0.3520 -0.3197  0.0456
 8483SOL    HW136908   2.261   0.038   4.138  0.5940  0.7698 -0.0249
 8483SOL    HW236909   2.394   0.019   4.065 -0.2914 -0.5671 -0.0651
 8484SOL     OW36910   0.167   3.705   7.965  0.1367 -0.2894 -0.6976
 8484SOL    HW136911   0.182   3.611   7.976  2.4430  0.1295 -0.2907
 8484SOL    HW236912   0.091   3.721   7.910  1.0241  1.9991 -1.2619
 8485SOL     OW36913   1.488   3.159  13.904 -0.7153 -0.4813  0.1156
 8485SOL    HW136914   1.490   3.247  13.867 -0.5058 -1.0989 -1.3208
 8485SOL    HW236915   1.394   3.141  13.900 -0.9924  0.8403  0.8643
 8486SOL     OW36916   1.635   0.319   4.554 -0.1657  0.0456 -0.1786
 8486SOL    HW136917   1.710   0.261   4.560 -0.3758 -0.1693  0.3382
 8486SOL    HW236918   1.601   0.280   4.473  0.8067 -1.4009  0.1182
 8487SOL     OW36919   1.954   4.269   8.207  0.4673  0.2887  0.1828
 8487SOL    HW136920   1.939   4.195   8.148  0.2870  0.0191  0.5659
 8487SOL    HW236921   1.927   4.231   8.291  4.0950  0.4275  1.4310
 8488SOL     OW36922   3.959   2.408   8.406  0.3094  0.3710  0.9473
 8488SOL    HW136923   3.924   2.462   8.335  0.4734 -0.3518  0.3056
 8488SOL    HW236924   3.886   2.350   8.428 -0.3007  0.9997  0.5954
 8489SOL     OW36925   4.678   3.281   0.372 -0.4838 -0.1891 -0.2875
 8489SOL    HW136926   4.589   3.316   0.379 -0.8115 -1.0548 -0.1483
 8489SOL    HW236927   4.661   3.204   0.427 -1.8443  1.2607  1.3152
 8490SOL     OW36928   3.546   2.015   6.020 -0.0873  0.0969 -0.1060
 8490SOL    HW136929   3.529   2.103   5.987 -0.0882 -0.4773 -1.6361
 8490SOL    HW236930   3.456   1.988   6.039  0.0557 -0.4837 -0.2471
 8491SOL     OW36931   0.958   2.909  12.279 -0.2309 -0.0015  0.3143
 8491SOL    HW136932   1.032   2.969  12.272  0.5390 -0.8453  1.3068
 8491SOL    HW236933   0.885   2.966  12.255 -1.5095 -1.1341  1.5048
 8492SOL     OW36934   1.436   0.386   9.400  0.5702 -0.6090  0.2121
 8492SOL    HW136935   1.442   0.467   9.348 -0.4800 -0.9637 -0.4707
 8492SOL    HW236936   1.526   0.354   9.391  1.7829  2.5974  0.9262
 8493SOL     OW36937   1.771   2.353  16.558 -0.0005 -0.4995  0.1227
 8493SOL    HW136938   1.838   2.285  16.570 -0.0173 -0.8051 -1.6071
 8493SOL    HW236939   1.789   2.431  16.610 -2.9161  0.4220 -0.2754
 8494SOL     OW36940   0.937   4.651   6.950  0.4136  0.2416 -1.0258
 8494SOL    HW136941   1.022   4.636   6.992 -0.6048 -3.2357 -0.1787
 8494SOL    HW236942   0.965   4.657   6.859 -0.2841  0.8989 -1.2007
 8495SOL     OW36943   3.603   1.897   3.308  0.1135  0.1195 -0.7552
 8495SOL    HW136944   3.635   1.824   3.362 -0.9189  0.3026  0.0910
 8495SOL    HW236945   3.520   1.860   3.280  0.0478  0.7385 -1.3509
 8496SOL     OW36946   2.304   0.161   9.981 -0.4891  0.3807 -0.5956
 8496SOL    HW136947   2.276   0.219   9.911 -3.9215 -0.8085 -0.1819
 8496SOL    HW236948   2.399   0.175   9.977 -0.5127  0.7465  0.0234
 8497SOL     OW36949   0.980   1.770  12.731 -0.6211 -0.0807 -0.0310
 8497SOL    HW136950   0.962   1.797  12.821  0.6221 -0.8791  0.4649
 8497SOL    HW236951   0.905   1.713  12.715  0.9889 -2.6087  1.3996
 8498SOL     OW36952   4.377   1.071   3.298  0.1117 -0.2984  0.0804
 8498SOL    HW136953   4.345   1.140   3.356 -1.2147  1.9434 -3.2985
 8498SOL    HW236954   4.451   1.039   3.350  0.9369  2.8748  0.8507
 8499SOL     OW36955   1.384   1.315   4.297 -0.0564 -0.4897  0.4793
 8499SOL    HW136956   1.460   1.314   4.238 -2.1306 -0.3844 -2.2222
 8499SOL    HW236957   1.347   1.228   4.283  0.3815 -0.7957  1.2487
 8500SOL     OW36958   2.488   1.592   0.173  0.3347  0.0842  0.5861
 8500SOL    HW136959   2.549   1.660   0.145 -2.7819  2.3202 -0.7353
 8500SOL    HW236960   2.549   1.546   0.231  1.3528 -0.5996 -1.0111
 8501SOL     OW36961   2.495   3.051  14.649  0.1683 -0.0175  0.3961
 8501SOL    HW136962   2.452   3.014  14.726  0.2815  1.2063  1.0559
 8501SOL    HW236963   2.517   3.137  14.685 -0.2027  1.2332 -2.3766
 8502SOL     OW36964   0.382   2.067   8.933  0.1146  0.3586  0.3498
 8502SOL    HW136965   0.316   2.068   8.864  2.8283 -1.6030 -2.3065
 8502SOL    HW236966   0.340   2.004   8.991  1.8514 -0.9712  0.1767
 8503SOL     OW36967   0.191   1.558  17.320 -0.0074 -0.3559  0.7060
 8503SOL    HW136968   0.140   1.494  17.269 -1.8062  0.3694  1.5828
 8503SOL    HW236969   0.179   1.523  17.408  0.7431 -1.9979  0.1691
 8504SOL     OW36970   2.485   1.487   1.100 -0.5197 -0.2231 -0.1405
 8504SOL    HW136971   2.443   1.571   1.121  0.2230  0.0966  0.0814
 8504SOL    HW236972   2.457   1.427   1.169 -2.4827 -0.0843 -0.8302
 8505SOL     OW36973   1.691   2.039  14.854 -0.6971  0.5438 -0.0354
 8505SOL    HW136974   1.786   2.032  14.845 -0.9309 -1.1283 -1.0573
 8505SOL    HW236975   1.671   2.102  14.785  1.4345 -0.8344 -1.8716
 8506SOL     OW36976   0.752   3.780   4.339 -0.2713 -0.2114 -0.2295
 8506SOL    HW136977   0.833   3.795   4.288 -1.0540  0.6298 -1.2289
 8506SOL    HW236978   0.785   3.735   4.417  1.6478 -0.7897 -1.3730
 8507SOL     OW36979   3.485   0.766   8.356  0.2929  0.3706 -0.3596
 8507SOL    HW136980   3.431   0.832   8.398  2.2449  1.2825  0.6832
 8507SOL    HW236981   3.461   0.759   8.264  2.5377  0.7658 -0.9790
 8508SOL     OW36982   0.544   2.169  16.402 -0.3016 -0.4126  0.7617
 8508SOL    HW136983   0.590   2.248  16.431  0.7380 -0.4798 -0.7215
 8508SOL    HW236984   0.565   2.108  16.473  0.8213 -0.6212  0.2379
 8509SOL     OW36985   1.530   4.302   7.879 -0.2624  0.0565  0.7178
 8509SOL    HW136986   1.488   4.355   7.946 -0.1138  2.7039 -1.2775
 8509SOL    HW236987   1.512   4.218   7.922 -0.4288  0.3062  1.1295
 8510SOL     OW36988   3.969   2.801   7.088 -0.4296  0.4956 -0.0383
 8510SOL    HW136989   3.948   2.848   7.169 -0.5026  0.5589 -0.0950
 8510SOL    HW236990   4.062   2.821   7.079 -0.5616  1.0377 -0.1444
 8511SOL     OW36991   3.791   4.487   1.404 -0.9130  0.2611  0.3786
 8511SOL    HW136992   3.866   4.507   1.348  0.9765  0.4395  2.9585
 8511SOL    HW236993   3.821   4.504   1.493 -0.4562  2.9898 -0.3050
 8512SOL     OW36994   0.950   0.830   6.846  0.0478 -0.6096 -0.4944
 8512SOL    HW136995   1.024   0.868   6.799  0.3499 -0.1668  0.3404
 8512SOL    HW236996   0.893   0.906   6.858  0.0732 -0.7462  0.4877
 8513SOL     OW36997   1.430   0.823   8.679 -0.9332 -0.2921  0.4681
 8513SOL    HW136998   1.487   0.899   8.689 -2.1163  0.6756 -0.1072
 8513SOL    HW236999   1.377   0.849   8.604 -0.6092 -2.1989 -0.4235
 8514SOL     OW37000   3.941   3.423   5.891 -0.2800  0.2878 -0.1103
 8514SOL    HW137001   3.944   3.438   5.796 -1.2790  1.4799  0.0486
 8514SOL    HW237002   3.857   3.463   5.911  0.7123  1.8098  0.9935
 8515SOL     OW37003   0.612   2.595   7.438  0.5469 -0.1910 -0.7109
 8515SOL    HW137004   0.594   2.687   7.418  1.7915  0.2480  0.2310
 8515SOL    HW237005   0.638   2.593   7.530  0.8965 -2.4957 -0.8437
 8516SOL     OW37006   3.739   0.686   5.315 -0.2691  0.3654 -0.0568
 8516SOL    HW137007   3.831   0.678   5.341 -0.6989  1.2740  1.7463
 8516SOL    HW237008   3.724   0.595   5.291 -1.8521  0.5434  0.2310
 8517SOL     OW37009   4.066   0.371  15.669 -0.1674 -0.1848  0.5939
 8517SOL    HW137010   4.066   0.290  15.719  2.7511 -1.4931 -1.5574
 8517SOL    HW237011   4.079   0.333  15.582  2.3989  0.3793  0.7398
 8518SOL     OW37012   2.497   3.590  12.873  0.4587 -0.5776  0.3789
 8518SOL    HW137013   2.453   3.505  12.881 -1.9265  0.3712 -2.7713
 8518SOL    HW237014   2.577   3.578  12.820  2.2464  0.8815  2.7547
 8519SOL     OW37015   2.839   0.275   7.705 -0.3725 -0.2929 -0.1550
 8519SOL    HW137016   2.754   0.231   7.704 -0.0762 -0.8638 -0.1047
 8519SOL    HW237017   2.847   0.284   7.800 -2.1310  2.1063 -0.2259
 8520SOL     OW37018   2.580   3.030   4.904 -0.5184  0.3282 -0.0969
 8520SOL    HW137019   2.570   2.948   4.952  1.2048 -0.0717 -0.4221
 8520SOL    HW237020   2.673   3.047   4.914 -0.4210 -0.0922 -0.2920
 8521SOL     OW37021   2.619   4.642   6.213  0.0891  0.5757 -0.9154
 8521SOL    HW137022   2.534   4.602   6.231  0.1371  0.0998 -1.7273
 8521SOL    HW237023   2.614   0.013   6.245 -0.1579  0.3882 -0.4175
 8522SOL     OW37024   0.527   2.446   9.099 -0.5490  0.3461 -0.2393
 8522SOL    HW137025   0.495   2.367   9.143  1.4147 -0.6486 -0.6136
 8522SOL    HW237026   0.444   2.474   9.059 -0.6043 -0.0375 -0.3980
 8523SOL     OW37027   3.556   3.025   7.642 -0.2079  0.0527 -0.4715
 8523SOL    HW137028   3.467   3.039   7.673 -1.4186 -2.1104 -2.9669
 8523SOL    HW237029   3.574   2.933   7.664 -3.3428  0.0289  1.9826
 8524SOL     OW37030   3.061   2.347   9.584  0.6195 -0.4681  0.7252
 8524SOL    HW137031   2.968   2.355   9.604  0.7549  2.3649  0.2969
 8524SOL    HW237032   3.110   2.413   9.634  0.6500  1.7992 -2.3438
 8525SOL     OW37033   1.205   4.519   1.924 -0.3260  0.2447 -0.1475
 8525SOL    HW137034   1.118   4.479   1.926  0.1579 -1.0015 -3.1828
 8525SOL    HW237035   1.250   4.456   1.867  0.6486  0.0977  0.7779
 8526SOL     OW37036   0.289   3.594  16.431  0.8735 -0.0894  0.2404
 8526SOL    HW137037   0.195   3.593  16.410  0.8598 -0.4610  0.3260
 8526SOL    HW237038   0.290   3.646  16.511 -0.3310 -0.2125  0.3440
 8527SOL     OW37039   0.888   3.832  14.304 -0.1937  0.2325  0.6776
 8527SOL    HW137040   0.913   3.794  14.219 -2.5553 -1.0687  0.5668
 8527SOL    HW237041   0.796   3.848  14.282 -0.2340 -0.0475  0.6347
 8528SOL     OW37042   4.328   2.644   5.822 -0.0752 -0.3008  0.7023
 8528SOL    HW137043   4.233   2.644   5.818 -0.0024 -1.1538 -0.7583
 8528SOL    HW237044   4.343   2.565   5.873  0.2140  0.8236  2.3759
 8529SOL     OW37045   4.269   3.368  14.503  0.4275 -0.2622 -0.3780
 8529SOL    HW137046   4.357   3.384  14.537 -0.3449  3.0795  0.0512
 8529SOL    HW237047   4.276   3.275  14.484 -3.1765 -0.4871 -0.6083
 8530SOL     OW37048   1.266   4.145   1.027  0.2583 -0.5877  0.2264
 8530SOL    HW137049   1.345   4.111   1.069  1.7361 -0.5570 -2.4902
 8530SOL    HW237050   1.241   4.058   0.995  1.3782  0.0955 -2.5387
 8531SOL     OW37051   2.376   2.143  10.123  0.0675 -0.1694  0.1386
 8531SOL    HW137052   2.466   2.112  10.111  0.3088  0.8777 -0.7765
 8531SOL    HW237053   2.333   2.057  10.118 -0.4100 -0.0437  2.3586
 8532SOL     OW37054   3.902   4.519  14.129 -0.4846  0.1478  0.3491
 8532SOL    HW137055   3.829   4.581  14.133  0.3097  1.0439  0.9926
 8532SOL    HW237056   3.973   4.579  14.105 -0.2057 -0.6018 -0.6587
 8533SOL     OW37057   4.030   4.482   2.260  0.2085 -0.3017  0.1146
 8533SOL    HW137058   3.986   4.545   2.203 -1.9945 -0.6036  1.4978
 8533SOL    HW237059   4.115   4.524   2.273 -0.2968  0.7280  0.0949
 8534SOL     OW37060   2.561   4.022   8.184  0.0897  0.3193  0.2701
 8534SOL    HW137061   2.613   4.101   8.173  0.2024  0.1030 -0.7527
 8534SOL    HW237062   2.555   3.985   8.096  0.6368 -0.1875  0.4489
 8535SOL     OW37063   2.598   2.675   4.323 -0.2616 -0.0224 -0.2842
 8535SOL    HW137064   2.543   2.727   4.264 -0.2375  1.7940  1.2941
 8535SOL    HW237065   2.683   2.683   4.280  0.6675 -0.6875  1.4228
 8536SOL     OW37066   1.286   2.165   7.004 -0.1030 -0.0008 -0.0196
 8536SOL    HW137067   1.353   2.232   7.019  0.7763 -0.6777 -0.9009
 8536SOL    HW237068   1.296   2.139   6.912  1.8266 -2.3264  0.8564
 8537SOL     OW37069   0.230   2.166   4.451 -0.7283 -0.5285  0.7031
 8537SOL    HW137070   0.264   2.251   4.480  0.0169 -1.3382  2.1849
 8537SOL    HW237071   0.161   2.203   4.396 -0.4861 -1.7163 -0.4092
 8538SOL     OW37072   2.442   4.588  14.494  0.6772 -0.2490  0.2657
 8538SOL    HW137073   2.455   4.495  14.513  0.9766 -0.3666 -0.4790
 8538SOL    HW237074   2.514   4.608  14.433  0.4316  0.4250  0.2040
 8539SOL     OW37075   4.696   1.855   5.881  0.0852  0.0866 -0.6053
 8539SOL    HW137076   4.611   1.866   5.924 -1.2123 -1.2649 -2.8023
 8539SOL    HW237077   4.710   1.943   5.846  0.6941  0.3410  0.3069
 8540SOL     OW37078   2.127   1.797   6.446 -0.7380 -0.2032 -0.1659
 8540SOL    HW137079   2.102   1.737   6.375 -1.0388  0.3258 -0.5007
 8540SOL    HW237080   2.066   1.866   6.422 -1.6609 -1.4189 -1.3184
 8541SOL     OW37081   4.077   1.393   4.874 -0.3610  0.3927  0.3905
 8541SOL    HW137082   4.080   1.467   4.814 -0.6501 -0.6720 -0.9318
 8541SOL    HW237083   4.169   1.392   4.903 -0.3196 -2.3642  0.1780
 8542SOL     OW37084   2.127   2.752  17.103  0.7232 -1.0661 -0.4126
 8542SOL    HW137085   2.213   2.791  17.117 -0.7970  1.3171  2.1634
 8542SOL    HW237086   2.150   2.659  17.109 -4.3345 -2.3568 -0.6708
 8543SOL     OW37087   1.913   1.378   4.405 -0.0809  0.2660  0.4797
 8543SOL    HW137088   1.850   1.322   4.450 -1.3644 -0.7965 -2.5915
 8543SOL    HW237089   1.995   1.343   4.440  1.7935  1.8317 -2.3601
 8544SOL     OW37090   2.678   2.299   7.136 -0.2266  0.1621 -0.4266
 8544SOL    HW137091   2.688   2.265   7.047  0.6219 -1.4743  0.2863
 8544SOL    HW237092   2.679   2.222   7.193 -2.8502 -0.4035 -1.1385
 8545SOL     OW37093   0.286   3.313   8.499  0.0545  0.1817 -0.3448
 8545SOL    HW137094   0.352   3.274   8.555 -1.5021 -2.3178 -0.2387
 8545SOL    HW237095   0.272   3.393   8.550  0.6401 -1.0090  1.6588
 8546SOL     OW37096   4.366   2.872   6.169  0.0476 -0.7098 -0.5801
 8546SOL    HW137097   4.306   2.801   6.193  0.2507 -1.0666 -1.1316
 8546SOL    HW237098   4.297   2.938   6.160  0.4819 -0.0958  0.5809
 8547SOL     OW37099   0.020   0.940   4.183  0.3770 -0.1497 -0.3882
 8547SOL    HW137100   0.001   0.865   4.126  0.1406  0.8113 -1.5547
 8547SOL    HW237101   0.014   1.009   4.118  0.2215  0.6970  0.5283
 8548SOL     OW37102   1.011   1.022  12.519  0.2284  0.5811  0.4517
 8548SOL    HW137103   1.080   0.971  12.561 -1.1928 -1.2779  0.4849
 8548SOL    HW237104   0.931   0.979  12.547  0.3519 -0.9171 -1.4658
 8549SOL     OW37105   0.731   0.219   4.674  0.1297  0.2606  0.1795
 8549SOL    HW137106   0.685   0.302   4.670  1.5652  1.1516  2.3451
 8549SOL    HW237107   0.668   0.152   4.649 -0.1691  0.4466  0.4385
 8550SOL     OW37108   1.740   3.617   2.956 -0.7576  0.3250 -0.0916
 8550SOL    HW137109   1.800   3.691   2.946  2.6709 -2.8299 -2.8805
 8550SOL    HW237110   1.787   3.550   3.006 -0.6933  0.3100 -0.1729
 8551SOL     OW37111   4.540   4.505   2.241  0.3983  0.2187  0.1674
 8551SOL    HW137112   4.575   4.523   2.154  0.1571  1.7311  0.3851
 8551SOL    HW237113   4.601   4.439   2.273  0.6987  0.1861 -0.4703
 8552SOL     OW37114   4.560   0.008   6.378  0.2151  0.0834  0.0962
 8552SOL    HW137115   4.622   4.654   6.378 -0.5953 -0.6067 -0.0073
 8552SOL    HW237116   4.564   0.035   6.470 -0.3621  0.3779  0.0348
 8553SOL     OW37117   1.213   4.139   5.798 -0.0475  0.5168 -0.3665
 8553SOL    HW137118   1.270   4.137   5.721  1.7129 -2.2635  1.0062
 8553SOL    HW237119   1.286   4.160   5.858  0.4268 -1.5216 -0.2220
 8554SOL     OW37120   3.776   2.398   5.796  0.1142 -0.1831  0.4117
 8554SOL    HW137121   3.721   2.471   5.825  0.1793 -0.1748  0.5121
 8554SOL    HW237122   3.741   2.374   5.710  1.1275 -0.7651  0.1578
 8555SOL     OW37123   0.928   4.190   0.640  0.3079 -0.3500  0.8040
 8555SOL    HW137124   0.979   4.227   0.712 -2.4088  1.2518  1.9132
 8555SOL    HW237125   0.997   4.184   0.574  2.2867 -1.3739  2.9920
 8556SOL     OW37126   2.188   1.134   6.095  0.4083  0.4612  0.0849
 8556SOL    HW137127   2.211   1.042   6.078 -1.6608 -0.0524  0.0743
 8556SOL    HW237128   2.225   1.150   6.181  1.8558 -2.9590  0.1125
 8557SOL     OW37129   2.770   2.822   3.464 -0.1510  0.3096 -0.0109
 8557SOL    HW137130   2.802   2.742   3.504  1.7705  0.9091 -0.3670
 8557SOL    HW237131   2.842   2.853   3.410 -0.3324  0.5157 -0.1370
 8558SOL     OW37132   2.541   2.087  17.035 -0.2226 -0.1444 -0.1234
 8558SOL    HW137133   2.494   2.005  17.050 -0.8884  0.0900 -0.9608
 8558SOL    HW237134   2.564   2.122  17.121 -0.2951  1.6839 -0.8457
 8559SOL     OW37135   0.634   0.788   3.080 -0.9061 -0.1661 -0.7610
 8559SOL    HW137136   0.692   0.811   3.008 -0.3661  1.6587  0.2647
 8559SOL    HW237137   0.705   0.770   3.142 -1.3787  0.1428 -0.1243
 8560SOL     OW37138   1.461   4.330  15.711 -0.0974  0.5046 -0.1772
 8560SOL    HW137139   1.516   4.263  15.670  0.1390  1.6110 -1.6706
 8560SOL    HW237140   1.530   4.392  15.736 -2.4178  2.1240  2.1541
 8561SOL     OW37141   3.741   2.050   8.553  0.0251  0.4215 -0.4328
 8561SOL    HW137142   3.783   1.990   8.491 -0.1447  0.1783 -0.3157
 8561SOL    HW237143   3.774   2.015   8.636  1.1809  0.2793 -0.9588
 8562SOL     OW37144   2.002   3.602   8.150  0.5387 -0.1475 -0.1829
 8562SOL    HW137145   2.051   3.583   8.230 -1.2298  2.5646  1.5372
 8562SOL    HW237146   1.968   3.687   8.178 -1.5806 -1.3655  0.9056
 8563SOL     OW37147   1.737   4.473   4.410 -0.2622 -0.2509 -0.0867
 8563SOL    HW137148   1.796   4.452   4.482  0.0878 -0.1828 -0.3550
 8563SOL    HW237149   1.683   4.540   4.451 -0.1130  2.5399 -4.3949
 8564SOL     OW37150   4.461   2.813  13.339  0.3505  0.7391 -0.0455
 8564SOL    HW137151   4.531   2.754  13.366 -0.2555 -0.3091 -0.7833
 8564SOL    HW237152   4.463   2.798  13.245 -3.6466 -1.6710  0.2655
 8565SOL     OW37153   4.102   3.104   0.940 -0.5638 -0.5757  0.2942
 8565SOL    HW137154   4.154   3.033   0.978  1.0238  1.1404  1.3212
 8565SOL    HW237155   4.030   3.111   1.003 -1.7473  0.3014 -1.1545
 8566SOL     OW37156   1.447   0.627  15.890  0.0005  0.1875  0.3350
 8566SOL    HW137157   1.420   0.662  15.805 -1.0827 -1.3517  0.0405
 8566SOL    HW237158   1.475   0.537  15.872  0.9484  0.0817  2.3480
 8567SOL     OW37159   4.095   1.339   4.064  0.3285 -0.0617  0.0844
 8567SOL    HW137160   4.189   1.347   4.045  0.0715 -0.4408 -1.3278
 8567SOL    HW237161   4.081   1.281   3.990  1.9584  1.7159 -1.6171
 8568SOL     OW37162   2.479   0.293  10.979  0.1773  0.2197  0.2963
 8568SOL    HW137163   2.479   0.389  10.980  0.6215  0.2303 -2.5316
 8568SOL    HW237164   2.396   0.270  11.019 -0.4565  2.5082  0.3211
 8569SOL     OW37165   2.110   3.323   8.626 -0.3797 -0.0633 -0.0012
 8569SOL    HW137166   2.159   3.246   8.597  0.4248 -0.0460  1.2983
 8569SOL    HW237167   2.065   3.301   8.707  1.6711  0.2791  1.2352
 8570SOL     OW37168   2.684   2.302   7.828 -0.0695  0.0215 -0.6736
 8570SOL    HW137169   2.777   2.298   7.807  0.1102 -0.7333  0.2663
 8570SOL    HW237170   2.653   2.258   7.749  0.0756  0.1284 -0.7907
 8571SOL     OW37171   0.546   4.302  11.565 -0.0645 -0.1406  0.2968
 8571SOL    HW137172   0.526   4.263  11.650 -0.5116 -0.0457  0.2355
 8571SOL    HW237173   0.635   4.336  11.572 -1.3800  3.7837 -1.5377
 8572SOL     OW37174   1.678   2.735   7.965  0.1429 -0.0542 -0.0867
 8572SOL    HW137175   1.622   2.768   8.036 -1.1330 -2.4579  0.0402
 8572SOL    HW237176   1.711   2.659   8.013  1.2267  1.6288  1.7863
 8573SOL     OW37177   4.700   0.815  13.585  0.0723  0.7854  0.1818
 8573SOL    HW137178   0.027   0.899  13.592 -0.6156  1.1296  0.4543
 8573SOL    HW237179   4.689   0.804  13.679 -1.5718  0.6361 -0.0411
 8574SOL     OW37180   1.739   1.458   4.660 -0.1501  0.0016 -0.1581
 8574SOL    HW137181   1.710   1.398   4.729 -2.7283  0.5765 -0.7279
 8574SOL    HW237182   1.726   1.397   4.587 -0.1203 -1.1369  0.7789
 8575SOL     OW37183   1.187   2.866   5.952  0.2739  0.2583  0.0379
 8575SOL    HW137184   1.110   2.889   6.005  1.2120  1.2121  0.9670
 8575SOL    HW237185   1.242   2.823   6.018 -0.0832 -1.2201 -0.6153
 8576SOL     OW37186   1.665   1.724   7.733  0.1105  0.2710 -0.0443
 8576SOL    HW137187   1.663   1.787   7.660 -2.0136  0.1949 -0.0397
 8576SOL    HW237188   1.598   1.670   7.692  0.5090 -0.0094 -0.3221
 8577SOL     OW37189   1.654   2.578   8.431 -0.2164  0.1219  0.3909
 8577SOL    HW137190   1.706   2.596   8.352  0.3824  0.2714  0.8220
 8577SOL    HW237191   1.688   2.640   8.495  0.1724  2.1497 -1.7486
 8578SOL     OW37192   3.391   1.448   3.117  0.2055  0.2393 -0.0832
 8578SOL    HW137193   3.358   1.382   3.178  1.3313 -0.5578 -0.3557
 8578SOL    HW237194   3.372   1.536   3.150  0.0824  0.5000 -0.8478
 8579SOL     OW37195   3.241   0.102   2.281  0.2042  0.0898 -0.2702
 8579SOL    HW137196   3.209   0.181   2.237  2.2997  0.6098 -0.8991
 8579SOL    HW237197   3.210   0.045   2.211 -3.4429  2.3939 -0.5497
 8580SOL     OW37198   1.100   1.943   6.059  0.2982 -0.1020 -0.5627
 8580SOL    HW137199   1.178   1.887   6.059  0.4799  0.1582  0.3217
 8580SOL    HW237200   1.137   2.023   6.097 -1.3257  0.9380 -1.1909
 8581SOL     OW37201   3.446   0.675   2.759  0.3556  0.5092  0.3518
 8581SOL    HW137202   3.492   0.635   2.833  1.9237 -0.7393 -1.3270
 8581SOL    HW237203   3.511   0.667   2.690 -0.8251 -2.5055 -0.4188
 8582SOL     OW37204   1.699   0.017  11.582 -0.3693 -0.0123 -0.0487
 8582SOL    HW137205   1.620   0.024  11.636  0.0839 -2.8425  0.9712
 8582SOL    HW237206   1.673   0.047  11.495 -1.9710 -2.1236 -0.2969
 8583SOL     OW37207   1.431   1.805  15.102 -0.6764  0.2284 -0.4648
 8583SOL    HW137208   1.456   1.894  15.078 -0.6885  0.6978  1.2398
 8583SOL    HW237209   1.348   1.791  15.056 -1.2737  1.2395  0.3139
 8584SOL     OW37210   2.363   3.328   6.777  0.1104  0.7338 -0.3165
 8584SOL    HW137211   2.422   3.275   6.830  1.0664  1.9855 -0.1369
 8584SOL    HW237212   2.314   3.379   6.841 -1.6817 -1.8185  0.3457
 8585SOL     OW37213   3.089   4.652   9.736  0.0174  0.0983 -0.2034
 8585SOL    HW137214   3.132   4.696   9.662  0.3561  2.1967  1.2647
 8585SOL    HW237215   3.127   4.564   9.737  1.4532  0.7143 -0.2479
 8586SOL     OW37216   0.244   1.945   6.288  0.0140  0.1725  0.0807
 8586SOL    HW137217   0.289   1.984   6.213 -2.2805  0.1469 -1.2898
 8586SOL    HW237218   0.271   2.011   6.352  0.9117 -0.6953  0.6002
 8587SOL     OW37219   2.642   3.917   7.140  0.1700 -0.0529 -0.0577
 8587SOL    HW137220   2.551   3.888   7.134  0.7980 -2.2111  0.7928
 8587SOL    HW237221   2.666   3.872   7.221 -1.0197 -0.0729  0.2794
 8588SOL     OW37222   2.709   2.714   3.168 -0.4053  0.0460 -0.2667
 8588SOL    HW137223   2.677   2.794   3.128  1.4174 -0.0266 -1.8751
 8588SOL    HW237224   2.790   2.740   3.213 -0.4127 -0.7609  0.2217
 8589SOL     OW37225   4.042   3.526   1.751  0.3386  0.3460  0.4232
 8589SOL    HW137226   4.010   3.468   1.820 -1.8968 -1.5195 -2.1872
 8589SOL    HW237227   4.136   3.539   1.762  0.9176 -1.0735 -2.8433
 8590SOL     OW37228   3.713   1.947  12.534 -0.0703  0.2458 -0.0464
 8590SOL    HW137229   3.726   1.892  12.611  2.3118  0.3902 -0.3535
 8590SOL    HW237230   3.794   1.923  12.489  0.2235 -0.3146  0.7897
 8591SOL     OW37231   4.367   0.341   2.986  0.4366 -0.3592  0.4201
 8591SOL    HW137232   4.447   0.365   3.034  0.9921 -1.4454  0.0376
 8591SOL    HW237233   4.299   0.379   3.042  0.3737 -1.0327  0.8101
 8592SOL     OW37234   1.601   1.406   7.387 -0.3368 -0.3236  0.3417
 8592SOL    HW137235   1.558   1.479   7.432 -1.0813 -1.2223  1.1181
 8592SOL    HW237236   1.596   1.341   7.458  1.8255  1.8287  2.4623
 8593SOL     OW37237   4.633   1.515  12.097  0.0855 -0.2040 -0.1504
 8593SOL    HW137238   4.594   1.466  12.169 -0.0353  0.7315  0.4061
 8593SOL    HW237239   4.564   1.512  12.031 -1.3322  0.3793  1.3391
 8594SOL     OW37240   2.676   4.288   5.264 -0.1248  0.3826  0.2108
 8594SOL    HW137241   2.693   4.195   5.278  0.9004  0.6188  0.5349
 8594SOL    HW237242   2.689   4.294   5.170  1.1904  0.0906  0.3679
 8595SOL     OW37243   1.853   2.100   7.651  0.1668 -0.8119  0.4943
 8595SOL    HW137244   1.913   2.119   7.723  1.4051 -0.3469 -0.6487
 8595SOL    HW237245   1.918   2.061   7.593 -1.5424 -3.0371  0.1114
 8596SOL     OW37246   4.221   2.720   4.973 -0.3853 -0.1500  0.6068
 8596SOL    HW137247   4.290   2.671   4.929 -0.8685 -1.4095  1.2492
 8596SOL    HW237248   4.262   2.775   5.041  2.2621  1.2779 -2.1212
 8597SOL     OW37249   3.237   3.231   8.488 -0.1292  0.2127 -0.4390
 8597SOL    HW137250   3.159   3.198   8.442 -0.3614 -1.4827  1.1626
 8597SOL    HW237251   3.281   3.150   8.515 -0.5186  0.2252  0.2417
 8598SOL     OW37252   2.997   2.536   7.442  0.3477 -0.1722  0.2984
 8598SOL    HW137253   2.958   2.477   7.378  1.8107  0.0467 -0.7998
 8598SOL    HW237254   3.050   2.591   7.384 -1.1869  1.1466  0.1381
 8599SOL     OW37255   0.277   2.661  17.071 -0.3740  0.0922 -0.0316
 8599SOL    HW137256   0.310   2.595  17.132 -0.2932 -2.8432 -3.2989
 8599SOL    HW237257   0.356   2.702  17.037 -1.8330  3.3562  0.4881
 8600SOL     OW37258   0.547   2.627   3.822 -0.4442 -0.5059  0.3543
 8600SOL    HW137259   0.569   2.576   3.900  0.2638  0.1633  0.5872
 8600SOL    HW237260   0.581   2.713   3.847  0.5400 -1.1598  1.2638
 8601SOL     OW37261   4.329   3.048  10.374  0.1235 -0.7425 -0.4048
 8601SOL    HW137262   4.353   3.012  10.459  3.8536  0.8988 -0.7559
 8601SOL    HW237263   4.389   3.123  10.372  0.0701 -0.7505 -2.3483
 8602SOL     OW37264   1.638   0.321   5.001 -0.0878 -0.0669  0.2381
 8602SOL    HW137265   1.608   0.266   4.929  1.2043  0.2646 -0.5546
 8602SOL    HW237266   1.617   0.405   4.960 -0.3339 -0.7921 -1.1143
 8603SOL     OW37267   4.282   4.635   2.307 -0.3334 -0.3069 -0.2242
 8603SOL    HW137268   4.325   4.604   2.227  0.8095 -0.9377  0.6498
 8603SOL    HW237269   4.316   4.568   2.365  0.7407 -1.5896 -2.3370
 8604SOL     OW37270   3.652   4.294  10.130 -0.5324 -0.0080  0.3649
 8604SOL    HW137271   3.650   4.266  10.039 -1.5984 -2.4294  1.1151
 8604SOL    HW237272   3.627   4.386  10.125  0.3778  0.3106  1.6831
 8605SOL     OW37273   0.518   1.170   2.882 -0.3188 -0.1861 -0.1910
 8605SOL    HW137274   0.583   1.214   2.937  0.3843  1.3256 -2.2569
 8605SOL    HW237275   0.484   1.101   2.939 -0.6652  0.3350  0.2363
 8606SOL     OW37276   0.630   1.527   5.590  0.1128 -0.1616 -0.0996
 8606SOL    HW137277   0.549   1.577   5.588  0.7509  0.9289  1.8959
 8606SOL    HW237278   0.682   1.570   5.657  0.1404 -0.3539  0.0025
 8607SOL     OW37279   1.511   0.373   3.950  0.5793  0.2897 -0.1252
 8607SOL    HW137280   1.469   0.427   3.883 -0.0713  1.7932  1.4911
 8607SOL    HW237281   1.589   0.363   3.896 -0.1955  0.2070 -1.2164
 8608SOL     OW37282   2.544   3.399   9.005 -0.4222  0.2889 -0.2953
 8608SOL    HW137283   2.570   3.380   9.095 -1.9868 -0.2338  0.0482
 8608SOL    HW237284   2.564   3.492   9.000  0.7973  0.0309 -0.3807
 8609SOL     OW37285   2.185   2.799   6.292 -0.2956  0.0664  0.3609
 8609SOL    HW137286   2.120   2.750   6.343  1.9059 -1.9155  1.2427
 8609SOL    HW237287   2.244   2.829   6.362  0.8272 -0.1880 -0.4795
 8610SOL     OW37288   4.043   0.209   8.151 -0.2479 -0.0752 -0.2735
 8610SOL    HW137289   4.109   0.264   8.109  1.6461 -2.5259 -0.5531
 8610SOL    HW237290   4.097   0.180   8.224 -0.3930  0.4187  0.0303
 8611SOL     OW37291   2.971   0.238   1.843  0.2592  0.0969  0.7527
 8611SOL    HW137292   3.028   0.168   1.812 -0.5964  0.9010 -2.5549
 8611SOL    HW237293   2.931   0.262   1.760  1.7024 -0.2274 -0.0289
 8612SOL     OW37294   1.656   3.222   4.410 -0.0313 -0.3061  0.1022
 8612SOL    HW137295   1.653   3.133   4.445 -1.0338 -0.7093 -1.0321
 8612SOL    HW237296   1.725   3.212   4.345  0.7471  1.3584  0.6569
 8613SOL     OW37297   1.759   0.603   5.896  0.3829 -0.0398 -0.3664
 8613SOL    HW137298   1.797   0.690   5.910 -0.8867  0.2685  1.1547
 8613SOL    HW237299   1.833   0.556   5.858  0.3343 -1.6500  1.5277
 8614SOL     OW37300   2.619   0.211   1.220  0.2630 -0.8933 -0.1317
 8614SOL    HW137301   2.565   0.279   1.182  1.9925 -0.2729 -1.4866
 8614SOL    HW237302   2.609   0.135   1.163  0.1625 -0.2882 -0.9106
 8615SOL     OW37303   1.975   4.550  10.083  0.3702  0.1685 -0.2134
 8615SOL    HW137304   1.960   4.602  10.004  1.0487 -1.4116 -1.3729
 8615SOL    HW237305   2.017   4.612  10.142 -1.3869  0.8480  0.3217
 8616SOL     OW37306   0.863   4.165  14.394 -0.0173 -0.1052 -0.3613
 8616SOL    HW137307   0.936   4.211  14.353  2.1166 -2.3690  0.9144
 8616SOL    HW237308   0.881   4.072  14.388 -0.0258 -0.0254 -1.7161
 8617SOL     OW37309   3.768   4.628   8.452  0.2781 -0.0179  0.2786
 8617SOL    HW137310   3.802   4.623   8.541 -1.0265  1.6733  0.8908
 8617SOL    HW237311   3.707   4.698   8.475  1.8208  1.3652  0.1414
 8618SOL     OW37312   4.309   1.047   4.409  0.1023  0.0756 -0.6200
 8618SOL    HW137313   4.300   1.001   4.325  0.8772 -0.1458 -0.5799
 8618SOL    HW237314   4.218   1.065   4.431 -0.0297 -1.3637  0.0053
 8619SOL     OW37315   0.658   0.027   5.847 -0.2999  0.0305  0.0187
 8619SOL    HW137316   0.622   0.084   5.778  1.4402 -1.0336 -1.7527
 8619SOL    HW237317   0.696   0.095   5.902 -1.6636  0.6348  0.2343
 8620SOL     OW37318   4.411   1.138   1.536 -0.1802  0.0733 -0.5627
 8620SOL    HW137319   4.466   1.072   1.578 -0.1801 -0.3416 -1.2106
 8620SOL    HW237320   4.470   1.212   1.523  2.0838 -1.5446  0.4060
 8621SOL     OW37321   1.378   1.108   4.053 -0.1211 -0.1472 -0.7746
 8621SOL    HW137322   1.443   1.155   4.105 -1.6066  1.5573 -0.4937
 8621SOL    HW237323   1.411   1.102   3.963 -0.6748 -3.1752 -0.7834
 8622SOL     OW37324   1.963   0.138   2.854 -0.1138  0.1038  0.0017
 8622SOL    HW137325   2.048   0.170   2.885 -1.6257  4.4855 -0.2553
 8622SOL    HW237326   1.933   0.220   2.815  1.7405  0.3601 -0.9070
 8623SOL     OW37327   2.582   3.323   4.911  0.4246  0.1190 -0.0547
 8623SOL    HW137328   2.568   3.232   4.888  3.1320 -0.7857  1.9230
 8623SOL    HW237329   2.504   3.366   4.875  0.4895 -0.3142 -0.7043
 8624SOL     OW37330   3.011   0.133   3.757  0.3942  0.4682  0.0499
 8624SOL    HW137331   2.920   0.163   3.752  0.1963 -0.1059  0.1881
 8624SOL    HW237332   3.016   0.098   3.846 -0.1398  0.7146  0.1762
 8625SOL     OW37333   3.288   1.445   2.840  0.0969 -0.1307  0.3933
 8625SOL    HW137334   3.328   1.459   2.926 -3.2106 -0.3996  1.9381
 8625SOL    HW237335   3.212   1.389   2.849 -1.2218  1.2862 -1.7445
 8626SOL     OW37336   2.731   1.100  12.968 -0.1611 -0.2577 -0.4880
 8626SOL    HW137337   2.801   1.066  12.911 -1.5373 -1.3086 -1.5339
 8626SOL    HW237338   2.758   1.192  12.980  2.6807 -1.1512  0.0235
 8627SOL     OW37339   3.984   0.432  10.290  0.2730 -0.1791 -0.0003
 8627SOL    HW137340   3.980   0.518  10.247  1.9684  1.5145  3.2444
 8627SOL    HW237341   4.072   0.423  10.326 -0.2752 -1.3092  1.0365
 8628SOL     OW37342   3.118   2.116   1.681  0.0325 -0.3570 -0.8435
 8628SOL    HW137343   3.188   2.061   1.646 -1.2457 -2.3363 -0.2575
 8628SOL    HW237344   3.093   2.071   1.761  0.8880 -1.3368 -1.1284
 8629SOL     OW37345   1.124   1.523  11.463  0.1244 -0.8425  0.8527
 8629SOL    HW137346   1.081   1.599  11.503  2.4858  0.4122  1.0198
 8629SOL    HW237347   1.133   1.552  11.372 -2.9387  1.7247  1.3517
 8630SOL     OW37348   4.216   2.835   1.690 -0.1008  0.5220  0.0559
 8630SOL    HW137349   4.147   2.769   1.692 -0.3339  0.7145 -1.3536
 8630SOL    HW237350   4.283   2.796   1.747  0.7156  1.4754 -0.2388
 8631SOL     OW37351   3.344   2.699   5.986 -0.1417  0.1507 -0.7317
 8631SOL    HW137352   3.291   2.660   6.056 -0.4556  1.3154 -0.3125
 8631SOL    HW237353   3.324   2.790   6.008  0.6816  0.1175  0.1884
 8632SOL     OW37354   0.268   3.006   2.103 -0.3151  0.1903 -0.1293
 8632SOL    HW137355   0.235   3.087   2.142 -3.5683  0.3951 -3.3235
 8632SOL    HW237356   0.291   3.040   2.017  3.4376  1.9765  1.5957
 8633SOL     OW37357   2.125   0.273  16.921 -0.0821  0.2224 -0.4165
 8633SOL    HW137358   2.064   0.250  16.991  0.2124  1.8123  0.3670
 8633SOL    HW237359   2.057   0.274  16.854  0.2722  2.6199 -0.7264
 8634SOL     OW37360   1.480   4.478   6.890 -0.1020  0.0999  0.0681
 8634SOL    HW137361   1.477   4.448   6.981  2.5089 -2.3418 -0.6787
 8634SOL    HW237362   1.501   4.571   6.899 -1.3001  0.3594  0.3047
 8635SOL     OW37363   1.913   2.506   5.311 -0.3959  0.1047  0.0677
 8635SOL    HW137364   1.911   2.554   5.394 -1.4982  0.5705 -0.2318
 8635SOL    HW237365   1.837   2.546   5.270  2.0117  2.3447 -2.2050
 8636SOL     OW37366   3.131   4.136   7.095  0.2615 -0.2552  0.2796
 8636SOL    HW137367   3.113   4.186   7.175  0.9037  0.4162  0.0095
 8636SOL    HW237368   3.042   4.117   7.068  0.9097 -3.0300  0.1500
 8637SOL     OW37369   1.878   1.528   6.046  0.5346 -0.4103  0.4054
 8637SOL    HW137370   1.877   1.489   5.959 -1.0764  0.6462 -0.0532
 8637SOL    HW237371   1.790   1.502   6.074  0.5350 -0.1569  0.6392
 8638SOL     OW37372   3.472   0.634   5.431  0.3875 -0.4808  0.0983
 8638SOL    HW137373   3.527   0.556   5.447 -0.1344 -0.3180  2.5759
 8638SOL    HW237374   3.536   0.682   5.378 -0.0271  2.0190  1.9049
 8639SOL     OW37375   1.688   4.501  16.598 -0.4257 -0.1970  0.1247
 8639SOL    HW137376   1.676   4.565  16.528 -0.2736 -0.7534 -0.4018
 8639SOL    HW237377   1.773   4.462  16.579 -1.1321 -1.1203 -1.0908
 8640SOL     OW37378   3.434   2.136   5.645  0.0315 -0.1929  0.3542
 8640SOL    HW137379   3.415   2.154   5.737 -1.3200 -0.3692  0.1114
 8640SOL    HW237380   3.347   2.160   5.613  1.1575  0.3976 -2.2417
 8641SOL     OW37381   3.095   0.606   1.863  0.7671  0.1373  0.0981
 8641SOL    HW137382   3.066   0.676   1.921 -0.9280  0.7237 -1.4318
 8641SOL    HW237383   3.182   0.582   1.895  0.8168 -1.0522 -0.9182
 8642SOL     OW37384   3.259   4.353   3.762 -0.1638 -0.4713  0.1043
 8642SOL    HW137385   3.251   4.271   3.713 -2.9235 -0.2780  0.2583
 8642SOL    HW237386   3.293   4.415   3.698 -2.6383  0.8420  0.0536
 8643SOL     OW37387   0.124   1.682   8.921  0.0297 -0.0331  0.2840
 8643SOL    HW137388   0.168   1.735   8.989 -0.3078  1.0538 -0.3499
 8643SOL    HW237389   0.035   1.680   8.955  0.8010 -3.2478  2.0664
 8644SOL     OW37390   0.433   2.565   3.554 -0.3103  0.2906  0.2034
 8644SOL    HW137391   0.474   2.567   3.640  0.5725  0.0511 -0.2165
 8644SOL    HW237392   0.350   2.520   3.570 -1.1083  1.5770 -0.2186
 8645SOL     OW37393   1.792   1.740   7.990  0.0884  0.6957 -0.4040
 8645SOL    HW137394   1.744   1.723   7.909 -0.4770 -2.8820  0.7086
 8645SOL    HW237395   1.721   1.725   8.052  0.9806 -0.1421  0.4096
 8646SOL     OW37396   4.614   3.795   5.963  0.2333 -0.6362  0.1270
 8646SOL    HW137397   4.585   3.880   5.994 -0.8602 -1.1923  0.6043
 8646SOL    HW237398   4.573   3.787   5.876 -1.1176 -1.9216  0.8929
 8647SOL     OW37399   2.335   0.336  16.233 -0.1692 -0.0973 -0.1969
 8647SOL    HW137400   2.272   0.394  16.191 -1.4808 -1.6080 -0.3301
 8647SOL    HW237401   2.284   0.314  16.312  3.0910  1.0630  2.2559
 8648SOL     OW37402   0.565   1.803   5.365  0.0928 -0.0101 -0.0616
 8648SOL    HW137403   0.564   1.747   5.287  0.9301 -1.3518  0.8927
 8648SOL    HW237404   0.472   1.826   5.364  0.1851  0.4060  0.9754
 8649SOL     OW37405   4.411   4.441   6.460 -0.2436  0.5237  0.1050
 8649SOL    HW137406   4.358   4.409   6.387  2.2893  2.3017 -2.5461
 8649SOL    HW237407   4.432   4.361   6.507 -0.9274  0.6092  0.5460
 8650SOL     OW37408   3.551   4.678  14.852  0.3528 -0.0798  0.0387
 8650SOL    HW137409   3.630   4.681  14.799  0.5767  0.0647  0.3843
 8650SOL    HW237410   3.497   0.025  14.807 -1.5308 -0.7054  1.3682
 8651SOL     OW37411   4.004   3.278   3.309 -0.3304 -0.1187 -0.1013
 8651SOL    HW137412   3.954   3.201   3.282 -2.0926  0.0795  2.4938
 8651SOL    HW237413   4.058   3.245   3.381  0.9514 -0.4610 -1.2179
 8652SOL     OW37414   1.964   2.418   6.132 -0.4950  0.3648  1.1142
 8652SOL    HW137415   1.954   2.473   6.210  0.5610  3.2883 -0.8151
 8652SOL    HW237416   2.057   2.395   6.142 -0.1679  0.2774 -2.2322
 8653SOL     OW37417   0.812   1.646  13.279 -0.0925 -0.0828  0.7029
 8653SOL    HW137418   0.804   1.736  13.309 -0.1524 -0.1251  0.8144
 8653SOL    HW237419   0.745   1.599  13.328  2.2512 -2.0160  2.0619
 8654SOL     OW37420   0.122   4.154  16.473  0.2025 -0.5408 -0.3372
 8654SOL    HW137421   0.034   4.119  16.464  0.7916 -2.6488  1.8503
 8654SOL    HW237422   0.171   4.076  16.448  2.1195  0.8842 -1.0493
 8655SOL     OW37423   0.505   2.499   2.633  0.2789  0.6494 -0.0778
 8655SOL    HW137424   0.522   2.578   2.582  0.2013  0.8554  0.2136
 8655SOL    HW237425   0.457   2.537   2.707 -0.5389 -1.3003  0.3969
 8656SOL     OW37426   1.510   2.245   4.099  0.1251 -0.2466  0.7326
 8656SOL    HW137427   1.502   2.205   4.186 -0.3454  2.2535  1.8461
 8656SOL    HW237428   1.541   2.334   4.117 -0.0106  0.2946 -1.7480
 8657SOL     OW37429   0.600   2.678   6.072 -0.1200 -0.1940  0.3445
 8657SOL    HW137430   0.569   2.750   6.127  1.3804  1.2417 -0.6904
 8657SOL    HW237431   0.693   2.697   6.063  0.1323 -0.9713  1.3170
 8658SOL     OW37432   3.653   4.286   4.382  0.1261  0.1304  0.2427
 8658SOL    HW137433   3.597   4.210   4.365 -2.9668  2.4828 -0.0704
 8658SOL    HW237434   3.592   4.356   4.359 -0.2048 -0.4013 -0.4916
 8659SOL     OW37435   4.250   1.261  16.183 -0.3661 -0.0963  0.2063
 8659SOL    HW137436   4.163   1.298  16.195 -0.4080 -0.4554  0.9920
 8659SOL    HW237437   4.244   1.237  16.090  0.5877 -0.9887  0.3672
 8660SOL     OW37438   3.552   2.107  14.998  0.0090 -0.1737 -0.3640
 8660SOL    HW137439   3.560   2.193  15.038  1.9495 -0.8640  0.7221
 8660SOL    HW237440   3.642   2.075  15.008 -0.5523 -1.6001  0.1657
 8661SOL     OW37441   1.802   1.117   3.541  0.6344  0.2161 -0.6422
 8661SOL    HW137442   1.853   1.195   3.565  0.3433  0.5137 -0.9700
 8661SOL    HW237443   1.874   1.065   3.507  1.7468 -0.0330  2.0999
 8662SOL     OW37444   3.599   1.855   6.369 -0.4314 -0.1573 -0.3538
 8662SOL    HW137445   3.640   1.941   6.367  0.7357 -0.6301  2.8537
 8662SOL    HW237446   3.621   1.836   6.461 -2.2495  0.4130  0.1998
 8663SOL     OW37447   4.093   3.177   5.891 -0.0108 -0.4111  0.4826
 8663SOL    HW137448   4.040   3.137   5.822  0.2100  0.6043 -0.2825
 8663SOL    HW237449   4.066   3.269   5.885  0.7461  0.0225  4.0233
 8664SOL     OW37450   2.919   4.431   9.348  0.5322 -0.2884  0.3827
 8664SOL    HW137451   2.991   4.463   9.294  0.4731 -0.4233  0.2243
 8664SOL    HW237452   2.859   4.505   9.347 -0.9709 -1.4979  0.1147
 8665SOL     OW37453   0.918   3.598   4.834 -0.2522  0.4196 -0.5546
 8665SOL    HW137454   1.008   3.631   4.836 -0.5557  1.2118 -0.3330
 8665SOL    HW237455   0.907   3.565   4.923  0.2526  1.9703  0.0836
 8666SOL     OW37456   0.006   3.534  16.399 -0.2637 -0.2496 -0.0739
 8666SOL    HW137457   0.024   3.478  16.474 -0.9229  1.3708  1.3047
 8666SOL    HW237458   4.660   3.487  16.346  0.7157 -0.0268 -1.4578
 8667SOL     OW37459   3.614   1.749   3.578  0.0243 -0.0019  0.2039
 8667SOL    HW137460   3.672   1.824   3.594  0.1050 -0.2592  1.1485
 8667SOL    HW237461   3.667   1.695   3.520  1.7335  3.2791 -1.3113
 8668SOL     OW37462   0.931   1.481  12.545  0.3519 -0.2120  0.0795
 8668SOL    HW137463   0.897   1.395  12.571 -1.6556  1.0259  1.4955
 8668SOL    HW237464   0.869   1.531  12.598  1.3047  1.2675 -0.2054
 8669SOL     OW37465   0.881   2.272   3.973 -0.4450 -0.6968  0.2834
 8669SOL    HW137466   0.856   2.207   4.039  0.3954  1.7449  3.0200
 8669SOL    HW237467   0.881   2.215   3.896  0.5987  0.6024 -0.6809
 8670SOL     OW37468   3.852   1.529   6.897 -0.7582  0.0459  0.1871
 8670SOL    HW137469   3.920   1.596   6.904 -0.8889 -0.1005  3.0376
 8670SOL    HW237470   3.827   1.506   6.987  0.1974  0.3014  0.5244
 8671SOL     OW37471   3.089   3.916   8.235 -0.4607 -0.1665 -0.7474
 8671SOL    HW137472   3.093   3.914   8.139 -0.4731 -0.0135 -0.7518
 8671SOL    HW237473   3.014   3.974   8.251  0.4858  1.2201 -1.3307
 8672SOL     OW37474   4.065   3.852   8.970  0.2179 -0.0209 -0.0352
 8672SOL    HW137475   4.024   3.817   9.049  2.2099  0.1083  1.0736
 8672SOL    HW237476   4.122   3.778   8.949  1.1755  0.8499 -0.5330
 8673SOL     OW37477   3.371   0.192   3.866 -0.2815  0.1387 -0.0350
 8673SOL    HW137478   3.439   0.125   3.871  0.5061  0.9555  0.2888
 8673SOL    HW237479   3.312   0.153   3.801  1.6944  0.3050 -1.9529
 8674SOL     OW37480   1.034   3.016   8.759 -0.1815  0.0838  0.0576
 8674SOL    HW137481   0.956   2.989   8.808 -1.9573  0.9647 -2.2606
 8674SOL    HW237482   1.018   2.982   8.671  0.1710 -0.4801  0.2132
 8675SOL     OW37483   1.834   3.492   2.252  0.6095 -0.6695 -0.2199
 8675SOL    HW137484   1.789   3.560   2.203  1.4005 -0.2942 -0.4218
 8675SOL    HW237485   1.803   3.508   2.341  1.6499 -1.0568  0.2099
 8676SOL     OW37486   2.394   0.766  15.095 -0.9020  0.4745 -0.1824
 8676SOL    HW137487   2.411   0.727  15.010 -0.6423  0.0937  0.0450
 8676SOL    HW237488   2.371   0.686  15.142 -0.9103  0.1279 -0.7814
 8677SOL     OW37489   4.047   4.068   3.514  0.3552  0.4543  0.1546
 8677SOL    HW137490   4.017   3.984   3.548 -0.5342  0.6797 -0.0748
 8677SOL    HW237491   4.128   4.030   3.481 -1.8395 -1.6453 -2.8729
 8678SOL     OW37492   4.185   4.197   7.368 -0.5587  0.3609  0.5799
 8678SOL    HW137493   4.092   4.177   7.379 -0.6015 -0.7291 -1.7872
 8678SOL    HW237494   4.228   4.177   7.451 -0.2028  1.4906  0.6693
 8679SOL     OW37495   1.081   3.378   9.224 -0.3081 -0.1633  0.6144
 8679SOL    HW137496   1.077   3.374   9.320 -0.3076  3.0854  0.7532
 8679SOL    HW237497   1.150   3.313   9.210 -0.2003 -0.1714  1.1678
 8680SOL     OW37498   3.245   1.249   9.353  0.1863  0.0850  0.2463
 8680SOL    HW137499   3.240   1.293   9.269 -0.3021  0.2495  0.3622
 8680SOL    HW237500   3.277   1.319   9.410  0.5183  0.0771  0.0691
 8681SOL     OW37501   2.704   0.113  11.455  0.2883 -0.2095  0.8676
 8681SOL    HW137502   2.670   0.050  11.392  2.5616  0.6702 -1.2720
 8681SOL    HW237503   2.737   0.179  11.393  0.2366 -1.4669 -0.4985
 8682SOL     OW37504   2.711   2.427   8.850  0.5263 -0.2297 -0.0201
 8682SOL    HW137505   2.630   2.413   8.899  0.9797  0.0455  0.8067
 8682SOL    HW237506   2.722   2.522   8.852 -2.7988  0.1547  0.7953
 8683SOL     OW37507   2.480   1.498   4.129 -0.3180  0.2710 -0.3972
 8683SOL    HW137508   2.414   1.478   4.062  0.4034 -1.0122 -0.7186
 8683SOL    HW237509   2.442   1.467   4.211  2.2488  3.7827  2.1262
 8684SOL     OW37510   3.590   2.297  13.050  0.1324  0.3394  0.3243
 8684SOL    HW137511   3.577   2.317  12.957 -1.7921 -1.0220  0.2995
 8684SOL    HW237512   3.670   2.347  13.065  0.2627  0.3933 -0.5478
 8685SOL     OW37513   1.645   1.709   2.780 -0.5237  0.1568  0.0405
 8685SOL    HW137514   1.722   1.698   2.725 -0.0741 -0.3397  0.7816
 8685SOL    HW237515   1.597   1.766   2.719  1.0266 -0.1972 -1.5268
 8686SOL     OW37516   2.758   1.500   3.382 -0.6796 -0.0773  0.1773
 8686SOL    HW137517   2.756   1.492   3.286  2.7220  1.4780 -0.0013
 8686SOL    HW237518   2.672   1.540   3.398 -0.3000  0.4533  0.8501
 8687SOL     OW37519   0.645   0.727   8.594  0.6004  0.3857  0.3694
 8687SOL    HW137520   0.690   0.655   8.550 -0.4412  0.8111 -1.3918
 8687SOL    HW237521   0.555   0.719   8.562  1.7366  1.7586 -3.1808
 8688SOL     OW37522   2.195   2.329  16.449  0.2664  0.4362  0.1234
 8688SOL    HW137523   2.276   2.287  16.477 -0.6549 -1.1993  0.3230
 8688SOL    HW237524   2.219   2.421  16.441  1.9060  0.1424  1.6825
 8689SOL     OW37525   1.547   4.050  11.343 -0.9008 -0.4147  0.1228
 8689SOL    HW137526   1.637   4.080  11.360 -1.4115  0.6273  0.9810
 8689SOL    HW237527   1.506   4.087  11.421 -3.4430 -0.8616 -0.9953
 8690SOL     OW37528   1.023   2.245   3.499  0.0915 -0.2771 -0.1575
 8690SOL    HW137529   0.957   2.290   3.447  0.4767  0.3631 -0.0922
 8690SOL    HW237530   0.982   2.243   3.586 -0.8652 -0.5258 -0.6148
 8691SOL     OW37531   1.294   2.416  10.647  0.2495 -0.1125 -0.2690
 8691SOL    HW137532   1.252   2.502  10.640  1.0867  0.5287  2.6419
 8691SOL    HW237533   1.215   2.362  10.656  0.4840 -0.2849  0.7598
 8692SOL     OW37534   1.416   3.785   6.213  0.3282  0.2771 -0.1311
 8692SOL    HW137535   1.446   3.794   6.122 -2.8524 -3.0785 -1.5445
 8692SOL    HW237536   1.500   3.792   6.259  0.6146  2.4248 -0.9982
 8693SOL     OW37537   0.745   3.813   9.650  0.0996 -0.2028 -0.1628
 8693SOL    HW137538   0.751   3.801   9.556  1.1930 -0.6050 -0.0485
 8693SOL    HW237539   0.791   3.897   9.655  0.6937 -0.4347 -1.8786
 8694SOL     OW37540   3.250   3.198   5.116  0.6585 -0.3550  0.8257
 8694SOL    HW137541   3.259   3.214   5.210  0.0855  1.4273  0.5869
 8694SOL    HW237542   3.216   3.109   5.115  0.1390 -0.1477 -0.1681
 8695SOL     OW37543   3.376   2.754   4.435  0.1609  0.1402  0.4355
 8695SOL    HW137544   3.308   2.759   4.502  0.3130 -0.2630  0.6159
 8695SOL    HW237545   3.412   2.665   4.436 -0.3945 -0.0739  1.6800
 8696SOL     OW37546   4.480   1.206   8.047 -0.1848  0.1201 -0.3311
 8696SOL    HW137547   4.545   1.177   7.983 -0.1552  0.7579 -0.5888
 8696SOL    HW237548   4.400   1.202   7.996 -0.5264  3.1038 -0.0319
 8697SOL     OW37549   2.871   4.423   0.962  0.5234 -0.2842 -0.9916
 8697SOL    HW137550   2.786   4.461   0.983 -0.1618 -2.5825  0.4131
 8697SOL    HW237551   2.849   4.331   0.944  0.4985 -0.2022 -1.3875
 8698SOL     OW37552   2.702   2.726   8.886 -0.3024 -0.1402  0.0138
 8698SOL    HW137553   2.717   2.733   8.980 -0.8940 -2.7323  0.2912
 8698SOL    HW237554   2.792   2.751   8.863 -0.2823  0.9775  1.3211
 8699SOL     OW37555   4.461   0.590   6.401  0.0526  0.5389 -0.0229
 8699SOL    HW137556   4.514   0.562   6.327  0.3053  2.3724 -0.5313
 8699SOL    HW237557   4.489   0.681   6.398 -0.4065  0.5834 -2.7533
 8700SOL     OW37558   0.597   3.509  12.152  0.0876 -0.2508  0.5863
 8700SOL    HW137559   0.600   3.416  12.131 -0.7300 -0.3234  0.7610
 8700SOL    HW237560   0.604   3.491  12.246  3.0397  0.6715  0.5224
 8701SOL     OW37561   3.331   2.090   8.392  0.3250 -0.3238  0.4238
 8701SOL    HW137562   3.297   2.179   8.403  0.5833 -0.0718 -0.8611
 8701SOL    HW237563   3.312   2.074   8.300  1.6890 -0.7007  0.2149
 8702SOL     OW37564   4.592   1.614   2.948  0.1958  0.0673  0.8665
 8702SOL    HW137565   4.656   1.589   2.882  1.0571 -0.1730  1.8053
 8702SOL    HW237566   4.533   1.682   2.914  3.2403  1.5353 -1.5074
 8703SOL     OW37567   2.596   3.980   4.179  0.2871  0.5469 -0.4551
 8703SOL    HW137568   2.546   3.907   4.144 -0.7948  0.5666  1.0404
 8703SOL    HW237569   2.541   4.054   4.154  0.8712  1.6295  1.4646
 8704SOL     OW37570   3.334   0.543  12.852 -0.1072 -0.0554  0.2304
 8704SOL    HW137571   3.257   0.489  12.837 -0.2660  0.8686 -2.3276
 8704SOL    HW237572   3.402   0.479  12.872  0.2333  0.9468  2.2252
 8705SOL     OW37573   4.014   4.140   3.242 -0.5859 -0.1577 -0.5287
 8705SOL    HW137574   4.091   4.124   3.297 -0.1001 -0.1335 -1.1944
 8705SOL    HW237575   4.003   4.232   3.265 -0.0456 -0.4515  0.9069
 8706SOL     OW37576   1.748   2.892   5.675 -0.0971 -0.3911 -0.2833
 8706SOL    HW137577   1.752   2.976   5.631  2.4655  0.2044  1.0789
 8706SOL    HW237578   1.776   2.922   5.762 -0.6687  0.0324 -0.2442
 8707SOL     OW37579   4.507   2.314  12.201  0.3584  0.1691 -0.3165
 8707SOL    HW137580   4.517   2.387  12.263  0.8524 -2.3297  2.5531
 8707SOL    HW237581   4.432   2.335  12.146  0.0280 -0.6344 -0.1709
 8708SOL     OW37582   4.023   4.705  11.280  0.2945  0.3582  0.0382
 8708SOL    HW137583   3.983   0.044  11.216  0.5279 -1.0340 -1.3758
 8708SOL    HW237584   4.007   0.040  11.358  1.5694  0.7010  0.0675
 8709SOL     OW37585   3.077   2.165   2.382  0.0495  0.6361  0.8110
 8709SOL    HW137586   3.128   2.132   2.308 -1.9161 -0.4341 -0.0745
 8709SOL    HW237587   2.987   2.151   2.350  1.7359 -0.7816 -3.3886
 8710SOL     OW37588   3.311   4.278   9.929 -0.4085 -0.8264  0.5481
 8710SOL    HW137589   3.359   4.198   9.950  0.2991 -0.5600 -0.0811
 8710SOL    HW237590   3.356   4.321   9.857 -0.9714 -1.9761 -0.5096
 8711SOL     OW37591   1.096   1.168   2.021 -0.7157  0.3343  0.8228
 8711SOL    HW137592   1.161   1.193   1.955  0.8069 -3.2486  0.9466
 8711SOL    HW237593   1.029   1.147   1.955  0.2768 -0.2370 -0.0076
 8712SOL     OW37594   2.009   0.726   9.228 -0.1736 -0.0313 -0.1571
 8712SOL    HW137595   1.922   0.685   9.232  0.4813 -1.5763 -1.6763
 8712SOL    HW237596   2.011   0.778   9.308 -1.5658 -0.3250  0.0770
 8713SOL     OW37597   1.986   1.319   0.571 -0.8486 -0.2381 -0.2360
 8713SOL    HW137598   1.929   1.353   0.640 -0.8734 -1.5405  0.3909
 8713SOL    HW237599   2.070   1.327   0.615 -1.2596 -1.0192  0.6853
 8714SOL     OW37600   0.101   2.769  11.264 -0.2949  0.0147  0.1541
 8714SOL    HW137601   0.182   2.776  11.213 -0.6507  2.6673 -0.0598
 8714SOL    HW237602   0.120   2.848  11.315 -1.4713  1.4772 -1.7046
 8715SOL     OW37603   4.037   1.544   1.840 -0.4516  0.5258  0.1099
 8715SOL    HW137604   3.985   1.623   1.837 -1.5073 -0.1678  0.2787
 8715SOL    HW237605   4.031   1.535   1.935  0.4669 -0.8236  0.0474
 8716SOL     OW37606   1.231   0.834   2.813  0.1747  0.7945  0.2737
 8716SOL    HW137607   1.197   0.829   2.723  0.3249  1.8761  0.1605
 8716SOL    HW237608   1.180   0.762   2.849  1.5286 -0.6814 -0.7319
 8717SOL     OW37609   3.472   0.999  14.560  0.0546 -0.3152  0.4894
 8717SOL    HW137610   3.556   0.973  14.599  0.6450 -0.1025 -0.6085
 8717SOL    HW237611   3.454   1.077  14.611  0.1024 -0.2225  0.3652
 8718SOL     OW37612   2.711   1.718   2.350  0.2010 -0.5810  0.3384
 8718SOL    HW137613   2.646   1.752   2.290  2.7301  1.5581 -1.2020
 8718SOL    HW237614   2.699   1.624   2.340 -0.5053 -0.4389 -0.1355
 8719SOL     OW37615   2.330   0.625   2.680 -0.1447  0.0693  0.1029
 8719SOL    HW137616   2.334   0.561   2.609  3.3316  0.8354 -0.3891
 8719SOL    HW237617   2.377   0.703   2.650  1.8178 -1.3255 -0.4615
 8720SOL     OW37618   0.882   2.125   5.891  0.5476 -1.2335 -0.5864
 8720SOL    HW137619   0.839   2.168   5.966 -3.2219 -0.6410 -3.0757
 8720SOL    HW237620   0.804   2.089   5.849  0.6162 -0.7904 -1.0848
 8721SOL     OW37621   1.088   3.126   9.781 -0.4622 -0.0726  0.2321
 8721SOL    HW137622   1.059   3.200   9.834  1.0499 -0.7433  1.9986
 8721SOL    HW237623   1.145   3.164   9.715 -0.8354 -0.0445 -0.0762
 8722SOL     OW37624   0.900   2.236   5.031  0.6636 -0.2989  0.1862
 8722SOL    HW137625   0.908   2.304   5.098  0.2648 -2.5563  2.5190
 8722SOL    HW237626   0.940   2.281   4.956  1.3067  1.2936  1.4854
 8723SOL     OW37627   0.983   4.711   6.688 -0.1520 -0.2053 -0.4121
 8723SOL    HW137628   0.899   0.033   6.666 -0.9573 -0.5839  1.9629
 8723SOL    HW237629   1.032   0.072   6.706  1.2663 -0.9414 -0.9681
 8724SOL     OW37630   3.590   1.403  13.471 -0.1389 -0.2767  0.3567
 8724SOL    HW137631   3.664   1.437  13.521  0.8262  0.5516 -1.6290
 8724SOL    HW237632   3.604   1.453  13.391  0.5137  2.7821  2.3903
 8725SOL     OW37633   0.950   4.447  17.271 -0.1245  0.4154 -0.2472
 8725SOL    HW137634   1.018   4.433  17.205  0.1041 -0.7282  0.2399
 8725SOL    HW237635   1.014   4.482  17.333  0.3187  0.3653 -0.6652
 8726SOL     OW37636   2.808   2.936  16.350  0.2276  0.5398  0.4542
 8726SOL    HW137637   2.811   2.979  16.265 -0.4185  2.0209  1.1847
 8726SOL    HW237638   2.904   2.936  16.358  0.3900 -0.3902 -1.5770
 8727SOL     OW37639   1.430   0.914  15.295 -0.5675 -0.3248 -0.1711
 8727SOL    HW137640   1.423   0.945  15.205 -3.1039 -2.5663 -0.7679
 8727SOL    HW237641   1.461   0.826  15.273 -1.3255 -0.2458 -1.5872
 8728SOL     OW37642   4.138   0.685   6.038 -0.4379 -0.0097 -0.0010
 8728SOL    HW137643   4.087   0.749   5.988 -1.6857  0.6125  2.0653
 8728SOL    HW237644   4.206   0.673   5.971 -1.0682 -1.2048 -0.4289
 8729SOL     OW37645   0.319   2.271   2.554  0.0251  0.4259  0.1725
 8729SOL    HW137646   0.394   2.300   2.501 -1.3828  3.3754 -0.2182
 8729SOL    HW237647   0.286   2.195   2.507  0.2826  0.1557  0.4293
 8730SOL     OW37648   2.734   4.499   1.376 -0.2423  0.0533 -0.6136
 8730SOL    HW137649   2.796   4.568   1.352  2.2850 -1.7742  0.7073
 8730SOL    HW237650   2.666   4.529   1.316 -0.1817 -0.0147 -0.7179
 8731SOL     OW37651   0.477   4.200   5.095 -0.2172 -0.1335 -0.1404
 8731SOL    HW137652   0.545   4.172   5.156  0.7776 -0.3554 -1.3430
 8731SOL    HW237653   0.458   4.284   5.137 -2.5576 -0.9745  0.5210
 8732SOL     OW37654   2.048   0.652   5.019 -0.1088  0.9727  0.1472
 8732SOL    HW137655   2.047   0.677   4.927  0.8267 -0.7381 -0.3187
 8732SOL    HW237656   2.125   0.595   5.018 -0.4514  0.4840  1.5130
 8733SOL     OW37657   0.335   0.237   0.977  0.2815  0.0777 -0.1406
 8733SOL    HW137658   0.245   0.209   0.995  0.3462  0.2511  0.4322
 8733SOL    HW237659   0.387   0.167   1.016  0.8465  1.9230  2.3576
 8734SOL     OW37660   2.478   2.603  12.685  0.9016 -0.0312  0.0788
 8734SOL    HW137661   2.555   2.644  12.725  0.0445  0.3123  1.3771
 8734SOL    HW237662   2.521   2.581  12.602 -0.6349 -3.2487  0.1265
 8735SOL     OW37663   2.880   2.873  12.884 -0.0809  0.3484 -0.6803
 8735SOL    HW137664   2.951   2.901  12.942 -0.4314 -1.6565  0.7023
 8735SOL    HW237665   2.931   2.838  12.811  0.8159  2.0991 -0.8826
 8736SOL     OW37666   4.072   4.327   8.800 -0.0541  0.1645  0.1627
 8736SOL    HW137667   4.101   4.287   8.882  1.1935 -0.9533 -0.8231
 8736SOL    HW237668   4.110   4.415   8.798 -0.4557  0.3078 -1.2349
 8737SOL     OW37669   3.480   2.894   7.970 -0.3766 -0.5560 -0.2714
 8737SOL    HW137670   3.435   2.836   8.031 -0.2992  1.3946  1.6468
 8737SOL    HW237671   3.424   2.971   7.962  0.0424 -0.0619  1.4625
 8738SOL     OW37672   0.322   2.993   2.825 -0.5097  0.3706  0.5097
 8738SOL    HW137673   0.252   3.052   2.854 -1.6922  0.0045 -1.6219
 8738SOL    HW237674   0.294   2.996   2.734  1.1774 -0.3878 -0.0442
 8739SOL     OW37675   2.946   0.388   5.044 -0.0526  0.3848  0.4948
 8739SOL    HW137676   2.942   0.300   5.082  1.6024  0.1472  0.0993
 8739SOL    HW237677   2.936   0.368   4.951  1.1605  1.5769  0.1107
 8740SOL     OW37678   0.580   2.644  12.094 -0.3233 -0.1523 -0.0193
 8740SOL    HW137679   0.506   2.671  12.040 -0.1579 -1.9077 -1.1065
 8740SOL    HW237680   0.633   2.722  12.077 -1.3933  0.4439 -0.6410
 8741SOL     OW37681   1.264   0.336   0.659 -0.4910 -0.2052  0.1091
 8741SOL    HW137682   1.278   0.417   0.609 -0.2383 -0.3137  0.0017
 8741SOL    HW237683   1.226   0.381   0.734 -0.0153 -0.5425  0.5512
 8742SOL     OW37684   4.140   1.111  17.356  0.0445  0.1631 -0.3553
 8742SOL    HW137685   4.074   1.138  17.292 -0.1622 -1.1942 -0.7017
 8742SOL    HW237686   4.214   1.096  17.296  0.1265  0.4741 -0.3323
 8743SOL     OW37687   1.315   2.312   2.736 -0.3457 -0.1435  0.0655
 8743SOL    HW137688   1.242   2.295   2.795 -0.4036  0.5319  0.1825
 8743SOL    HW237689   1.266   2.310   2.653 -1.7630 -0.1373  0.8934
 8744SOL     OW37690   1.415   0.814   6.401  0.4105 -0.3150  0.3000
 8744SOL    HW137691   1.394   0.773   6.485  2.8837  0.4262  1.2902
 8744SOL    HW237692   1.414   0.907   6.426 -0.6951 -0.8204  2.1086
 8745SOL     OW37693   1.568   0.217   5.678 -0.2337 -0.4043 -0.0784
 8745SOL    HW137694   1.586   0.248   5.767 -0.1913  0.2382 -0.3091
 8745SOL    HW237695   1.571   0.298   5.627 -2.6535 -2.3226 -3.2635
 8746SOL     OW37696   2.969   0.631   9.384 -1.0844  0.3765  0.1269
 8746SOL    HW137697   2.883   0.674   9.384 -1.1376  0.2629  1.5387
 8746SOL    HW237698   3.036   0.693   9.412 -0.2952 -0.3953 -0.0737
 8747SOL     OW37699   3.406   0.300   3.466  0.2275  0.2928 -0.2554
 8747SOL    HW137700   3.361   0.295   3.550  1.8860 -0.5585  0.5803
 8747SOL    HW237701   3.335   0.321   3.406  0.7506  0.3227 -0.8702
 8748SOL     OW37702   1.241   4.248   7.418 -0.2752  0.1307 -0.2511
 8748SOL    HW137703   1.288   4.328   7.441  1.1550 -0.9430  0.5285
 8748SOL    HW237704   1.287   4.175   7.459  0.6911  1.8383  1.7174
 8749SOL     OW37705   0.656   4.499   2.382 -0.0337  0.0545  0.0032
 8749SOL    HW137706   0.743   4.523   2.349 -0.2797  1.3466  0.2897
 8749SOL    HW237707   0.675   4.481   2.474 -0.6546 -0.0143  0.1159
 8750SOL     OW37708   0.409   2.358   5.277 -0.3224  0.0770 -0.6037
 8750SOL    HW137709   0.355   2.359   5.356  1.4289 -0.7098  0.6181
 8750SOL    HW237710   0.452   2.274   5.298  0.9775  0.8391 -0.1788
 8751SOL     OW37711   2.529   4.244   1.122  1.2222 -0.1747  0.2642
 8751SOL    HW137712   2.445   4.216   1.157  0.6756  0.8605 -0.2274
 8751SOL    HW237713   2.579   4.186   1.180  1.1306 -0.6666 -0.1403
 8752SOL     OW37714   0.668   3.902  16.958  0.8205 -0.0012 -0.2366
 8752SOL    HW137715   0.717   3.918  16.877 -0.0834  1.0700 -0.5676
 8752SOL    HW237716   0.612   3.831  16.927  2.5983 -2.3552  1.9518
 8753SOL     OW37717   3.861   3.050   3.236 -0.1667 -0.5158  0.2215
 8753SOL    HW137718   3.792   3.081   3.177 -0.1932  1.6821  1.3931
 8753SOL    HW237719   3.901   2.998   3.167  0.5700  0.3405  0.0093
 8754SOL     OW37720   0.259   3.422  11.723  0.4070 -0.3333 -0.2276
 8754SOL    HW137721   0.272   3.327  11.732  2.2917  0.0076  0.6905
 8754SOL    HW237722   0.317   3.447  11.795 -0.3422  0.0928  0.2329
 8755SOL     OW37723   0.763   4.482   7.048 -0.2788 -0.2014  0.5115
 8755SOL    HW137724   0.824   4.549   7.016  3.2703 -2.9834  1.5168
 8755SOL    HW237725   0.779   4.480   7.143  0.7044  2.5560  0.4178
 8756SOL     OW37726   0.696   2.445   8.154  0.4185 -0.1706 -0.1518
 8756SOL    HW137727   0.712   2.460   8.247 -2.0058 -0.5189  0.3239
 8756SOL    HW237728   0.779   2.405   8.127 -0.3756 -2.1270  0.2925
 8757SOL     OW37729   1.411   4.098   6.226 -0.0638  0.1261  0.5327
 8757SOL    HW137730   1.437   4.096   6.318  1.3205 -1.4228  0.1093
 8757SOL    HW237731   1.402   4.005   6.207  0.7474  0.1216  0.1809
 8758SOL     OW37732   0.238   2.338   4.836  0.2164 -0.1808 -0.0811
 8758SOL    HW137733   0.254   2.402   4.767  0.3786 -0.8416 -0.6511
 8758SOL    HW237734   0.304   2.361   4.902  0.3806  0.1025 -0.3436
 8759SOL     OW37735   3.723   4.252   7.514  0.3347  0.3244 -0.3276
 8759SOL    HW137736   3.697   4.344   7.519 -0.9459  0.0292 -1.6370
 8759SOL    HW237737   3.719   4.216   7.603 -0.4050  0.9925 -0.0895
 8760SOL     OW37738   4.386   1.066   6.619 -0.3449  0.1184 -0.1647
 8760SOL    HW137739   4.291   1.059   6.623 -0.0250 -2.7866  1.9864
 8760SOL    HW237740   4.381   1.158   6.647 -3.0165 -0.4222  1.1154
 8761SOL     OW37741   0.884   2.106  16.400 -0.1188  0.3272 -0.2062
 8761SOL    HW137742   0.837   2.169  16.455 -0.6639  0.2518 -0.5768
 8761SOL    HW237743   0.975   2.128  16.418  0.7061 -0.5224 -3.3565
 8762SOL     OW37744   2.203   4.328   7.591 -0.2191 -0.5890 -0.4595
 8762SOL    HW137745   2.177   4.384   7.665 -1.9559 -1.5641 -0.3267
 8762SOL    HW237746   2.132   4.355   7.532  0.5305  1.5710 -0.3772
 8763SOL     OW37747   2.776   3.184   7.289 -0.0971  0.1569 -0.0323
 8763SOL    HW137748   2.767   3.090   7.273 -1.7187 -0.1049  2.5843
 8763SOL    HW237749   2.751   3.178   7.381  2.2626 -1.0137  0.5430
 8764SOL     OW37750   0.867   0.880   8.637  0.1667 -0.1941 -0.4878
 8764SOL    HW137751   0.782   0.851   8.605  0.7440 -1.4783 -0.8594
 8764SOL    HW237752   0.863   0.852   8.729  1.6850 -2.2366 -1.0422
 8765SOL     OW37753   2.285   0.384   8.627  0.1328  0.3195 -0.3264
 8765SOL    HW137754   2.299   0.372   8.534 -1.0686  4.1330 -1.0015
 8765SOL    HW237755   2.266   0.295   8.657 -0.8160  1.0469  1.2579
 8766SOL     OW37756   1.806   4.072   6.604  0.1319 -0.0408 -0.1789
 8766SOL    HW137757   1.772   4.160   6.622 -1.2127 -0.8069  1.0663
 8766SOL    HW237758   1.821   4.075   6.510 -0.1556 -0.8891 -0.2523
 8767SOL     OW37759   1.849   2.533  11.469 -0.0131 -0.2262 -1.1158
 8767SOL    HW137760   1.826   2.606  11.411 -2.0653 -1.5754 -2.0158
 8767SOL    HW237761   1.829   2.464  11.405  0.1386 -0.3932 -0.9805
 8768SOL     OW37762   4.559   3.138  16.961 -0.1828 -0.3835 -0.3437
 8768SOL    HW137763   4.644   3.148  17.003 -0.8161 -4.0008  1.7335
 8768SOL    HW237764   4.507   3.141  17.042  2.2883 -0.4545  1.2331
 8769SOL     OW37765   0.977   3.852   1.790 -0.0851  0.1979  0.6984
 8769SOL    HW137766   1.019   3.936   1.770 -0.1385  0.4037  1.4500
 8769SOL    HW237767   1.019   3.778   1.747  0.5113  0.8678  0.1244
 8770SOL     OW37768   0.571   3.992  15.484 -0.1102  0.0760 -0.1546
 8770SOL    HW137769   0.576   3.902  15.451  0.5374  0.4245 -1.0041
 8770SOL    HW237770   0.659   4.000  15.519 -0.9809  3.1037  1.2689
 8771SOL     OW37771   2.815   0.696   4.057  0.2979  0.1062 -0.4672
 8771SOL    HW137772   2.883   0.763   4.057 -0.1118  0.5238  2.8553
 8771SOL    HW237773   2.859   0.611   4.048  0.2050 -0.0002  0.1103
 8772SOL     OW37774   0.802   2.991   8.516  0.1898 -0.2178  0.4107
 8772SOL    HW137775   0.813   3.010   8.423  1.4821 -0.1666  0.5759
 8772SOL    HW237776   0.739   3.059   8.541  1.4055  1.1818 -0.3371
 8773SOL     OW37777   4.377   3.426  14.247 -0.5670 -0.0040  0.5126
 8773SOL    HW137778   4.326   3.437  14.327 -2.3805 -0.2910 -0.5840
 8773SOL    HW237779   4.352   3.500  14.191  3.5911  1.9940  1.3278
 8774SOL     OW37780   4.565   1.338   7.599  0.2198  0.3666 -0.1756
 8774SOL    HW137781   4.509   1.328   7.522  2.2367  2.9360 -1.9878
 8774SOL    HW237782   4.641   1.394   7.583  0.3502  0.0488 -0.6643
 8775SOL     OW37783   4.685   3.478   2.274 -0.4380  0.9779 -0.4224
 8775SOL    HW137784   4.650   3.565   2.256 -0.6251  0.6872 -1.4241
 8775SOL    HW237785   0.029   3.466   2.204 -0.0288  2.1656 -0.2500
 8776SOL     OW37786   1.687   0.576   7.516  0.1185 -0.1443 -0.2586
 8776SOL    HW137787   1.646   0.506   7.465  0.3628 -0.0451 -0.5909
 8776SOL    HW237788   1.637   0.654   7.492 -0.7832 -1.1348 -1.5661
 8777SOL     OW37789   4.171   4.421   2.826 -0.4328 -0.2587 -0.1691
 8777SOL    HW137790   4.148   4.375   2.745  0.7805  0.9124 -1.1699
 8777SOL    HW237791   4.112   4.375   2.885  0.6520 -0.1676  0.9688
 8778SOL     OW37792   0.443   1.323  17.176 -0.2767 -0.0090 -0.5235
 8778SOL    HW137793   0.398   1.325  17.261 -0.3288  0.5355 -0.5633
 8778SOL    HW237794   0.385   1.385  17.131  1.9861  3.0377  0.7201
 8779SOL     OW37795   1.815   3.949   7.541 -0.9482 -0.3725  0.1450
 8779SOL    HW137796   1.909   3.941   7.527 -0.4869  3.7943  0.7926
 8779SOL    HW237797   1.814   4.016   7.610 -2.2035 -0.2888  0.0523
 8780SOL     OW37798   3.975   3.452  12.544  0.3988 -0.9182 -0.2641
 8780SOL    HW137799   3.900   3.503  12.512  1.3562  0.3359 -0.4903
 8780SOL    HW237800   3.931   3.400  12.612  2.5402 -2.6456 -0.2117
 8781SOL     OW37801   1.337   2.782   3.164  0.1175  0.4484 -0.1729
 8781SOL    HW137802   1.271   2.806   3.229  2.1771 -0.5915  2.3262
 8781SOL    HW237803   1.339   2.687   3.167 -0.4058  0.4816  1.6391
 8782SOL     OW37804   4.296   1.780   7.055  0.1776  0.0252 -0.2228
 8782SOL    HW137805   4.347   1.821   6.985  0.9311  0.2502  0.4624
 8782SOL    HW237806   4.348   1.701   7.066 -1.2942 -0.6013  2.2239
 8783SOL     OW37807   4.379   0.205   8.741 -0.0994 -0.1733 -0.0564
 8783SOL    HW137808   4.345   0.241   8.823  0.2939 -1.0775  0.4943
 8783SOL    HW237809   4.365   0.278   8.680  1.4086  1.2236  1.2935
 8784SOL     OW37810   3.752   3.978   9.961  0.5595 -0.3501  0.6680
 8784SOL    HW137811   3.768   3.918  10.034 -1.0832 -1.3014  0.2406
 8784SOL    HW237812   3.717   3.921   9.892  0.1209 -0.9849  1.4085
 8785SOL     OW37813   1.012   1.655  14.783 -0.1257  0.2526  0.0974
 8785SOL    HW137814   0.919   1.634  14.790 -0.7138  2.8131  0.0614
 8785SOL    HW237815   1.047   1.566  14.780 -2.7692 -0.8427  1.8360
 8786SOL     OW37816   0.265   1.783   1.329  0.2131  0.1307  0.2567
 8786SOL    HW137817   0.223   1.868   1.335 -0.8145 -0.2206 -1.6895
 8786SOL    HW237818   0.283   1.770   1.235  0.2279  3.4506 -0.2056
 8787SOL     OW37819   4.408   0.243  15.305 -0.4693  0.1145 -0.2756
 8787SOL    HW137820   4.464   0.310  15.267  0.5270  0.2348  1.4000
 8787SOL    HW237821   4.474   0.188  15.347  0.3977 -0.2209 -2.0795
 8788SOL     OW37822   4.026   0.388   7.022 -0.0025  0.2173 -0.2702
 8788SOL    HW137823   3.974   0.450   7.073  2.4644  1.3220  0.9190
 8788SOL    HW237824   4.113   0.426   7.007 -0.5701  1.1388 -1.2231
 8789SOL     OW37825   1.647   1.795  15.916 -0.0232 -1.0528  0.1442
 8789SOL    HW137826   1.650   1.700  15.930  0.6393 -0.8245  1.5577
 8789SOL    HW237827   1.647   1.789  15.821  1.0402 -2.0019  0.2006
 8790SOL     OW37828   1.278   2.510   7.715  0.2387 -0.3996  0.4453
 8790SOL    HW137829   1.195   2.489   7.674 -1.4215  1.2030  2.9523
 8790SOL    HW237830   1.286   2.443   7.782 -1.3652 -1.8881 -0.8634
 8791SOL     OW37831   3.819   1.668   5.259  0.2351 -0.0007 -0.8353
 8791SOL    HW137832   3.847   1.738   5.318  0.2136 -1.6451  1.1042
 8791SOL    HW237833   3.802   1.599   5.323  0.8007  0.3121 -0.3477
 8792SOL     OW37834   0.726   4.089   0.046  0.1627  0.6539  0.4440
 8792SOL    HW137835   0.735   4.169  17.673 -1.3173  1.2936  1.1875
 8792SOL    HW237836   0.788   4.099   0.118 -0.0853  0.7688  0.6415
 8793SOL     OW37837   3.995   2.843   0.339  0.2360  0.5112  0.4138
 8793SOL    HW137838   4.012   2.822   0.431 -2.9958 -0.3657  0.8112
 8793SOL    HW237839   3.923   2.784   0.319 -0.5485  2.5538 -2.7665
 8794SOL     OW37840   0.182   4.426   8.160  0.2903  0.2954 -0.0897
 8794SOL    HW137841   0.220   4.344   8.190 -1.7240 -1.0874 -1.3590
 8794SOL    HW237842   0.255   4.465   8.111  0.7509 -1.9536 -1.1715
 8795SOL     OW37843   1.156   0.868  15.706 -0.3604  0.4720 -0.2521
 8795SOL    HW137844   1.073   0.901  15.741 -0.2152 -2.2963  2.6161
 8795SOL    HW237845   1.210   0.947  15.706 -0.8332  0.7883  1.0738
 8796SOL     OW37846   2.169   0.616   6.011  0.0826 -0.4184  0.1586
 8796SOL    HW137847   2.143   0.556   5.942 -0.1320 -0.5311  0.3413
 8796SOL    HW237848   2.225   0.565   6.069 -1.9256 -1.2120  1.3742
 8797SOL     OW37849   4.238   3.230   0.422 -0.0846 -0.7292 -0.1548
 8797SOL    HW137850   4.195   3.298   0.474 -2.7341 -2.8369  0.3536
 8797SOL    HW237851   4.321   3.275   0.408  0.6568 -1.3531  2.1784
 8798SOL     OW37852   1.428   1.769   7.875  0.0366  0.4611  0.2514
 8798SOL    HW137853   1.426   1.680   7.841 -1.1953 -0.6796  3.3173
 8798SOL    HW237854   1.382   1.762   7.959  1.6327 -0.7484  1.0311
 8799SOL     OW37855   1.129   3.564   7.333 -0.2871  0.6359 -0.1992
 8799SOL    HW137856   1.034   3.570   7.349 -0.0095 -1.2897  2.1569
 8799SOL    HW237857   1.148   3.471   7.343 -1.5172  0.4899  0.8689
 8800SOL     OW37858   1.633   0.298   1.870 -0.1072  0.2730 -0.5174
 8800SOL    HW137859   1.728   0.288   1.862 -0.1256  0.5206 -1.0665
 8800SOL    HW237860   1.615   0.391   1.857  0.2008  0.3312 -0.5337
 8801SOL     OW37861   3.033   2.956  15.573 -0.2503  0.0506 -0.0844
 8801SOL    HW137862   2.949   2.998  15.593 -0.8196 -0.6157 -1.0310
 8801SOL    HW237863   3.072   3.014  15.508 -2.4354  0.2831 -1.1842
 8802SOL     OW37864   0.279   4.711   3.833  0.4526  0.0384  0.2679
 8802SOL    HW137865   0.270   0.088   3.836 -0.5728 -0.0207 -1.1273
 8802SOL    HW237866   0.222   4.681   3.903 -0.1905 -1.5440 -0.9616
 8803SOL     OW37867   1.678   3.410   5.590 -0.0767 -0.5040 -0.1262
 8803SOL    HW137868   1.631   3.335   5.625  1.9549 -2.0727 -0.7567
 8803SOL    HW237869   1.704   3.383   5.502 -2.1478 -0.3401 -0.7971
 8804SOL     OW37870   3.332   4.230  17.265  0.3013 -0.6317 -0.2441
 8804SOL    HW137871   3.359   4.313  17.303 -1.4796  0.3287 -1.0844
 8804SOL    HW237872   3.257   4.250  17.209  0.5515  2.4159  0.5270
 8805SOL     OW37873   2.225   0.460   6.460 -0.2328  0.6024 -0.0108
 8805SOL    HW137874   2.230   0.385   6.520 -0.8920  1.2997  0.9242
 8805SOL    HW237875   2.297   0.444   6.400 -2.0950  0.6917 -2.2801
 8806SOL     OW37876   0.272   3.951  16.265  0.0887  0.1502 -0.2968
 8806SOL    HW137877   0.286   4.027  16.208  0.4958 -1.8048 -2.8098
 8806SOL    HW237878   0.196   3.910  16.224  0.2209  0.7899 -1.1659
 8807SOL     OW37879   2.201   0.663  13.981  0.3928  0.1764 -0.0320
 8807SOL    HW137880   2.135   0.609  13.937  1.8587 -1.4525 -0.2146
 8807SOL    HW237881   2.265   0.674  13.912  0.6859  0.3470  0.2641
 8808SOL     OW37882   0.778   2.892   0.670 -0.0507 -0.3340  0.3093
 8808SOL    HW137883   0.784   2.875   0.764 -0.3456  0.0160  0.3916
 8808SOL    HW237884   0.731   2.817   0.633  0.7545 -0.8170  0.2705
 8809SOL     OW37885   0.137   2.111  10.639 -0.2115  0.3376 -0.7694
 8809SOL    HW137886   0.076   2.047  10.602 -0.7486  0.6078 -0.3291
 8809SOL    HW237887   0.082   2.155  10.702 -1.0976 -0.0744 -1.2539
 8810SOL     OW37888   4.645   1.095   5.777  0.1200 -0.1336  1.0037
 8810SOL    HW137889   4.680   1.184   5.773  3.0376 -1.2569  1.8917
 8810SOL    HW237890   4.664   1.082   5.684 -2.5157  1.4916  0.2347
 8811SOL     OW37891   4.504   3.424  16.277  0.0669 -0.1356  0.4271
 8811SOL    HW137892   4.492   3.352  16.339  1.8452  1.1084  2.2044
 8811SOL    HW237893   4.548   3.381  16.204 -0.9367  0.5723 -0.5881
 8812SOL     OW37894   4.145   4.688  10.191 -0.0470  0.4336 -0.0095
 8812SOL    HW137895   4.056   4.705  10.222 -0.0231 -1.2313  0.9674
 8812SOL    HW237896   4.120   4.615  10.134  1.7114  0.4933 -0.8757
 8813SOL     OW37897   2.424   3.126   7.218 -0.5509 -0.1283 -0.4110
 8813SOL    HW137898   2.460   3.136   7.130  2.9537  0.4252  1.1062
 8813SOL    HW237899   2.334   3.097   7.199 -0.7237 -1.3713  2.2952
 8814SOL     OW37900   1.528   4.029   1.695  0.4978  0.5290  0.3496
 8814SOL    HW137901   1.544   4.113   1.653 -0.4623  0.2602 -0.5881
 8814SOL    HW237902   1.608   4.011   1.744  0.1126 -3.4300 -0.4763
 8815SOL     OW37903   1.881   0.200   1.145  0.0802 -0.3437  0.0013
 8815SOL    HW137904   1.898   0.109   1.119 -3.4033 -1.0094  0.0313
 8815SOL    HW237905   1.829   0.227   1.070  0.2667  0.2403  0.0846
 8816SOL     OW37906   3.070   3.599  11.752 -0.3395 -0.1807  0.3765
 8816SOL    HW137907   3.117   3.643  11.680  0.8436  1.4241  2.1349
 8816SOL    HW237908   3.135   3.560  11.810  0.3771 -0.3994 -0.5726
 8817SOL     OW37909   0.659   0.057   6.922  0.4778 -0.2260  0.5410
 8817SOL    HW137910   0.664   4.684   6.898  0.9377 -0.0407 -0.0845
 8817SOL    HW237911   0.748   0.064   6.959 -1.2276  0.6854  4.5247
 8818SOL     OW37912   4.597   3.636  17.497 -0.3606 -0.1838  0.2622
 8818SOL    HW137913   4.603   3.607  17.588 -1.0194  2.3568  1.0992
 8818SOL    HW237914   4.680   3.623  17.450  1.1373 -0.7417  3.0958
 8819SOL     OW37915   0.630   3.226  17.402 -0.5857 -0.4120 -0.0443
 8819SOL    HW137916   0.629   3.141  17.358 -2.7576 -0.1114 -0.5636
 8819SOL    HW237917   0.570   3.279  17.349  0.0066 -0.5523 -0.8549
 8820SOL     OW37918   1.499   0.595   2.140 -0.1090 -0.3827 -0.0059
 8820SOL    HW137919   1.452   0.515   2.163 -3.6550  1.8130  0.2956
 8820SOL    HW237920   1.478   0.648   2.217  2.5402  2.3554 -1.1415
 8821SOL     OW37921   1.446   0.690   2.377 -0.0507 -0.1869  0.8504
 8821SOL    HW137922   1.450   0.610   2.429  0.1202 -0.6748  0.0809
 8821SOL    HW237923   1.468   0.751   2.447  1.4656  0.0455  0.1781
 8822SOL     OW37924   4.064   3.427   8.892  0.4003 -0.5526 -0.0468
 8822SOL    HW137925   4.111   3.343   8.893 -1.0699 -1.3831 -1.8317
 8822SOL    HW237926   3.972   3.404   8.883  0.5426 -1.4045  0.6940
 8823SOL     OW37927   3.351   0.258  12.695 -0.7261  0.0502 -0.1071
 8823SOL    HW137928   3.271   0.306  12.676 -1.5116 -0.9597  0.6964
 8823SOL    HW237929   3.396   0.337  12.726 -1.6707  0.8238 -0.7127
 8824SOL     OW37930   1.548   0.137   2.346  0.0162  0.2348 -0.6450
 8824SOL    HW137931   1.498   0.133   2.427  1.6913 -0.8054  0.3351
 8824SOL    HW237932   1.635   0.158   2.380 -0.1701  1.4783 -0.9493
 8825SOL     OW37933   4.302   2.591   6.201 -0.8841  0.1732 -0.6117
 8825SOL    HW137934   4.380   2.541   6.225 -0.8369 -0.0441 -1.2136
 8825SOL    HW237935   4.332   2.622   6.116  1.3823 -1.6939 -0.5032
 8826SOL     OW37936   3.154   0.527   8.880  0.7061 -0.8712 -0.1548
 8826SOL    HW137937   3.128   0.564   8.964  1.5559  1.5770 -0.9686
 8826SOL    HW237938   3.079   0.473   8.856 -0.5568  0.9178 -0.2000
 8827SOL     OW37939   0.280   0.724  16.638  0.2052  0.1776  0.2887
 8827SOL    HW137940   0.363   0.728  16.591  0.2922  1.6716  0.5842
 8827SOL    HW237941   0.309   0.707  16.728  1.6661  0.1306 -0.1858
 8828SOL     OW37942   3.060   3.530   3.193  0.5349 -0.2674  0.4751
 8828SOL    HW137943   3.056   3.605   3.134  0.8094  0.3609  1.2573
 8828SOL    HW237944   3.136   3.483   3.160 -0.2518 -1.4599  0.3348
 8829SOL     OW37945   1.841   3.934   2.691 -0.5269  0.8434 -0.0942
 8829SOL    HW137946   1.900   4.010   2.688 -0.0033  0.5519  2.7096
 8829SOL    HW237947   1.886   3.880   2.756 -0.7303  1.4021  0.5095
 8830SOL     OW37948   2.082   0.801   1.749 -0.1283 -0.0406 -0.5931
 8830SOL    HW137949   2.117   0.775   1.834 -0.0989 -1.1464 -0.9367
 8830SOL    HW237950   1.989   0.781   1.760 -0.8867  2.9048 -1.6235
 8831SOL     OW37951   2.808   1.230   8.191  0.5649 -0.9687  0.0579
 8831SOL    HW137952   2.758   1.246   8.271  0.9065 -1.0626  0.2881
 8831SOL    HW237953   2.752   1.162   8.153  1.4426 -2.0627  0.7387
 8832SOL     OW37954   3.279   0.091  15.688 -0.3424 -0.4311  0.0454
 8832SOL    HW137955   3.351   0.028  15.684  0.1557  0.0699  1.0526
 8832SOL    HW237956   3.324   0.175  15.677 -0.2882 -0.7680 -2.3342
 8833SOL     OW37957   1.877   1.517   2.213 -0.0964 -0.2222  0.6153
 8833SOL    HW137958   1.814   1.455   2.249 -1.6900 -0.2019 -2.1142
 8833SOL    HW237959   1.902   1.552   2.298  2.1088 -1.5780  0.5268
 8834SOL     OW37960   1.518   3.294   8.391 -0.1805 -0.1956 -0.1746
 8834SOL    HW137961   1.458   3.246   8.447  2.8598  0.7567  3.9110
 8834SOL    HW237962   1.577   3.330   8.458  1.1123  0.8516 -1.8640
 8835SOL     OW37963   1.407   2.318   5.604 -0.1592 -0.1636  0.3334
 8835SOL    HW137964   1.428   2.346   5.515 -3.0969 -2.0650 -0.9577
 8835SOL    HW237965   1.488   2.271   5.625  0.4221  0.2070 -1.0710
 8836SOL     OW37966   3.666   1.991  16.702  0.1354  0.3463 -0.7108
 8836SOL    HW137967   3.625   2.064  16.748 -1.6370 -0.6789 -0.6623
 8836SOL    HW237968   3.669   1.919  16.765 -0.9764 -1.1396 -2.3441
 8837SOL     OW37969   3.755   4.435   9.478 -0.6189  0.1080 -0.0523
 8837SOL    HW137970   3.786   4.394   9.398 -0.0788 -1.5649  1.0163
 8837SOL    HW237971   3.759   4.524   9.443 -1.8382  0.9189  1.8513
 8838SOL     OW37972   3.595   0.863   2.056  0.3428  0.7806 -0.1392
 8838SOL    HW137973   3.673   0.879   2.003  1.6106 -0.8583  1.2332
 8838SOL    HW237974   3.534   0.817   1.998  1.0386 -1.2651  0.7744
 8839SOL     OW37975   1.191   2.534   1.271 -0.7112  0.1131  0.2805
 8839SOL    HW137976   1.140   2.534   1.352 -1.7606  2.0218 -0.3744
 8839SOL    HW237977   1.240   2.616   1.273 -1.0805  0.3079  1.6520
 8840SOL     OW37978   3.116   0.065   7.889 -0.5039  0.5026  0.5437
 8840SOL    HW137979   3.096   0.061   7.983 -3.5054 -1.5358 -0.1814
 8840SOL    HW237980   3.071   0.145   7.863 -0.8169 -0.0966 -0.7878
 8841SOL     OW37981   1.659   0.764   6.885 -0.1770  0.0060 -0.7077
 8841SOL    HW137982   1.730   0.827   6.874 -0.6597  0.4821 -1.0668
 8841SOL    HW237983   1.580   0.817   6.887 -1.3795 -1.7837 -0.0433
 8842SOL     OW37984   1.601   4.251   4.317  0.0381 -0.2816 -0.5643
 8842SOL    HW137985   1.662   4.183   4.288 -1.9002 -1.3213 -2.1915
 8842SOL    HW237986   1.660   4.324   4.336  0.7053 -0.4420 -2.0165
 8843SOL     OW37987   2.590   3.248   8.297 -0.8391 -0.4097 -0.0585
 8843SOL    HW137988   2.589   3.264   8.391 -0.3493  0.7180 -0.2477
 8843SOL    HW237989   2.506   3.284   8.271 -1.5051 -1.9818 -0.0419
 8844SOL     OW37990   2.405   3.203   0.086 -0.0732 -0.2408 -0.3705
 8844SOL    HW137991   2.342   3.153   0.034 -1.1960  1.3588 -0.5571
 8844SOL    HW237992   2.363   3.287   0.067 -0.8381 -0.9464 -1.7797
 8845SOL     OW37993   0.111   1.938   3.117 -0.1538 -0.0321  0.2385
 8845SOL    HW137994   0.118   1.848   3.147 -0.5037 -0.0208  0.3635
 8845SOL    HW237995   0.175   1.940   3.046 -1.4884  0.5261 -0.9594
 8846SOL     OW37996   3.266   1.035  15.259  0.2668  0.0110 -0.2118
 8846SOL    HW137997   3.330   0.993  15.202  0.3912  0.1754 -0.1931
 8846SOL    HW237998   3.192   0.974  15.249 -0.1893  0.2553  1.8006
 8847SOL     OW37999   3.445   3.596   9.049 -0.1812 -0.7447 -0.4579
 8847SOL    HW138000   3.514   3.582   8.985 -0.5934 -3.4201 -0.3194
 8847SOL    HW238001   3.419   3.506   9.069 -0.5098 -0.5287  0.0919
 8848SOL     OW38002   0.054   1.155  16.889  0.8393  0.1955  0.0507
 8848SOL    HW138003   0.041   1.149  16.794 -0.8978 -0.5984  0.3381
 8848SOL    HW238004   0.119   1.086  16.898  1.0847  0.1064 -2.3251
 8849SOL     OW38005   2.132   2.895   5.011  0.6837  0.1015  0.2413
 8849SOL    HW138006   2.147   2.930   4.923 -2.5568  0.7758 -0.0242
 8849SOL    HW238007   2.102   2.806   4.991 -0.6416  0.7300 -0.5092
 8850SOL     OW38008   3.884   0.155   6.998  0.1039  0.0206  0.0198
 8850SOL    HW138009   3.822   0.189   7.062  0.1556 -1.5857  0.9506
 8850SOL    HW238010   3.929   0.239   6.992  1.3529 -0.6350  0.2228
 8851SOL     OW38011   4.645   4.693   5.663 -0.1677  0.1920 -0.0107
 8851SOL    HW138012   4.647   0.008   5.752 -1.1012 -2.0631  0.8611
 8851SOL    HW238013   0.016   4.666   5.647 -0.5412 -0.8025 -0.4547
 8852SOL     OW38014   3.713   3.913   2.687  0.3158  0.3336  0.2393
 8852SOL    HW138015   3.631   3.938   2.642  0.6744 -1.2282 -1.2852
 8852SOL    HW238016   3.686   3.854   2.757 -0.5548  0.6005  0.1366
 8853SOL     OW38017   0.457   1.436   6.388  0.2543 -0.3052 -0.0011
 8853SOL    HW138018   0.438   1.342   6.398  1.9469 -0.6248  0.2339
 8853SOL    HW238019   0.436   1.450   6.296 -1.4426 -0.6538  0.3447
 8854SOL     OW38020   4.125   2.757   3.758 -0.3722 -0.1896  0.0256
 8854SOL    HW138021   4.054   2.791   3.813 -0.2881 -1.1778  0.7562
 8854SOL    HW238022   4.143   2.837   3.710 -1.1499 -0.9295 -1.5221
 8855SOL     OW38023   4.294   0.444   2.645  0.2855 -0.5941 -0.6977
 8855SOL    HW138024   4.343   0.509   2.697 -0.4635  1.2434 -2.2934
 8855SOL    HW238025   4.212   0.435   2.694  0.4016  1.3168 -0.1289
 8856SOL     OW38026   1.681   3.406   4.191  0.1530 -0.4207  0.6717
 8856SOL    HW138027   1.627   3.351   4.248 -0.6369 -1.3276 -0.9382
 8856SOL    HW238028   1.654   3.387   4.101 -0.8987  0.7466  0.7449
 8857SOL     OW38029   1.179   1.022  14.319  0.0353 -0.1875 -0.2774
 8857SOL    HW138030   1.218   1.106  14.296  1.1087 -0.6754 -0.2325
 8857SOL    HW238031   1.248   0.977  14.369 -1.0552 -0.9692  0.5181
 8858SOL     OW38032   0.962   2.597  14.963 -0.2799  0.3199  0.1808
 8858SOL    HW138033   0.930   2.602  14.872 -0.8864 -1.3909  0.2953
 8858SOL    HW238034   1.041   2.544  14.952  0.5883  1.6029  0.2863
 8859SOL     OW38035   1.632   2.165   5.632  0.5699  0.3380 -0.1510
 8859SOL    HW138036   1.718   2.195   5.663  0.0900 -0.6955  2.1507
 8859SOL    HW238037   1.653   2.098   5.566  2.2560  2.1944 -1.5175
 8860SOL     OW38038   3.220   2.053   9.499  0.1045 -0.3248 -0.1703
 8860SOL    HW138039   3.171   1.972   9.515 -0.9680  0.0708 -1.4267
 8860SOL    HW238040   3.306   2.021   9.474 -0.5692 -1.2091 -1.3564
 8861SOL     OW38041   3.204   0.709  15.206  0.1202 -0.0627 -0.5092
 8861SOL    HW138042   3.187   0.671  15.292  1.0479 -0.1105 -0.3466
 8861SOL    HW238043   3.116   0.733  15.178  0.3181  0.7826 -0.4170
 8862SOL     OW38044   3.629   2.087   4.432 -0.1709  0.1733 -0.0724
 8862SOL    HW138045   3.655   1.996   4.416  1.2202  0.2256  1.7679
 8862SOL    HW238046   3.683   2.136   4.370 -0.7042 -0.2219 -0.8382
 8863SOL     OW38047   2.116   0.625   7.049  0.0990 -0.0133 -0.3911
 8863SOL    HW138048   2.208   0.646   7.037 -0.3853  1.1566 -1.9384
 8863SOL    HW238049   2.082   0.701   7.097  1.9223  0.4187  0.2026
 8864SOL     OW38050   4.163   4.370  17.039 -0.1615 -0.2072  0.4781
 8864SOL    HW138051   4.199   4.433  17.102  0.6709 -0.7098  0.4974
 8864SOL    HW238052   4.174   4.292  17.093  0.6950 -0.1153  0.4345
 8865SOL     OW38053   2.634   3.112  10.535 -0.4578  0.0749  0.2935
 8865SOL    HW138054   2.720   3.153  10.538  0.4838 -1.9142  0.4622
 8865SOL    HW238055   2.643   3.075  10.623 -1.5624  2.5094  1.4458
 8866SOL     OW38056   3.069   4.540  13.341  0.0296  0.2518 -0.4169
 8866SOL    HW138057   3.023   4.500  13.415  0.4551 -0.8522 -0.7452
 8866SOL    HW238058   3.119   4.463  13.313 -0.2690  0.4533 -1.5382
 8867SOL     OW38059   4.651   2.054   4.605  0.4890  0.3903 -0.1825
 8867SOL    HW138060   4.647   2.087   4.515  0.4098  0.5448 -0.1228
 8867SOL    HW238061   4.715   1.983   4.601 -0.0078 -0.0937  0.4741
 8868SOL     OW38062   1.468   2.542   2.775  0.3067  0.3114  0.2471
 8868SOL    HW138063   1.425   2.458   2.791  0.8373  0.0006  0.0057
 8868SOL    HW238064   1.394   2.600   2.795 -0.1830 -0.2899  0.1612
 8869SOL     OW38065   4.412   2.267   8.361 -0.6485  0.4996 -0.2923
 8869SOL    HW138066   4.495   2.267   8.313 -0.1767 -0.2231  0.5224
 8869SOL    HW238067   4.427   2.353   8.401  0.3036  0.2748 -0.1684
 8870SOL     OW38068   3.456   3.945  10.016  0.0313  0.0619  0.7649
 8870SOL    HW138069   3.434   3.946   9.923  1.4668  1.0192  0.4230
 8870SOL    HW238070   3.552   3.951  10.019 -0.1769  2.3862  2.7022
 8871SOL     OW38071   1.208   0.734   2.036 -0.3934  0.1011  0.1662
 8871SOL    HW138072   1.140   0.755   1.971 -1.2264  1.3049  1.4109
 8871SOL    HW238073   1.153   0.725   2.115 -0.9625 -0.8024 -0.3338
 8872SOL     OW38074   0.762   3.336   6.368 -0.0597 -0.2367 -0.1584
 8872SOL    HW138075   0.736   3.278   6.441  1.0875 -0.2565  0.2337
 8872SOL    HW238076   0.685   3.329   6.312  0.8664  0.6560 -1.5332
 8873SOL     OW38077   3.604   2.133  15.926  0.4304 -0.5491 -0.0181
 8873SOL    HW138078   3.525   2.140  15.871  0.5912  0.7810 -0.0716
 8873SOL    HW238079   3.649   2.062  15.882  1.8882  0.0797  0.4750
 8874SOL     OW38080   1.175   1.207   3.203 -0.3928 -0.2077 -0.4478
 8874SOL    HW138081   1.112   1.253   3.148  2.3406  1.5368 -2.1614
 8874SOL    HW238082   1.258   1.232   3.161 -0.2225  0.8426  0.5480
 8875SOL     OW38083   2.087   4.615  17.072  0.0056 -0.3925  0.3728
 8875SOL    HW138084   2.154   4.652  17.014 -0.2618  0.6897  0.7662
 8875SOL    HW238085   2.129   4.611  17.158  1.8505 -1.8408 -0.5912
 8876SOL     OW38086   0.957   0.392  11.781 -0.2866 -0.0251 -0.2888
 8876SOL    HW138087   0.933   0.336  11.855  1.0114 -0.4748 -0.2081
 8876SOL    HW238088   0.966   0.482  11.812  3.0096 -0.8328  1.0664
 8877SOL     OW38089   4.008   3.236   9.393 -0.2094  0.5294 -0.3733
 8877SOL    HW138090   4.064   3.223   9.470  0.9828  2.1202 -0.9686
 8877SOL    HW238091   4.017   3.329   9.376  1.0009  1.0012  2.8433
 8878SOL     OW38092   0.364   0.277   5.430  0.2510  0.0978  0.0103
 8878SOL    HW138093   0.420   0.217   5.382  0.1563  1.2500 -1.5611
 8878SOL    HW238094   0.283   0.232   5.404  1.5347 -1.6306 -1.0064
 8879SOL     OW38095   0.515   3.772   7.517  0.5129  0.1333  0.1800
 8879SOL    HW138096   0.512   3.730   7.603 -1.6853  0.8571  0.4714
 8879SOL    HW238097   0.441   3.832   7.528 -1.1208 -2.1919  1.9402
 8880SOL     OW38098   0.794   3.980   8.241 -0.2975 -0.0122  0.7298
 8880SOL    HW138099   0.774   3.953   8.151  2.4246 -0.9664  0.4139
 8880SOL    HW238100   0.806   4.075   8.236  0.4712 -0.1256  0.4688
 8881SOL     OW38101   4.077   0.381   5.446 -0.5334 -0.5549  1.2617
 8881SOL    HW138102   4.138   0.414   5.512  1.9203  0.4705 -1.5157
 8881SOL    HW238103   4.003   0.362   5.503 -2.3655  1.2832 -0.5028
 8882SOL     OW38104   2.921   3.595   8.780  0.3050  0.2201  0.0323
 8882SOL    HW138105   2.977   3.522   8.752 -0.4639  0.0700 -1.0996
 8882SOL    HW238106   2.836   3.559   8.757  0.1958  0.2736  0.3490
 8883SOL     OW38107   3.598   2.887   3.400 -0.3182  0.2384 -0.1883
 8883SOL    HW138108   3.590   2.909   3.307 -0.7558 -0.5561 -0.3382
 8883SOL    HW238109   3.660   2.956   3.424 -0.3079 -0.4722  1.7877
 8884SOL     OW38110   3.276   1.728   6.947  0.1180  0.0617  0.6465
 8884SOL    HW138111   3.185   1.702   6.935 -0.0499  1.0681 -0.2091
 8884SOL    HW238112   3.267   1.782   7.026 -0.3821  1.1129 -0.1433
 8885SOL     OW38113   1.938   0.345   9.285  0.1293  0.6193  0.0776
 8885SOL    HW138114   1.921   0.378   9.197 -2.3101  0.2120  0.3861
 8885SOL    HW238115   1.922   0.252   9.269 -1.0118  1.0788 -1.4271
 8886SOL     OW38116   4.239   3.903   6.205 -0.5298  0.5894 -0.2009
 8886SOL    HW138117   4.174   3.848   6.161  0.2966  0.5631 -1.3603
 8886SOL    HW238118   4.240   3.967   6.134 -1.1745  1.9680  1.0181
 8887SOL     OW38119   0.691   3.430  15.785 -0.0773  0.2122  0.1142
 8887SOL    HW138120   0.742   3.427  15.704  1.3964  2.8578  0.9608
 8887SOL    HW238121   0.756   3.444  15.854 -0.6212 -1.6241  1.0142
 8888SOL     OW38122   3.308   3.536   1.780 -0.2573  0.2262  0.0535
 8888SOL    HW138123   3.277   3.476   1.712  0.8373  1.6229 -1.6722
 8888SOL    HW238124   3.378   3.590   1.743  0.5352  1.2958  3.1204
 8889SOL     OW38125   3.452   1.630   4.847  0.2660 -0.6486  0.0059
 8889SOL    HW138126   3.530   1.685   4.854 -2.0500  2.5170  0.9227
 8889SOL    HW238127   3.417   1.657   4.762  1.7527  1.2130 -0.0095
 8890SOL     OW38128   1.664   0.831  14.328  0.0314  0.1543 -0.5888
 8890SOL    HW138129   1.696   0.877  14.250 -1.6784  2.0614 -0.1783
 8890SOL    HW238130   1.701   0.743  14.317 -1.0802 -0.5119  0.9403
 8891SOL     OW38131   4.465   4.196   0.677  0.1678  0.8627  0.7990
 8891SOL    HW138132   4.393   4.241   0.633 -0.2229 -0.9956 -0.4712
 8891SOL    HW238133   4.506   4.166   0.596  0.1238 -1.9177  1.8096
 8892SOL     OW38134   0.936   0.768   5.098  0.7710 -0.6601 -0.3636
 8892SOL    HW138135   0.966   0.690   5.051 -1.1861 -1.5133 -0.1999
 8892SOL    HW238136   0.898   0.821   5.027  1.5820  1.3578  0.7047
 8893SOL     OW38137   2.816   3.368   2.076  0.2173  0.9786 -0.1447
 8893SOL    HW138138   2.779   3.452   2.103  0.4291  0.6097  1.2888
 8893SOL    HW238139   2.891   3.397   2.023  0.8829 -2.9920 -1.3819
 8894SOL     OW38140   2.235   3.672   3.994  0.6684 -0.7674 -0.6119
 8894SOL    HW138141   2.151   3.706   3.963  1.1561  1.2359  0.2854
 8894SOL    HW238142   2.245   3.620   3.914  1.3074  0.9332 -1.6490
 8895SOL     OW38143   4.259   3.665  14.292  0.8508  0.0945 -0.0312
 8895SOL    HW138144   4.202   3.715  14.234 -0.2978  0.3010  1.2655
 8895SOL    HW238145   4.335   3.720  14.309  0.7662  0.3935 -0.6298
 8896SOL     OW38146   4.135   3.327  16.787  0.2537 -0.1284  0.6663
 8896SOL    HW138147   4.169   3.275  16.714  1.2500 -1.2356  1.9203
 8896SOL    HW238148   4.047   3.335  16.751  1.0078  0.1050 -1.1152
 8897SOL     OW38149   3.991   2.165   3.784 -0.2303 -0.5434 -0.6522
 8897SOL    HW138150   3.919   2.141   3.842  1.1096  1.4772  1.8876
 8897SOL    HW238151   3.990   2.261   3.780  0.4568 -0.5956 -1.8901
 8898SOL     OW38152   0.290   1.196   2.207  0.4134  0.5156 -0.6013
 8898SOL    HW138153   0.214   1.155   2.165 -0.3500  0.8656  0.4402
 8898SOL    HW238154   0.245   1.261   2.261  0.4183 -0.1351  0.1953
 8899SOL     OW38155   1.008   1.225   6.838 -0.1261 -0.0034  0.0647
 8899SOL    HW138156   0.925   1.177   6.834  0.4934 -1.1783  1.5756
 8899SOL    HW238157   0.970   1.303   6.796 -0.8272  0.3001  1.2739
 8900SOL     OW38158   1.044   2.760   6.960  0.7755 -0.2960  0.0803
 8900SOL    HW138159   1.081   2.721   7.039  0.8475 -1.5582 -0.5653
 8900SOL    HW238160   1.032   2.851   6.985  0.5829 -0.9097  2.1622
 8901SOL     OW38161   4.578   4.314   6.973 -0.0655 -0.1539 -0.8481
 8901SOL    HW138162   4.503   4.363   6.939  0.7587  0.2188 -2.1110
 8901SOL    HW238163   4.597   4.268   6.891 -0.2338  0.7025 -1.3656
 8902SOL     OW38164   0.016   2.319   5.252  0.2638 -0.2319 -0.4465
 8902SOL    HW138165   0.053   2.232   5.264  0.3090 -0.1741 -0.1503
 8902SOL    HW238166   4.684   2.321   5.171 -0.4342  1.2426  0.0155
 8903SOL     OW38167   3.994   2.223   7.500 -0.5229 -0.5417 -0.1411
 8903SOL    HW138168   3.937   2.212   7.576  0.1169  1.5216  0.6502
 8903SOL    HW238169   3.927   2.211   7.432 -0.8333 -0.6715  0.1856
 8904SOL     OW38170   0.116   1.398   3.116  0.0438 -0.6682 -0.6847
 8904SOL    HW138171   0.040   1.352   3.152  1.1639 -0.1166  2.3786
 8904SOL    HW238172   0.170   1.319   3.121  1.4852  0.2937 -1.1065
 8905SOL     OW38173   0.872   2.891   7.554  0.3972  0.4496 -0.0631
 8905SOL    HW138174   0.932   2.922   7.622  0.6008 -0.8452  0.3468
 8905SOL    HW238175   0.869   2.801   7.585  3.7309  0.9223  1.6315
 8906SOL     OW38176   3.673   3.753   0.074 -0.3156 -0.2526 -0.6978
 8906SOL    HW138177   3.641   3.665   0.092  1.9644 -1.2513 -1.5424
 8906SOL    HW238178   3.761   3.739   0.041  0.1721  1.9719 -0.3191
 8907SOL     OW38179   4.384   3.713   4.155 -0.5315  0.1161  0.4840
 8907SOL    HW138180   4.383   3.629   4.110 -0.1399  0.5844 -0.4171
 8907SOL    HW238181   4.297   3.705   4.193 -0.6598 -0.5801  0.0374
 8908SOL     OW38182   2.062   0.482   0.583 -0.7404 -0.0030 -0.0199
 8908SOL    HW138183   2.114   0.561   0.598  0.2801 -0.4666 -1.1469
 8908SOL    HW238184   2.131   0.416   0.577 -1.5527 -0.7097 -1.6529
 8909SOL     OW38185   3.976   2.896   6.280  0.2433  0.0253  0.1415
 8909SOL    HW138186   4.006   2.986   6.279 -1.8121  0.7136 -0.3633
 8909SOL    HW238187   3.973   2.871   6.187 -0.9327 -1.0885  0.4718
 8910SOL     OW38188   2.796   2.333   9.632  0.5653  0.4965 -0.4147
 8910SOL    HW138189   2.737   2.317   9.559  2.1027 -3.7321 -0.7305
 8910SOL    HW238190   2.733   2.359   9.699 -1.1080  1.5896 -2.4233
 8911SOL     OW38191   4.600   0.653   5.712  0.0973  0.0523  0.0452
 8911SOL    HW138192   4.604   0.691   5.624  0.4183  0.3225  0.1775
 8911SOL    HW238193   4.671   0.590   5.706  0.5561  0.4453  1.4239
 8912SOL     OW38194   4.288   3.084  14.460 -0.4572 -0.1122  0.1104
 8912SOL    HW138195   4.201   3.052  14.436 -0.9082 -1.0755  3.0327
 8912SOL    HW238196   4.289   3.061  14.553 -1.7289 -0.7326 -0.0360
 8913SOL     OW38197   0.547   1.226   7.489 -0.2108 -0.0507  0.7165
 8913SOL    HW138198   0.506   1.253   7.407  2.4133  0.9951 -0.2657
 8913SOL    HW238199   0.561   1.132   7.476  0.2910  0.1710 -0.3819
 8914SOL     OW38200   3.722   4.390   1.899 -0.0146 -0.5389 -0.2370
 8914SOL    HW138201   3.755   4.300   1.894 -2.1260 -1.3783  1.1624
 8914SOL    HW238202   3.632   4.383   1.930  0.3049 -0.1015  0.7864
 8915SOL     OW38203   3.012   0.662   2.707  0.5162 -0.0754 -0.1540
 8915SOL    HW138204   3.069   0.736   2.686 -0.1718  0.1329 -1.2628
 8915SOL    HW238205   2.950   0.699   2.770  0.5037 -0.5093  0.0936
 8916SOL     OW38206   0.558   3.288  11.676  0.0524 -0.0389 -0.5366
 8916SOL    HW138207   0.582   3.359  11.736  3.4775 -2.4997  1.0239
 8916SOL    HW238208   0.491   3.247  11.731  0.3254  1.3057  0.7981
 8917SOL     OW38209   1.974   1.177  16.287 -0.1400 -0.2823 -0.5747
 8917SOL    HW138210   1.929   1.194  16.369  1.5375 -0.2697  0.3389
 8917SOL    HW238211   2.055   1.218  16.315 -0.4462 -0.9742  1.3205
 8918SOL     OW38212   1.148   4.003  16.856 -0.8575  0.2564 -0.3565
 8918SOL    HW138213   1.078   3.989  16.792  0.5342 -0.3803 -1.7352
 8918SOL    HW238214   1.182   3.915  16.871  1.4443  1.2908  0.4121
 8919SOL     OW38215   0.203   4.125  10.122 -0.1775  0.2117  0.8704
 8919SOL    HW138216   0.208   4.066  10.198 -1.9538  1.5218  1.9825
 8919SOL    HW238217   0.108   4.125  10.120 -0.1589  0.6880  0.0637
 8920SOL     OW38218   2.219   3.413   1.042  0.2096 -0.0481  0.1461
 8920SOL    HW138219   2.310   3.445   1.047  0.0907  0.3081 -0.0089
 8920SOL    HW238220   2.177   3.496   1.067  2.8333  0.9730  1.2123
 8921SOL     OW38221   2.575   2.042   7.227  0.7105 -0.0623  0.4530
 8921SOL    HW138222   2.508   2.009   7.166 -0.6243 -0.8649  2.3488
 8921SOL    HW238223   2.520   2.080   7.296  2.7800 -0.3740  2.2657
 8922SOL     OW38224   0.052   1.023   1.871  0.3778 -0.7617  0.2039
 8922SOL    HW138225   0.117   0.980   1.816  3.1890  0.2148  2.7569
 8922SOL    HW238226   0.053   0.973   1.952 -3.2277  2.4311  2.2025
 8923SOL     OW38227   1.466   2.344   3.441  0.5246  0.2700 -0.2669
 8923SOL    HW138228   1.512   2.313   3.519 -0.4707  2.0138  1.0201
 8923SOL    HW238229   1.441   2.258   3.407  0.2995  0.2812 -0.1310
 8924SOL     OW38230   0.293   4.654   1.315  0.1751  0.4438 -0.0387
 8924SOL    HW138231   0.237   4.578   1.331 -1.7088  2.0828  1.0978
 8924SOL    HW238232   0.326   4.676   1.402  1.3101 -2.2844  0.2198
 8925SOL     OW38233   4.344   3.587  14.003  0.0620 -0.3907 -0.3873
 8925SOL    HW138234   4.249   3.599  14.013  0.2011 -0.5641  1.2199
 8925SOL    HW238235   4.378   3.677  14.004  1.2208 -0.8225 -2.1995
 8926SOL     OW38236   0.476   1.853   4.677  0.3076 -0.2698 -0.0618
 8926SOL    HW138237   0.422   1.864   4.598 -0.3206  0.3764  0.4567
 8926SOL    HW238238   0.417   1.895   4.740  0.6658 -0.3792  0.3467
 8927SOL     OW38239   2.123   3.614   8.382  0.1023  0.4074 -0.0507
 8927SOL    HW138240   2.217   3.603   8.370 -0.0790 -3.0624  1.5703
 8927SOL    HW238241   2.111   3.686   8.444 -0.8092  0.3774 -0.1996
 8928SOL     OW38242   1.025   2.920  15.561 -0.1178  0.5925  0.3137
 8928SOL    HW138243   1.058   2.978  15.492  2.1663  0.4696  1.3084
 8928SOL    HW238244   1.104   2.867  15.568 -0.5338 -0.1100 -0.2924
 8929SOL     OW38245   2.039   2.838  16.496  1.0249 -0.0368 -0.6329
 8929SOL    HW138246   1.963   2.795  16.456  0.7962  1.3695 -1.7214
 8929SOL    HW238247   2.102   2.767  16.512 -1.0673 -1.3117  1.8994
 8930SOL     OW38248   3.461   1.712   9.380 -0.6172 -0.2760  0.4038
 8930SOL    HW138249   3.460   1.802   9.411 -0.2382  0.0913 -0.6329
 8930SOL    HW238250   3.491   1.672   9.461 -3.3608 -1.8081  0.6419
 8931SOL     OW38251   3.498   4.283   7.004  0.1829  0.5029  0.1972
 8931SOL    HW138252   3.436   4.340   6.958 -0.1983 -0.1397 -0.0843
 8931SOL    HW238253   3.520   4.338   7.079  0.6615  0.4073  0.1233
 8932SOL     OW38254   3.435   3.921   9.340  0.1857 -0.0995  0.2430
 8932SOL    HW138255   3.423   3.948   9.249 -1.3456  1.1152  0.7885
 8932SOL    HW238256   3.518   3.961   9.365  0.8935 -1.4954  0.1289
 8933SOL     OW38257   2.769   0.119   7.133 -0.3819  0.2876  0.1082
 8933SOL    HW138258   2.717   0.096   7.210 -0.3881 -1.6729 -0.4665
 8933SOL    HW238259   2.732   0.056   7.070 -0.5336 -0.3306  0.8134
 8934SOL     OW38260   0.290   3.790   7.215 -0.2094 -0.1403 -0.0560
 8934SOL    HW138261   0.333   3.802   7.300  1.3022  2.8909 -1.2554
 8934SOL    HW238262   0.199   3.765   7.227  0.1422 -1.2080  0.4529
 8935SOL     OW38263   1.118   0.638   4.949 -0.0635 -0.2572 -0.0578
 8935SOL    HW138264   1.182   0.598   5.009  0.9480  0.4441 -0.6591
 8935SOL    HW238265   1.132   0.572   4.881 -1.8077  0.8421 -1.4537
 8936SOL     OW38266   1.157   4.711   6.400 -0.2688 -0.1272 -0.1151
 8936SOL    HW138267   1.153   0.022   6.491 -2.1210  0.3708 -0.3604
 8936SOL    HW238268   1.230   0.047   6.375 -1.6352  0.9077 -1.7932
 8937SOL     OW38269   2.961   1.766  12.174  0.3263  0.6620 -0.1477
 8937SOL    HW138270   2.937   1.826  12.103 -0.9557 -1.0098 -1.1542
 8937SOL    HW238271   2.921   1.805  12.251  0.7650  1.6115 -0.3972
 8938SOL     OW38272   2.151   2.872   5.638 -0.0125 -0.2093  0.1704
 8938SOL    HW138273   2.090   2.800   5.651 -0.1226 -0.6397 -2.8179
 8938SOL    HW238274   2.102   2.953   5.654  1.2797  0.9936 -1.9066
 8939SOL     OW38275   3.550   4.472   9.242 -0.2125  0.0803 -0.0432
 8939SOL    HW138276   3.588   4.445   9.159  1.5286 -1.5488  1.2813
 8939SOL    HW238277   3.603   4.548   9.268  0.6156 -0.5221  0.0311
 8940SOL     OW38278   2.218   1.576   8.054 -0.2737  0.2476  0.1055
 8940SOL    HW138279   2.201   1.664   8.089 -1.0219  0.1924 -0.1279
 8940SOL    HW238280   2.296   1.542   8.097  0.6073  2.2912  0.0803
 8941SOL     OW38281   3.841   1.354   4.719  0.0354  0.9173  0.6648
 8941SOL    HW138282   3.818   1.436   4.676 -0.4244  1.0001  1.0727
 8941SOL    HW238283   3.935   1.359   4.739  0.1236 -1.0552  0.7600
 8942SOL     OW38284   1.374   1.784   6.907  0.6283 -0.1235 -0.2378
 8942SOL    HW138285   1.340   1.808   6.993  0.7498  0.3473 -0.3186
 8942SOL    HW238286   1.373   1.689   6.915 -0.1453 -0.1887 -1.0061
 8943SOL     OW38287   4.572   1.465  17.588 -0.0213  0.1669  0.2672
 8943SOL    HW138288   4.650   1.457  17.643  0.1970  0.0972 -0.0493
 8943SOL    HW238289   4.511   1.414  17.640  1.6625 -0.1589  1.9260
 8944SOL     OW38290   3.424   1.055   9.412 -0.1583  0.4083 -0.1220
 8944SOL    HW138291   3.457   1.054   9.502 -1.3325  1.3585  0.3254
 8944SOL    HW238292   3.361   1.127   9.424  1.2362  1.4338  1.0482
 8945SOL     OW38293   4.284   0.798  16.896  0.1442  0.1453  0.0946
 8945SOL    HW138294   4.227   0.735  16.852 -0.2447  0.9239 -0.5163
 8945SOL    HW238295   4.272   0.776  16.989 -0.5087 -1.1192 -0.2850
 8946SOL     OW38296   3.652   3.691   2.837  0.6764 -1.4958  0.2000
 8946SOL    HW138297   3.572   3.641   2.851 -0.0717  0.0135  1.2513
 8946SOL    HW238298   3.719   3.627   2.813  0.3018 -2.2892  1.2876
 8947SOL     OW38299   0.730   3.926   5.534  0.1743  0.2746  0.2021
 8947SOL    HW138300   0.674   3.891   5.465  1.8648 -0.5513 -0.7671
 8947SOL    HW238301   0.761   3.855   5.590  0.7024 -0.0793 -0.5256
 8948SOL     OW38302   1.106   4.370   3.987 -0.5233 -0.1876  0.4164
 8948SOL    HW138303   1.190   4.409   3.963 -0.7886  1.0178  1.4636
 8948SOL    HW238304   1.146   4.283   3.997  2.1020  0.8380 -1.0202
 8949SOL     OW38305   0.572   0.702   6.933  0.0831  0.1387 -0.2517
 8949SOL    HW138306   0.598   0.746   7.014  0.7187  0.9570 -0.8983
 8949SOL    HW238307   0.594   0.612   6.956 -1.2156  0.0179  0.5438
 8950SOL     OW38308   3.217   0.204  14.384 -0.7125  0.8943 -0.2215
 8950SOL    HW138309   3.171   0.178  14.464 -0.0872  0.6696  0.0658
 8950SOL    HW238310   3.232   0.116  14.348  2.7448  2.6690 -3.1000
 8951SOL     OW38311   3.506   2.745   9.144  0.1377 -0.3323 -0.0947
 8951SOL    HW138312   3.541   2.657   9.151  0.3552 -0.1481  1.1680
 8951SOL    HW238313   3.441   2.741   9.215 -1.3351 -1.7693 -1.5352
 8952SOL     OW38314   2.324   3.788  17.381 -0.4677  0.5100  0.5080
 8952SOL    HW138315   2.333   3.785  17.286 -0.4687  0.7892  0.5000
 8952SOL    HW238316   2.398   3.836  17.418  1.3550 -1.2416 -0.8627
 8953SOL     OW38317   3.233   0.014   0.491 -0.3433  0.0288 -0.2014
 8953SOL    HW138318   3.143   0.012   0.458 -0.8480 -3.5456  1.3816
 8953SOL    HW238319   3.220   0.070   0.567  3.0197 -0.1319  0.4706
 8954SOL     OW38320   3.979   4.673   3.270  0.0953 -0.1406  0.1505
 8954SOL    HW138321   4.027   4.673   3.188  1.5240 -2.1193  0.9764
 8954SOL    HW238322   3.998   0.044   3.296  0.8877 -0.0552 -0.7141
 8955SOL     OW38323   0.102   0.844  14.651  0.0374  0.2289 -0.1906
 8955SOL    HW138324   0.090   0.756  14.686 -0.6476  0.7570  0.8857
 8955SOL    HW238325   0.086   0.828  14.558 -0.6854 -3.0541  0.4767
 8956SOL     OW38326   4.602   1.482  13.490  0.3555 -0.8962  0.4063
 8956SOL    HW138327   4.527   1.467  13.433  1.1473 -0.6986 -0.6763
 8956SOL    HW238328   4.640   1.394  13.495 -1.1133 -1.4895  1.0701
 8957SOL     OW38329   0.287   2.745   0.036  0.4144 -0.3169  0.0772
 8957SOL    HW138330   0.312   2.691   0.111 -2.3348 -1.1481  0.3875
 8957SOL    HW238331   0.194   2.755   0.052  0.5907 -1.4943  1.7887
 8958SOL     OW38332   2.213   2.021   7.355  0.3319  0.2925 -0.2607
 8958SOL    HW138333   2.165   1.947   7.317 -0.9987  0.0510  1.8754
 8958SOL    HW238334   2.275   1.958   7.391 -1.6886 -0.1988  2.3463
 8959SOL     OW38335   4.478   1.703  15.775  0.2614  0.1144  0.1804
 8959SOL    HW138336   4.493   1.729  15.866 -0.2730  0.8309  0.0750
 8959SOL    HW238337   4.541   1.756  15.727  2.7028 -1.2507  1.9140
 8960SOL     OW38338   3.322   0.213  16.449  0.3272  0.1257  0.0835
 8960SOL    HW138339   3.358   0.149  16.388 -0.3112 -1.0742  0.9592
 8960SOL    HW238340   3.361   0.182  16.531  0.5147 -0.4156 -0.2106
 8961SOL     OW38341   0.422   1.565   7.797  0.0396 -0.1817  0.4052
 8961SOL    HW138342   0.479   1.571   7.874 -0.6178  1.1475  0.7933
 8961SOL    HW238343   0.483   1.564   7.724 -1.6288 -1.3368 -0.9612
 8962SOL     OW38344   1.056   2.381  12.130 -0.5599  0.0510  0.2189
 8962SOL    HW138345   1.046   2.378  12.225 -0.7756 -1.0343  0.1659
 8962SOL    HW238346   0.988   2.444  12.107 -1.8875 -0.8258  1.7086
 8963SOL     OW38347   2.433   1.302   1.268 -0.8660  0.0775  0.0453
 8963SOL    HW138348   2.461   1.313   1.359 -1.7222  0.6712  0.2373
 8963SOL    HW238349   2.360   1.240   1.270 -1.1701  0.4746  1.1629
 8964SOL     OW38350   3.446   4.362   6.191  0.6668 -0.2303 -0.0270
 8964SOL    HW138351   3.492   4.417   6.127 -2.1572  1.3752 -0.6373
 8964SOL    HW238352   3.353   4.382   6.188  1.6102  4.1329  0.2927
 8965SOL     OW38353   3.726   3.116   1.012 -0.1893  0.6355  0.4628
 8965SOL    HW138354   3.798   3.064   1.048 -0.5184 -0.6182 -0.6895
 8965SOL    HW238355   3.722   3.095   0.919  2.8417  1.1892  0.2042
 8966SOL     OW38356   4.300   4.309   2.443  0.1302 -0.4664  0.2032
 8966SOL    HW138357   4.276   4.258   2.520  1.7596  0.1299  1.0914
 8966SOL    HW238358   4.326   4.389   2.489 -1.3405 -0.1880  0.5638
 8967SOL     OW38359   4.272   0.026  13.439  0.2067  0.5610 -0.1281
 8967SOL    HW138360   4.242   4.653  13.442  0.3949  0.5946  2.4136
 8967SOL    HW238361   4.192   0.073  13.464  0.0560 -1.2743  2.8247
 8968SOL     OW38362   3.707   3.269   3.875 -0.1982 -0.8674  0.1388
 8968SOL    HW138363   3.724   3.186   3.919 -1.0326 -1.1414 -0.0527
 8968SOL    HW238364   3.788   3.278   3.825  0.3565  1.3767  1.4321
 8969SOL     OW38365   0.093   0.312   1.477 -0.3440  0.1479 -0.4841
 8969SOL    HW138366   0.173   0.366   1.479  0.4634 -1.0238 -1.1140
 8969SOL    HW238367   0.022   0.374   1.461 -2.7762 -1.8924  2.3475
 8970SOL     OW38368   4.251   1.637   2.304  0.0203  0.2108  0.1645
 8970SOL    HW138369   4.341   1.634   2.337  0.4680 -0.2098 -1.1035
 8970SOL    HW238370   4.234   1.730   2.317  0.8666  0.2554  0.9034
 8971SOL     OW38371   4.522   0.590  16.568 -0.0746 -0.1868 -0.7769
 8971SOL    HW138372   4.535   0.667  16.622 -0.8557  1.3619 -2.7702
 8971SOL    HW238373   4.593   0.537  16.604 -0.0172 -1.2130 -2.3927
 8972SOL     OW38374   3.442   0.891   4.274 -1.1208  0.3640 -0.8321
 8972SOL    HW138375   3.532   0.903   4.242 -0.8543 -1.1380 -0.6526
 8972SOL    HW238376   3.443   0.964   4.336  0.7404 -0.8123  0.5411
 8973SOL     OW38377   1.930   3.255   2.070 -0.3158  0.0711 -0.0999
 8973SOL    HW138378   1.957   3.346   2.059 -0.2667  0.0396 -0.2483
 8973SOL    HW238379   1.873   3.257   2.147 -1.8051 -0.3629 -1.1967
 8974SOL     OW38380   2.161   2.901   2.304 -0.0807 -0.0278  0.3193
 8974SOL    HW138381   2.220   2.829   2.328  1.8923  1.4878 -0.0445
 8974SOL    HW238382   2.209   2.960   2.246 -0.6641 -0.4931 -0.6468
 8975SOL     OW38383   4.371   2.912   4.743  0.6450 -0.1221 -0.2365
 8975SOL    HW138384   4.338   2.950   4.824  1.7717  0.2286  0.0626
 8975SOL    HW238385   4.433   2.852   4.785  0.3051  0.0431  0.4862
 8976SOL     OW38386   0.198   0.319   3.830 -0.4078 -0.0477  0.0269
 8976SOL    HW138387   0.175   0.408   3.802 -2.4790 -1.0795 -1.5431
 8976SOL    HW238388   0.241   0.287   3.751 -0.2541 -0.7406  0.3908
 8977SOL     OW38389   2.152   1.579  13.224  0.5281 -0.0133 -0.0217
 8977SOL    HW138390   2.137   1.516  13.294 -0.1285 -0.4469 -0.5506
 8977SOL    HW238391   2.233   1.622  13.253  0.6612  0.1579 -0.6651
 8978SOL     OW38392   2.688   2.304   5.504  0.5272  0.1674  0.0155
 8978SOL    HW138393   2.594   2.285   5.505  1.2441 -3.4246  1.0044
 8978SOL    HW238394   2.687   2.351   5.420 -1.4176  1.6358  0.8584
 8979SOL     OW38395   4.609   2.123  14.348 -0.1501  0.8355 -0.3196
 8979SOL    HW138396   4.540   2.190  14.353  0.6910  1.5388  1.7899
 8979SOL    HW238397   4.597   2.077  14.431 -0.5106  1.3554 -0.0801
 8980SOL     OW38398   4.707   4.295   2.292  0.3672 -0.5938  0.0369
 8980SOL    HW138399   0.025   4.291   2.380  1.4008  0.0796 -0.3586
 8980SOL    HW238400   4.645   4.226   2.316 -0.9765  0.4723 -0.3829
 8981SOL     OW38401   3.011   1.503   0.833 -0.1792 -0.7004 -0.3676
 8981SOL    HW138402   3.042   1.421   0.872 -0.8690 -0.1833  1.2945
 8981SOL    HW238403   2.923   1.520   0.867  0.4292  1.5418  0.0981
 8982SOL     OW38404   4.046   3.745   2.106 -0.0431  0.0186  0.2097
 8982SOL    HW138405   4.107   3.818   2.107  1.1602 -0.9919  1.1335
 8982SOL    HW238406   4.030   3.747   2.012 -0.8348  0.1360  0.3453
 8983SOL     OW38407   0.473   4.080   5.435  0.6326  0.2591 -0.0206
 8983SOL    HW138408   0.503   4.160   5.478 -0.7504  0.6291  0.2677
 8983SOL    HW238409   0.544   4.055   5.375 -0.0219 -0.4070 -0.5279
 8984SOL     OW38410   2.343   4.718   7.913 -0.2566 -0.2819  0.1201
 8984SOL    HW138411   2.434   4.719   7.940 -0.7605  0.6927  1.7965
 8984SOL    HW238412   2.304   0.033   7.994  0.3224  1.3853 -0.3136
 8985SOL     OW38413   3.361   1.105  12.028 -0.2093  0.8294 -0.1109
 8985SOL    HW138414   3.383   1.171  12.094  0.7878 -1.3728  1.7221
 8985SOL    HW238415   3.388   1.034  12.086 -1.9600 -0.8496 -1.3577
 8986SOL     OW38416   2.794   4.435   6.343  0.2237  0.0489  0.0039
 8986SOL    HW138417   2.792   4.477   6.429  3.0273  0.4486 -0.1223
 8986SOL    HW238418   2.743   4.498   6.292  0.8869 -0.0384 -0.7595
 8987SOL     OW38419   0.733   2.083  10.931 -0.0277  0.7084  0.2913
 8987SOL    HW138420   0.768   2.160  10.884  0.9981  0.6765  0.9919
 8987SOL    HW238421   0.704   2.124  11.012 -0.8439  1.0231 -0.1643
 8988SOL     OW38422   1.363   4.714   9.237 -0.0346  0.1273 -0.3703
 8988SOL    HW138423   1.427   4.648   9.264 -0.6777 -0.4747 -0.2892
 8988SOL    HW238424   1.310   4.648   9.191 -2.0340 -0.0316  2.1358
 8989SOL     OW38425   2.687   3.791   6.060  0.4308  0.0824  0.2615
 8989SOL    HW138426   2.697   3.843   5.980  0.1966  0.7929  0.6934
 8989SOL    HW238427   2.703   3.861   6.123 -2.0311  1.6609 -0.8719
 8990SOL     OW38428   0.549   2.076   2.857 -0.0556 -0.0944  0.3369
 8990SOL    HW138429   0.563   1.983   2.874  1.6378 -0.2606 -1.9559
 8990SOL    HW238430   0.637   2.099   2.828  0.3863  1.4532  2.9758
 8991SOL     OW38431   1.606   0.204   5.958 -0.5507  0.2271  0.3069
 8991SOL    HW138432   1.616   0.289   6.001 -0.9919  1.2734 -1.6263
 8991SOL    HW238433   1.519   0.176   5.987  0.4754 -2.2783  0.9642
 8992SOL     OW38434   0.886   2.769   1.584  0.1782  0.1069  0.2336
 8992SOL    HW138435   0.827   2.842   1.607  0.1350  0.4431 -0.9497
 8992SOL    HW238436   0.904   2.728   1.669 -1.7675  0.1145  0.6605
 8993SOL     OW38437   4.399   3.334   7.409 -0.2281 -0.3244  0.5142
 8993SOL    HW138438   4.491   3.331   7.435  0.0974 -1.7422 -0.7864
 8993SOL    HW238439   4.381   3.245   7.380 -2.5976  0.2458  0.1797
 8994SOL     OW38440   3.309   1.318   3.817  0.0481 -1.0325  0.4479
 8994SOL    HW138441   3.396   1.283   3.835  0.2440 -0.8612 -0.1677
 8994SOL    HW238442   3.316   1.360   3.731 -3.1841 -2.8316 -0.7341
 8995SOL     OW38443   3.260   0.452  12.174 -0.0763  0.4911 -0.3975
 8995SOL    HW138444   3.268   0.402  12.093  1.6553  0.6904 -0.3474
 8995SOL    HW238445   3.315   0.528  12.153  0.3381  0.2002 -0.3755
 8996SOL     OW38446   1.753   1.580   6.610  0.7365 -0.4608  0.3620
 8996SOL    HW138447   1.778   1.650   6.670 -2.1736  0.3405  0.6010
 8996SOL    HW238448   1.809   1.511   6.647  0.0505  0.0270  2.2918
 8997SOL     OW38449   1.835   2.239   7.912 -0.4650  0.2034  0.8135
 8997SOL    HW138450   1.784   2.287   7.977  0.9745  1.0083  1.3331
 8997SOL    HW238451   1.767   2.180   7.877 -0.9566  0.1308  1.8985
 8998SOL     OW38452   0.074   3.437  12.033  0.3557 -0.7415  0.0543
 8998SOL    HW138453   0.157   3.391  12.022  0.5075 -0.7343  1.1854
 8998SOL    HW238454   0.010   3.366  12.045 -1.5199  0.5422 -2.2362
 8999SOL     OW38455   1.955   3.621  11.783  0.1225 -0.5247 -0.1142
 8999SOL    HW138456   2.023   3.576  11.832  0.9854  0.8770 -0.0048
 8999SOL    HW238457   1.953   3.708  11.824 -1.5904 -2.2278  3.3847
 9000SOL     OW38458   2.769   0.297  17.522 -0.2077 -0.0757  0.3547
 9000SOL    HW138459   2.693   0.242  17.501  0.2995 -0.1404 -1.2728
 9000SOL    HW238460   2.816   0.250  17.591 -1.0268 -0.1099  0.9018
 9001SOL     OW38461   2.652   0.990   9.082  0.7250  0.1024  0.0401
 9001SOL    HW138462   2.608   1.074   9.097  1.8116  0.3088  2.1272
 9001SOL    HW238463   2.738   1.013   9.117  0.5846 -1.1051  1.1805
 9002SOL     OW38464   0.048   2.694   8.927 -0.1469 -0.3768  0.2894
 9002SOL    HW138465   0.044   2.699   9.022  2.2157 -0.1361  0.3914
 9002SOL    HW238466   0.129   2.643   8.922  0.9042  1.2196  0.9482
 9003SOL     OW38467   0.873   2.546  12.621  0.3491  0.0737 -0.4064
 9003SOL    HW138468   0.958   2.515  12.591  0.2764 -3.0802  2.5770
 9003SOL    HW238469   0.851   2.624  12.571 -1.0249  1.3100  2.1076
 9004SOL     OW38470   1.177   3.077   1.147 -0.1032 -0.0558 -0.2284
 9004SOL    HW138471   1.226   2.996   1.129 -1.6604 -0.5568 -2.2019
 9004SOL    HW238472   1.090   3.056   1.110  0.9409 -0.4681 -2.4677
 9005SOL     OW38473   2.738   3.101   3.223  0.2812  0.0404  0.5034
 9005SOL    HW138474   2.715   3.174   3.167 -0.4501 -1.2255 -0.8368
 9005SOL    HW238475   2.695   3.029   3.177 -0.2233  0.4846  0.2854
 9006SOL     OW38476   3.513   0.354   2.167  0.1705 -0.1276 -0.7370
 9006SOL    HW138477   3.500   0.425   2.229 -1.7580  1.7403 -3.3004
 9006SOL    HW238478   3.577   0.301   2.215 -0.3966  0.0700  0.2265
 9007SOL     OW38479   2.673   0.393   6.474  0.0205  0.0647  0.2719
 9007SOL    HW138480   2.732   0.449   6.525  0.7583 -0.8359  0.4244
 9007SOL    HW238481   2.732   0.382   6.400 -0.1848 -0.4458  0.1840
 9008SOL     OW38482   2.677   4.311   3.337  0.3193  0.0201  0.7095
 9008SOL    HW138483   2.689   4.378   3.405 -0.0075 -0.4093  1.1980
 9008SOL    HW238484   2.616   4.249   3.378  1.1226  1.5506  4.2680
 9009SOL     OW38485   1.317   3.452   6.944  0.1141  0.1628  0.3044
 9009SOL    HW138486   1.235   3.502   6.949  0.5149  0.6845  1.7037
 9009SOL    HW238487   1.375   3.519   6.907  0.2856  0.3370  0.8864
 9010SOL     OW38488   3.896   3.385   1.421 -0.6851 -0.2383  0.0130
 9010SOL    HW138489   3.984   3.352   1.403 -0.5485  1.1818 -1.9053
 9010SOL    HW238490   3.893   3.439   1.342  0.5876  0.6011  0.5514
 9011SOL     OW38491   3.377   3.711   4.118 -0.2652 -0.0193  0.3684
 9011SOL    HW138492   3.357   3.633   4.170 -1.9136 -0.7131 -1.3164
 9011SOL    HW238493   3.289   3.740   4.095  0.3500  0.1206 -1.8204
 9012SOL     OW38494   3.129   2.711   3.855 -0.1681  0.4518 -0.3875
 9012SOL    HW138495   3.175   2.636   3.816  1.3102  2.1874 -2.0108
 9012SOL    HW238496   3.202   2.773   3.846  0.1655  0.4073  1.9731
 9013SOL     OW38497   3.068   3.749   3.048  0.1426  0.5252  0.0799
 9013SOL    HW138498   3.034   3.838   3.060  0.6640  0.5751  1.1889
 9013SOL    HW238499   3.066   3.745   2.953  0.0464  0.6530  0.0765
 9014SOL     OW38500   4.366   1.932   1.983 -0.2489 -0.2882  0.8454
 9014SOL    HW138501   4.346   1.934   1.889 -0.1554  1.3466  0.8560
 9014SOL    HW238502   4.281   1.909   2.020 -0.9837  0.3525 -0.4392
 9015SOL     OW38503   3.828   4.716   1.774  0.0502  0.3234  0.4390
 9015SOL    HW138504   3.874   4.637   1.745  1.5859  1.0326  0.9474
 9015SOL    HW238505   3.901   0.056   1.754  0.4187 -0.5384 -0.7376
 9016SOL     OW38506   3.178   1.920   6.687 -0.2274  0.0698 -0.0731
 9016SOL    HW138507   3.214   1.834   6.666 -1.9605 -0.4268 -0.9931
 9016SOL    HW238508   3.106   1.935   6.626 -0.9365  0.5112  0.8564
 9017SOL     OW38509   4.504   0.150   4.378 -0.2258 -0.1015 -0.0282
 9017SOL    HW138510   4.580   0.175   4.326 -0.7733  1.1224 -0.2467
 9017SOL    HW238511   4.446   0.226   4.368 -1.8095 -1.1822  0.9556
 9018SOL     OW38512   4.292   1.858   8.173 -0.1110  0.2475 -0.1978
 9018SOL    HW138513   4.225   1.924   8.188  0.4041  1.3011 -2.5543
 9018SOL    HW238514   4.365   1.910   8.141 -0.0679 -0.4873 -1.3022
 9019SOL     OW38515   0.205   3.425  13.113 -0.1136 -0.6640 -0.0478
 9019SOL    HW138516   0.261   3.423  13.035 -1.6082  0.1162 -1.1487
 9019SOL    HW238517   0.169   3.512  13.095  2.2345  0.4327  0.5555
 9020SOL     OW38518   2.718   2.963   3.821  0.1895  0.0180 -0.4820
 9020SOL    HW138519   2.810   2.987   3.811 -0.7421  2.4942 -2.8924
 9020SOL    HW238520   2.730   2.881   3.869 -1.0105  1.7382  2.7484
 9021SOL     OW38521   2.299   4.168   7.770  0.0101 -0.2492 -0.5354
 9021SOL    HW138522   2.270   4.211   7.690  0.3218  2.2086  0.6714
 9021SOL    HW238523   2.361   4.102   7.741  1.1941  1.3385 -1.5893
 9022SOL     OW38524   3.033   3.980   4.998 -0.2842  0.0862 -0.2987
 9022SOL    HW138525   3.051   4.054   4.939 -1.4554 -0.2784 -1.1180
 9022SOL    HW238526   3.066   4.006   5.084 -0.3485  2.3639 -0.9510
 9023SOL     OW38527   1.428   4.045   5.291 -0.4004  0.1416  0.2205
 9023SOL    HW138528   1.393   3.959   5.315 -1.0400  0.3388  0.0056
 9023SOL    HW238529   1.438   4.029   5.197 -1.0604 -0.0168  0.1800
 9024SOL     OW38530   4.392   0.279  16.816 -0.4624  0.0083  0.7595
 9024SOL    HW138531   4.322   0.285  16.751 -0.1774 -3.2679  0.1216
 9024SOL    HW238532   4.354   0.321  16.893 -0.7330 -1.2026  1.2856
 9025SOL     OW38533   0.683   0.710   7.218  0.3689 -0.3036  0.0803
 9025SOL    HW138534   0.765   0.675   7.253 -0.1268 -0.9308  0.5844
 9025SOL    HW238535   0.626   0.634   7.209 -0.5361  0.5851 -1.8942
 9026SOL     OW38536   3.414   3.227   1.443  0.1520 -0.2171  0.2073
 9026SOL    HW138537   3.444   3.143   1.410  1.2239 -0.0258  0.7057
 9026SOL    HW238538   3.486   3.255   1.498 -0.5080 -0.7469  1.3297
 9027SOL     OW38539   4.262   2.497   9.601  0.7086 -0.1248 -0.2580
 9027SOL    HW138540   4.228   2.455   9.522 -2.2891 -0.0945  0.9872
 9027SOL    HW238541   4.338   2.544   9.568 -1.3450  2.2344 -1.6308
 9028SOL     OW38542   0.464   3.668   7.754  0.7044 -0.6436 -0.2582
 9028SOL    HW138543   0.555   3.650   7.778  0.9461  2.9100  1.5461
 9028SOL    HW238544   0.440   3.731   7.822  1.9051 -0.1251 -0.3005
 9029SOL     OW38545   0.959   2.716   4.613 -0.1733 -0.2389  0.1174
 9029SOL    HW138546   0.973   2.728   4.707 -2.6161 -2.1557  0.7400
 9029SOL    HW238547   0.863   2.713   4.606 -0.1157 -0.0414 -0.7174
 9030SOL     OW38548   1.570   0.777   8.342  0.1408 -0.0962 -0.0696
 9030SOL    HW138549   1.558   0.745   8.432 -1.5694  0.4424 -0.0957
 9030SOL    HW238550   1.654   0.736   8.323 -0.1132 -0.1246 -1.0970
 9031SOL     OW38551   0.992   2.319   2.079 -0.1127 -0.0351 -0.3645
 9031SOL    HW138552   1.085   2.342   2.079 -0.2941  0.7329  1.7434
 9031SOL    HW238553   0.960   2.348   1.993  1.3742  2.8052  0.0428
 9032SOL     OW38554   0.054   1.088   5.540  0.2373  0.6054  0.6039
 9032SOL    HW138555   0.092   1.001   5.530  0.6205  0.8617 -0.1637
 9032SOL    HW238556   4.714   1.099   5.465 -0.9902  0.8012  1.5864
 9033SOL     OW38557   3.061   4.213   6.625  0.4357  0.1149  0.1692
 9033SOL    HW138558   3.054   4.145   6.692  1.1970 -0.9986 -0.8903
 9033SOL    HW238559   3.155   4.224   6.617  0.6347 -1.0659  0.7538
 9034SOL     OW38560   4.379   0.968   1.934  0.2101  0.6346  0.0846
 9034SOL    HW138561   4.422   0.883   1.928  0.4823  0.8595 -1.0607
 9034SOL    HW238562   4.301   0.939   1.888 -0.6138  1.7011  0.7881
 9035SOL     OW38563   1.708   0.321   3.790  0.3220  0.5543  0.5549
 9035SOL    HW138564   1.725   0.398   3.734 -1.1768  2.2843  2.4932
 9035SOL    HW238565   1.794   0.297   3.823  0.3227  0.9676  0.8611
 9036SOL     OW38566   0.660   0.973   7.138  0.1042  0.4668 -0.1002
 9036SOL    HW138567   0.568   0.979   7.164  0.0905 -1.5098  0.2605
 9036SOL    HW238568   0.686   0.897   7.190 -0.5153  0.1893 -0.1958
 9037SOL     OW38569   0.939   2.575   9.991 -0.2221  0.1021  0.1849
 9037SOL    HW138570   0.925   2.544  10.081  1.0685  0.8914  0.6568
 9037SOL    HW238571   0.945   2.491   9.946 -0.0621  1.8219 -2.9538
 9038SOL     OW38572   1.036   1.514   7.571 -0.5492  0.1389  0.3435
 9038SOL    HW138573   0.942   1.495   7.564 -0.5112  0.8617 -2.2132
 9038SOL    HW238574   1.071   1.426   7.586 -0.9358 -0.2578 -1.0394
 9039SOL     OW38575   3.427   0.552   9.518  0.6692  0.2879  0.8376
 9039SOL    HW138576   3.484   0.619   9.481 -1.3962  1.9477  0.7024
 9039SOL    HW238577   3.340   0.585   9.499 -1.2751 -2.8385  4.4040
 9040SOL     OW38578   1.830   0.994   8.933 -0.1885  0.0913 -0.1503
 9040SOL    HW138579   1.798   1.000   9.023  0.8760 -1.2515  0.3178
 9040SOL    HW238580   1.894   0.923   8.936  0.4449  0.8123  2.8797
 9041SOL     OW38581   2.155   3.955   6.416 -1.1059 -0.2389  0.9038
 9041SOL    HW138582   2.236   4.007   6.409 -1.2870 -0.4460 -3.0979
 9041SOL    HW238583   2.099   4.008   6.359 -1.2429 -1.9244 -0.5307
 9042SOL     OW38584   0.645   1.544  16.755 -0.5847 -0.7507  0.6797
 9042SOL    HW138585   0.645   1.448  16.758  2.7543 -0.7415  0.3340
 9042SOL    HW238586   0.645   1.559  16.661  1.3851  0.4227  0.8824
 9043SOL     OW38587   2.232   0.025   6.339  0.1020  0.0441 -0.0884
 9043SOL    HW138588   2.167   4.695   6.391 -0.5515 -2.7195 -3.5099
 9043SOL    HW238589   2.294   4.674   6.317  1.4573  1.3629 -0.4359
 9044SOL     OW38590   2.124   1.494   8.465  0.1324 -0.1330  0.1365
 9044SOL    HW138591   2.194   1.429   8.454  1.3789  1.3262 -0.6455
 9044SOL    HW238592   2.143   1.524   8.554  3.2960 -0.5712 -0.3738
 9045SOL     OW38593   2.798   1.832   3.233  0.7181 -0.1426 -0.0140
 9045SOL    HW138594   2.862   1.773   3.193  0.9920 -0.0230  0.2483
 9045SOL    HW238595   2.727   1.812   3.171  2.5844 -1.7709 -1.6009
 9046SOL     OW38596   0.723   3.094   4.369 -0.5652  0.3779  0.5638
 9046SOL    HW138597   0.683   3.140   4.295  0.3852 -0.0560 -0.2214
 9046SOL    HW238598   0.646   3.056   4.412 -0.7802 -0.7481 -0.8227
 9047SOL     OW38599   4.375   2.170   6.753 -0.1697 -0.4556  0.3834
 9047SOL    HW138600   4.386   2.165   6.658 -3.4356 -1.2043  0.0237
 9047SOL    HW238601   4.344   2.260   6.767  0.2293 -0.0516 -1.3822
 9048SOL     OW38602   0.162   4.522  10.298  0.3430 -0.2358 -0.9173
 9048SOL    HW138603   0.090   4.500  10.357  1.0276 -0.9384 -0.3432
 9048SOL    HW238604   0.160   4.617  10.297 -0.3659 -0.2864 -4.1308
 9049SOL     OW38605   1.427   0.491   2.590 -0.2731  0.6675  0.2911
 9049SOL    HW138606   1.354   0.487   2.652 -0.4954  0.1455 -0.0096
 9049SOL    HW238607   1.493   0.507   2.659  0.0532  0.6390 -0.0153
 9050SOL     OW38608   4.042   3.792  11.361  0.3225 -0.4198 -0.2535
 9050SOL    HW138609   4.029   3.860  11.427 -0.3924  0.2406 -1.0782
 9050SOL    HW238610   4.069   3.848  11.288 -2.0706  1.6610  0.4357
 9051SOL     OW38611   0.087   3.425   9.185 -0.0648  0.2399  0.3058
 9051SOL    HW138612   0.105   3.369   9.260  0.2866  0.3132  0.2767
 9051SOL    HW238613   0.127   3.382   9.108  1.5413  1.2421  0.5721
 9052SOL     OW38614   1.944   0.998   5.695  0.4446  0.2138 -0.6205
 9052SOL    HW138615   1.887   0.943   5.641  0.4342 -1.4636  1.0977
 9052SOL    HW238616   1.877   1.043   5.746 -0.7888 -0.8263 -1.3161
 9053SOL     OW38617   2.281   3.238   6.096  0.0264 -0.1430 -0.2164
 9053SOL    HW138618   2.205   3.186   6.072 -0.8239  0.7325  0.6119
 9053SOL    HW238619   2.327   3.265   6.016 -1.7666 -1.1492 -1.5757
 9054SOL     OW38620   4.346   0.812   8.224 -0.0604 -0.2489  0.3101
 9054SOL    HW138621   4.352   0.855   8.139  1.2618 -1.5754 -0.2662
 9054SOL    HW238622   4.307   0.875   8.285  1.2371  0.3586  0.4982
 9055SOL     OW38623   0.381   0.079   7.261 -0.4380 -0.2968  0.0203
 9055SOL    HW138624   0.365   0.036   7.177  0.7503  1.0914 -0.9077
 9055SOL    HW238625   0.313   0.147   7.257 -0.2747 -0.1195  0.2976
 9056SOL     OW38626   3.550   2.643   2.685 -0.0474 -0.3653 -0.1288
 9056SOL    HW138627   3.533   2.555   2.717  0.2317  0.3710  2.0409
 9056SOL    HW238628   3.493   2.696   2.740  0.5588 -0.2486  0.3849
 9057SOL     OW38629   4.482   1.915   9.295 -0.3901 -0.1863 -0.2204
 9057SOL    HW138630   4.412   1.852   9.312  0.0931 -0.0953  2.1300
 9057SOL    HW238631   4.494   1.959   9.379 -0.1532  0.7458 -0.7467
 9058SOL     OW38632   4.156   0.313   6.673 -0.5548 -0.0355 -0.2001
 9058SOL    HW138633   4.171   0.399   6.713  3.0498  0.0814 -1.7906
 9058SOL    HW238634   4.234   0.300   6.619 -0.6412  0.0247 -0.3403
 9059SOL     OW38635   3.014   4.407   5.199 -0.0386  0.2188  0.0293
 9059SOL    HW138636   3.107   4.387   5.210  0.1559  2.0517  1.7608
 9059SOL    HW238637   2.996   4.490   5.243  1.4082  0.0745  0.9046
 9060SOL     OW38638   3.571   1.935   8.337  0.7862  0.0987  0.0924
 9060SOL    HW138639   3.513   2.009   8.356  2.1147  1.3385 -0.7278
 9060SOL    HW238640   3.605   1.963   8.253  1.4250 -3.2559 -0.7866
 9061SOL     OW38641   2.274   1.785  11.878  0.1457 -0.1352 -0.3768
 9061SOL    HW138642   2.229   1.859  11.917  0.8709  0.5172 -0.7788
 9061SOL    HW238643   2.216   1.712  11.898 -1.6178  0.5020 -3.2341
 9062SOL     OW38644   3.118   1.915  12.644 -0.4257  0.0456 -0.3650
 9062SOL    HW138645   3.204   1.954  12.661 -0.9293  1.1773 -0.3924
 9062SOL    HW238646   3.059   1.964  12.702  1.2116 -0.2322  1.5701
 9063SOL     OW38647   0.883   2.721   8.164 -0.2310  0.3106 -0.0246
 9063SOL    HW138648   0.868   2.704   8.071 -0.3835  2.5488 -0.4099
 9063SOL    HW238649   0.974   2.695   8.177  0.2008  0.9697 -1.7920
 9064SOL     OW38650   0.023   3.826   7.589  0.0863 -0.1015  0.0233
 9064SOL    HW138651   4.707   3.784   7.668 -1.1619  1.2471  0.1999
 9064SOL    HW238652   0.059   3.751   7.543  1.0702  0.1147  0.4397
 9065SOL     OW38653   2.729   1.901   4.288 -0.1575  0.1162  0.2589
 9065SOL    HW138654   2.680   1.830   4.246  2.0448 -1.4750  0.3853
 9065SOL    HW238655   2.671   1.922   4.362 -0.8784  2.3156 -0.9178
 9066SOL     OW38656   4.647   2.931   2.019  0.4971 -0.1878 -0.6024
 9066SOL    HW138657   4.620   2.924   1.928 -0.0309 -2.4141 -0.2736
 9066SOL    HW238658   4.712   2.861   2.025  0.5546 -0.0943 -0.0934
 9067SOL     OW38659   1.872   2.557   0.165  0.2695  0.1934  0.2308
 9067SOL    HW138660   1.929   2.606   0.225  1.4800 -1.3639  0.3593
 9067SOL    HW238661   1.785   2.587   0.192  0.1405  1.2063 -1.2872
 9068SOL     OW38662   0.519   2.367  11.343  0.2240 -0.5143  0.1401
 9068SOL    HW138663   0.433   2.354  11.382  1.3310 -0.7773  2.4590
 9068SOL    HW238664   0.578   2.354  11.417  0.1705 -0.7214  0.1461
 9069SOL     OW38665   2.133   1.375   2.211  0.1746 -0.0941  0.3580
 9069SOL    HW138666   2.047   1.414   2.227 -0.2615 -0.1940 -1.6946
 9069SOL    HW238667   2.117   1.286   2.242 -2.4803  0.2061 -0.1325
 9070SOL     OW38668   1.646   2.785  13.712  0.7188  0.2875 -0.6394
 9070SOL    HW138669   1.605   2.729  13.778 -2.1711  0.5097 -2.2283
 9070SOL    HW238670   1.662   2.857  13.772  2.5260  1.2388 -2.2550
 9071SOL     OW38671   1.212   3.288   7.960  0.2273 -0.3152  0.7313
 9071SOL    HW138672   1.252   3.365   8.001  0.4445  0.7660 -1.5341
 9071SOL    HW238673   1.280   3.223   7.943  1.1437  0.8437 -0.1353
 9072SOL     OW38674   1.378   1.006   9.623  0.0641  0.2185 -0.0942
 9072SOL    HW138675   1.424   1.089   9.627  0.7100 -0.0936 -0.8994
 9072SOL    HW238676   1.445   0.957   9.574  1.3874  0.4314  1.4850
 9073SOL     OW38677   2.529   1.949  15.345 -0.2515  0.2618 -0.3005
 9073SOL    HW138678   2.614   1.935  15.302 -0.5728 -0.2263 -0.7658
 9073SOL    HW238679   2.521   2.044  15.334 -1.4368  0.1556 -0.3272
 9074SOL     OW38680   0.308   0.493   8.470  0.1740 -0.2043 -0.2390
 9074SOL    HW138681   0.296   0.509   8.376  0.2751  1.6201  0.0626
 9074SOL    HW238682   0.222   0.492   8.510  1.0599 -0.9104  1.6477
 9075SOL     OW38683   3.571   0.596  14.623 -0.6601 -0.4501  0.2306
 9075SOL    HW138684   3.516   0.667  14.592 -1.5245 -1.5108 -0.6860
 9075SOL    HW238685   3.640   0.595  14.556 -3.3334  2.1452 -2.5700
 9076SOL     OW38686   3.012   4.539  10.761  0.5552  0.0820 -0.7521
 9076SOL    HW138687   3.030   4.608  10.824  1.0735  0.1634 -0.9831
 9076SOL    HW238688   3.010   4.591  10.680  0.3525  1.7454  0.3251
 9077SOL     OW38689   0.451   3.775   2.053  0.6205  0.1089  0.1586
 9077SOL    HW138690   0.464   3.868   2.033  1.9390  0.0965  0.9774
 9077SOL    HW238691   0.389   3.760   1.981  4.5052 -1.8256 -2.7509
 9078SOL     OW38692   2.575   1.951  17.551  0.0841  0.4422 -0.3624
 9078SOL    HW138693   2.486   1.981  17.571  0.1390  0.1852  0.2883
 9078SOL    HW238694   2.556   1.860  17.529  1.9979 -1.0555  4.1757
 9079SOL     OW38695   4.039   4.299   4.920 -0.3918  0.2062 -0.3518
 9079SOL    HW138696   3.994   4.373   4.960 -1.9408 -1.1288  0.3668
 9079SOL    HW238697   4.127   4.303   4.958 -0.3837 -0.8136 -0.2616
 9080SOL     OW38698   2.838   4.490   9.012 -0.6670  0.5705  0.2024
 9080SOL    HW138699   2.879   4.418   8.963  1.9644  0.1191  3.0692
 9080SOL    HW238700   2.804   4.542   8.939 -1.4586  0.7930  0.7337
 9081SOL     OW38701   1.119   3.318   4.509  0.0301  0.1649  0.4435
 9081SOL    HW138702   1.078   3.264   4.442 -0.2032 -0.8545  1.4013
 9081SOL    HW238703   1.081   3.402   4.482 -0.0272 -1.1799 -3.5161
 9082SOL     OW38704   0.805   0.481   6.349 -0.2269 -0.2737 -0.5868
 9082SOL    HW138705   0.726   0.478   6.403 -0.1102  4.9309 -0.0473
 9082SOL    HW238706   0.825   0.388   6.348  1.2250 -0.0043  1.4569
 9083SOL     OW38707   1.107   1.793   4.209 -0.2287  0.7639 -0.3864
 9083SOL    HW138708   1.118   1.867   4.269  0.3939  1.5221 -1.4528
 9083SOL    HW238709   1.193   1.754   4.196  1.2949  3.9236  0.2540
 9084SOL     OW38710   1.516   2.406   2.509 -0.5352  0.5203  0.0032
 9084SOL    HW138711   1.506   2.376   2.599 -0.5803  0.0470 -0.1606
 9084SOL    HW238712   1.497   2.326   2.459 -1.2457  1.4020 -1.1580
 9085SOL     OW38713   0.574   4.101   8.788 -0.3090  0.3728  0.3783
 9085SOL    HW138714   0.585   4.053   8.870 -1.3041  0.9471  0.8489
 9085SOL    HW238715   0.502   4.161   8.808 -0.6993  0.3287 -0.9010
 9086SOL     OW38716   0.453   2.803   1.977 -0.4343 -0.0668 -0.0238
 9086SOL    HW138717   0.444   2.870   2.044  0.0900  0.2545 -0.2698
 9086SOL    HW238718   0.509   2.843   1.910 -1.2564 -0.1592 -0.7692
 9087SOL     OW38719   1.731   2.286   0.297  0.0599  0.0113  0.7087
 9087SOL    HW138720   1.774   2.238   0.368  1.9550  0.0230 -0.4105
 9087SOL    HW238721   1.685   2.352   0.348 -0.4708  0.9017 -0.9369
 9088SOL     OW38722   2.554   4.616   2.168  0.4899  0.3470  0.9221
 9088SOL    HW138723   2.467   4.580   2.152  0.5083 -0.5351  2.8886
 9088SOL    HW238724   2.571   4.660   2.084  0.7382  0.4417  1.0234
 9089SOL     OW38725   2.973   0.994   2.654  0.0854 -0.5896  0.1208
 9089SOL    HW138726   2.961   0.993   2.559  3.4738  0.2096 -0.3234
 9089SOL    HW238727   2.882   0.983   2.681 -0.1250 -4.3698 -1.9825
 9090SOL     OW38728   1.827   0.939  17.282  0.1629  0.3279 -0.1106
 9090SOL    HW138729   1.888   1.012  17.277 -0.0429  0.6639  2.2124
 9090SOL    HW238730   1.872   0.907  17.361  0.5804 -2.7460 -1.6054
 9091SOL     OW38731   2.732   0.493  11.523  0.1091 -0.2940 -0.2810
 9091SOL    HW138732   2.689   0.576  11.502 -1.4388 -1.2826 -1.0095
 9091SOL    HW238733   2.659   0.433  11.508  0.0928 -0.1957 -0.6126
 9092SOL     OW38734   1.030   2.488   4.485 -0.2056 -0.0951 -0.2008
 9092SOL    HW138735   1.091   2.500   4.413  0.4512 -0.5949  0.2657
 9092SOL    HW238736   1.014   2.571   4.530  0.5343 -0.0476 -0.0339
 9093SOL     OW38737   0.284   1.207   8.237 -0.2075 -0.6726 -0.3834
 9093SOL    HW138738   0.278   1.242   8.148 -0.3981 -0.0833 -0.1398
 9093SOL    HW238739   0.275   1.286   8.291  1.1482  0.9609 -2.5149
 9094SOL     OW38740   1.773   0.182   2.493 -0.5308 -0.0126 -0.0598
 9094SOL    HW138741   1.861   0.193   2.458 -0.5761 -0.8392 -0.4546
 9094SOL    HW238742   1.777   0.226   2.577 -3.7038  0.0477  0.0852
 9095SOL     OW38743   2.071   2.646   7.955  0.0101 -0.5948 -0.0078
 9095SOL    HW138744   2.090   2.564   8.001 -1.0189 -0.3893  0.7966
 9095SOL    HW238745   2.100   2.612   7.871 -0.6622  0.1514 -0.5378
 9096SOL     OW38746   3.782   0.429  16.996  0.0232  0.5623 -0.4837
 9096SOL    HW138747   3.690   0.438  16.970  0.5086  2.9185 -1.4309
 9096SOL    HW238748   3.828   0.504  16.959  0.0953  0.6063 -0.3021
 9097SOL     OW38749   1.900   1.416   8.295  0.0238 -0.0235  0.0467
 9097SOL    HW138750   1.945   1.437   8.377  0.4443 -0.7471 -0.0022
 9097SOL    HW238751   1.974   1.399   8.236 -0.4074 -1.8781  0.0482
 9098SOL     OW38752   3.498   1.780   1.729  0.5644 -0.2178  0.3585
 9098SOL    HW138753   3.496   1.808   1.821  2.3147 -1.4994  0.7957
 9098SOL    HW238754   3.423   1.722   1.716  0.6071  0.3303 -2.1573
 9099SOL     OW38755   0.405   3.101   8.122  0.0233 -0.1158 -0.0722
 9099SOL    HW138756   0.452   3.022   8.094 -1.5253 -0.4199 -1.8494
 9099SOL    HW238757   0.460   3.171   8.087 -1.3330  1.6032  1.2273
 9100SOL     OW38758   0.088   0.295   9.772 -0.3357  0.0937  0.3862
 9100SOL    HW138759   0.053   0.227   9.830 -0.1644  0.4117  0.8603
 9100SOL    HW238760   0.055   0.272   9.685 -0.7700  1.6589  0.1359
 9101SOL     OW38761   1.729   3.138   1.927 -0.0979  0.1935 -0.0787
 9101SOL    HW138762   1.809   3.118   1.977 -0.6114  1.2333  1.1735
 9101SOL    HW238763   1.713   3.232   1.937  1.6572  0.2490  2.4464
 9102SOL     OW38764   2.227   0.317   3.280  0.6836 -0.6054 -0.5922
 9102SOL    HW138765   2.289   0.284   3.215  2.0717  1.3761 -0.2717
 9102SOL    HW238766   2.159   0.359   3.227 -0.2290 -0.3107  0.8021
 9103SOL     OW38767   1.800   2.946   0.194  0.7960  0.4793 -0.5486
 9103SOL    HW138768   1.724   2.971   0.247  0.5994  0.3628 -0.7743
 9103SOL    HW238769   1.747   2.943   0.114  1.7274 -2.2217 -1.0549
 9104SOL     OW38770   3.383   0.423   9.791  0.0871 -0.2608 -0.6037
 9104SOL    HW138771   3.424   0.419   9.878 -0.3971  0.6908 -0.3317
 9104SOL    HW238772   3.434   0.495   9.754  0.3000 -0.1343 -0.0652
 9105SOL     OW38773   0.846   0.896   2.922 -0.2011 -0.0640 -0.1224
 9105SOL    HW138774   0.885   0.915   2.837 -1.7328  0.2419 -0.7437
 9105SOL    HW238775   0.872   0.971   2.976  0.0171  1.8104 -2.8399
 9106SOL     OW38776   2.254   3.340   5.752  0.1439  0.1780  0.3518
 9106SOL    HW138777   2.201   3.420   5.760  1.6560  1.1355  0.8421
 9106SOL    HW238778   2.327   3.365   5.694 -1.2842  0.1447 -1.4510
 9107SOL     OW38779   0.283   1.641   7.573 -0.4100 -0.3125 -0.2366
 9107SOL    HW138780   0.352   1.706   7.558  1.3431 -1.9605  0.7950
 9107SOL    HW238781   0.302   1.619   7.665 -0.0831 -2.3072 -0.7889
 9108SOL     OW38782   0.286   4.168   8.208 -0.2968 -0.6280  0.6185
 9108SOL    HW138783   0.247   4.115   8.139  1.5201 -1.0702 -0.0849
 9108SOL    HW238784   0.242   4.150   8.291 -2.3223  1.6954  0.0275
 9109SOL     OW38785   1.507   0.319   7.772 -0.1355  0.6149 -0.1048
 9109SOL    HW138786   1.566   0.392   7.793  0.2374  0.4760 -0.6751
 9109SOL    HW238787   1.534   0.259   7.841  0.7665  0.3355 -0.7038
 9110SOL     OW38788   2.625   3.651   0.763  0.3837  0.2648  0.2125
 9110SOL    HW138789   2.691   3.588   0.735  0.4256 -0.0329  0.9589
 9110SOL    HW238790   2.579   3.675   0.683  1.1602  1.3399  0.0930
 9111SOL     OW38791   1.157   1.996   3.498  0.8210  0.2816  0.2204
 9111SOL    HW138792   1.244   2.024   3.471 -0.1252  0.3589 -2.7695
 9111SOL    HW238793   1.114   2.081   3.514 -0.8753 -0.7067  0.9108
 9112SOL     OW38794   0.930   4.621   4.006 -0.3143  0.2696  0.2459
 9112SOL    HW138795   0.994   4.691   3.993 -0.6084  0.6383  0.8296
 9112SOL    HW238796   0.982   4.541   3.996 -0.7076  0.0047  0.3126
 9113SOL     OW38797   2.059   3.745  12.809  0.5921 -1.0205 -0.4704
 9113SOL    HW138798   2.108   3.663  12.822 -0.0967 -1.2666  0.5576
 9113SOL    HW238799   1.995   3.732  12.739  2.5173  0.5691 -2.5299
 9114SOL     OW38800   3.890   0.977  12.476  0.1500  0.2971 -0.1169
 9114SOL    HW138801   3.928   0.948  12.559  1.3320 -2.2800 -1.5743
 9114SOL    HW238802   3.860   1.064  12.504  3.9135  1.6465 -0.2592
 9115SOL     OW38803   2.706   0.081  10.394 -0.4263 -0.6394 -0.0283
 9115SOL    HW138804   2.740   0.027  10.465 -0.0841  0.6956  0.8092
 9115SOL    HW238805   2.753   0.045  10.318 -0.4819 -0.2749 -0.2361
 9116SOL     OW38806   1.985   3.215   6.855  0.1616 -0.1162  0.0923
 9116SOL    HW138807   1.965   3.300   6.893  3.8320  0.1607  1.4145
 9116SOL    HW238808   2.032   3.249   6.779 -0.3525  0.6236  0.1040
 9117SOL     OW38809   2.452   4.021  13.164 -0.1997  0.8960  0.1615
 9117SOL    HW138810   2.420   3.932  13.151 -0.2457  0.6517  1.9381
 9117SOL    HW238811   2.506   4.037  13.087  1.8708  1.6664  1.7777
 9118SOL     OW38812   3.846   2.650   0.848 -0.7482 -0.7812  0.1324
 9118SOL    HW138813   3.786   2.717   0.816 -1.4581 -1.1952  0.5935
 9118SOL    HW238814   3.805   2.622   0.930  1.3612 -1.1895  1.0576
 9119SOL     OW38815   0.054   3.520   8.441 -0.2389 -0.3297 -0.0731
 9119SOL    HW138816   0.066   3.430   8.410 -2.7235 -0.8248  0.4131
 9119SOL    HW238817   4.678   3.517   8.437 -0.3954  1.9854  2.5139
 9120SOL     OW38818   1.328   2.948  16.360 -0.0290  0.1418 -0.5391
 9120SOL    HW138819   1.252   2.989  16.319 -1.2562 -1.0453  0.5779
 9120SOL    HW238820   1.392   3.019  16.359 -2.3897  2.2645 -0.3377
 9121SOL     OW38821   1.352   3.909   2.980 -0.7040 -0.1172 -0.3631
 9121SOL    HW138822   1.354   3.858   2.899 -1.1243 -3.7621  1.9158
 9121SOL    HW238823   1.419   3.973   2.956 -1.0943  1.2367  2.1942
 9122SOL     OW38824   4.361   2.575   0.754  0.2985  0.1131 -0.2706
 9122SOL    HW138825   4.369   2.556   0.661 -0.0396 -1.3476  0.0076
 9122SOL    HW238826   4.309   2.656   0.753  0.7178  0.4049  0.9361
 9123SOL     OW38827   2.770   0.594   6.276  0.0233  0.3728  0.3066
 9123SOL    HW138828   2.675   0.589   6.271  0.0330  0.3352  0.1637
 9123SOL    HW238829   2.767   0.681   6.315  2.6524 -0.5636  2.5775
 9124SOL     OW38830   4.400   3.163   4.619  0.4295  0.2319  0.3367
 9124SOL    HW138831   4.382   3.083   4.668  1.1820  0.1629  0.4916
 9124SOL    HW238832   4.319   3.216   4.619 -1.0124 -1.9729 -1.2284
 9125SOL     OW38833   3.168   2.634   1.145  0.6211 -0.5817  0.4664
 9125SOL    HW138834   3.221   2.708   1.175  0.3857  0.0050 -0.5658
 9125SOL    HW238835   3.110   2.680   1.085 -2.1194 -1.5166  2.3648
 9126SOL     OW38836   4.519   3.393   5.850  0.1735  0.1680 -0.2049
 9126SOL    HW138837   4.457   3.400   5.922  0.6772  0.4574  0.1949
 9126SOL    HW238838   4.518   3.478   5.806  2.9503  0.7109  0.7606
 9127SOL     OW38839   2.973   2.523   8.125 -0.1482 -0.0394  0.2277
 9127SOL    HW138840   2.940   2.612   8.140  2.1776  0.5624  1.6927
 9127SOL    HW238841   2.890   2.479   8.107 -0.5241  0.6691  0.2476
 9128SOL     OW38842   0.335   3.996   7.834 -0.0355 -0.0114 -0.3500
 9128SOL    HW138843   0.374   3.956   7.912  0.0130  1.3170  0.3101
 9128SOL    HW238844   0.393   4.068   7.807  0.5163 -0.6229 -0.7864
 9129SOL     OW38845   3.229   4.473   4.955 -0.3427 -0.0315  0.0687
 9129SOL    HW138846   3.258   4.481   5.046 -0.3354  3.6263 -0.2758
 9129SOL    HW238847   3.304   4.474   4.896  1.4179  1.1410  2.3359
 9130SOL     OW38848   4.373   4.118   4.503  0.5177  0.5505 -0.5190
 9130SOL    HW138849   4.321   4.182   4.552  0.4499  0.6671 -0.7437
 9130SOL    HW238850   4.345   4.031   4.531  0.6515  1.1734  1.6190
 9131SOL     OW38851   0.780   0.651  14.316  0.1895 -0.1726  0.0001
 9131SOL    HW138852   0.824   0.736  14.318 -0.2962  0.1257 -1.8963
 9131SOL    HW238853   0.816   0.614  14.235  0.9354  0.6687 -0.0562
 9132SOL     OW38854   3.436   3.264   4.663 -0.1269 -0.0863 -0.5347
 9132SOL    HW138855   3.471   3.353   4.652 -0.0549  0.1602  1.6710
 9132SOL    HW238856   3.503   3.215   4.710  0.4018  0.6751 -0.4821
 9133SOL     OW38857   4.500   0.155  14.098 -0.0563 -0.0066  0.5733
 9133SOL    HW138858   4.405   0.155  14.108 -0.0669 -0.1350  0.4595
 9133SOL    HW238859   4.508   0.213  14.022 -0.9570  0.9421  1.1917
 9134SOL     OW38860   3.873   2.368   1.525 -0.5771 -0.5224  0.5015
 9134SOL    HW138861   3.948   2.319   1.558  0.3756 -0.2178 -1.1837
 9134SOL    HW238862   3.904   2.450   1.485 -2.8184 -0.6716 -1.6174
 9135SOL     OW38863   1.248   0.018   3.753  0.3222 -0.1336 -0.2670
 9135SOL    HW138864   1.245   0.037   3.847 -1.0145 -0.3000 -0.2748
 9135SOL    HW238865   1.329   0.064   3.729 -0.0778 -0.5035 -2.3372
 9136SOL     OW38866   4.154   0.751   1.753  0.6575  0.0252 -0.1823
 9136SOL    HW138867   4.063   0.730   1.776  0.1542  0.7849 -1.4443
 9136SOL    HW238868   4.142   0.839   1.716 -1.1440  0.1714  0.7122
 9137SOL     OW38869   0.789   2.107  13.588 -0.2270  0.1811  0.4884
 9137SOL    HW138870   0.739   2.185  13.613 -0.8444  0.1632 -0.6701
 9137SOL    HW238871   0.764   2.053  13.663 -1.6099 -0.5175 -0.4699
 9138SOL     OW38872   4.141   4.029   7.140 -0.3169 -0.1514 -0.2682
 9138SOL    HW138873   4.127   3.961   7.206 -1.0260  0.5538  0.3140
 9138SOL    HW238874   4.171   4.105   7.191  1.3268 -0.4409 -0.7851
 9139SOL     OW38875   4.374   3.438   6.493 -0.1505 -0.4421 -0.0516
 9139SOL    HW138876   4.463   3.463   6.517 -0.1914  0.4294 -0.8227
 9139SOL    HW238877   4.347   3.512   6.438 -0.7306 -0.0695  0.7371
 9140SOL     OW38878   4.602   2.373   8.155 -0.2026 -0.1774  0.1843
 9140SOL    HW138879   4.637   2.346   8.070  1.1043  0.7443  0.4287
 9140SOL    HW238880   4.541   2.443   8.132  0.3663 -0.6252 -2.6272
 9141SOL     OW38881   2.786   3.251   3.779  0.0505  0.4120 -0.1110
 9141SOL    HW138882   2.834   3.289   3.705  0.1026 -1.7209 -1.1750
 9141SOL    HW238883   2.748   3.172   3.740  0.5397  0.4554 -0.6679
 9142SOL     OW38884   0.393   1.075  16.529 -0.0300  0.7999  0.4235
 9142SOL    HW138885   0.481   1.057  16.564  0.8635  0.5291 -1.9717
 9142SOL    HW238886   0.417   1.084  16.437 -1.8780  0.1341 -0.1145
 9143SOL     OW38887   0.419   3.826   8.023 -0.3519 -0.2528  0.0249
 9143SOL    HW138888   0.331   3.788   8.019 -1.0611  1.3514  0.3774
 9143SOL    HW238889   0.458   3.799   8.105 -1.0174  0.5334  0.5999
 9144SOL     OW38890   4.122   1.168   3.843 -0.1391 -0.2453 -0.2984
 9144SOL    HW138891   4.184   1.227   3.801 -1.5873  2.2704  1.1530
 9144SOL    HW238892   4.129   1.089   3.789 -1.5287 -1.5498  1.4091
 9145SOL     OW38893   0.745   3.044   8.170 -0.1047  0.1106 -0.4045
 9145SOL    HW138894   0.702   3.057   8.086  1.2625 -0.8123 -1.2433
 9145SOL    HW238895   0.835   3.019   8.153 -0.1695  0.2502 -0.9337
 9146SOL     OW38896   3.296   1.512  12.841 -0.1646  0.0399  0.5105
 9146SOL    HW138897   3.361   1.581  12.828  0.0518 -0.3500 -0.5524
 9146SOL    HW238898   3.331   1.444  12.783  1.6106 -0.1584  1.8051
 9147SOL     OW38899   0.831   3.826   7.264  0.0161 -0.1365 -0.3924
 9147SOL    HW138900   0.778   3.751   7.290  0.2650 -0.5971 -1.2040
 9147SOL    HW238901   0.860   3.859   7.349 -1.2637 -0.7147  0.2642
 9148SOL     OW38902   3.877   4.624   8.716 -0.3596  0.1014 -0.2373
 9148SOL    HW138903   3.863   4.683   8.791 -0.8417  1.6982 -1.5826
 9148SOL    HW238904   3.973   4.621   8.719 -0.3528  0.7301  0.3235
 9149SOL     OW38905   2.132   0.653   0.984 -0.1367  0.7769  0.5504
 9149SOL    HW138906   2.075   0.718   0.943 -1.2956 -0.9312 -0.5896
 9149SOL    HW238907   2.179   0.718   1.036 -2.5863  2.5241  0.5777
 9150SOL     OW38908   2.246   4.116   7.096  0.6525  0.3951  0.3104
 9150SOL    HW138909   2.214   4.124   7.186  0.0702 -0.3537  0.1752
 9150SOL    HW238910   2.206   4.195   7.060  1.3522  0.0459 -1.2570
 9151SOL     OW38911   0.687   1.150   1.085  0.2499 -0.6090 -0.3701
 9151SOL    HW138912   0.762   1.207   1.076 -0.2435  0.2063  0.7352
 9151SOL    HW238913   0.612   1.201   1.053  0.5131  2.3473  3.7789
 9152SOL     OW38914   4.069   3.246   0.723 -0.4209 -0.7580 -0.0801
 9152SOL    HW138915   4.098   3.180   0.785 -0.5116 -1.0248 -0.3237
 9152SOL    HW238916   4.034   3.182   0.662  0.1079 -2.0765  1.0149
 9153SOL     OW38917   1.698   3.305   5.353 -0.5743 -0.4497 -0.3360
 9153SOL    HW138918   1.721   3.265   5.269 -0.5275  0.2029 -0.6303
 9153SOL    HW238919   1.639   3.239   5.389  0.4290  0.3928  2.9091
 9154SOL     OW38920   3.098   1.388  13.282 -0.2507 -0.0490  0.1696
 9154SOL    HW138921   3.166   1.326  13.309  1.3245  1.1019 -1.1987
 9154SOL    HW238922   3.095   1.375  13.188  1.5701 -1.7626  0.3476
 9155SOL     OW38923   0.123   2.802   3.534 -0.1199 -0.2504 -0.1393
 9155SOL    HW138924   0.097   2.879   3.483  0.3729 -0.6812 -1.0383
 9155SOL    HW238925   0.176   2.835   3.607 -1.0977 -3.4680  1.9901
 9156SOL     OW38926   1.545   0.940  16.491 -0.0268 -0.1816  0.5266
 9156SOL    HW138927   1.580   0.911  16.406 -0.5035 -1.6855  0.8442
 9156SOL    HW238928   1.597   0.890  16.554 -2.8195 -2.1829  1.2338
 9157SOL     OW38929   1.987   2.126  10.192 -0.3095 -0.0219 -0.6692
 9157SOL    HW138930   1.892   2.115  10.189 -0.5804  2.4805 -2.0173
 9157SOL    HW238931   2.017   2.123  10.101 -0.8543 -0.2714 -0.8449
 9158SOL     OW38932   1.693   3.126  12.959 -0.1053  0.2396  0.7333
 9158SOL    HW138933   1.625   3.193  12.947 -0.5851 -0.5390 -0.8698
 9158SOL    HW238934   1.675   3.072  12.883  0.4428  0.1230  0.6867
 9159SOL     OW38935   0.563   3.175   2.319  0.4217 -0.2258 -0.0651
 9159SOL    HW138936   0.559   3.148   2.411  1.5779  0.1063  0.0848
 9159SOL    HW238937   0.516   3.258   2.327  2.2094  0.7307  0.6259
 9160SOL     OW38938   1.935   3.830  12.333 -0.3424 -0.1714  0.0380
 9160SOL    HW138939   1.900   3.891  12.269 -0.1814 -2.3181 -2.0874
 9160SOL    HW238940   1.971   3.759  12.280  0.8212  0.0496  0.5483
 9161SOL     OW38941   1.620   0.712  12.764  0.3175 -0.2498  0.2405
 9161SOL    HW138942   1.632   0.807  12.775  0.9824 -0.0601 -1.9682
 9161SOL    HW238943   1.636   0.676  12.851 -0.4256 -0.8439  0.1356
 9162SOL     OW38944   1.988   0.406   5.903  0.8394  0.1416  0.3502
 9162SOL    HW138945   1.991   0.318   5.866  0.9440  0.8197 -1.2328
 9162SOL    HW238946   1.961   0.383   5.992 -2.8144 -1.1024 -1.1193
 9163SOL     OW38947   2.845   2.945  10.666  0.5796  0.1529  0.4627
 9163SOL    HW138948   2.883   2.921  10.581 -0.3119  0.2677  0.0294
 9163SOL    HW238949   2.865   3.038  10.671 -2.0993  0.7354  0.4212
 9164SOL     OW38950   3.139   1.909   6.399 -0.1200  1.1430  0.1183
 9164SOL    HW138951   3.089   1.829   6.415 -2.1971  2.2990 -0.6000
 9164SOL    HW238952   3.222   1.868   6.426 -0.8528 -0.8230 -0.6192
 9165SOL     OW38953   3.668   3.072   3.008  0.0167 -0.2606 -0.5833
 9165SOL    HW138954   3.654   2.982   2.978 -1.9003  0.4575 -1.8876
 9165SOL    HW238955   3.735   3.093   2.943  1.6181  1.7689  1.7402
 9166SOL     OW38956   3.637   0.854   3.974 -0.2761 -0.2462  0.5739
 9166SOL    HW138957   3.548   0.834   3.944  0.1642  0.1710 -0.9779
 9166SOL    HW238958   3.659   0.921   3.910 -0.1096  0.6397  1.5622
 9167SOL     OW38959   3.104   2.719   7.284  0.0853 -0.1155 -0.2216
 9167SOL    HW138960   3.168   2.780   7.320  0.0382 -0.8420  1.0692
 9167SOL    HW238961   3.088   2.759   7.198  0.5149 -0.5061 -0.4847
 9168SOL     OW38962   3.213   1.315  14.989 -0.4435  0.6251  0.4170
 9168SOL    HW138963   3.233   1.367  14.911 -0.1891 -1.4485 -0.9022
 9168SOL    HW238964   3.118   1.325  14.995 -0.5746 -0.3692  0.0081
 9169SOL     OW38965   2.100   0.910   2.727  0.1300 -0.3451 -0.1550
 9169SOL    HW138966   2.117   0.877   2.639 -1.2676  1.0499 -0.9444
 9169SOL    HW238967   2.157   0.988   2.729 -0.3982 -0.0013  1.2731
 9170SOL     OW38968   1.148   2.640   8.228  0.3981 -0.2492  0.1968
 9170SOL    HW138969   1.213   2.649   8.158 -1.5201  0.4510 -1.5032
 9170SOL    HW238970   1.163   2.549   8.255  0.1329 -0.3378  0.0578
 9171SOL     OW38971   0.167   1.294   9.458 -0.8181 -0.4156 -0.0747
 9171SOL    HW138972   0.223   1.219   9.438 -0.2379  0.5719 -2.0960
 9171SOL    HW238973   0.161   1.333   9.371  0.0573 -1.2174 -0.4976
 9172SOL     OW38974   3.325   4.663   8.529 -0.0515 -0.3348 -0.1061
 9172SOL    HW138975   3.315   4.682   8.436  1.8985 -3.9702 -1.0978
 9172SOL    HW238976   3.400   4.717   8.552 -1.9107  1.7165  1.0358
 9173SOL     OW38977   3.389   4.714   5.542 -0.1960  0.1900 -0.2184
 9173SOL    HW138978   3.315   0.045   5.576 -0.1205  0.3603 -0.3064
 9173SOL    HW238979   3.371   0.002   5.449 -0.7064  1.3148 -0.0423
 9174SOL     OW38980   0.210   0.688   5.506  0.0482  0.2127 -0.5664
 9174SOL    HW138981   0.251   0.745   5.570 -1.4548  0.7712 -0.1077
 9174SOL    HW238982   0.229   0.737   5.426  1.0204  0.4554 -0.1868
 9175SOL     OW38983   1.027   3.972   8.729  0.2192  0.8995  0.1919
 9175SOL    HW138984   0.998   3.918   8.802  0.6053  0.2569 -0.1323
 9175SOL    HW238985   0.948   4.009   8.690  0.3172  1.3555  0.4243
 9176SOL     OW38986   1.454   1.843   1.652  0.0723  0.2299 -0.0551
 9176SOL    HW138987   1.472   1.924   1.604  1.3117 -1.3859 -2.3114
 9176SOL    HW238988   1.386   1.805   1.597  0.1991 -0.8569  0.5526
 9177SOL     OW38989   1.407   4.532  12.552 -0.4131  0.4107  0.6529
 9177SOL    HW138990   1.496   4.505  12.575 -0.3018  0.9023  0.8117
 9177SOL    HW238991   1.368   4.510  12.637  1.9888 -1.5172  1.2639
 9178SOL     OW38992   0.080   0.558   4.121 -0.5104 -0.3251  0.3768
 9178SOL    HW138993   0.087   0.593   4.210  0.4374  0.3928  0.0156
 9178SOL    HW238994   0.034   0.631   4.079  0.8613 -1.7966 -3.7137
 9179SOL     OW38995   3.679   0.676  10.613 -0.0403 -0.0166  0.8846
 9179SOL    HW138996   3.741   0.717  10.673  0.1388  1.0367 -0.0263
 9179SOL    HW238997   3.732   0.602  10.584 -0.1797  0.3108 -0.1695
 9180SOL     OW38998   2.709   0.648   8.700 -0.0170  0.3679 -0.1452
 9180SOL    HW138999   2.673   0.724   8.745  1.3737  0.4365  0.8626
 9180SOL    HW239000   2.784   0.625   8.756 -0.3226  0.1593  0.1766
 9181SOL     OW39001   0.192   0.833   3.151  0.2539  0.4471 -0.2939
 9181SOL    HW139002   0.124   0.872   3.206  0.9991  0.9186  0.2991
 9181SOL    HW239003   0.169   0.741   3.144  0.2981  0.4734 -0.8201
 9182SOL     OW39004   1.820   0.925   6.344 -0.3675 -0.0072  0.1931
 9182SOL    HW139005   1.833   0.840   6.301  0.6512  0.2240  0.0340
 9182SOL    HW239006   1.883   0.984   6.302 -0.6249 -0.6639 -1.1100
 9183SOL     OW39007   4.630   4.460   6.667  0.3067  0.1689  0.3513
 9183SOL    HW139008   4.677   4.382   6.695 -1.8714 -1.0284  0.6035
 9183SOL    HW239009   4.540   4.446   6.695  0.2057 -3.1430 -1.6630
 9184SOL     OW39010   2.742   1.573   4.021  0.3613  0.1590  0.0947
 9184SOL    HW139011   2.697   1.533   4.095  2.3065 -0.1813  1.1105
 9184SOL    HW239012   2.687   1.555   3.945  0.9140 -3.2980  0.5227
 9185SOL     OW39013   2.220   4.704  16.836  0.3883 -0.3913  0.1113
 9185SOL    HW139014   2.232   0.072  16.873 -0.2686 -0.5348  0.6750
 9185SOL    HW239015   2.289   4.704  16.771  0.3500  1.1814  0.0809
 9186SOL     OW39016   3.201   2.247   8.948  0.4225 -0.0339  0.2924
 9186SOL    HW139017   3.201   2.206   8.862 -0.2117 -0.5779  0.5464
 9186SOL    HW239018   3.123   2.301   8.937 -0.2351 -1.2034 -0.8588
 9187SOL     OW39019   1.021   1.603   4.913 -0.5908  0.2256  0.1589
 9187SOL    HW139020   1.034   1.664   4.841 -1.0674 -2.4062 -2.1641
 9187SOL    HW239021   1.099   1.605   4.969  0.2584 -1.2462 -0.9457
 9188SOL     OW39022   3.420   2.511  13.188  0.2556  0.0616 -0.1216
 9188SOL    HW139023   3.489   2.468  13.138 -0.2575  1.0850 -1.7191
 9188SOL    HW239024   3.365   2.434  13.195  1.5905 -0.8791 -0.0434
 9189SOL     OW39025   0.267   4.455   3.472  0.1583 -0.2373  0.0883
 9189SOL    HW139026   0.204   4.523   3.446 -0.0895  0.4949  2.5609
 9189SOL    HW239027   0.335   4.518   3.496 -0.8768  1.3465 -1.1461
 9190SOL     OW39028   4.331   3.214   7.656  0.7865 -0.2736  0.0420
 9190SOL    HW139029   4.321   3.297   7.703 -1.3291  0.3337 -1.4281
 9190SOL    HW239030   4.305   3.229   7.564  0.2659 -1.4964 -0.0131
 9191SOL     OW39031   4.297   1.796   7.373  0.1959  0.3296  0.2520
 9191SOL    HW139032   4.370   1.857   7.375  2.8225 -2.7995  0.5960
 9191SOL    HW239033   4.247   1.810   7.292 -0.3878  1.4381  0.8118
 9192SOL     OW39034   3.399   3.656   3.825  0.0761 -0.3870  0.3701
 9192SOL    HW139035   3.401   3.691   3.914  0.9172  0.2788  0.0885
 9192SOL    HW239036   3.350   3.717   3.769  1.3194  2.3379  2.2511
 9193SOL     OW39037   3.657   3.148   4.833  0.2824 -0.0490  0.3252
 9193SOL    HW139038   3.658   3.104   4.918 -0.8412 -0.0523  0.3317
 9193SOL    HW239039   3.749   3.128   4.816  0.5655  1.2540  0.3234
 9194SOL     OW39040   0.189   4.166  15.626 -0.1772  0.2414 -0.0444
 9194SOL    HW139041   0.268   4.218  15.613  0.0157  0.3618  1.6867
 9194SOL    HW239042   0.129   4.201  15.560 -0.5126 -0.2691 -0.0127
 9195SOL     OW39043   1.055   0.873   1.793  0.2576 -0.6122  0.4308
 9195SOL    HW139044   1.136   0.896   1.839  1.7502 -0.4161 -2.2688
 9195SOL    HW239045   0.997   0.949   1.802  3.0080  1.6083 -0.3994
 9196SOL     OW39046   3.049   4.615   4.789  0.3585 -0.5217  0.2796
 9196SOL    HW139047   2.973   4.637   4.844  1.0854  0.6455  0.8115
 9196SOL    HW239048   3.106   4.567   4.848 -0.2437  0.3376  1.5689
 9197SOL     OW39049   2.568   1.748  10.143  0.0596  0.2970  0.1097
 9197SOL    HW139050   2.656   1.746  10.180  0.4996 -0.8676 -0.9676
 9197SOL    HW239051   2.526   1.721  10.225  2.0158 -0.0419  0.9859
 9198SOL     OW39052   1.392   4.558  14.656 -0.5579  0.0039  0.2168
 9198SOL    HW139053   1.427   4.470  14.668  0.6735  0.1289 -2.4261
 9198SOL    HW239054   1.471   4.608  14.634  0.1709 -1.2749 -0.0513
 9199SOL     OW39055   4.702   0.521   8.091  0.3341  0.1836  0.5280
 9199SOL    HW139056   4.643   0.567   8.151  1.2726  0.5958  1.1300
 9199SOL    HW239057   4.678   0.562   8.007  0.2018 -0.2482  0.3529
 9200SOL     OW39058   1.441   2.884   5.336  0.7647  0.1349 -0.1389
 9200SOL    HW139059   1.373   2.863   5.399 -0.9123 -1.4941 -2.4919
 9200SOL    HW239060   1.455   2.799   5.294 -0.9359 -1.3170  2.2607
 9201SOL     OW39061   3.963   1.798   1.827 -0.3768  0.2086 -0.4496
 9201SOL    HW139062   3.899   1.870   1.830 -1.1621 -0.5712  1.7702
 9201SOL    HW239063   4.035   1.837   1.778 -0.5656 -0.6838 -1.4451
 9202SOL     OW39064   3.258   2.188   2.585  0.4192 -0.5252  0.5810
 9202SOL    HW139065   3.192   2.190   2.516  1.8011 -2.0562 -0.7913
 9202SOL    HW239066   3.240   2.108   2.634 -2.2579 -0.9194 -1.0176
 9203SOL     OW39067   1.431   1.924   5.491  0.2333  0.4631 -0.2539
 9203SOL    HW139068   1.524   1.905   5.482  0.5407  2.1268 -0.5344
 9203SOL    HW239069   1.425   1.923   5.586  0.7212  0.8826 -0.2195
 9204SOL     OW39070   3.897   4.155   8.031  0.0195  0.4570  0.7632
 9204SOL    HW139071   3.901   4.251   8.030 -1.9211  0.5626  1.4262
 9204SOL    HW239072   3.837   4.149   8.106 -0.5700  2.6392  0.4655
 9205SOL     OW39073   1.066   3.430   6.174 -0.3437  0.0151 -0.4918
 9205SOL    HW139074   1.049   3.423   6.080 -2.8387  2.7169 -0.2485
 9205SOL    HW239075   1.078   3.524   6.189 -2.6144  0.3113 -0.4731
 9206SOL     OW39076   0.136   3.784  13.429  0.2486 -0.5871  0.1970
 9206SOL    HW139077   0.130   3.842  13.354 -0.1028  1.1196  1.5291
 9206SOL    HW239078   0.049   3.797  13.468  0.5478  1.8441  0.0529
 9207SOL     OW39079   2.586   0.045   4.065 -0.3394  0.0934  0.0557
 9207SOL    HW139080   2.668   4.716   4.057  0.1378  0.8054  0.7279
 9207SOL    HW239081   2.584   0.076   4.155  0.8675 -0.9276  0.4331
 9208SOL     OW39082   3.336   4.365   7.544  0.4776 -0.3593 -0.3093
 9208SOL    HW139083   3.354   4.384   7.636 -2.1744  1.9822 -0.2622
 9208SOL    HW239084   3.421   4.353   7.502  0.2932 -0.2319 -0.7275
 9209SOL     OW39085   4.675   0.529   7.253  0.3113  0.0239  0.4250
 9209SOL    HW139086   4.668   0.490   7.340  1.9124  1.0517  1.0086
 9209SOL    HW239087   4.586   0.516   7.220  0.3622  2.7012 -0.8170
 9210SOL     OW39088   0.777   1.400   0.717  0.1520  0.6974 -0.1958
 9210SOL    HW139089   0.740   1.409   0.805  2.1265 -1.3650  0.8200
 9210SOL    HW239090   0.695   1.403   0.668  0.6000 -0.3467 -1.0109
 9211SOL     OW39091   4.133   3.237   8.458 -0.1994  0.4478 -0.3839
 9211SOL    HW139092   4.131   3.165   8.396  0.6835  1.1580 -1.2417
 9211SOL    HW239093   4.099   3.187   8.531  0.1053  0.1901 -0.4206
 9212SOL     OW39094   0.656   3.771  11.654 -0.7787  0.0417  0.4335
 9212SOL    HW139095   0.599   3.839  11.687  0.8412  0.2670  2.7958
 9212SOL    HW239096   0.739   3.811  11.680  0.1009  0.8014 -3.4294
 9213SOL     OW39097   0.513   0.190   6.374  0.6622 -0.0452 -0.2885
 9213SOL    HW139098   0.531   0.099   6.348 -1.2273  0.3149 -2.8435
 9213SOL    HW239099   0.529   0.232   6.289 -1.6369 -0.0018 -0.6983
 9214SOL     OW39100   2.005   2.743   8.584  0.4546 -0.2906  0.4891
 9214SOL    HW139101   2.021   2.670   8.644  0.3994  0.2289  1.1442
 9214SOL    HW239102   1.916   2.769   8.606  0.4732 -1.6227  2.1670
 9215SOL     OW39103   1.093   2.006  13.443  0.3724  0.1978 -0.6212
 9215SOL    HW139104   1.183   1.976  13.434  0.1802 -0.8335  0.9376
 9215SOL    HW239105   1.057   1.972  13.524 -1.0508 -0.6587 -1.6155
 9216SOL     OW39106   1.770   4.589   2.454 -0.4072  0.1957  0.1641
 9216SOL    HW139107   1.730   4.572   2.540 -1.3980 -1.2920 -0.5980
 9216SOL    HW239108   1.775   4.684   2.457  0.1422  0.0967  2.3906
 9217SOL     OW39109   1.488   2.567   0.958 -0.4469 -0.2124 -0.5707
 9217SOL    HW139110   1.417   2.508   0.984 -1.4588  1.0780 -0.4287
 9217SOL    HW239111   1.437   2.616   0.893 -2.0263 -2.4851 -1.0601
 9218SOL     OW39112   0.656   3.684  14.024 -0.3247 -1.3376 -0.3566
 9218SOL    HW139113   0.574   3.690  13.973  0.4394 -1.9827 -1.6603
 9218SOL    HW239114   0.650   3.603  14.075  1.6612 -0.2247  1.5891
 9219SOL     OW39115   1.578   0.055  17.433  0.3249 -0.3828 -0.3468
 9219SOL    HW139116   1.639   4.712  17.392  1.7550 -0.3684  1.7785
 9219SOL    HW239117   1.635   0.130  17.421  0.7550 -1.0832 -2.7431
 9220SOL     OW39118   4.668   3.198   7.510  0.2574 -0.2895  0.3498
 9220SOL    HW139119   4.636   3.116   7.548 -1.7428  1.6056  2.8033
 9220SOL    HW239120   0.044   3.190   7.514  0.2361 -1.1695 -0.8611
 9221SOL     OW39121   3.898   2.706   5.294 -0.3902  0.3851  0.6270
 9221SOL    HW139122   3.988   2.735   5.283 -0.5000 -0.2411 -1.9447
 9221SOL    HW239123   3.891   2.631   5.234  0.3961 -0.1552  1.2287
 9222SOL     OW39124   0.553   1.830   7.969  0.1775 -0.0506  0.9512
 9222SOL    HW139125   0.540   1.892   7.898 -1.0107  0.5226  1.6742
 9222SOL    HW239126   0.648   1.838   7.981  0.1627 -0.6956  1.4984
 9223SOL     OW39127   3.355   1.552   7.351 -0.2515  0.3437 -0.2548
 9223SOL    HW139128   3.351   1.647   7.362  0.1569  0.3072  0.2422
 9223SOL    HW239129   3.431   1.543   7.292 -0.1630 -1.1775  0.0849
 9224SOL     OW39130   0.819   1.762   8.021  0.5445 -0.0261  0.0418
 9224SOL    HW139131   0.798   1.673   7.991 -3.6485  0.7810  0.5090
 9224SOL    HW239132   0.864   1.739   8.102  1.2422 -1.3881 -0.7369
 9225SOL     OW39133   3.826   3.474   7.100  0.7362  0.0230 -0.5653
 9225SOL    HW139134   3.759   3.535   7.071  0.4358  0.1104  0.3195
 9225SOL    HW239135   3.777   3.392   7.114 -1.8127  1.2698 -2.1468
 9226SOL     OW39136   3.320   2.199   7.427  0.0889  0.1084  0.1836
 9226SOL    HW139137   3.400   2.191   7.377  1.7305  1.4806  2.5947
 9226SOL    HW239138   3.296   2.284   7.390  2.7317  0.3942 -0.8213
 9227SOL     OW39139   2.720   4.418   1.969  0.2875  0.6044 -0.3306
 9227SOL    HW139140   2.781   4.344   1.964 -0.7994 -0.2249 -1.2383
 9227SOL    HW239141   2.646   4.365   1.998  0.7082  0.6480  0.8371
 9228SOL     OW39142   0.377   3.728   2.318  0.2831 -0.3431 -0.1578
 9228SOL    HW139143   0.426   3.764   2.244  0.6387 -0.9203 -0.2053
 9228SOL    HW239144   0.345   3.806   2.363 -1.5782  0.5871 -3.1244
 9229SOL     OW39145   4.368   3.041   0.575  0.3147 -0.0570 -0.1668
 9229SOL    HW139146   4.367   2.996   0.491  0.1700  0.9489 -0.7053
 9229SOL    HW239147   4.323   3.119   0.543 -2.0648 -1.8654 -1.2039
 9230SOL     OW39148   2.931   0.999   7.045 -0.6221  0.2874  0.1442
 9230SOL    HW139149   2.916   1.094   7.045  2.1440  0.7267  1.9303
 9230SOL    HW239150   2.908   0.990   7.137  0.3162  0.6123  0.4065
 9231SOL     OW39151   2.730   1.735   1.464  0.2756 -0.2557 -0.3127
 9231SOL    HW139152   2.690   1.697   1.542  0.8991 -0.1058  0.0775
 9231SOL    HW239153   2.656   1.775   1.419 -0.8041 -0.5416  1.2328
 9232SOL     OW39154   3.262   0.243   1.802 -0.1226  0.1704  0.3076
 9232SOL    HW139155   3.339   0.292   1.771  0.0443 -0.3312 -0.0646
 9232SOL    HW239156   3.197   0.289   1.749 -0.2476 -0.9026 -0.4589
 9233SOL     OW39157   3.695   3.391   4.362  0.0822 -0.0283 -0.3662
 9233SOL    HW139158   3.730   3.456   4.300 -0.8309  0.8639  0.0434
 9233SOL    HW239159   3.773   3.387   4.418 -0.3603 -1.4721  0.1274
 9234SOL     OW39160   1.291   3.100   1.866  0.2517  0.1042  0.1333
 9234SOL    HW139161   1.300   3.191   1.896  0.0054 -0.8856  3.1831
 9234SOL    HW239162   1.373   3.079   1.821 -0.8333  0.2119 -1.8957
 9235SOL     OW39163   2.870   2.890   1.998  0.4333  0.0434  0.1854
 9235SOL    HW139164   2.923   2.934   1.931 -0.0075  1.8037  0.9899
 9235SOL    HW239165   2.814   2.830   1.948 -1.4354  1.9266  0.0486
 9236SOL     OW39166   0.379   2.209   7.601 -0.1582  0.9480 -0.1725
 9236SOL    HW139167   0.414   2.223   7.513 -1.0343 -0.1059 -0.6896
 9236SOL    HW239168   0.452   2.157   7.636  1.5056  2.4546 -1.4146
 9237SOL     OW39169   0.063   3.802   2.975  0.2170  0.1951 -0.1943
 9237SOL    HW139170   0.027   3.837   2.894  1.6804  1.3200 -0.3597
 9237SOL    HW239171   4.706   3.751   3.004 -0.2737 -0.8367 -3.3119
 9238SOL     OW39172   0.762   1.917   3.451 -0.0345  1.0763 -0.4950
 9238SOL    HW139173   0.673   1.915   3.416  0.2786 -0.0620 -1.2456
 9238SOL    HW239174   0.808   1.989   3.408  1.8842 -0.4338 -0.9714
 9239SOL     OW39175   3.531   1.107   8.352  0.5570  0.5788  0.1500
 9239SOL    HW139176   3.544   1.115   8.447  0.2816  1.6804  0.0952
 9239SOL    HW239177   3.440   1.079   8.342  1.3862 -1.8632 -0.5282
 9240SOL     OW39178   2.947   4.093   9.216 -0.1615  0.0695  0.1958
 9240SOL    HW139179   2.924   4.068   9.306  0.9888  0.3055  0.5574
 9240SOL    HW239180   2.894   4.031   9.165  0.9966  0.1223 -1.0713
 9241SOL     OW39181   0.183   1.369  11.833 -0.1893  0.1974 -0.6474
 9241SOL    HW139182   0.231   1.310  11.775  1.5181  0.9165  0.0443
 9241SOL    HW239183   0.210   1.452  11.794 -0.8597  2.4638  3.6689
 9242SOL     OW39184   2.265   3.455   0.025 -0.8992 -0.2676  0.0530
 9242SOL    HW139185   2.266   3.548   0.002  1.5510 -0.6037 -1.1546
 9242SOL    HW239186   2.231   3.463   0.114  1.2824 -2.6186  1.0921
 9243SOL     OW39187   2.292   2.979   3.842 -0.2860 -0.0759 -0.2303
 9243SOL    HW139188   2.212   2.995   3.890  0.1403  0.4386  0.3049
 9243SOL    HW239189   2.316   3.064   3.804 -2.0807  1.1838  1.4542
 9244SOL     OW39190   3.049   4.357  11.037 -0.1212  0.0650 -0.0866
 9244SOL    HW139191   2.963   4.400  11.039 -0.6011 -0.9604  1.3472
 9244SOL    HW239192   3.023   4.288  11.099  2.0314  0.8207  1.6583
 9245SOL     OW39193   3.485   4.363   2.533  0.3039  0.6400 -0.6815
 9245SOL    HW139194   3.399   4.344   2.495  0.0060  3.9560 -1.7306
 9245SOL    HW239195   3.535   4.339   2.455 -2.2617 -1.1169 -1.8040
 9246SOL     OW39196   0.171   4.088   5.991 -0.1807 -1.0774 -0.2149
 9246SOL    HW139197   0.079   4.079   6.015 -0.2596 -1.6772 -0.7446
 9246SOL    HW239198   0.195   4.136   6.071 -2.4037  1.4242 -1.0405
 9247SOL     OW39199   4.091   3.500   3.604  0.1938 -0.0787  1.0971
 9247SOL    HW139200   4.160   3.543   3.654 -0.5242  0.8135  1.3382
 9247SOL    HW239201   4.134   3.473   3.523 -0.5180  0.8967  0.3854
 9248SOL     OW39202   0.793   1.574   5.928 -0.0661  0.6076 -0.1491
 9248SOL    HW139203   0.808   1.592   5.835  0.2383  1.8506  0.1418
 9248SOL    HW239204   0.817   1.661   5.958 -2.2765  0.0386  3.1913
 9249SOL     OW39205   1.951   2.694  16.128  0.4434  0.0374  0.7733
 9249SOL    HW139206   1.856   2.696  16.127  0.4119 -2.4834 -1.5747
 9249SOL    HW239207   1.980   2.623  16.184  2.4282 -0.0895 -0.3918
 9250SOL     OW39208   4.122   0.008   1.941  0.0947  0.3693 -0.1538
 9250SOL    HW139209   4.151   0.064   2.013 -0.5133  0.1057  0.2992
 9250SOL    HW239210   4.096   0.066   1.869  2.0886  0.2315 -0.9797
 9251SOL     OW39211   1.335   3.118   0.170 -0.0537  0.1569  0.3787
 9251SOL    HW139212   1.338   3.203   0.214 -1.1352  0.1563  0.4768
 9251SOL    HW239213   1.240   3.106   0.162 -0.0098 -1.0158  1.5603
 9252SOL     OW39214   4.017   4.164   6.339 -0.0735 -0.0382 -0.3679
 9252SOL    HW139215   4.006   4.078   6.379  0.1388 -0.2006 -0.6532
 9252SOL    HW239216   3.937   4.213   6.357 -0.5842 -0.5051 -1.3673
 9253SOL     OW39217   3.456   3.948   2.526 -0.2728  0.3760  0.2122
 9253SOL    HW139218   3.482   3.971   2.437  0.4306 -1.7258 -0.1219
 9253SOL    HW239219   3.364   3.923   2.517 -0.1458  0.1870 -0.5060
 9254SOL     OW39220   4.496   2.779   7.804  0.2423 -0.0469  1.4551
 9254SOL    HW139221   4.470   2.687   7.797  3.3431 -0.7734 -0.2927
 9254SOL    HW239222   4.410   2.816   7.781  0.2503 -1.6270 -1.0436
 9255SOL     OW39223   3.142   3.587   7.597 -0.7855  0.5694 -0.5670
 9255SOL    HW139224   3.197   3.622   7.527  0.1018  2.5315  1.1213
 9255SOL    HW239225   3.176   3.638   7.670  1.1851 -0.0655 -1.0329
 9256SOL     OW39226   4.677   3.299  16.084  0.6533  0.0169  0.3643
 9256SOL    HW139227   4.689   3.325  15.992 -0.9731  0.3709  0.2445
 9256SOL    HW239228   0.024   3.233  16.103 -1.4277 -1.7781  1.3635
 9257SOL     OW39229   4.702   3.853   3.740 -0.2836  0.3880  0.6434
 9257SOL    HW139230   0.020   3.827   3.824 -0.5558  0.5639  0.8170
 9257SOL    HW239231   0.052   3.824   3.680 -0.0965 -0.7671  1.4281
 9258SOL     OW39232   3.026   4.627   5.380  0.5325  0.4884  0.0540
 9258SOL    HW139233   3.092   4.652   5.316  0.4291  0.6507  0.0085
 9258SOL    HW239234   3.006   0.001   5.395  0.3884  0.2323  1.5155
 9259SOL     OW39235   4.128   2.809  14.619  0.2310  0.0604  0.5084
 9259SOL    HW139236   4.059   2.828  14.683 -0.5794  1.3626 -0.7347
 9259SOL    HW239237   4.187   2.880  14.641 -1.1660  0.8544  1.7283
 9260SOL     OW39238   4.684   2.142   5.775 -0.8781 -0.4154 -0.0537
 9260SOL    HW139239   4.630   2.117   5.701 -0.6566 -0.1266 -0.3164
 9260SOL    HW239240   4.661   2.235   5.780  0.7056  0.0105 -0.7384
 9261SOL     OW39241   1.061   3.573  13.251  0.0978 -0.4598 -0.4146
 9261SOL    HW139242   1.062   3.669  13.250 -2.3740 -0.4553 -1.1188
 9261SOL    HW239243   0.983   3.557  13.303  1.5428  0.6176  2.0814
 9262SOL     OW39244   2.975   4.014   6.811 -0.4278 -0.2152 -0.1594
 9262SOL    HW139245   2.914   4.010   6.885 -1.7438 -0.0406 -1.2503
 9262SOL    HW239246   2.957   3.935   6.760  1.9460 -0.1589 -1.0712
 9263SOL     OW39247   3.551   1.507   7.134  0.4906 -0.2409 -0.1064
 9263SOL    HW139248   3.546   1.418   7.170  1.4806 -0.6888 -1.0811
 9263SOL    HW239249   3.642   1.521   7.162 -0.0926  0.3686  1.4679
 9264SOL     OW39250   4.383   4.431   4.064 -0.3504 -0.1393 -0.1851
 9264SOL    HW139251   4.343   4.359   4.113 -0.7230 -0.7948 -1.4619
 9264SOL    HW239252   4.427   4.481   4.133 -2.2948 -0.9960  1.6861
 9265SOL     OW39253   3.547   3.700  17.046 -0.7050  0.5411  0.3815
 9265SOL    HW139254   3.538   3.780  16.995  0.5502  1.8777  2.2552
 9265SOL    HW239255   3.642   3.694  17.053 -0.6237 -0.7630 -1.8203
 9266SOL     OW39256   1.064   3.197   2.368 -0.1869  0.1773  0.5022
 9266SOL    HW139257   1.034   3.168   2.454  0.3983 -3.1189 -0.4262
 9266SOL    HW239258   0.997   3.153   2.315  0.5370  0.0502 -0.2931
 9267SOL     OW39259   2.268   2.161  11.653  0.3446 -0.1150 -0.1186
 9267SOL    HW139260   2.352   2.137  11.692 -0.2321 -2.4733 -0.3232
 9267SOL    HW239261   2.269   2.119  11.566 -0.2396  0.3710 -0.3582
 9268SOL     OW39262   1.202   2.538  12.539  0.1573 -0.0298 -0.4160
 9268SOL    HW139263   1.295   2.518  12.524  1.2536  3.3482  1.9384
 9268SOL    HW239264   1.186   2.556  12.632 -0.5776 -0.6135 -0.4265
 9269SOL     OW39265   3.663   0.501   4.255 -0.4010  0.0931  0.0441
 9269SOL    HW139266   3.634   0.509   4.164 -0.1572  0.5912  0.0064
 9269SOL    HW239267   3.753   0.473   4.242 -0.0947  1.3048 -0.5182
 9270SOL     OW39268   3.910   1.319   2.313  0.0132 -0.4543 -0.0016
 9270SOL    HW139269   3.929   1.390   2.373 -0.3456 -0.5108  0.1797
 9270SOL    HW239270   3.940   1.242   2.361 -0.1988 -0.6980 -0.2545
 9271SOL     OW39271   2.688   2.086   7.650 -0.2354 -0.9711 -0.2828
 9271SOL    HW139272   2.754   2.128   7.595 -0.5525  0.6899  0.5855
 9271SOL    HW239273   2.689   2.009   7.593  1.6872  0.6811 -2.4957
 9272SOL     OW39274   2.546   2.834   5.399  0.7652  0.6659  0.1508
 9272SOL    HW139275   2.602   2.906   5.373  1.7175 -0.7544 -1.7340
 9272SOL    HW239276   2.501   2.817   5.317  2.2338  0.7746 -0.6849
 9273SOL     OW39277   3.204   3.133   4.673  0.8030 -0.0224 -0.1466
 9273SOL    HW139278   3.224   3.129   4.579 -0.2676 -1.6084 -0.3021
 9273SOL    HW239279   3.265   3.202   4.700  1.1443 -0.3914  0.0284
 9274SOL     OW39280   1.416   0.973   6.871 -0.7636  0.6137  0.1981
 9274SOL    HW139281   1.404   1.066   6.852  0.5119  0.6651 -0.3081
 9274SOL    HW239282   1.364   0.967   6.952 -2.7996  1.5945 -1.0241
 9275SOL     OW39283   1.813   3.321   3.410 -0.3607  0.0087  0.4605
 9275SOL    HW139284   1.781   3.257   3.473  1.5773 -1.3309  0.0560
 9275SOL    HW239285   1.805   3.402   3.460  1.4656  0.1623  0.5113
 9276SOL     OW39286   0.491   1.820   6.044 -0.4668 -0.2929 -0.8367
 9276SOL    HW139287   0.474   1.912   6.025  2.2334  0.9731  2.7792
 9276SOL    HW239288   0.403   1.787   6.065 -0.7235 -1.3546 -3.5640
 9277SOL     OW39289   1.954   1.657   2.007 -0.2762  0.4759 -0.1557
 9277SOL    HW139290   1.932   1.615   2.089 -0.7254  1.1275  0.0570
 9277SOL    HW239291   2.031   1.705   2.035  0.3436  0.0576 -1.1264
 9278SOL     OW39292   4.429   0.437   3.481  0.1521  0.1953 -0.5758
 9278SOL    HW139293   4.382   0.390   3.549  1.3731  1.1248  0.9188
 9278SOL    HW239294   4.494   0.490   3.528 -2.1788  3.1543 -0.7023
 9279SOL     OW39295   2.585   0.743   9.174  0.5244  0.0993 -0.1348
 9279SOL    HW139296   2.654   0.756   9.239  1.3936 -0.8849 -0.8672
 9279SOL    HW239297   2.611   0.819   9.121  2.5172 -0.3718  0.1738
 9280SOL     OW39298   2.598   0.688   6.844  0.2232 -0.0006 -0.1092
 9280SOL    HW139299   2.620   0.623   6.777 -1.4938 -0.1037 -0.5900
 9280SOL    HW239300   2.684   0.710   6.879  0.8065 -0.8776 -0.9896
 9281SOL     OW39301   1.245   2.535   0.507 -0.4249  0.7750  0.1848
 9281SOL    HW139302   1.298   2.519   0.429 -0.4313 -2.3541  0.8279
 9281SOL    HW239303   1.172   2.588   0.474  0.4728  2.0943  0.3314
 9282SOL     OW39304   3.859   3.144   8.959  0.5004  0.0633 -0.1203
 9282SOL    HW139305   3.802   3.072   8.986  0.8554 -0.0330  0.3634
 9282SOL    HW239306   3.940   3.098   8.936 -0.5146 -0.9124 -1.7778
 9283SOL     OW39307   2.111   0.384   4.553  0.3689 -0.0042  0.9567
 9283SOL    HW139308   2.169   0.409   4.625 -0.7921  1.1483  1.4877
 9283SOL    HW239309   2.150   0.433   4.481  0.6846 -1.1564  0.3387
 9284SOL     OW39310   1.860   0.839   3.264  0.4842 -0.0064  0.2969
 9284SOL    HW139311   1.874   0.777   3.335  1.6557 -2.0842 -1.7324
 9284SOL    HW239312   1.768   0.864   3.270 -0.2540 -2.4676 -0.7357
 9285SOL     OW39313   0.681   0.244   8.342 -0.4104 -0.3888  0.3015
 9285SOL    HW139314   0.642   0.185   8.278  2.2933 -1.1412 -0.6434
 9285SOL    HW239315   0.773   0.223   8.329 -0.0770  1.6238 -0.5974
 9286SOL     OW39316   1.401   3.073  15.284 -0.3015  0.0842 -0.1767
 9286SOL    HW139317   1.443   3.156  15.263 -2.1134  1.1605  0.4534
 9286SOL    HW239318   1.470   3.017  15.321  0.1804  0.4759 -0.4837
 9287SOL     OW39319   1.153   4.294   7.701  0.4126 -0.3572 -0.2936
 9287SOL    HW139320   1.233   4.341   7.680 -0.1553  0.3326 -0.8837
 9287SOL    HW239321   1.184   4.203   7.705  1.8056  0.0532 -2.0183
 9288SOL     OW39322   3.124   3.223   2.658  0.7699  0.2918  0.0050
 9288SOL    HW139323   3.079   3.234   2.574 -0.2932  0.0042  0.5313
 9288SOL    HW239324   3.099   3.303   2.705  0.3096  1.2667 -1.9028
 9289SOL     OW39325   3.333   0.476   2.004 -0.2644 -0.1743 -0.4957
 9289SOL    HW139326   3.264   0.416   2.032 -0.7782  0.9367  0.5883
 9289SOL    HW239327   3.402   0.443   2.062  0.2367  1.3847 -0.2146
 9290SOL     OW39328   3.274   0.588   3.417 -0.2610 -0.3000 -0.2590
 9290SOL    HW139329   3.306   0.572   3.328  1.5778  1.5672  0.0629
 9290SOL    HW239330   3.183   0.616   3.408 -0.6310 -1.6278 -0.6438
 9291SOL     OW39331   3.860   0.893   3.047  0.2013 -0.3570  0.7003
 9291SOL    HW139332   3.948   0.925   3.067  0.2852 -0.2340  0.1145
 9291SOL    HW239333   3.858   0.900   2.952  2.7234  0.2205  0.6915
 9292SOL     OW39334   4.530   3.711   3.445  0.1820  0.3239 -0.3872
 9292SOL    HW139335   4.497   3.745   3.362 -1.2466 -2.0026 -0.7837
 9292SOL    HW239336   4.595   3.776   3.471  1.2891 -0.6167 -0.7558
 9293SOL     OW39337   0.528   1.867   7.597  0.4414  0.0371 -0.3012
 9293SOL    HW139338   0.560   1.952   7.625  0.4991 -0.1246  0.1399
 9293SOL    HW239339   0.458   1.889   7.535  0.8324  2.5487  0.1733
 9294SOL     OW39340   1.140   4.200   0.457 -0.8577  0.0127  0.0007
 9294SOL    HW139341   1.211   4.214   0.519 -0.9952 -0.3587  0.2424
 9294SOL    HW239342   1.153   4.268   0.391 -0.5332 -1.0844 -1.0725
 9295SOL     OW39343   3.459   1.158   9.672  0.2485  0.0423  0.0134
 9295SOL    HW139344   3.432   1.222   9.738  1.9521 -0.7142  1.4425
 9295SOL    HW239345   3.547   1.189   9.653  0.4200 -0.1128  0.5381
 9296SOL     OW39346   2.140   2.611   3.242 -0.6341  0.3996  0.8417
 9296SOL    HW139347   2.187   2.691   3.262 -1.0057  0.8758 -0.1989
 9296SOL    HW239348   2.112   2.607   3.151 -1.5709 -0.0415  1.1548
 9297SOL     OW39349   4.418   0.758  10.740  0.3866 -0.3099 -0.2995
 9297SOL    HW139350   4.399   0.686  10.800 -0.1209  0.9996  1.1196
 9297SOL    HW239351   4.490   0.787  10.796  0.4952 -0.7707 -0.2017
 9298SOL     OW39352   2.796   2.419   4.149  0.0117 -0.3429 -0.3055
 9298SOL    HW139353   2.885   2.438   4.122 -0.6349  0.9397 -1.5487
 9298SOL    HW239354   2.745   2.490   4.111 -0.2735  0.4684  1.5645
 9299SOL     OW39355   3.388   1.324   8.671  0.3346 -0.0572 -0.3057
 9299SOL    HW139356   3.444   1.281   8.736  1.7736  1.3726 -0.6072
 9299SOL    HW239357   3.405   1.417   8.686 -1.9803  0.2709  0.2763
 9300SOL     OW39358   0.883   2.908   2.778  0.5355  0.3658  0.4369
 9300SOL    HW139359   0.802   2.865   2.754  1.1604 -1.2007  1.1696
 9300SOL    HW239360   0.936   2.839   2.818 -2.5818 -1.0564  2.0317
 9301SOL     OW39361   3.439   3.682  16.554  0.1024  0.1987  0.3349
 9301SOL    HW139362   3.413   3.636  16.474  0.7418 -0.4809  0.5160
 9301SOL    HW239363   3.371   3.750  16.561 -0.2590  0.0589 -1.6657
 9302SOL     OW39364   2.010   0.239   2.339  0.0580  0.6252  0.0623
 9302SOL    HW139365   2.016   0.160   2.286  2.4530  0.6121  0.3599
 9302SOL    HW239366   2.097   0.233   2.378  0.4141  4.1120 -0.1351
 9303SOL     OW39367   0.197   2.449  11.177  0.2425  0.6148  0.2676
 9303SOL    HW139368   0.163   2.374  11.129  1.4589  0.7983 -0.8798
 9303SOL    HW239369   0.289   2.455  11.151  0.6087 -0.8593  1.2509
 9304SOL     OW39370   4.680   1.494   9.561  0.0441  0.3145  0.2258
 9304SOL    HW139371   0.042   1.449   9.535  0.1885 -1.2606  3.4018
 9304SOL    HW239372   4.639   1.480   9.476 -1.5160  2.5494  0.6100
 9305SOL     OW39373   1.364   1.668   6.582  0.6879  0.2179  0.3124
 9305SOL    HW139374   1.426   1.725   6.536  1.0234 -0.0078  0.4816
 9305SOL    HW239375   1.378   1.682   6.675  0.9457  0.1040  0.2907
 9306SOL     OW39376   4.629   1.568   5.887 -0.0284 -0.4595 -0.6840
 9306SOL    HW139377   4.677   1.651   5.888 -1.0425  0.1177  0.3835
 9306SOL    HW239378   4.598   1.553   5.798  0.0945  0.7718 -0.9287
 9307SOL     OW39379   0.664   4.449   9.820  0.5731 -0.5504  0.2054
 9307SOL    HW139380   0.568   4.452   9.828  0.4041  1.7103 -2.5135
 9307SOL    HW239381   0.685   4.409   9.904 -2.4793  0.3761  1.4399
 9308SOL     OW39382   2.416   2.206  15.333  0.0309 -0.6078  0.7103
 9308SOL    HW139383   2.383   2.190  15.421 -2.3219  0.7777  0.0553
 9308SOL    HW239384   2.403   2.300  15.326 -0.4355 -0.6537  0.9898
 9309SOL     OW39385   1.922   3.452   8.490  0.6437  0.2455 -0.3882
 9309SOL    HW139386   1.998   3.406   8.527 -0.2378 -2.1016 -1.5197
 9309SOL    HW239387   1.975   3.496   8.424  0.4549  0.9528 -0.0685
 9310SOL     OW39388   1.634   2.957   4.494  0.0871 -0.3877 -0.4571
 9310SOL    HW139389   1.576   2.882   4.481  0.1790 -0.0511 -2.8873
 9310SOL    HW239390   1.710   2.915   4.535  0.4906  0.6727 -0.1111
 9311SOL     OW39391   2.567   1.510  15.173 -0.0015 -0.1678 -0.2283
 9311SOL    HW139392   2.479   1.481  15.197 -0.0201 -0.9508 -1.2047
 9311SOL    HW239393   2.564   1.594  15.128  2.2817 -1.0807 -2.0807
 9312SOL     OW39394   3.430   0.774   6.014 -0.0481 -0.4607 -0.2555
 9312SOL    HW139395   3.349   0.795   5.967 -0.9055  0.5435  1.6528
 9312SOL    HW239396   3.407   0.812   6.099  3.6693 -0.4809  0.7301
 9313SOL     OW39397   0.005   2.737   2.338 -0.4759 -0.4586  0.3100
 9313SOL    HW139398   0.013   2.775   2.251  3.2065 -0.0281  0.8308
 9313SOL    HW239399   0.044   2.651   2.326  1.3308 -0.0546  3.2355
 9314SOL     OW39400   0.704   4.326  17.213 -0.2953  0.2269 -0.3768
 9314SOL    HW139401   0.793   4.358  17.199  0.6064 -1.4551  1.4557
 9314SOL    HW239402   0.725   4.233  17.221  0.5061  0.4596  0.2406
 9315SOL     OW39403   0.163   2.165  14.336 -0.2606 -0.5479 -0.6974
 9315SOL    HW139404   0.171   2.195  14.427  1.6484  2.3009 -1.8018
 9315SOL    HW239405   0.069   2.151  14.332 -0.7167  2.9072 -1.2384
 9316SOL     OW39406   2.222   4.222  14.548 -0.0830  0.1810 -0.0752
 9316SOL    HW139407   2.316   4.235  14.535 -0.1012  1.3387  0.9801
 9316SOL    HW239408   2.187   4.311  14.549  0.6340  0.5045 -2.9290
 9317SOL     OW39409   0.327   4.407  11.839 -0.1398  0.4497  0.4237
 9317SOL    HW139410   0.353   4.484  11.789 -1.2998 -0.5923 -1.8095
 9317SOL    HW239411   0.400   4.345  11.831  0.9084  1.4308  2.3536
 9318SOL     OW39412   3.529   1.183   2.087 -0.2742 -0.4190 -0.7478
 9318SOL    HW139413   3.548   1.187   2.180  0.1248 -0.1213 -0.8422
 9318SOL    HW239414   3.597   1.239   2.049 -2.4297  1.6757 -1.5404
 9319SOL     OW39415   4.548   2.321   3.059 -0.5561 -0.4637  1.0070
 9319SOL    HW139416   4.504   2.346   3.140 -1.9178 -1.9708  0.7504
 9319SOL    HW239417   4.533   2.401   3.009  3.4759 -0.0882  0.4642
 9320SOL     OW39418   2.333   1.548   7.285  0.2036  0.1514 -0.0222
 9320SOL    HW139419   2.408   1.598   7.252 -1.1786  1.5502 -1.0473
 9320SOL    HW239420   2.265   1.574   7.223 -0.5433  1.3285  1.2644
 9321SOL     OW39421   1.477   3.412   8.848 -0.3088  0.6110  0.1268
 9321SOL    HW139422   1.382   3.422   8.838 -0.1470  2.3534  0.2300
 9321SOL    HW239423   1.483   3.370   8.934  0.3829  0.7222  0.1279
 9322SOL     OW39424   0.128   4.190   0.487 -0.5620  0.1412 -0.0744
 9322SOL    HW139425   0.113   4.272   0.535 -1.7164 -0.6700  0.9490
 9322SOL    HW239426   0.180   4.143   0.552 -1.8814  0.6758  1.3620
 9323SOL     OW39427   0.812   2.927   1.849 -0.4903  0.1723  0.2580
 9323SOL    HW139428   0.871   2.897   1.918 -1.7746 -0.1715  1.2154
 9323SOL    HW239429   0.838   3.017   1.833 -1.7519  0.7408  1.3470
 9324SOL     OW39430   3.502   4.469   3.209 -0.2896  0.1327  0.0114
 9324SOL    HW139431   3.559   4.541   3.234  1.1387 -0.2293 -2.2264
 9324SOL    HW239432   3.429   4.488   3.269  0.0989 -0.0417  0.5409
 9325SOL     OW39433   1.116   2.610   4.001  0.1447 -0.0728 -0.2933
 9325SOL    HW139434   1.020   2.620   4.004  0.2065  0.8869 -1.9147
 9325SOL    HW239435   1.140   2.698   3.973 -0.4509 -0.1893 -1.1678
 9326SOL     OW39436   1.029   2.047   8.425 -0.3586  1.2120 -0.4476
 9326SOL    HW139437   1.097   2.031   8.490 -1.1176 -0.2721 -0.0237
 9326SOL    HW239438   0.961   1.992   8.463  0.4562  0.9895  0.6785
 9327SOL     OW39439   3.535   4.435   5.247 -0.7026  0.6754  0.4524
 9327SOL    HW139440   3.546   4.372   5.318 -0.5647  0.8786  0.6114
 9327SOL    HW239441   3.593   4.505   5.279 -1.5597  1.2534  0.7492
 9328SOL     OW39442   0.565   0.298   3.902 -0.5296 -0.1039 -0.3768
 9328SOL    HW139443   0.512   0.325   3.976 -0.1832 -0.5171  0.0198
 9328SOL    HW239444   0.548   0.204   3.891 -2.7543  0.1811  0.8190
 9329SOL     OW39445   2.402   3.111  16.504  0.2301 -0.1934  0.6747
 9329SOL    HW139446   2.317   3.076  16.480  1.2366 -1.7991 -0.5097
 9329SOL    HW239447   2.391   3.114  16.599 -0.5783  0.3709  0.5624
 9330SOL     OW39448   4.409   4.682   4.859 -0.3038  0.0808 -0.1176
 9330SOL    HW139449   4.413   4.593   4.825 -0.1092 -0.9464  2.6302
 9330SOL    HW239450   4.380   4.711   4.772  2.1347 -1.2411 -1.3968
 9331SOL     OW39451   4.345   1.321   2.570  0.0318 -0.2798  0.3952
 9331SOL    HW139452   4.326   1.285   2.656 -1.5760 -0.8313 -0.1967
 9331SOL    HW239453   4.261   1.344   2.530 -0.1470 -0.9310  0.4076
 9332SOL     OW39454   4.342   0.864   7.954 -0.1046  0.2818  0.5665
 9332SOL    HW139455   4.263   0.812   7.970 -0.0830  0.2404  0.5401
 9332SOL    HW239456   4.315   0.916   7.879  1.8323 -0.7284 -0.8210
 9333SOL     OW39457   2.365   1.513  13.441 -0.1799  0.4420 -0.1281
 9333SOL    HW139458   2.337   1.601  13.467  1.7551  0.7692  0.7984
 9333SOL    HW239459   2.293   1.452  13.453  0.7163 -0.5524  0.1385
 9334SOL     OW39460   0.413   3.698   6.059  0.5351 -0.2859 -0.1879
 9334SOL    HW139461   0.482   3.764   6.048  0.0648  0.0613 -1.0305
 9334SOL    HW239462   0.342   3.736   6.008 -0.8181 -0.4697  1.5453
 9335SOL     OW39463   3.006   4.661  13.660  0.3236 -0.4345  0.0013
 9335SOL    HW139464   3.006   4.570  13.632  2.0373 -1.1741  2.3845
 9335SOL    HW239465   3.067   4.702  13.599  0.9453  0.5599  1.2834
 9336SOL     OW39466   0.618   0.742   3.536  0.0841  0.1826 -0.3262
 9336SOL    HW139467   0.530   0.733   3.573  0.5872 -1.1692  0.5417
 9336SOL    HW239468   0.631   0.837   3.547 -0.9193  0.2295  0.4607
 9337SOL     OW39469   2.802   4.255   3.741  0.0843  0.0510  0.3411
 9337SOL    HW139470   2.747   4.280   3.815 -0.5049  1.2868 -0.5159
 9337SOL    HW239471   2.822   4.336   3.695 -0.0927  0.5599  1.1614
 9338SOL     OW39472   0.884   2.303  14.606 -0.0081  0.1251  0.0130
 9338SOL    HW139473   0.898   2.397  14.602  1.3471 -0.0809 -0.0635
 9338SOL    HW239474   0.853   2.299  14.696  0.0906 -1.3387 -0.0088
 9339SOL     OW39475   3.587   0.820  11.715  0.3538  0.5564 -0.2873
 9339SOL    HW139476   3.631   0.843  11.634  1.9148 -0.3551  0.2953
 9339SOL    HW239477   3.533   0.898  11.731 -0.7854 -0.2890  0.0080
 9340SOL     OW39478   0.375   1.015  14.117 -0.3186 -0.0246  0.8148
 9340SOL    HW139479   0.447   1.061  14.160  1.4827 -1.4956 -0.6340
 9340SOL    HW239480   0.411   0.926  14.116 -1.1463 -0.3554  0.2357
 9341SOL     OW39481   4.020   1.475  17.316  0.0089 -0.4322  0.1638
 9341SOL    HW139482   4.015   1.547  17.380  0.6586  0.6424 -1.0071
 9341SOL    HW239483   4.104   1.431  17.328  0.7758  0.8776 -0.4820
 9342SOL     OW39484   4.239   0.563  16.000  0.0501 -0.1739  0.5940
 9342SOL    HW139485   4.201   0.594  15.918  1.1731 -1.1101 -0.2710
 9342SOL    HW239486   4.248   0.651  16.038 -0.5147  0.1986 -0.1361
 9343SOL     OW39487   4.213   1.347  12.979 -0.2967  0.3238 -0.2106
 9343SOL    HW139488   4.130   1.390  12.961 -0.3450  0.6797  0.8881
 9343SOL    HW239489   4.264   1.389  12.910  1.9957 -0.6496  0.8918
 9344SOL     OW39490   0.255   2.344   9.673 -0.0502 -0.5122  0.2136
 9344SOL    HW139491   0.261   2.402   9.598  0.1840 -0.0413  0.5939
 9344SOL    HW239492   0.219   2.403   9.739 -0.1617 -0.7322  0.3508
 9345SOL     OW39493   4.459   1.899   7.760  0.3119  0.1732 -0.1188
 9345SOL    HW139494   4.542   1.946   7.770  1.1784 -1.0051 -1.7969
 9345SOL    HW239495   4.458   1.857   7.846 -3.1092  0.8010  0.1153
 9346SOL     OW39496   4.283   4.386   8.484  0.0971  0.5343 -0.5974
 9346SOL    HW139497   4.188   4.389   8.496  0.0275  1.8660 -1.5392
 9346SOL    HW239498   4.279   4.373   8.389 -0.3855 -0.5872 -0.4248
 9347SOL     OW39499   1.620   1.024   3.154 -0.0701  0.3692 -0.2731
 9347SOL    HW139500   1.538   0.985   3.125  0.7693 -0.7886 -1.0937
 9347SOL    HW239501   1.591   1.114   3.171  0.7638  0.9533 -1.9404
 9348SOL     OW39502   4.522   0.063   3.141  0.0449  0.5313 -0.0853
 9348SOL    HW139503   4.489   0.153   3.149 -0.7047  0.2221  0.3151
 9348SOL    HW239504   4.614   0.073   3.166  0.3885 -0.9600 -0.7571
 9349SOL     OW39505   2.105   0.294  12.033  0.4064 -0.3154  0.0309
 9349SOL    HW139506   2.060   0.315  11.951 -1.1040  2.2617  1.5210
 9349SOL    HW239507   2.094   0.375  12.084  1.3328 -0.3991  0.3741
 9350SOL     OW39508   1.748   1.541  10.798  0.2021 -0.0585  0.0801
 9350SOL    HW139509   1.718   1.511  10.884 -1.0316  2.2932  0.4665
 9350SOL    HW239510   1.696   1.485  10.740  0.3716  0.9256 -1.0337
 9351SOL     OW39511   4.351   2.892   3.372 -0.0582 -0.0615 -0.6512
 9351SOL    HW139512   4.437   2.868   3.337  2.4365  4.1969  2.6149
 9351SOL    HW239513   4.362   2.899   3.467  1.8926  1.3847 -0.9704
 9352SOL     OW39514   4.628   0.541  12.167  0.2192  0.1449 -0.5963
 9352SOL    HW139515   4.565   0.494  12.112  0.2750 -1.1638  0.4486
 9352SOL    HW239516   4.629   0.621  12.115 -2.6976  1.0019  0.6498
 9353SOL     OW39517   3.046   1.547   4.596  0.2630 -0.4188 -0.1116
 9353SOL    HW139518   3.116   1.483   4.608  0.4272 -0.1855  0.1603
 9353SOL    HW239519   2.976   1.487   4.573  0.1876 -1.0514  1.7898
 9354SOL     OW39520   2.988   1.188   5.909 -0.7279  0.3104 -0.5485
 9354SOL    HW139521   2.919   1.236   5.865  1.0328  2.4593 -0.9750
 9354SOL    HW239522   3.020   1.129   5.841 -2.2014 -0.9155 -0.1762
 9355SOL     OW39523   1.717   2.719   9.994  0.1554  0.5332  0.2493
 9355SOL    HW139524   1.623   2.731  10.007 -0.0630 -0.2376 -0.6003
 9355SOL    HW239525   1.727   2.731   9.899 -1.5005 -0.7562 -0.0995
 9356SOL     OW39526   2.126   3.518   3.315  0.5669 -0.4259 -0.1130
 9356SOL    HW139527   2.103   3.548   3.403  1.1822 -0.4311  0.0483
 9356SOL    HW239528   2.163   3.431   3.331  2.1411  0.5747  1.7219
 9357SOL     OW39529   2.915   0.727  11.349 -0.0002 -0.3594 -0.3204
 9357SOL    HW139530   2.834   0.747  11.395  1.1266  0.4528  1.2691
 9357SOL    HW239531   2.881   0.667  11.281 -0.8852 -0.2890  0.0591
 9358SOL     OW39532   2.329   3.569   0.332 -0.2829 -0.3182  0.3674
 9358SOL    HW139533   2.247   3.616   0.341 -0.9606 -0.5108 -4.4497
 9358SOL    HW239534   2.310   3.476   0.324  3.0371 -0.9080 -0.7076
 9359SOL     OW39535   2.016   2.254  15.707  0.5687 -0.1777 -0.7081
 9359SOL    HW139536   2.069   2.276  15.784 -1.1099  1.7830 -0.1162
 9359SOL    HW239537   1.941   2.219  15.756  0.4208  0.4705 -0.4679
 9360SOL     OW39538   1.307   4.326   0.653  0.4809  0.4154 -0.1533
 9360SOL    HW139539   1.242   4.281   0.707  1.3374  2.0533  2.2180
 9360SOL    HW239540   1.313   4.407   0.703  2.2635  0.0540  0.2201
 9361SOL     OW39541   4.270   0.808   5.570  0.0156 -0.2356  0.3732
 9361SOL    HW139542   4.216   0.861   5.512 -0.7941 -1.2701  0.1748
 9361SOL    HW239543   4.284   0.864   5.646  1.0535 -0.3993  0.3034
 9362SOL     OW39544   0.821   4.403   5.549 -0.4567  0.0623 -0.6988
 9362SOL    HW139545   0.854   4.313   5.553  1.5534  0.7065 -2.5626
 9362SOL    HW239546   0.796   4.425   5.639  0.9541  0.7670 -0.4836
 9363SOL     OW39547   0.969   1.061   2.766  0.0061  0.1379 -0.1817
 9363SOL    HW139548   0.995   1.054   2.674  1.8296  1.6333  0.2326
 9363SOL    HW239549   0.922   1.144   2.766 -1.3953 -0.6653 -1.0260
 9364SOL     OW39550   2.007   0.347   7.719  0.7208  0.0605 -0.1010
 9364SOL    HW139551   1.952   0.292   7.662 -1.4486  0.4768  1.6037
 9364SOL    HW239552   2.033   0.415   7.657 -0.6477  0.1019 -0.6507
 9365SOL     OW39553   2.962   3.247   3.330  0.0566  0.0742 -0.3468
 9365SOL    HW139554   2.982   3.315   3.265  0.1933  2.2238  1.9380
 9365SOL    HW239555   2.887   3.205   3.288  0.0755  0.2604 -0.5664
 9366SOL     OW39556   3.076   1.786   6.077  0.5884  0.4064 -0.1648
 9366SOL    HW139557   3.077   1.776   6.173  1.0213 -0.9925 -0.3141
 9366SOL    HW239558   3.026   1.713   6.041  0.3526 -0.3866  1.7369
 9367SOL     OW39559   0.823   0.588  13.282 -0.3233  0.6196  0.0595
 9367SOL    HW139560   0.871   0.530  13.341  0.2381 -0.0758 -1.0990
 9367SOL    HW239561   0.824   0.675  13.322 -0.7972  0.9542 -0.6537
 9368SOL     OW39562   4.137   4.388   5.408 -0.3524 -0.3218  0.2410
 9368SOL    HW139563   4.146   4.406   5.501  1.3082  2.3143 -0.4377
 9368SOL    HW239564   4.207   4.439   5.367 -2.2438  3.1346  1.3430
 9369SOL     OW39565   1.631   4.318   8.550  0.1210 -0.1520  0.1229
 9369SOL    HW139566   1.606   4.343   8.639  0.6992  0.7222  0.0423
 9369SOL    HW239567   1.635   4.408   8.517 -0.7268  0.1768  0.9062
 9370SOL     OW39568   2.977   4.617  10.505 -0.1032 -0.3479  0.3177
 9370SOL    HW139569   3.056   4.572  10.475 -0.7542 -0.7804 -0.7521
 9370SOL    HW239570   2.982   4.698  10.454  1.1263 -1.9810 -2.1756
 9371SOL     OW39571   0.542   0.033   4.612 -0.2126  0.0935  0.2215
 9371SOL    HW139572   0.599   4.682   4.582 -1.1611 -0.7509  0.3959
 9371SOL    HW239573   0.476   4.704   4.662 -0.9793  1.0847  0.1593
 9372SOL     OW39574   1.314   0.743  14.164 -0.2573 -0.5804  0.2916
 9372SOL    HW139575   1.363   0.764  14.243 -0.8666  0.1353  0.4784
 9372SOL    HW239576   1.344   0.808  14.100 -0.5973  0.0107  0.7362
 9373SOL     OW39577   1.632   2.197   7.553  0.4068 -0.5881 -0.8081
 9373SOL    HW139578   1.700   2.156   7.606 -0.8538 -2.9994 -1.0812
 9373SOL    HW239579   1.692   2.246   7.496 -1.5238  3.7818  0.8619
 9374SOL     OW39580   1.602   3.329   3.000 -0.2382 -0.3402  0.4039
 9374SOL    HW139581   1.522   3.288   2.966  0.0670 -0.5505 -0.0574
 9374SOL    HW239582   1.595   3.406   2.943  0.9641  1.5164  2.7615
 9375SOL     OW39583   3.907   1.208   3.622 -0.0088  0.2973 -0.2932
 9375SOL    HW139584   3.980   1.146   3.619  0.6024  1.0375 -0.5377
 9375SOL    HW239585   3.834   1.163   3.579 -0.4153  0.2711  0.4149
 9376SOL     OW39586   2.229   2.822   4.565 -0.1035 -0.3176  1.1267
 9376SOL    HW139587   2.232   2.773   4.647  0.8815  1.6507  2.2752
 9376SOL    HW239588   2.298   2.888   4.574  0.1612 -0.8343  2.9180
 9377SOL     OW39589   2.753   0.894   6.353 -0.2886  0.2219 -0.5996
 9377SOL    HW139590   2.838   0.924   6.320 -0.7264  0.6959 -1.3035
 9377SOL    HW239591   2.764   0.900   6.448  2.7939  1.7193 -1.0408
 9378SOL     OW39592   3.623   1.838   5.125  0.4012 -0.5591 -0.4972
 9378SOL    HW139593   3.705   1.807   5.164 -0.4334 -1.2657  0.7119
 9378SOL    HW239594   3.566   1.772   5.165  2.2740 -2.1004 -0.3835
 9379SOL     OW39595   0.489   1.826  15.523 -0.4547  0.4833  0.2440
 9379SOL    HW139596   0.564   1.877  15.553  0.4489 -0.7683  0.1077
 9379SOL    HW239597   0.471   1.765  15.595 -0.6048  1.6736  1.2008
 9380SOL     OW39598   3.194   3.813   0.599  0.4535 -0.1393 -0.0664
 9380SOL    HW139599   3.231   3.743   0.652  1.5023 -1.5222 -2.6088
 9380SOL    HW239600   3.249   3.801   0.522 -0.4263 -0.2904 -0.6820
 9381SOL     OW39601   3.808   1.484  13.599 -0.3979  0.0108 -0.5949
 9381SOL    HW139602   3.856   1.459  13.679  0.6949  0.4000 -1.1201
 9381SOL    HW239603   3.869   1.474  13.526 -1.5876 -0.9697 -1.4256
 9382SOL     OW39604   3.648   1.110   8.653 -0.0914 -0.7641  0.5124
 9382SOL    HW139605   3.671   1.196   8.688  1.7494 -1.2729  0.5655
 9382SOL    HW239606   3.740   1.088   8.637  0.2316  2.3964 -1.9311
 9383SOL     OW39607   2.235   0.155  11.044  0.4868 -0.1045  0.1745
 9383SOL    HW139608   2.177   0.203  10.985 -2.6355 -2.7714  1.0966
 9383SOL    HW239609   2.189   0.150  11.128 -1.8451  2.3705 -0.9617
 9384SOL     OW39610   2.027   0.964   3.963 -0.0690  0.1889  0.0210
 9384SOL    HW139611   2.073   0.913   3.897 -0.1185  2.3317 -1.6813
 9384SOL    HW239612   2.100   0.968   4.025  0.4704 -0.7505 -0.5550
 9385SOL     OW39613   4.671   2.893   6.753 -0.2860 -0.0365 -0.6729
 9385SOL    HW139614   4.609   2.934   6.693 -0.1018  1.8301  0.4102
 9385SOL    HW239615   4.707   2.972   6.793 -2.3745  0.2267  0.6673
 9386SOL     OW39616   0.046   3.087  11.816 -0.3278 -0.0179  0.1189
 9386SOL    HW139617   0.016   3.124  11.733 -1.1000 -0.1385  0.3514
 9386SOL    HW239618   0.018   3.153  11.878  0.7211 -0.7422  1.3575
 9387SOL     OW39619   1.846   3.031   4.249 -0.0453 -0.3456 -0.4671
 9387SOL    HW139620   1.758   2.999   4.229  0.1840 -0.2529 -1.6323
 9387SOL    HW239621   1.876   2.960   4.306  1.0278  2.1281  2.0783
 9388SOL     OW39622   0.690   0.137   0.510  0.3200 -0.1326 -0.0660
 9388SOL    HW139623   0.648   0.153   0.595  0.8852  1.5751 -0.1035
 9388SOL    HW239624   0.613   0.125   0.454 -1.2485 -0.1362  2.0690
 9389SOL     OW39625   2.088   0.666   4.740  1.0376  0.5559 -0.2185
 9389SOL    HW139626   2.074   0.696   4.650  0.0757  1.0645  0.1064
 9389SOL    HW239627   2.154   0.597   4.740 -1.7000 -2.0356  3.1866
 9390SOL     OW39628   1.935   0.337   4.744 -0.2956  0.1734  0.3375
 9390SOL    HW139629   1.997   0.380   4.685 -0.1106  1.1355  1.2345
 9390SOL    HW239630   1.998   0.286   4.794 -0.7690 -0.5898  0.1586
 9391SOL     OW39631   1.382   2.806  12.026  0.4529 -0.0798  0.4915
 9391SOL    HW139632   1.324   2.739  12.064 -1.9451  1.7888  0.1071
 9391SOL    HW239633   1.432   2.839  12.100  1.5659 -1.3056  0.2868
 9392SOL     OW39634   3.828   1.573   5.909  0.2733  0.0240  0.2600
 9392SOL    HW139635   3.833   1.666   5.929  0.2661  0.1839 -0.4842
 9392SOL    HW239636   3.737   1.570   5.881  0.8050  0.1862 -1.4745
 9393SOL     OW39637   0.811   2.619   0.893 -0.4773  0.8017 -0.1556
 9393SOL    HW139638   0.906   2.626   0.881 -0.1878  0.6988  2.1227
 9393SOL    HW239639   0.807   2.587   0.983  0.0951  1.7121  0.1933
 9394SOL     OW39640   2.697   4.007  10.482 -0.1601 -0.1728 -0.6249
 9394SOL    HW139641   2.721   3.927  10.528 -1.1881 -1.2391 -1.9342
 9394SOL    HW239642   2.629   3.978  10.421 -2.6590  0.1599  2.0222
 9395SOL     OW39643   2.420   2.761  16.271 -0.1489  0.3576 -0.9434
 9395SOL    HW139644   2.419   2.857  16.270  3.0151  0.3841 -1.2585
 9395SOL    HW239645   2.511   2.738  16.286  0.5073  0.8840 -4.2462
 9396SOL     OW39646   2.625   1.656   9.357 -0.2136 -0.2137 -0.1953
 9396SOL    HW139647   2.571   1.578   9.370 -1.2083  0.3562 -0.9340
 9396SOL    HW239648   2.637   1.682   9.448  2.1242  2.0502 -1.1784
 9397SOL     OW39649   0.595   2.690   0.572 -0.3322  0.1629 -0.1826
 9397SOL    HW139650   0.509   2.710   0.607 -0.4821  0.4287 -0.6988
 9397SOL    HW239651   0.588   2.595   0.566  0.4885  0.0643  0.3961
 9398SOL     OW39652   1.439   0.178   4.399  0.7507  0.5407  0.3182
 9398SOL    HW139653   1.384   0.253   4.381  1.8547  1.6619  1.6598
 9398SOL    HW239654   1.376   0.105   4.395  0.4331  0.9602 -2.5379
 9399SOL     OW39655   0.018   1.059  13.753  0.8801  0.3347 -0.4157
 9399SOL    HW139656   4.685   1.024  13.826  1.4845 -0.6578 -0.4668
 9399SOL    HW239657   0.102   1.070  13.798 -0.5758  2.3356  1.8612
 9400SOL     OW39658   3.174   0.300   3.619 -0.2056 -0.0567 -0.0916
 9400SOL    HW139659   3.161   0.394   3.605 -2.4642 -0.4293 -0.5657
 9400SOL    HW239660   3.137   0.294   3.708  1.5535  2.4152  0.8002
 9401SOL     OW39661   2.120   2.068   5.759  0.0659 -0.1849 -0.6769
 9401SOL    HW139662   2.165   2.134   5.812 -0.5770  0.9368 -1.5323
 9401SOL    HW239663   2.180   2.020   5.702  1.0934  0.5244 -0.1966
 9402SOL     OW39664   1.887   1.331   6.259  0.7313  0.0338  0.1508
 9402SOL    HW139665   1.911   1.422   6.243 -0.7601  0.1758 -1.2850
 9402SOL    HW239666   1.956   1.319   6.324 -0.1332 -3.6490  0.3912
 9403SOL     OW39667   4.508   3.463   8.442  0.1214 -0.1512  0.3161
 9403SOL    HW139668   4.486   3.382   8.489  1.5500 -0.2592  0.8065
 9403SOL    HW239669   4.428   3.472   8.391 -1.0072 -3.1877  1.5059
 9404SOL     OW39670   2.341   0.581   6.780 -0.3749  0.0772  0.0604
 9404SOL    HW139671   2.315   0.496   6.816  0.2699 -0.6959 -1.2911
 9404SOL    HW239672   2.409   0.608   6.842  0.4299  0.2075 -0.8725
 9405SOL     OW39673   1.066   3.946   5.171 -0.1030  0.0338  0.7324
 9405SOL    HW139674   1.049   3.854   5.191  1.4044 -1.0645 -2.8907
 9405SOL    HW239675   1.131   3.937   5.101  0.0727 -1.1048  1.0445
 9406SOL     OW39676   2.645   2.651   6.962  0.4086  0.0254 -0.2964
 9406SOL    HW139677   2.585   2.725   6.963 -0.5647 -0.7530 -0.7185
 9406SOL    HW239678   2.595   2.575   6.990  0.4747 -1.0603 -3.1372
 9407SOL     OW39679   2.996   0.220   8.839 -0.1023  0.2703 -0.3787
 9407SOL    HW139680   3.015   0.181   8.754  0.2102 -1.3526  0.4365
 9407SOL    HW239681   2.901   0.209   8.848  0.0950 -1.8712 -0.8945
 9408SOL     OW39682   4.055   2.087   6.496  0.4258  0.2758 -0.2181
 9408SOL    HW139683   4.103   2.154   6.447  2.0389 -0.7113  0.0113
 9408SOL    HW239684   4.047   2.130   6.581  0.7190 -0.2862  0.0933
 9409SOL     OW39685   1.627   4.236   2.204  0.1220 -0.3619 -0.4389
 9409SOL    HW139686   1.598   4.326   2.185  1.1637 -0.1563 -1.0425
 9409SOL    HW239687   1.585   4.224   2.290  1.2715 -1.4171 -0.0374
 9410SOL     OW39688   2.963   0.451  10.549  0.1207 -0.3341  0.9068
 9410SOL    HW139689   2.978   0.418  10.638 -1.6819 -2.0701  0.5627
 9410SOL    HW239690   3.034   0.516  10.552 -0.8094  0.6395  1.7360
 9411SOL     OW39691   4.415   3.357  13.876  0.0083 -0.0671 -0.1273
 9411SOL    HW139692   4.408   3.308  13.957 -0.0041  1.9487  1.1016
 9411SOL    HW239693   4.357   3.433  13.881  0.2379 -0.0282  1.8370
 9412SOL     OW39694   0.765   0.400   9.492  0.1003 -0.4259  0.4720
 9412SOL    HW139695   0.685   0.443   9.522  1.0720  2.0885 -0.4932
 9412SOL    HW239696   0.732   0.313   9.469  1.9649 -1.0454  0.1218
 9413SOL     OW39697   3.875   2.231   9.552 -0.7808  0.2259 -0.4042
 9413SOL    HW139698   3.795   2.180   9.536 -0.8051 -0.1248  0.8372
 9413SOL    HW239699   3.848   2.320   9.532 -0.2078  0.5442  0.2208
 9414SOL     OW39700   0.922   0.088   9.974  0.3063  0.2903  0.0058
 9414SOL    HW139701   0.891   0.163   9.924 -1.7409 -0.0706  0.7270
 9414SOL    HW239702   1.004   0.127  10.005  0.3709 -1.5568  2.1700
 9415SOL     OW39703   2.167   2.542   5.178 -0.3328  0.5821  0.3325
 9415SOL    HW139704   2.142   2.452   5.198 -1.8141  0.1087 -3.5235
 9415SOL    HW239705   2.137   2.576   5.262  0.9937  0.2332  0.9384
 9416SOL     OW39706   2.988   0.040   3.177 -0.2823 -0.3362  0.1713
 9416SOL    HW139707   3.027   0.061   3.262 -0.2558  0.5730 -0.0670
 9416SOL    HW239708   3.022   0.112   3.124  0.7820 -0.6750  0.3925
 9417SOL     OW39709   4.200   3.571   2.876  0.5981  0.2600  0.3055
 9417SOL    HW139710   4.198   3.531   2.963  2.7409 -2.3811 -0.8645
 9417SOL    HW239711   4.144   3.647   2.890 -0.9623 -1.2173  2.0136
 9418SOL     OW39712   4.293   3.839   3.069 -0.1241  0.7864  0.3726
 9418SOL    HW139713   4.205   3.870   3.049  0.8538  1.7560 -2.3312
 9418SOL    HW239714   4.334   3.918   3.104 -0.8164  0.6299  1.5345
 9419SOL     OW39715   4.572   4.423  11.503 -0.2340  0.0341 -0.4503
 9419SOL    HW139716   4.660   4.386  11.500  0.4178  1.6475 -1.5384
 9419SOL    HW239717   4.525   4.340  11.504  0.3643 -0.2953  0.0114
 9420SOL     OW39718   2.405   1.237   7.870 -0.4408  0.1008 -0.4646
 9420SOL    HW139719   2.356   1.317   7.851  1.6633  2.1129  2.5461
 9420SOL    HW239720   2.490   1.279   7.884 -1.1747  0.9068  1.6640
 9421SOL     OW39721   2.709   0.567   2.110  0.7622 -0.0100 -0.3565
 9421SOL    HW139722   2.740   0.576   2.020  0.1759 -0.4376 -0.5987
 9421SOL    HW239723   2.664   0.482   2.113  1.0746 -0.1165  1.4953
 9422SOL     OW39724   3.944   2.283   0.005 -0.2047 -0.7256  0.6558
 9422SOL    HW139725   4.034   2.316   0.013 -0.3228 -0.7101  2.0719
 9422SOL    HW239726   3.918   2.256   0.093 -3.2320 -0.1042 -0.0365
 9423SOL     OW39727   1.243   2.905   7.312 -0.1064 -0.5816 -0.2405
 9423SOL    HW139728   1.270   2.896   7.404  0.3853 -0.1029 -0.3437
 9423SOL    HW239729   1.314   2.959   7.277  0.0898 -0.6278  0.0853
 9424SOL     OW39730   0.347   4.238   4.275 -0.0911 -0.0529 -0.0391
 9424SOL    HW139731   0.292   4.165   4.249 -0.7296  0.2034  0.5847
 9424SOL    HW239732   0.296   4.261   4.353 -0.5742  1.2601 -0.7473
 9425SOL     OW39733   1.715   3.776   7.318 -0.0056  0.8394 -0.7321
 9425SOL    HW139734   1.748   3.846   7.375  0.1178 -0.2039  0.4781
 9425SOL    HW239735   1.736   3.698   7.370 -2.1251  0.9474  0.2726
 9426SOL     OW39736   4.711   4.496   6.415  0.0066  0.6198  0.5394
 9426SOL    HW139737   4.685   4.429   6.351  0.6654 -0.0962  1.0283
 9426SOL    HW239738   4.679   4.462   6.498 -0.7363 -1.8163 -0.7154
 9427SOL     OW39739   3.589   3.382  12.671  0.3687  0.1329 -0.5952
 9427SOL    HW139740   3.648   3.438  12.621 -1.4861  4.1661  1.7659
 9427SOL    HW239741   3.650   3.310  12.689  0.4186  0.0186 -1.2302
 9428SOL     OW39742   3.850   4.143   2.197  0.1412  0.0940 -0.4551
 9428SOL    HW139743   3.837   4.056   2.237  1.1787  0.9769  1.8357
 9428SOL    HW239744   3.941   4.159   2.223 -0.9677  0.9961  2.9179
 9429SOL     OW39745   3.759   3.296  10.905  0.3887 -0.2935 -0.1285
 9429SOL    HW139746   3.839   3.300  10.852  0.3992  0.3906 -0.0700
 9429SOL    HW239747   3.786   3.246  10.982 -0.9566  1.7808  1.7017
 9430SOL     OW39748   2.743   3.806   9.838  0.4044 -0.6259 -0.2252
 9430SOL    HW139749   2.808   3.782   9.772  0.9520  0.2819 -0.0106
 9430SOL    HW239750   2.803   3.872   9.872  0.0932 -1.3601  1.7371
 9431SOL     OW39751   3.746   4.403   1.083  0.3550  0.1685 -0.1030
 9431SOL    HW139752   3.678   4.376   1.145 -0.7024  0.2643 -1.2324
 9431SOL    HW239753   3.745   4.497   1.100 -0.8543  0.5899 -2.4830
 9432SOL     OW39754   0.209   0.544   2.498  0.3465 -0.0637  0.7105
 9432SOL    HW139755   0.264   0.622   2.499  1.1019 -0.6178  3.1184
 9432SOL    HW239756   0.256   0.487   2.437 -1.5834 -1.5513  0.6235
 9433SOL     OW39757   0.539   0.126   5.298 -0.3143  0.7090  0.7109
 9433SOL    HW139758   0.531   0.082   5.213  1.0363  2.4436 -0.3118
 9433SOL    HW239759   0.579   0.053   5.345  1.0888  0.9363 -0.1226
 9434SOL     OW39760   3.903   2.793   4.337  0.0791 -1.0433  0.5513
 9434SOL    HW139761   3.936   2.883   4.347 -2.1125 -0.0229 -1.4693
 9434SOL    HW239762   3.878   2.773   4.427  1.6840 -2.0812  0.7683
 9435SOL     OW39763   3.188   4.271   0.939 -0.1414 -0.4484 -0.0009
 9435SOL    HW139764   3.107   4.231   0.909 -0.9161 -1.0035  2.8426
 9435SOL    HW239765   3.176   4.359   0.903  0.8036 -0.1488  0.4110
 9436SOL     OW39766   0.678   1.982   3.106 -0.0903 -0.1484  0.3186
 9436SOL    HW139767   0.641   1.908   3.057  2.8180  0.4893 -2.8695
 9436SOL    HW239768   0.609   1.980   3.172  0.4299  0.6750  0.8871
 9437SOL     OW39769   0.609   3.017   9.683  0.1789 -0.2591  0.2219
 9437SOL    HW139770   0.598   2.926   9.656 -2.0938 -0.3061  1.3640
 9437SOL    HW239771   0.529   3.045   9.727 -0.5531  0.7258 -1.7162
 9438SOL     OW39772   2.392   1.010  17.232  0.1426 -0.5246 -0.0421
 9438SOL    HW139773   2.344   1.087  17.262 -1.0964 -1.0285 -0.7261
 9438SOL    HW239774   2.465   1.026  17.291 -0.6130 -1.4750  1.1576
 9439SOL     OW39775   4.151   1.234   1.494 -0.3574  0.3440 -0.0493
 9439SOL    HW139776   4.241   1.208   1.476 -0.3526 -0.7133  1.4644
 9439SOL    HW239777   4.162   1.286   1.575  1.0421  0.0176 -0.0326
 9440SOL     OW39778   4.642   0.709   1.715 -0.3104 -0.3052 -0.0777
 9440SOL    HW139779   0.002   0.665   1.746 -1.3352 -0.7893  1.8005
 9440SOL    HW239780   4.613   0.652   1.643  2.3720 -0.6346 -0.8842
 9441SOL     OW39781   1.159   0.425   4.770  0.3778 -0.1048  0.1605
 9441SOL    HW139782   1.251   0.452   4.762 -0.2633  1.5584 -1.5957
 9441SOL    HW239783   1.164   0.336   4.735  1.6385  0.1183 -0.2335
 9442SOL     OW39784   2.243   0.044   1.422 -0.4139  0.4005  0.2229
 9442SOL    HW139785   2.337   0.061   1.428 -0.5124  0.4386  1.5550
 9442SOL    HW239786   2.215   0.135   1.420  0.3702  0.6777  2.5067
 9443SOL     OW39787   0.135   0.580   1.813  0.6045  0.4810  0.2178
 9443SOL    HW139788   0.190   0.632   1.754 -2.8929  0.9354 -2.7212
 9443SOL    HW239789   0.193   0.504   1.811 -0.6795 -0.5426  1.6360
 9444SOL     OW39790   2.136   3.062   0.295 -0.1397  0.3881  0.3295
 9444SOL    HW139791   2.166   2.982   0.252 -1.3026 -0.6955  1.5282
 9444SOL    HW239792   2.166   3.047   0.385 -0.4231  1.0539  0.5385
 9445SOL     OW39793   0.068   0.018  14.342 -0.5035 -0.1046 -0.1413
 9445SOL    HW139794   0.106   0.091  14.294 -0.6967  0.2783  0.2834
 9445SOL    HW239795   0.138   4.671  14.338 -1.1569 -0.7737 -0.6314
 9446SOL     OW39796   4.200   3.345   4.739  0.3047 -0.2619  0.0719
 9446SOL    HW139797   4.170   3.392   4.660  2.6258  1.0146 -0.0543
 9446SOL    HW239798   4.131   3.284   4.764  2.1703 -2.7387 -0.8551
 9447SOL     OW39799   1.226   4.562   3.144 -0.0586  0.2753 -0.1125
 9447SOL    HW139800   1.189   4.530   3.062 -2.2767 -0.6304  1.2285
 9447SOL    HW239801   1.167   4.526   3.210 -1.2609  0.7422 -0.9351
 9448SOL     OW39802   0.357   1.922   9.794 -0.0701 -0.1864  0.4937
 9448SOL    HW139803   0.431   1.861   9.799 -0.9869 -1.7289 -3.8891
 9448SOL    HW239804   0.378   1.979   9.868 -0.5500  0.1069  0.4007
 9449SOL     OW39805   1.063   2.472   6.441  0.3641  1.0008 -0.7348
 9449SOL    HW139806   1.010   2.475   6.521 -1.0369  2.9467 -1.7410
 9449SOL    HW239807   1.004   2.432   6.377  2.6249 -1.7869 -1.0904
 9450SOL     OW39808   3.807   3.430  14.351 -0.0124  0.0333 -0.2153
 9450SOL    HW139809   3.881   3.381  14.315 -0.2312 -0.8427  0.5098
 9450SOL    HW239810   3.853   3.491  14.408 -0.2658  0.4615 -0.4704
 9451SOL     OW39811   4.667   3.300   3.733 -0.4974 -0.0354 -0.1234
 9451SOL    HW139812   4.668   3.367   3.665 -0.1191 -1.8277 -1.9000
 9451SOL    HW239813   4.700   3.220   3.691  2.2142  0.0208  1.8350
 9452SOL     OW39814   4.132   3.778   8.508  0.2952 -0.3361 -0.3221
 9452SOL    HW139815   4.218   3.738   8.518  0.6499  0.8350  1.3775
 9452SOL    HW239816   4.110   3.726   8.431 -1.2006 -1.6269  0.9959
 9453SOL     OW39817   0.224   0.298  17.241  0.3266 -0.2487  0.6053
 9453SOL    HW139818   0.207   0.287  17.335 -1.6124 -1.7088  0.0822
 9453SOL    HW239819   0.229   0.205  17.219 -1.1228 -0.1056 -0.3160
 9454SOL     OW39820   1.671   2.834  16.570 -0.1955  0.3219 -0.2355
 9454SOL    HW139821   1.694   2.773  16.640  1.2601  3.1084  1.7440
 9454SOL    HW239822   1.622   2.776  16.512  0.1685  0.2897 -0.5060
 9455SOL     OW39823   0.510   3.266   3.374  0.1669 -0.5341 -0.1570
 9455SOL    HW139824   0.568   3.325   3.328 -2.0138  0.9282 -1.0015
 9455SOL    HW239825   0.462   3.327   3.430 -0.9370 -2.4834  1.0513
 9456SOL     OW39826   3.058   2.478   6.378 -0.1375 -0.2996  0.2933
 9456SOL    HW139827   3.105   2.404   6.418 -2.2914 -2.2125 -0.6748
 9456SOL    HW239828   2.995   2.427   6.326 -0.1408  0.4982 -0.4941
 9457SOL     OW39829   2.948   1.990   7.139 -0.4069 -0.3896  0.4149
 9457SOL    HW139830   2.931   2.064   7.081  2.0544 -2.6628 -3.1659
 9457SOL    HW239831   2.992   2.036   7.211 -2.3340  4.4948 -1.5674
 9458SOL     OW39832   0.221   1.830   9.573 -0.1180 -0.3747 -0.4075
 9458SOL    HW139833   0.249   1.853   9.661 -0.5737 -0.3247 -0.2752
 9458SOL    HW239834   0.131   1.800   9.587 -0.9829  2.3118 -0.3110
 9459SOL     OW39835   3.068   1.992  17.655  0.1415 -0.1471 -0.4633
 9459SOL    HW139836   3.098   2.081  17.633  2.7673 -0.4449  1.7907
 9459SOL    HW239837   2.982   2.012  17.620  0.9786 -0.5163 -2.7123
 9460SOL     OW39838   1.631   2.489   1.855  0.1789  0.3459 -1.0333
 9460SOL    HW139839   1.542   2.524   1.867  0.1110  0.2005 -1.1016
 9460SOL    HW239840   1.677   2.540   1.921  0.0357  0.0591 -0.7102
 9461SOL     OW39841   2.622   4.674   3.759  0.4498 -0.0558  0.7886
 9461SOL    HW139842   2.560   4.711   3.822  1.4018  2.5023  0.2335
 9461SOL    HW239843   2.567   4.608   3.717  0.5485  0.2651  0.1507
 9462SOL     OW39844   1.042   3.724   2.460  0.0907 -0.1884 -0.4873
 9462SOL    HW139845   0.987   3.650   2.435  0.1120 -0.5172  0.4497
 9462SOL    HW239846   1.125   3.711   2.413  0.8479 -0.4057  0.9200
 9463SOL     OW39847   0.666   4.537  12.487  0.0287  0.6904 -0.3198
 9463SOL    HW139848   0.593   4.490  12.448  1.6582 -0.4297 -2.0203
 9463SOL    HW239849   0.635   4.626  12.505  0.5294  0.8134 -0.0517
 9464SOL     OW39850   0.042   3.639   2.048 -0.4912  0.6877 -0.2462
 9464SOL    HW139851   4.704   3.607   1.979 -0.2945 -0.5450  0.1676
 9464SOL    HW239852   0.066   3.728   2.022 -0.8085  0.7240 -0.4154
 9465SOL     OW39853   4.375   4.599  17.142  0.4176 -0.6690  0.2300
 9465SOL    HW139854   4.349   4.690  17.154  0.1688 -0.4184 -2.2331
 9465SOL    HW239855   4.368   4.569  17.233  0.0831 -0.9802  0.1036
 9466SOL     OW39856   2.141   0.904   8.288 -0.2516 -0.5571 -0.2634
 9466SOL    HW139857   2.196   0.962   8.340  0.4413  0.7593 -2.4970
 9466SOL    HW239858   2.052   0.937   8.299 -0.6622 -2.1003  1.0423
 9467SOL     OW39859   0.181   0.556  14.631  0.5906  0.1817 -0.3351
 9467SOL    HW139860   0.225   0.505  14.563  1.7780  0.3576  0.3104
 9467SOL    HW239861   0.262   0.581  14.674  0.2954 -1.0848  0.9429
 9468SOL     OW39862   3.669   4.161   8.842 -0.0866  0.7432 -0.2379
 9468SOL    HW139863   3.715   4.199   8.767 -1.2969  2.0224 -0.3475
 9468SOL    HW239864   3.709   4.074   8.847  0.9075  1.1442 -1.2486
 9469SOL     OW39865   3.849   1.933   9.004 -0.2695 -0.2655  0.1456
 9469SOL    HW139866   3.807   1.873   9.065  1.0150  1.7767  3.0738
 9469SOL    HW239867   3.803   1.904   8.925 -1.4878  0.1461  0.7018
 9470SOL     OW39868   0.613   2.226   1.993 -0.2483  0.3171  0.0277
 9470SOL    HW139869   0.634   2.282   1.919 -0.8348 -0.3546 -0.6410
 9470SOL    HW239870   0.653   2.283   2.060  1.6003  1.0739 -1.7425
 9471SOL     OW39871   2.535   3.580  17.576 -0.3326 -0.5494 -0.8033
 9471SOL    HW139872   2.464   3.544  17.522 -1.1929  1.2857 -0.9100
 9471SOL    HW239873   2.547   3.515  17.645 -1.8517 -0.0255 -0.0235
 9472SOL     OW39874   0.738   0.704  12.702  0.1565  0.0648  0.1701
 9472SOL    HW139875   0.770   0.693  12.792 -0.0428 -0.0403  0.2270
 9472SOL    HW239876   0.808   0.665  12.649 -1.1395  0.0215 -1.5154
 9473SOL     OW39877   2.693   4.667  14.314 -0.0785 -0.0150 -0.5135
 9473SOL    HW139878   2.633   4.648  14.242 -0.2337 -0.5440 -0.2387
 9473SOL    HW239879   2.780   4.644  14.279  1.0976  0.6288  1.9822
 9474SOL     OW39880   1.978   3.083   6.150  0.1725 -0.1038 -0.6466
 9474SOL    HW139881   1.956   3.000   6.108 -2.1619  0.8547 -1.2994
 9474SOL    HW239882   1.952   3.154   6.091 -0.4242  1.2274  1.1952
 9475SOL     OW39883   0.238   3.597   6.736  0.3093  0.1603 -0.3588
 9475SOL    HW139884   0.284   3.679   6.715 -2.6054  1.5440 -1.3682
 9475SOL    HW239885   0.282   3.565   6.814 -0.5005  2.5272  1.0759
 9476SOL     OW39886   4.550   0.762  15.266 -0.5167  0.1909  0.1772
 9476SOL    HW139887   4.511   0.679  15.240 -1.2862  0.4266  0.5593
 9476SOL    HW239888   4.482   0.828  15.252 -0.3372  0.2877 -0.2316
 9477SOL     OW39889   1.777   2.880   5.988  0.3785 -0.3117 -0.3884
 9477SOL    HW139890   1.718   2.833   6.048 -1.2269  0.8638 -1.0476
 9477SOL    HW239891   1.864   2.848   6.009  0.2820 -0.0547  0.3848
 9478SOL     OW39892   1.530   1.029   1.415 -0.2542 -0.0269 -0.1365
 9478SOL    HW139893   1.471   1.103   1.400  0.3331  0.5391  0.3450
 9478SOL    HW239894   1.615   1.058   1.380  0.4626 -2.1963 -0.1644
 9479SOL     OW39895   2.815   3.697  13.723 -0.4707  0.5294  0.0121
 9479SOL    HW139896   2.752   3.653  13.780  1.2188 -3.1675 -0.9634
 9479SOL    HW239897   2.872   3.623  13.700 -1.3687 -0.5225  1.2189
 9480SOL     OW39898   4.033   0.554   3.583 -0.0973 -0.3664 -0.1275
 9480SOL    HW139899   4.090   0.568   3.507  0.5753 -1.6467  0.1506
 9480SOL    HW239900   3.967   0.499   3.541 -0.2032  0.3874 -0.9563
 9481SOL     OW39901   1.951   2.868   7.381  0.2188 -0.3231 -0.1704
 9481SOL    HW139902   2.008   2.935   7.419 -1.3678  1.0297 -0.1826
 9481SOL    HW239903   1.900   2.830   7.453  0.6874 -0.7536 -0.0607
 9482SOL     OW39904   3.580   3.492   0.108 -0.4768 -0.2783 -0.2063
 9482SOL    HW139905   3.502   3.485   0.164 -0.6688  1.5594 -0.2535
 9482SOL    HW239906   3.627   3.420   0.151  0.7129  0.5849 -0.0759
 9483SOL     OW39907   2.842   3.216  10.682 -0.4226  0.2422 -0.4390
 9483SOL    HW139908   2.812   3.217  10.773  1.0256  1.1460  0.0223
 9483SOL    HW239909   2.934   3.218  10.708 -0.8725 -0.7484  1.2078
 9484SOL     OW39910   3.248   4.453   8.673 -0.3788 -0.2318  0.2936
 9484SOL    HW139911   3.299   4.445   8.754 -0.2754 -1.0197  0.1463
 9484SOL    HW239912   3.295   4.520   8.624 -0.1975 -0.5714  0.0030
 9485SOL     OW39913   0.684   4.152   5.261  0.7789 -0.1292  0.3056
 9485SOL    HW139914   0.698   4.240   5.296 -1.9207 -0.4662  2.2243
 9485SOL    HW239915   0.773   4.135   5.230  1.3201  0.2536  1.6495
 9486SOL     OW39916   1.263   3.314   5.731  0.1014 -0.3731 -0.0256
 9486SOL    HW139917   1.256   3.228   5.772  0.3974  0.3265  1.4841
 9486SOL    HW239918   1.282   3.283   5.642  1.1472  0.5576 -0.1230
 9487SOL     OW39919   4.578   1.831   6.766 -0.1816  1.1212  0.4244
 9487SOL    HW139920   4.670   1.858   6.769  0.7477 -2.0150  0.4358
 9487SOL    HW239921   4.533   1.894   6.822 -1.3907  0.5660  0.0623
 9488SOL     OW39922   0.941   2.807   5.113  0.1956 -0.1116 -0.5170
 9488SOL    HW139923   0.979   2.882   5.159 -1.8223 -0.4313  1.7093
 9488SOL    HW239924   0.906   2.766   5.192 -1.7954 -0.6806 -1.6770
 9489SOL     OW39925   3.246   2.702  13.208  0.0620  0.1684  0.3900
 9489SOL    HW139926   3.279   2.790  13.189 -1.1496  0.4475 -0.4437
 9489SOL    HW239927   3.326   2.652  13.189  0.6458  1.2825 -0.1212
 9490SOL     OW39928   3.296   4.039   0.256 -0.4573 -0.2136 -0.3061
 9490SOL    HW139929   3.262   3.961   0.213  3.3801 -1.2985 -1.3792
 9490SOL    HW239930   3.391   4.035   0.243 -0.5838  2.7431 -2.1500
 9491SOL     OW39931   0.598   2.438   6.696 -0.5455  0.0011 -0.0828
 9491SOL    HW139932   0.651   2.502   6.648 -0.1097 -1.5409 -1.6767
 9491SOL    HW239933   0.663   2.368   6.698  0.4932  0.9733  0.1111
 9492SOL     OW39934   2.773   0.797   4.700  0.4801  0.1792  0.2324
 9492SOL    HW139935   2.781   0.875   4.645 -1.6783  0.0747 -0.2427
 9492SOL    HW239936   2.853   0.811   4.751  0.9237 -0.1957 -0.3753
 9493SOL     OW39937   3.130   2.493  12.888  0.8919  0.4269 -0.1216
 9493SOL    HW139938   3.152   2.400  12.894 -0.0626  0.1663 -0.5672
 9493SOL    HW239939   3.065   2.494  12.818  0.4947  0.5355  0.2484
 9494SOL     OW39940   0.743   0.526   3.713  0.5202  0.1010  0.5873
 9494SOL    HW139941   0.648   0.516   3.719  0.4199  0.1515 -0.9088
 9494SOL    HW239942   0.752   0.553   3.621 -0.4905  1.4257  0.8730
 9495SOL     OW39943   1.416   1.563  17.205  0.9315 -0.3264 -0.2235
 9495SOL    HW139944   1.387   1.639  17.155  0.2915 -1.1875 -1.1612
 9495SOL    HW239945   1.402   1.600  17.292  0.8333 -4.1535  1.3723
 9496SOL     OW39946   2.798   2.275  17.381  0.0033  0.0371 -0.0567
 9496SOL    HW139947   2.772   2.345  17.440  1.3613  2.6301 -2.5010
 9496SOL    HW239948   2.866   2.321  17.331  0.6621 -0.0453  0.7737
 9497SOL     OW39949   0.131   0.330  17.660 -0.5187 -0.5034 -0.1325
 9497SOL    HW139950   0.155   0.237  17.656 -1.5154 -0.5896 -3.7054
 9497SOL    HW239951   0.214   0.360   0.019  0.2697 -0.2636 -2.0974
 9498SOL     OW39952   0.846   0.349   3.867  0.7366 -0.1251 -0.2950
 9498SOL    HW139953   0.827   0.413   3.798 -2.3777 -1.0217 -0.2490
 9498SOL    HW239954   0.756   0.318   3.874  1.5964 -2.1586  1.4891
 9499SOL     OW39955   4.652   4.314  14.818 -0.4534  0.5007 -0.4169
 9499SOL    HW139956   0.027   4.329  14.827 -0.2284 -0.9236 -0.3232
 9499SOL    HW239957   4.647   4.232  14.769  2.7434  0.2820 -0.3701
 9500SOL     OW39958   1.591   3.039   8.271  0.8026 -0.1441  0.3396
 9500SOL    HW139959   1.651   3.056   8.199  0.7215  0.6200  0.4598
 9500SOL    HW239960   1.563   3.129   8.286 -1.7582 -0.6563 -1.4124
 9501SOL     OW39961   2.835   3.913   7.601 -0.3943 -0.5239 -0.2068
 9501SOL    HW139962   2.758   3.867   7.635 -0.1009 -1.2876 -0.5820
 9501SOL    HW239963   2.871   3.843   7.547 -1.1247 -1.0662  0.0064
 9502SOL     OW39964   2.448   2.191   5.409 -0.4453  0.0201  0.6126
 9502SOL    HW139965   2.422   2.150   5.327 -0.2599 -0.8342  0.9846
 9502SOL    HW239966   2.487   2.117   5.456  0.3206 -1.4542 -2.3445
 9503SOL     OW39967   3.497   4.703  16.727 -0.2078  0.1732  0.1176
 9503SOL    HW139968   3.463   4.664  16.646 -1.0800  0.2116  0.4679
 9503SOL    HW239969   3.417   4.702  16.779 -1.2469 -0.9417 -1.5053
 9504SOL     OW39970   2.865   1.180   3.942 -0.2091 -0.1280 -0.0939
 9504SOL    HW139971   2.916   1.231   3.878 -1.5593 -1.1065 -1.9500
 9504SOL    HW239972   2.873   1.090   3.912 -2.8666 -0.2949 -0.3221
 9505SOL     OW39973   4.500   3.921   8.366  0.1210  0.5199 -0.7688
 9505SOL    HW139974   4.543   3.977   8.430 -0.3251 -0.2968  0.2433
 9505SOL    HW239975   4.457   3.852   8.417 -0.9915  0.0755 -2.2994
 9506SOL     OW39976   3.954   0.307   9.686 -0.6499 -0.3257  0.0254
 9506SOL    HW139977   3.865   0.341   9.694 -0.3462  0.4005  0.3233
 9506SOL    HW239978   3.955   0.243   9.757 -0.8727 -0.7955 -0.3969
 9507SOL     OW39979   4.705   2.346  13.582 -0.3465  0.0575  0.4333
 9507SOL    HW139980   4.678   2.342  13.674 -3.3243 -3.0142 -0.5826
 9507SOL    HW239981   4.623   2.336  13.534  2.6115  0.7322 -4.7564
 9508SOL     OW39982   2.953   1.758   5.761  0.3381 -0.1262  0.6345
 9508SOL    HW139983   2.965   1.837   5.815 -0.5280 -1.4596  2.7651
 9508SOL    HW239984   2.956   1.684   5.822  0.5344 -1.3422 -0.8538
 9509SOL     OW39985   2.158   3.244   3.397 -0.1273 -0.1559  0.0793
 9509SOL    HW139986   2.092   3.256   3.466  0.4562  1.5693  0.3313
 9509SOL    HW239987   2.207   3.180   3.448  1.1697  0.3966 -0.4786
 9510SOL     OW39988   0.071   3.399   1.568 -0.0775 -0.6295  0.5244
 9510SOL    HW139989   0.141   3.403   1.634  1.4383  1.9441 -1.2618
 9510SOL    HW239990   0.106   3.334   1.507  1.5539  0.8127 -0.0847
 9511SOL     OW39991   2.767   4.070   3.537 -0.1000 -0.2599 -0.0435
 9511SOL    HW139992   2.788   4.119   3.616  1.5842 -2.1531  0.7015
 9511SOL    HW239993   2.828   4.120   3.482  0.6071  0.4476  1.3912
 9512SOL     OW39994   4.321   1.393   5.662  0.5216  0.4737  0.1257
 9512SOL    HW139995   4.356   1.344   5.737 -0.5082  0.1323  0.3783
 9512SOL    HW239996   4.227   1.399   5.677  0.6945  0.3684  1.2343
 9513SOL     OW39997   1.033   4.271   3.039  0.3614  0.4079 -0.1087
 9513SOL    HW139998   1.017   4.244   2.949  0.9669 -2.3446  0.6188
 9513SOL    HW239999   0.946   4.270   3.078  0.6042 -0.4976  0.4019
 9514SOL     OW40000   4.480   0.902   6.368  0.4990 -0.0667 -0.2495
 9514SOL    HW140001   4.459   0.959   6.442 -3.2345  0.0839 -1.4294
 9514SOL    HW240002   4.403   0.868   6.324  0.1394  1.3774 -0.7088
 9515SOL     OW40003   2.049   2.548  17.539 -0.4892 -0.2180  0.1783
 9515SOL    HW140004   2.106   2.568  17.614 -1.3234 -0.4670  0.8765
 9515SOL    HW240005   2.108   2.514  17.472 -1.6705  0.5886 -1.2831
 9516SOL     OW40006   2.988   2.029   1.453 -0.1417  0.1631 -0.4487
 9516SOL    HW140007   3.013   1.941   1.425 -0.9466  0.0222 -0.7419
 9516SOL    HW240008   3.048   2.042   1.526  1.3647 -0.4877 -1.5668
 9517SOL     OW40009   4.419   0.932   7.473 -0.2820 -0.1307  0.4930
 9517SOL    HW140010   4.507   0.960   7.502 -0.6337  0.2930  1.1712
 9517SOL    HW240011   4.439   0.875   7.399  0.1041  1.7388 -0.8315
 9518SOL     OW40012   0.517   3.296  11.417 -0.8541  0.2119  0.1799
 9518SOL    HW140013   0.472   3.215  11.394  0.5898 -0.4386 -0.3331
 9518SOL    HW240014   0.542   3.288  11.509 -1.7649  2.2277  0.6170
 9519SOL     OW40015   3.451   4.605  16.466  0.2357 -0.2583 -0.3435
 9519SOL    HW140016   3.455   4.662  16.389  1.1815 -0.4092 -0.4063
 9519SOL    HW240017   3.534   4.557  16.468 -0.2351 -1.0997 -0.7644
 9520SOL     OW40018   3.059   3.022   5.324 -0.0683 -0.9406  0.4328
 9520SOL    HW140019   3.011   2.988   5.248  2.4978  0.0777 -1.6636
 9520SOL    HW240020   3.003   3.099   5.333  0.3871 -0.2230 -2.7915
 9521SOL     OW40021   1.745   1.246   0.885 -0.1667 -0.1573 -0.0791
 9521SOL    HW140022   1.779   1.335   0.891 -4.3026  1.3199  1.5254
 9521SOL    HW240023   1.827   1.199   0.872  0.1856  0.6830 -0.9109
 9522SOL     OW40024   1.013   2.210   6.943 -0.1572  0.2457 -0.3502
 9522SOL    HW140025   1.000   2.157   7.022 -0.1061  0.5275 -0.1513
 9522SOL    HW240026   1.108   2.214   6.939 -0.0570 -0.9142  0.7455
 9523SOL     OW40027   2.884   3.192   8.600  0.2080 -0.1670  0.0138
 9523SOL    HW140028   2.904   3.104   8.631  0.2749 -0.4158 -0.7234
 9523SOL    HW240029   2.945   3.250   8.644  2.7972 -0.9849 -2.5155
 9524SOL     OW40030   2.242   2.181   4.718  0.6000  0.0564  0.1370
 9524SOL    HW140031   2.282   2.261   4.686 -1.2909  0.2371 -1.7527
 9524SOL    HW240032   2.171   2.230   4.759 -0.4731 -0.2362 -1.3865
 9525SOL     OW40033   1.192   1.585  12.518  0.1941  0.2816  0.2485
 9525SOL    HW140034   1.232   1.631  12.593 -1.3858  1.5848  0.3048
 9525SOL    HW240035   1.107   1.551  12.546 -0.3595  3.2862  2.2452
 9526SOL     OW40036   1.319   3.584  17.646  0.2643 -0.5356  0.2139
 9526SOL    HW140037   1.393   3.536   0.005 -0.0794 -2.8950 -2.1288
 9526SOL    HW240038   1.347   3.595  17.555  0.9428  0.1902  0.5096
 9527SOL     OW40039   3.494   4.270   3.911 -0.0885  0.1625 -0.4971
 9527SOL    HW140040   3.427   4.312   3.856  0.4702  0.8920 -0.6171
 9527SOL    HW240041   3.448   4.190   3.938  1.1801 -0.8353 -1.2777
 9528SOL     OW40042   0.483   0.269   8.576 -0.0964  0.5307 -0.0417
 9528SOL    HW140043   0.534   0.236   8.502  0.5308  1.8538 -0.2014
 9528SOL    HW240044   0.453   0.351   8.536  0.2825  0.2126 -0.9929
 9529SOL     OW40045   1.573   0.632   4.902  0.0795 -0.1102 -0.3980
 9529SOL    HW140046   1.594   0.644   4.994 -0.1822  1.7568 -0.5644
 9529SOL    HW240047   1.660   0.614   4.865  0.6944 -1.2863  1.6645
 9530SOL     OW40048   0.106   2.580   0.961  0.3274 -0.5048 -0.0315
 9530SOL    HW140049   0.111   2.492   0.997  0.6767 -0.4369  0.0843
 9530SOL    HW240050   0.012   2.582   0.944  0.1978 -1.4721  0.5852
 9531SOL     OW40051   4.544   3.003   7.661 -0.4527 -0.8109  0.3503
 9531SOL    HW140052   4.484   3.042   7.598 -0.3277 -2.0904 -0.5617
 9531SOL    HW240053   4.491   2.943   7.712  0.9852 -0.7215  1.9499
 9532SOL     OW40054   4.688   0.225  15.318  0.1294 -0.1519 -0.1181
 9532SOL    HW140055   4.693   0.315  15.286  0.9130 -1.0179 -2.4272
 9532SOL    HW240056   4.686   0.234  15.413  0.3485 -0.1333 -0.1133
 9533SOL     OW40057   4.301   1.868  10.987 -0.5460 -0.4325 -0.2224
 9533SOL    HW140058   4.263   1.826  10.909 -0.9245 -2.0416  0.8391
 9533SOL    HW240059   4.239   1.834  11.051 -2.1096  0.8508 -1.0527
 9534SOL     OW40060   2.981   1.964   1.922  0.4274 -0.2455  0.2927
 9534SOL    HW140061   2.965   1.957   2.016  1.7732 -0.8060  0.4704
 9534SOL    HW240062   2.889   1.948   1.899  0.9827 -2.9060 -0.1355
 9535SOL     OW40063   3.023   4.241   4.027  0.3598  0.4088  0.3706
 9535SOL    HW140064   3.055   4.327   4.001 -0.7014  0.6779 -0.0274
 9535SOL    HW240065   3.033   4.183   3.952 -2.2969  2.5753 -1.6826
 9536SOL     OW40066   2.971   3.106   9.342 -0.1917  0.1272  0.2038
 9536SOL    HW140067   3.058   3.074   9.317 -0.4852  0.3725 -1.1109
 9536SOL    HW240068   2.993   3.198   9.328 -0.9443 -0.2022 -2.9965
 9537SOL     OW40069   2.857   2.338   1.681 -0.3678 -0.7110  0.1607
 9537SOL    HW140070   2.929   2.399   1.668 -0.3690 -1.4267 -3.1441
 9537SOL    HW240071   2.868   2.254   1.637 -3.1378  0.5187 -2.8663
 9538SOL     OW40072   0.916   3.581  16.017 -0.3133 -0.3683  0.4375
 9538SOL    HW140073   0.933   3.671  16.042  1.7459 -0.4482 -0.6895
 9538SOL    HW240074   0.826   3.561  16.043 -0.9267 -0.5168 -1.7682
 9539SOL     OW40075   2.473   3.824  12.155 -0.0450 -0.1423 -0.0450
 9539SOL    HW140076   2.466   3.796  12.246  0.2199 -0.8664 -0.2440
 9539SOL    HW240077   2.389   3.800  12.114 -0.8318 -1.3888  2.2917
 9540SOL     OW40078   0.484   1.899   1.460  0.5182  0.3431  0.3278
 9540SOL    HW140079   0.473   1.993   1.450 -0.6959  0.2266  0.5492
 9540SOL    HW240080   0.404   1.854   1.432  1.5645 -1.7545  0.7213
 9541SOL     OW40081   2.367   3.105   9.317  0.0154  0.2886 -0.1017
 9541SOL    HW140082   2.441   3.150   9.359  0.0569 -1.4561  1.7207
 9541SOL    HW240083   2.305   3.114   9.390 -0.6340 -0.3193 -0.5839
 9542SOL     OW40084   1.974   3.164  12.217 -0.0418  0.2568 -0.2174
 9542SOL    HW140085   1.899   3.207  12.259  1.4573  3.2463 -0.6311
 9542SOL    HW240086   1.968   3.075  12.252  0.4914 -0.2687 -1.4615
 9543SOL     OW40087   1.565   3.665   3.217 -0.0284 -0.1945  0.6969
 9543SOL    HW140088   1.524   3.642   3.133 -1.1995  0.4112  1.0962
 9543SOL    HW240089   1.546   3.585   3.265  0.3036 -0.7994 -0.1913
 9544SOL     OW40090   2.849   3.613   8.395  0.3513  0.4530  0.2324
 9544SOL    HW140091   2.803   3.593   8.477 -2.0518  1.5506 -0.8602
 9544SOL    HW240092   2.898   3.686   8.433  1.5978  0.5900 -1.6560
 9545SOL     OW40093   2.521   4.621   1.236  0.5119 -0.0991  0.1700
 9545SOL    HW140094   2.464   4.685   1.193 -1.3592 -0.6682  1.7785
 9545SOL    HW240095   2.464   4.587   1.305 -1.0743 -0.7260 -1.4640
 9546SOL     OW40096   4.067   1.239  12.574 -0.2731 -0.1215 -0.2409
 9546SOL    HW140097   4.005   1.194  12.631  0.4716 -0.8432 -0.0009
 9546SOL    HW240098   4.152   1.203  12.600  0.7005  0.3009 -2.7979
 9547SOL     OW40099   1.332   4.287   1.585 -0.5658 -0.0013  0.0890
 9547SOL    HW140100   1.366   4.354   1.525 -0.7145  0.3315  0.3753
 9547SOL    HW240101   1.314   4.215   1.524  1.5354  0.3818 -0.9902
 9548SOL     OW40102   1.232   1.326   5.550 -0.7137 -0.2343  0.1361
 9548SOL    HW140103   1.190   1.357   5.630 -1.0085  0.6952 -0.3739
 9548SOL    HW240104   1.231   1.232   5.567  0.5158 -0.4861 -1.1383
 9549SOL     OW40105   3.073   3.712   6.961 -0.2254  0.0826 -0.1465
 9549SOL    HW140106   3.112   3.794   6.930  1.2112 -0.5534 -0.0509
 9549SOL    HW240107   3.136   3.656   6.916  1.3750  1.4542  0.3534
 9550SOL     OW40108   0.679   3.161   4.766 -0.0855  0.5704 -0.2771
 9550SOL    HW140109   0.622   3.121   4.831  0.0240 -0.5707 -0.8903
 9550SOL    HW240110   0.646   3.120   4.686 -1.5762 -2.2582  1.7705
 9551SOL     OW40111   0.145   3.754   4.490 -0.3479 -0.1955 -0.1174
 9551SOL    HW140112   0.152   3.840   4.448  1.4187  0.1822  0.9468
 9551SOL    HW240113   0.061   3.721   4.457 -0.2762 -0.4786 -0.0202
 9552SOL     OW40114   0.979   1.767  15.617 -0.1193 -0.3065 -0.2370
 9552SOL    HW140115   0.954   1.859  15.626 -2.3091 -0.7417 -1.7713
 9552SOL    HW240116   0.974   1.750  15.523  0.0714 -1.0706 -0.1075
 9553SOL     OW40117   0.039   2.593  17.170 -0.1820  0.0063  0.2878
 9553SOL    HW140118   0.132   2.604  17.153 -0.2013 -1.3938 -0.7184
 9553SOL    HW240119   0.008   2.682  17.150 -1.3536 -0.3828  0.3590
 9554SOL     OW40120   0.654   2.133   0.614  0.2823 -0.0476 -0.0809
 9554SOL    HW140121   0.664   2.046   0.653  2.2600 -0.0764 -0.6391
 9554SOL    HW240122   0.559   2.143   0.610  0.0382 -0.8376  3.6277
 9555SOL     OW40123   1.342   3.057  17.086  0.0101  0.3131  0.9019
 9555SOL    HW140124   1.259   3.099  17.063  0.0624 -0.0300  0.0960
 9555SOL    HW240125   1.381   3.060  16.999  0.2212  0.5482  1.0048
 9556SOL     OW40126   0.241   0.573   5.176 -0.6231  0.3290 -0.2121
 9556SOL    HW140127   0.250   0.661   5.212  2.0971 -0.0676  0.0686
 9556SOL    HW240128   0.330   0.539   5.184 -1.1595 -0.2894  3.1209
 9557SOL     OW40129   0.375   0.227  17.484  1.0090 -0.4813 -0.2569
 9557SOL    HW140130   0.374   0.167  17.410  2.0191 -1.2018  0.3008
 9557SOL    HW240131   0.429   0.303  17.462 -0.0687  0.3854  0.1192
 9558SOL     OW40132   0.104   1.490  16.846 -0.3794 -0.0729  0.3114
 9558SOL    HW140133   0.165   1.439  16.792  1.9991  1.8510  1.1665
 9558SOL    HW240134   0.016   1.471  16.812 -0.4168  1.1684 -0.2795
 9559SOL     OW40135   0.097   0.465  12.727  0.0013  0.3095  0.1418
 9559SOL    HW140136   0.026   0.408  12.754 -3.3241  5.4405  2.3111
 9559SOL    HW240137   0.086   0.458  12.632 -0.1835 -0.8511  0.2552
 9560SOL     OW40138   3.338   4.134   0.706 -0.4179  0.5614  0.5019
 9560SOL    HW140139   3.315   4.194   0.778  0.3244  1.7162 -0.2262
 9560SOL    HW240140   3.420   4.173   0.678 -0.5037 -1.3497 -2.3955
 9561SOL     OW40141   3.073   1.798   2.407 -0.0756  0.4429 -0.1783
 9561SOL    HW140142   3.073   1.725   2.468  0.0216  0.7916  0.2352
 9561SOL    HW240143   3.078   1.862   2.478  0.1851  1.9710 -1.5550
 9562SOL     OW40144   4.625   3.475   3.950  0.1811 -0.0740  0.1740
 9562SOL    HW140145   4.659   3.405   3.893 -1.8723  0.1738 -1.3241
 9562SOL    HW240146   4.689   3.547   3.949 -0.0612  0.1389  0.0371
 9563SOL     OW40147   0.057   1.545   8.702  0.8684  0.9344 -0.2633
 9563SOL    HW140148   0.074   1.592   8.784 -1.0513  0.2306  0.5492
 9563SOL    HW240149   4.686   1.570   8.678  1.0270  0.3251 -1.4754
 9564SOL     OW40150   2.046   2.399   7.800 -0.9992  0.0375  0.4011
 9564SOL    HW140151   1.979   2.445   7.749 -0.3869 -0.4761 -0.8640
 9564SOL    HW240152   1.995   2.330   7.843  0.2611  0.4845  2.6539
 9565SOL     OW40153   1.063   2.231  13.864  0.7600 -0.3694  0.0153
 9565SOL    HW140154   1.054   2.285  13.785  1.1090  0.4081  0.5074
 9565SOL    HW240155   1.141   2.180  13.843  0.3887 -0.6910 -0.5865
   4.71892   4.71892  17.67860
